<LesHouchesEvents version="3.0">
<header>
<!--
#*********************************************************************
#                                                                    *
#                        MadGraph5_aMC@NLO                           *
#                                                                    *
#                           Going Beyond                             *
#                                                                    *
#                   http://madgraph.hep.uiuc.edu                     *
#                   http://madgraph.phys.ucl.ac.be                   *
#                   http://amcatnlo.cern.ch                          *
#                                                                    *
#                     The MadGraph5_aMC@NLO team                     *
#                                                                    *
#....................................................................*
#                                                                    *
# This file contains all the information necessary to reproduce      *
# the events generated:                                              *
#                                                                    *
# 1. software version                                                *
# 2. proc_card          : code generation info including model       *
# 3. param_card         : model primary parameters in the LH format  *
# 4. run_card           : running parameters (collider and cuts)     *
# 5. pythia_card        : present only if pythia has been run        *
# 6. pgs_card           : present only if pgs has been run           *
# 7. delphes_cards      : present only if delphes has been run       *
#                                                                    *
#                                                                    *
#*********************************************************************
-->
<MGVersion>
#5.2.2.3
</MGVersion>
<MG5ProcCard>
#************************************************************
#*                     MadGraph5_aMC@NLO                    *
#*                                                          *
#*                *                       *                 *
#*                  *        * *        *                   *
#*                    * * * * 5 * * * *                     *
#*                  *        * *        *                   *
#*                *                       *                 *
#*                                                          *
#*                                                          *
#*         VERSION 2.2.3                 2015-02-10         *
#*                                                          *
#*    The MadGraph5_aMC@NLO Development Team - Find us at   *
#*    https://server06.fynu.ucl.ac.be/projects/madgraph     *
#*                                                          *
#************************************************************
#*                                                          *
#*               Command File for MadGraph5_aMC@NLO         *
#*                                                          *
#*     run as ./bin/mg5_aMC  filename                       *
#*                                                          *
#************************************************************
set group_subprocesses Auto
set ignore_six_quark_processes False
set loop_optimized_output True
set gauge unitary
set complex_mass_scheme False
import model sm
define p = g u c d s u~ c~ d~ s~
define j = g u c d s u~ c~ d~ s~
define l+ = e+ mu+
define l- = e- mu-
define vl = ve vm vt
define vl~ = ve~ vm~ vt~
import model Zprime_UFO
generate p p > zph, zph > j j
add process p p > zph, zph > b b~
output Dijet_signal
</MG5ProcCard>
<MGProcCard>
#*********************************************************************
#                        MadGraph/MadEvent                           *
#                   http://madgraph.hep.uiuc.edu                     *
#                                                                    *
#                          proc_card.dat                             *
#*********************************************************************
#                                                                    *
#            This Files is generated by MADGRAPH 5                   *
#                                                                    *
# WARNING: This Files is generated for MADEVENT (compatibility issue)*
#          This files is NOT a valid MG4 proc_card.dat               *
#          Running this in MG4 will NEVER reproduce the result of MG5*
#                                                                    *
#*********************************************************************
#*********************************************************************
# Process(es) requested : mg2 input                                  *
#*********************************************************************
# Begin PROCESS # This is TAG. Do not modify this line
p p > zph , zph > j j           #Process
# Be carefull the coupling are here in MG5 convention
          
end_coup           # End the couplings input

done               # this tells MG there are no more procs
# End PROCESS  # This is TAG. Do not modify this line
#*********************************************************************
# Model information                                                  *
#*********************************************************************
# Begin MODEL  # This is TAG. Do not modify this line
Zprime_UFO
# End   MODEL  # This is TAG. Do not modify this line
#*********************************************************************
# Start multiparticle definitions                                    *
#*********************************************************************
# Begin MULTIPARTICLES # This is TAG. Do not modify this line

# End  MULTIPARTICLES # This is TAG. Do not modify this line
</MGProcCard>
<MGRunCard>
#*********************************************************************
#                       MadGraph5_aMC@NLO                            *
#                                                                    *
#                     run_card.dat MadEvent                          *
#                                                                    *
#  This file is used to set the parameters of the run.               *
#                                                                    *
#  Some notation/conventions:                                        *
#                                                                    *
#   Lines starting with a '# ' are info or comments                  *
#                                                                    *
#   mind the format:   value    = variable     ! comment             *
#*********************************************************************
#
#*******************                                                 
# Running parameters
#*******************                                                 
#                                                                    
#*********************************************************************
# Tag name for the run (one word)                                    *
#*********************************************************************
  tag_1     = run_tag ! name of the run 
#*********************************************************************
# Run to generate the grid pack                                      *
#*********************************************************************
  .false.     = gridpack  !True = setting up the grid pack
#*********************************************************************
# Number of events and rnd seed                                      *
# Warning: Do not generate more than 1M events in a single run       *
# If you want to run Pythia, avoid more than 50k events in a run.    *
#*********************************************************************
  2000 = nevents ! Number of unweighted events requested 
 2451 = iseed   ! rnd seed (0=assigned automatically=default))
#*********************************************************************
# Collider type and energy                                           *
# lpp: 0=No PDF, 1=proton, -1=antiproton, 2=photon from proton,      *
#                                         3=photon from electron     *
#*********************************************************************
        1     = lpp1    ! beam 1 type 
        1     = lpp2    ! beam 2 type
     4000     = ebeam1  ! beam 1 total energy in GeV
     4000     = ebeam2  ! beam 2 total energy in GeV
#*********************************************************************
# Beam polarization from -100 (left-handed) to 100 (right-handed)    *
#*********************************************************************
        0     = polbeam1 ! beam polarization for beam 1
        0     = polbeam2 ! beam polarization for beam 2
#*********************************************************************
# PDF CHOICE: this automatically fixes also alpha_s and its evol.    *
#*********************************************************************
 'nn23lo1'    = pdlabel     ! PDF set                                     
 230000    = lhaid     ! if pdlabel=lhapdf, this is the lhapdf number
#*********************************************************************
# Renormalization and factorization scales                           *
#*********************************************************************
 F        = fixed_ren_scale  ! if .true. use fixed ren scale
 F        = fixed_fac_scale  ! if .true. use fixed fac scale
 91.1880  = scale            ! fixed ren scale
 91.1880  = dsqrt_q2fact1    ! fixed fact scale for pdf1
 91.1880  = dsqrt_q2fact2    ! fixed fact scale for pdf2
 1        = scalefact        ! scale factor for event-by-event scales
#*********************************************************************
# Matching - Warning! ickkw > 1 is still beta
#*********************************************************************
 0        = ickkw            ! 0 no matching, 1 MLM, 2 CKKW matching
 1        = highestmult      ! for ickkw=2, highest mult group
 1        = ktscheme         ! for ickkw=1, 1 Durham kT, 2 Pythia pTE
 1        = alpsfact         ! scale factor for QCD emission vx
 F        = chcluster        ! cluster only according to channel diag
 T        = pdfwgt           ! for ickkw=1, perform pdf reweighting
 5        = asrwgtflavor     ! highest quark flavor for a_s reweight
 T        = clusinfo         ! include clustering tag in output
 3.0      = lhe_version       ! Change the way clustering information pass to shower.        
#*********************************************************************
#**********************************************************
#
#**********************************************************
# Automatic ptj and mjj cuts if xqcut > 0
# (turn off for VBF and single top processes)
#**********************************************************
   T  = auto_ptj_mjj  ! Automatic setting of ptj and mjj
#**********************************************************
#                                                                    
#**********************************
# BW cutoff (M+/-bwcutoff*Gamma)
#**********************************
  15  = bwcutoff      ! (M+/-bwcutoff*Gamma)
#**********************************************************
# Apply pt/E/eta/dr/mij cuts on decay products or not
# (note that etmiss/ptll/ptheavy/ht/sorted cuts always apply)
#**********************************************************
   T  = cut_decays    ! Cut decay products 
#*************************************************************
# Number of helicities to sum per event (0 = all helicities)
# 0 gives more stable result, but longer run time (needed for
# long decay chains e.g.).
# Use >=2 if most helicities contribute, e.g. pure QCD.
#*************************************************************
   0  = nhel          ! Number of helicities used per event
#*******************                                                 
# Standard Cuts
#*******************                                                 
#                                                                    
#*********************************************************************
# Minimum and maximum pt's (for max, -1 means no cut)                *
#*********************************************************************
 20  = ptj       ! minimum pt for the jets 
  0  = ptb       ! minimum pt for the b 
 10  = pta       ! minimum pt for the photons 
 10  = ptl       ! minimum pt for the charged leptons 
  0  = misset    ! minimum missing Et (sum of neutrino's momenta)
  0  = ptheavy   ! minimum pt for one heavy final state
 1.0 = ptonium   ! minimum pt for the quarkonium states
 -1  = ptjmax    ! maximum pt for the jets
 -1  = ptbmax    ! maximum pt for the b
 -1  = ptamax    ! maximum pt for the photons
 -1  = ptlmax    ! maximum pt for the charged leptons
 -1  = missetmax ! maximum missing Et (sum of neutrino's momenta)
#*********************************************************************
# Minimum and maximum E's (in the center of mass frame)              *
#*********************************************************************
  0  = ej     ! minimum E for the jets 
  0  = eb     ! minimum E for the b 
  0  = ea     ! minimum E for the photons 
  0  = el     ! minimum E for the charged leptons 
 -1   = ejmax ! maximum E for the jets
 -1   = ebmax ! maximum E for the b
 -1   = eamax ! maximum E for the photons
 -1   = elmax ! maximum E for the charged leptons
#*********************************************************************
# Maximum and minimum absolute rapidity (for max, -1 means no cut)   *
#*********************************************************************
   5  = etaj    ! max rap for the jets 
  -1  = etab    ! max rap for the b
 2.5  = etaa    ! max rap for the photons 
 2.5  = etal    ! max rap for the charged leptons 
 0.6  = etaonium ! max rap for the quarkonium states
   0  = etajmin ! min rap for the jets
   0  = etabmin ! min rap for the b
   0  = etaamin ! min rap for the photons
   0  = etalmin ! main rap for the charged leptons
#*********************************************************************
# Minimum and maximum DeltaR distance                                *
#*********************************************************************
 0.4 = drjj    ! min distance between jets 
 0   = drbb    ! min distance between b's 
 0.4 = drll    ! min distance between leptons 
 0.4 = draa    ! min distance between gammas 
 0   = drbj    ! min distance between b and jet 
 0.4 = draj    ! min distance between gamma and jet 
 0.4 = drjl    ! min distance between jet and lepton 
 0   = drab    ! min distance between gamma and b 
 0   = drbl    ! min distance between b and lepton 
 0.4 = dral    ! min distance between gamma and lepton 
 -1  = drjjmax ! max distance between jets
 -1  = drbbmax ! max distance between b's
 -1  = drllmax ! max distance between leptons
 -1  = draamax ! max distance between gammas
 -1  = drbjmax ! max distance between b and jet
 -1  = drajmax ! max distance between gamma and jet
 -1  = drjlmax ! max distance between jet and lepton
 -1  = drabmax ! max distance between gamma and b
 -1  = drblmax ! max distance between b and lepton
 -1  = dralmax ! maxdistance between gamma and lepton
#*********************************************************************
# Minimum and maximum invariant mass for pairs                       *
# WARNING: for four lepton final state mmll cut require to have      *
#          different lepton masses for each flavor!                  *           
#*********************************************************************
 0   = mmjj    ! min invariant mass of a jet pair 
 0   = mmbb    ! min invariant mass of a b pair 
 0   = mmaa    ! min invariant mass of gamma gamma pair
 0   = mmll    ! min invariant mass of l+l- (same flavour) lepton pair
 -1  = mmjjmax ! max invariant mass of a jet pair
 -1  = mmbbmax ! max invariant mass of a b pair
 -1  = mmaamax ! max invariant mass of gamma gamma pair
 -1  = mmllmax ! max invariant mass of l+l- (same flavour) lepton pair
#*********************************************************************
# Minimum and maximum invariant mass for all letpons                 *
#*********************************************************************
 0   = mmnl    ! min invariant mass for all letpons (l+- and vl) 
 -1  = mmnlmax ! max invariant mass for all letpons (l+- and vl) 
#*********************************************************************
# Minimum and maximum pt for 4-momenta sum of leptons                *
#*********************************************************************
 0   = ptllmin  ! Minimum pt for 4-momenta sum of leptons(l and vl)
 -1  = ptllmax  ! Maximum pt for 4-momenta sum of leptons(l and vl)
#*********************************************************************
# Inclusive cuts                                                     *
#*********************************************************************
 0  = xptj ! minimum pt for at least one jet  
 0  = xptb ! minimum pt for at least one b 
 0  = xpta ! minimum pt for at least one photon 
 0  = xptl ! minimum pt for at least one charged lepton 
#*********************************************************************
# Control the pt's of the jets sorted by pt                          *
#*********************************************************************
 0   = ptj1min ! minimum pt for the leading jet in pt
 0   = ptj2min ! minimum pt for the second jet in pt
 0   = ptj3min ! minimum pt for the third jet in pt
 0   = ptj4min ! minimum pt for the fourth jet in pt
 -1  = ptj1max ! maximum pt for the leading jet in pt 
 -1  = ptj2max ! maximum pt for the second jet in pt
 -1  = ptj3max ! maximum pt for the third jet in pt
 -1  = ptj4max ! maximum pt for the fourth jet in pt
 0   = cutuse  ! reject event if fails any (0) / all (1) jet pt cuts
#*********************************************************************
# Control the pt's of leptons sorted by pt                           *
#*********************************************************************
 0   = ptl1min ! minimum pt for the leading lepton in pt
 0   = ptl2min ! minimum pt for the second lepton in pt
 0   = ptl3min ! minimum pt for the third lepton in pt
 0   = ptl4min ! minimum pt for the fourth lepton in pt
 -1  = ptl1max ! maximum pt for the leading lepton in pt 
 -1  = ptl2max ! maximum pt for the second lepton in pt
 -1  = ptl3max ! maximum pt for the third lepton in pt
 -1  = ptl4max ! maximum pt for the fourth lepton in pt
#*********************************************************************
# Control the Ht(k)=Sum of k leading jets                            *
#*********************************************************************
 0   = htjmin ! minimum jet HT=Sum(jet pt)
 -1  = htjmax ! maximum jet HT=Sum(jet pt)
 0   = ihtmin  !inclusive Ht for all partons (including b)
 -1  = ihtmax  !inclusive Ht for all partons (including b)
 0   = ht2min ! minimum Ht for the two leading jets
 0   = ht3min ! minimum Ht for the three leading jets
 0   = ht4min ! minimum Ht for the four leading jets
 -1  = ht2max ! maximum Ht for the two leading jets
 -1  = ht3max ! maximum Ht for the three leading jets
 -1  = ht4max ! maximum Ht for the four leading jets
#***********************************************************************
# Photon-isolation cuts, according to hep-ph/9801442                   *
# When ptgmin=0, all the other parameters are ignored                  *
# When ptgmin>0, pta and draj are not going to be used                 *
#***********************************************************************
   0 = ptgmin ! Min photon transverse momentum
 0.4 = R0gamma ! Radius of isolation code
 1.0 = xn ! n parameter of eq.(3.4) in hep-ph/9801442
 1.0 = epsgamma ! epsilon_gamma parameter of eq.(3.4) in hep-ph/9801442
 .true. = isoEM ! isolate photons from EM energy (photons and leptons)
#*********************************************************************
# WBF cuts                                                           *
#*********************************************************************
 0   = xetamin ! minimum rapidity for two jets in the WBF case  
 0   = deltaeta ! minimum rapidity for two jets in the WBF case 
#*********************************************************************
# KT DURHAM CUT                                                      *
#*********************************************************************
 -1    =  ktdurham        
 0.4  =  dparameter 
#*********************************************************************
# maximal pdg code for quark to be considered as a light jet         *
# (otherwise b cuts are applied)                                     *
#*********************************************************************
 4 = maxjetflavor    ! Maximum jet pdg code
#*********************************************************************
# Jet measure cuts                                                   *
#*********************************************************************
 0   = xqcut   ! minimum kt jet measure between partons
#*********************************************************************
#
#*********************************************************************
# Store info for systematics studies                                 *
# WARNING: If use_syst is T, matched Pythia output is                *
#          meaningful ONLY if plotted taking matchscale              *
#          reweighting into account!                                 *
#*********************************************************************
   F  = use_syst      ! Enable systematics studies
#
#**************************************
# Parameter of the systematics study
#  will be used by SysCalc (if installed)
#**************************************                                  
#
0.5 1 2 = sys_scalefact  # factorization/renormalization scale factor
0.5 1 2 = sys_alpsfact  # \alpha_s emission scale factors
30 50 = sys_matchscale # variation of merging scale
# PDF sets and number of members (0 or none for all members).
CT10nlo.LHgrid = sys_pdf # matching scales
# MSTW2008nlo68cl.LHgrid 1  = sys_pdf
</MGRunCard>
<slha>
######################################################################
## PARAM_CARD AUTOMATICALY GENERATED BY MG5 FOLLOWING UFO MODEL   ####
######################################################################
##                                                                  ##
##  Width set on Auto will be computed following the information    ##
##        present in the decay.py files of the model.               ##
##        See  arXiv:1402.1178 for more details.                    ##
##                                                                  ##
######################################################################

###################################
## INFORMATION FOR CKMBLOCK
###################################
Block ckmblock 
    1 2.277360e-01 # cabi 

###################################
## INFORMATION FOR FRBLOCK
###################################
Block frblock 
    1 1.400000e+00 # gz 

###################################
## INFORMATION FOR MASS
###################################
Block mass 
    1 5.040000e-03 # MD 
    2 2.550000e-03 # MU 
    3 1.010000e-01 # MS 
    4 1.270000e+00 # MC 
    5 4.700000e+00 # MB 
    6 1.720000e+02 # MT 
   11 5.110000e-04 # Me 
   13 1.056600e-01 # MM 
   15 1.777000e+00 # MTA 
   23 9.118760e+01 # MZ 
   25 1.200000e+02 # MH 
  10030 6.000000e+02 # MZph 
  10031 3.000000e+02 # MZpl 
## Dependent parameters, given by model restrictions.
## Those values should be edited following the 
## analytical expression. MG5 ignores those values 
## but they are important for interfacing the output of MG5
## to external program such as Pythia.
  12 0.000000 # ve : 0.0 
  14 0.000000 # vm : 0.0 
  16 0.000000 # vt : 0.0 
  21 0.000000 # g : 0.0 
  22 0.000000 # a : 0.0 
  24 79.824360 # w+ : cmath.sqrt(MZ__exp__2/2. + cmath.sqrt(MZ__exp__4/4. - (aEW*cmath.pi*MZ__exp__2)/(Gf*sqrt__2))) 

###################################
## INFORMATION FOR SMINPUTS
###################################
Block sminputs 
    1 1.279000e+02 # aEWM1 
    2 1.166370e-05 # Gf 
    3 1.184000e-01 # aS 

###################################
## INFORMATION FOR YUKAWA
###################################
Block yukawa 
    1 5.040000e-03 # ymdo 
    2 2.550000e-03 # ymup 
    3 1.010000e-01 # yms 
    4 1.270000e+00 # ymc 
    5 4.700000e+00 # ymb 
    6 1.720000e+02 # ymt 
   11 5.110000e-04 # yme 
   13 1.056600e-01 # ymm 
   15 1.777000e+00 # ymtau 

###################################
## INFORMATION FOR DECAY
###################################
DECAY   6 1.508336e+00 # WT 
DECAY  23 2.495200e+00 # WZ 
DECAY  24 2.085000e+00 # WW 
DECAY  25 5.753088e-03 # WH 
## Dependent parameters, given by model restrictions.
## Those values should be edited following the 
## analytical expression. MG5 ignores those values 
## but they are important for interfacing the output of MG5
## to external program such as Pythia.
DECAY  1 0.000000 # d : 0.0 
DECAY  2 0.000000 # u : 0.0 
DECAY  3 0.000000 # s : 0.0 
DECAY  4 0.000000 # c : 0.0 
DECAY  5 0.000000 # b : 0.0 
DECAY  11 0.000000 # e- : 0.0 
DECAY  12 0.000000 # ve : 0.0 
DECAY  13 0.000000 # mu- : 0.0 
DECAY  14 0.000000 # vm : 0.0 
DECAY  15 0.000000 # ta- : 0.0 
DECAY  16 0.000000 # vt : 0.0 
DECAY  21 0.000000 # g : 0.0 
DECAY  22 0.000000 # a : 0.0 
DECAY  10030 0.308725 # zph : (gz__exp__2*MZph*(5 + cmath.sqrt(1 - (4*MT__exp__2)/MZph__exp__2)))/(144.*cmath.pi) 
DECAY  10031 0.132629 # zpl : (5*gz__exp__2*MZpl)/(144.*cmath.pi) 
#===========================================================
# QUANTUM NUMBERS OF NEW STATE(S) (NON SM PDG CODE)
#===========================================================

Block QNUMBERS 10030  # zph 
        1 0  # 3 times electric charge
        2 3  # number of spin states (2S+1)
        3 1  # colour rep (1: singlet, 3: triplet, 8: octet)
        4 0  # Particle/Antiparticle distinction (0=own anti)
Block QNUMBERS 10031  # zpl 
        1 0  # 3 times electric charge
        2 3  # number of spin states (2S+1)
        3 1  # colour rep (1: singlet, 3: triplet, 8: octet)
        4 0  # Particle/Antiparticle distinction (0=own anti)
</slha>
## END BANNER##
<MGGenerationInfo>
#  Number of Events        :         4119
#  Integrated weight (pb)  :  0.37565E+02
#  Max wgt                 :  0.12190E-01
#  Average wgt             :  0.91199E-02
</MGGenerationInfo>
</header>
<init>
     2212     2212  0.40000000000E+04  0.40000000000E+04 0 0  247000  247000 2   1
  0.37563740724E+02  0.84040182661E-01  0.12190200000E-01   0
</init>
<event>
 5   0  0.1166419E-01  0.5863581E+03  0.7818609E-02  0.9934120E-01
        2   -1    0    0  501    0  0.00000000000E+00  0.00000000000E+00  0.11652193991E+03  0.11652193994E+03  0.25500000920E-02 0.  1.
       -2   -1    0    0    0  501  0.00000000000E+00  0.00000000000E+00 -0.73766322784E+03  0.73766322785E+03  0.25500000920E-02 0. -1.
    10030    2    1    2    0    0  0.00000000000E+00  0.00000000000E+00 -0.62114128793E+03  0.85418516779E+03  0.58635808283E+03 0.  0.
        1    1    3    3  502    0 -0.80566385385E+02 -0.18567894963E+03 -0.15913199060E+01  0.20241083744E+03  0.50400001928E-02 0.  1.
       -1    1    3    3    0  502  0.80566385385E+02  0.18567894963E+03 -0.61954996802E+03  0.65177433034E+03  0.50400001928E-02 0. -1.
</event>
<event>
 5   0  0.4695625E-02  0.6019251E+03  0.7818609E-02  0.9901420E-01
        3   -1    0    0  501    0  0.00000000000E+00  0.00000000000E+00  0.73147835260E+03  0.73147835958E+03  0.10100000352E+00 0. -1.
       -3   -1    0    0    0  501  0.00000000000E+00  0.00000000000E+00 -0.12382926063E+03  0.12382930182E+03  0.10100000352E+00 0.  1.
    10030    2    1    2    0    0  0.00000000000E+00  0.00000000000E+00  0.60764909198E+03  0.85530766139E+03  0.60192505900E+03 0.  0.
        5    1    3    3  502    0  0.23989479416E+03  0.17961731851E+03  0.34259499699E+03  0.45519810559E+03  0.46999998093E+01 0.  1.
       -5    1    3    3    0  502 -0.23989479416E+03 -0.17961731851E+03  0.26505409499E+03  0.40010955580E+03  0.46999998093E+01 0. -1.
</event>
<event>
 5   0  0.1166419E-01  0.5534038E+03  0.7818609E-02  0.1000709E+00
        2   -1    0    0  501    0  0.00000000000E+00  0.00000000000E+00  0.22001494365E+04  0.22001494365E+04  0.25500000920E-02 0.  1.
       -2   -1    0    0    0  501  0.00000000000E+00  0.00000000000E+00 -0.34799432796E+02  0.34799432890E+02  0.25500000920E-02 0. -1.
    10030    2    1    2    0    0  0.00000000000E+00  0.00000000000E+00  0.21653500037E+04  0.22349488694E+04  0.55340384012E+03 0.  0.
        1    1    3    3  502    0 -0.23906090456E+03  0.12972481292E+03  0.12880188436E+04  0.13164236342E+04  0.50400001928E-02 0. -1.
       -1    1    3    3    0  502  0.23906090456E+03 -0.12972481292E+03  0.87733116009E+03  0.91852523518E+03  0.50400001928E-02 0.  1.
</event>
<event>
 5   0  0.1175861E-01  0.6618324E+03  0.7818609E-02  0.9784826E-01
       -2   -1    0    0    0  501  0.00000000000E+00  0.00000000000E+00  0.10256111400E+03  0.10256111403E+03  0.25500000920E-02 0. -1.
        2   -1    0    0  501    0  0.00000000000E+00  0.00000000000E+00 -0.10677101048E+04  0.10677101048E+04  0.25500000920E-02 0.  1.
    10030    2    1    2    0    0  0.00000000000E+00  0.00000000000E+00 -0.96514899075E+03  0.11702712188E+04  0.66183241923E+03 0.  0.
        3    1    3    3  502    0 -0.16956594817E+03  0.23773645873E+03 -0.20730780287E+03  0.35811697798E+03  0.10100000352E+00 0. -1.
       -3    1    3    3    0  502  0.16956594817E+03 -0.23773645873E+03 -0.75784118789E+03  0.81215424080E+03  0.10100000352E+00 0.  1.
</event>
<event>
 5   0  0.1166419E-01  0.5976090E+03  0.7818609E-02  0.9910379E-01
       -2   -1    0    0    0  501  0.00000000000E+00  0.00000000000E+00  0.76762842470E+02  0.76762842513E+02  0.25500000920E-02 0. -1.
        2   -1    0    0  501    0  0.00000000000E+00  0.00000000000E+00 -0.11631166504E+04  0.11631166504E+04  0.25500000920E-02 0.  1.
    10030    2    1    2    0    0  0.00000000000E+00  0.00000000000E+00 -0.10863538079E+04  0.12398794929E+04  0.59760903687E+03 0.  0.
        1    1    3    3  502    0 -0.19128389316E+03  0.15089677670E+03 -0.90208046654E+03  0.93440276816E+03  0.50400001928E-02 0.  1.
       -1    1    3    3    0  502  0.19128389316E+03 -0.15089677670E+03 -0.18427334141E+03  0.30547672478E+03  0.50400001928E-02 0. -1.
</event>
<event>
 5   0  0.1175861E-01  0.6016394E+03  0.7818609E-02  0.9902011E-01
       -2   -1    0    0    0  501  0.00000000000E+00  0.00000000000E+00  0.23637551424E+03  0.23637551425E+03  0.25500000920E-02 0. -1.
        2   -1    0    0  501    0  0.00000000000E+00  0.00000000000E+00 -0.38283360678E+03  0.38283360679E+03  0.25500000920E-02 0.  1.
    10030    2    1    2    0    0  0.00000000000E+00  0.00000000000E+00 -0.14645809254E+03  0.61920912104E+03  0.60163939591E+03 0.  0.
        3    1    3    3  502    0  0.15790266260E+03  0.27169947845E+02 -0.33526387538E+03  0.37158220256E+03  0.10100000352E+00 0.  1.
       -3    1    3    3    0  502 -0.15790266260E+03 -0.27169947845E+02  0.18880578284E+03  0.24762691848E+03  0.10100000352E+00 0. -1.
</event>
<event>
 5   0  0.7263385E-02  0.6060451E+03  0.7818609E-02  0.9892943E-01
       -1   -1    0    0    0  501  0.00000000000E+00  0.00000000000E+00  0.20041812009E+03  0.20041812015E+03  0.50400001928E-02 0. -1.
        1   -1    0    0  501    0  0.00000000000E+00  0.00000000000E+00 -0.45815558210E+03  0.45815558212E+03  0.50400001928E-02 0.  1.
    10030    2    1    2    0    0  0.00000000000E+00  0.00000000000E+00 -0.25773746201E+03  0.65857370227E+03  0.60604514849E+03 0.  0.
        1    1    3    3  502    0 -0.58747131050E+01  0.23343217091E+03  0.80996159938E+02  0.24715474630E+03  0.50400001928E-02 0. -1.
       -1    1    3    3    0  502  0.58747131050E+01 -0.23343217091E+03 -0.33873362195E+03  0.41141895597E+03  0.50400001928E-02 0.  1.
</event>
<event>
 5   0  0.7424930E-02  0.6332920E+03  0.7818609E-02  0.9838646E-01
        1   -1    0    0  501    0  0.00000000000E+00  0.00000000000E+00  0.61187590100E+03  0.61187590102E+03  0.50400001928E-02 0. -1.
       -1   -1    0    0    0  501  0.00000000000E+00  0.00000000000E+00 -0.16386442045E+03  0.16386442052E+03  0.50400001928E-02 0.  1.
    10030    2    1    2    0    0  0.00000000000E+00  0.00000000000E+00  0.44801148055E+03  0.77574032154E+03  0.63329200197E+03 0.  0.
        3    1    3    3  502    0 -0.30569374294E+03 -0.75395200384E+02  0.18280027647E+03  0.36407286632E+03  0.10100000352E+00 0.  1.
       -3    1    3    3    0  502  0.30569374294E+03  0.75395200384E+02  0.26521120408E+03  0.41166745522E+03  0.10100000352E+00 0. -1.
</event>
<event>
 5   0  0.1166419E-01  0.5893152E+03  0.7818609E-02  0.9927825E-01
       -2   -1    0    0    0  501  0.00000000000E+00  0.00000000000E+00  0.16319734376E+04  0.16319734376E+04  0.25500000920E-02 0. -1.
        2   -1    0    0  501    0  0.00000000000E+00  0.00000000000E+00 -0.53201299951E+02  0.53201300012E+02  0.25500000920E-02 0.  1.
    10030    2    1    2    0    0  0.00000000000E+00  0.00000000000E+00  0.15787721376E+04  0.16851747376E+04  0.58931522437E+03 0.  0.
        1    1    3    3  502    0 -0.26302461554E+03  0.14089278110E+02  0.11670482877E+04  0.11964038457E+04  0.50400001928E-02 0. -1.
       -1    1    3    3    0  502  0.26302461554E+03 -0.14089278110E+02  0.41172384989E+03  0.48877089186E+03  0.50400001928E-02 0.  1.
</event>
<event>
 5   0  0.4695625E-02  0.5912037E+03  0.7818609E-02  0.9923826E-01
        4   -1    0    0  501    0  0.00000000000E+00  0.00000000000E+00  0.69303073134E+03  0.69303189500E+03  0.12699999809E+01 0. -1.
       -4   -1    0    0    0  501  0.00000000000E+00  0.00000000000E+00 -0.12608005857E+03  0.12608645474E+03  0.12699999809E+01 0.  1.
    10030    2    1    2    0    0  0.00000000000E+00  0.00000000000E+00  0.56695067277E+03  0.81911834974E+03  0.59120369207E+03 0.  0.
        3    1    3    3  502    0  0.17527047194E+03  0.42126947985E+01  0.61322356592E+03  0.63779356937E+03  0.10100000352E+00 0. -1.
       -3    1    3    3    0  502 -0.17527047194E+03 -0.42126947985E+01 -0.46272893150E+02  0.18132478036E+03  0.10100000352E+00 0.  1.
</event>
<event>
 5   0  0.1166419E-01  0.6251335E+03  0.7818609E-02  0.9854592E-01
        2   -1    0    0  501    0  0.00000000000E+00  0.00000000000E+00  0.25757014506E+04  0.25757014506E+04  0.25500000920E-02 0.  1.
       -2   -1    0    0    0  501  0.00000000000E+00  0.00000000000E+00 -0.37930632205E+02  0.37930632291E+02  0.25500000920E-02 0. -1.
    10030    2    1    2    0    0  0.00000000000E+00  0.00000000000E+00  0.25377708184E+04  0.26136320829E+04  0.62513353616E+03 0.  0.
        1    1    3    3  502    0 -0.29957342303E+03  0.64408429639E+02  0.10109765443E+04  0.10563930399E+04  0.50400001928E-02 0.  1.
       -1    1    3    3    0  502  0.29957342303E+03 -0.64408429639E+02  0.15267942741E+04  0.15572390430E+04  0.50400001928E-02 0. -1.
</event>
<event>
 5   0  0.4695625E-02  0.5729145E+03  0.7818609E-02  0.9963250E-01
        4   -1    0    0  501    0  0.00000000000E+00  0.00000000000E+00  0.14610779409E+03  0.14611331355E+03  0.12699999809E+01 0. -1.
       -4   -1    0    0    0  501  0.00000000000E+00  0.00000000000E+00 -0.56160792217E+03  0.56160935814E+03  0.12699999809E+01 0.  1.
    10030    2    1    2    0    0  0.00000000000E+00  0.00000000000E+00 -0.41550012808E+03  0.70772267168E+03  0.57291449936E+03 0.  0.
        4    1    3    3  502    0  0.23192004479E+03 -0.14620955918E+03 -0.10519763562E+03  0.29365336336E+03  0.12699999809E+01 0. -1.
       -4    1    3    3    0  502 -0.23192004479E+03  0.14620955918E+03 -0.31030249246E+03  0.41406930833E+03  0.12699999809E+01 0.  1.
</event>
<event>
 5   0  0.1206238E-01  0.5884745E+03  0.7818609E-02  0.9929611E-01
       -2   -1    0    0    0  501  0.00000000000E+00  0.00000000000E+00  0.63732640557E+02  0.63732640608E+02  0.25500000920E-02 0. -1.
        2   -1    0    0  501    0  0.00000000000E+00  0.00000000000E+00 -0.13584178124E+04  0.13584178124E+04  0.25500000920E-02 0.  1.
    10030    2    1    2    0    0  0.00000000000E+00  0.00000000000E+00 -0.12946851719E+04  0.14221504530E+04  0.58847448272E+03 0.  0.
        5    1    3    3  502    0 -0.87939883612E+02 -0.18715607492E+03 -0.14161284430E+03  0.25067330767E+03  0.46999998093E+01 0. -1.
       -5    1    3    3    0  502  0.87939883612E+02  0.18715607492E+03 -0.11530723276E+04  0.11714771454E+04  0.46999998093E+01 0.  1.
</event>
<event>
 5   0  0.7221069E-02  0.6667971E+03  0.7818609E-02  0.9775761E-01
       -1   -1    0    0    0  501  0.00000000000E+00  0.00000000000E+00  0.62661423864E+02  0.62661424067E+02  0.50400001928E-02 0. -1.
        1   -1    0    0  501    0  0.00000000000E+00  0.00000000000E+00 -0.17738919021E+04  0.17738919021E+04  0.50400001928E-02 0.  1.
    10030    2    1    2    0    0  0.00000000000E+00  0.00000000000E+00 -0.17112304783E+04  0.18365533262E+04  0.66679709826E+03 0.  0.
        5    1    3    3  502    0 -0.69570112784E+02 -0.31613543522E+03 -0.10751114807E+04  0.11227949055E+04  0.46999998093E+01 0.  1.
       -5    1    3    3    0  502  0.69570112784E+02  0.31613543522E+03 -0.63611899757E+03  0.71375842066E+03  0.46999998093E+01 0. -1.
</event>
<event>
 5   0  0.4695625E-02  0.6395307E+03  0.7818609E-02  0.9826625E-01
       -3   -1    0    0    0  501  0.00000000000E+00  0.00000000000E+00  0.33692210406E+03  0.33692211920E+03  0.10100000352E+00 0. -1.
        3   -1    0    0  501    0  0.00000000000E+00  0.00000000000E+00 -0.30348219347E+03  0.30348221028E+03  0.10100000352E+00 0.  1.
    10030    2    1    2    0    0  0.00000000000E+00  0.00000000000E+00  0.33439910586E+02  0.64040432948E+03  0.63953066978E+03 0.  0.
        4    1    3    3  502    0  0.46708739818E+02  0.17456744626E+03 -0.24744481781E+03  0.30640830672E+03  0.12699999809E+01 0.  1.
       -4    1    3    3    0  502 -0.46708739818E+02 -0.17456744626E+03  0.28088472840E+03  0.33399602275E+03  0.12699999809E+01 0. -1.
</event>
<event>
 5   0  0.7263385E-02  0.6021420E+03  0.7818609E-02  0.9900972E-01
       -1   -1    0    0    0  501  0.00000000000E+00  0.00000000000E+00  0.11517233513E+03  0.11517233524E+03  0.50400001928E-02 0.  1.
        1   -1    0    0  501    0  0.00000000000E+00  0.00000000000E+00 -0.78702720796E+03  0.78702720797E+03  0.50400001928E-02 0. -1.
    10030    2    1    2    0    0  0.00000000000E+00  0.00000000000E+00 -0.67185487283E+03  0.90219954321E+03  0.60214204772E+03 0.  0.
        1    1    3    3  502    0 -0.21016681901E+03  0.21540730737E+03 -0.32309415363E+03  0.44154301264E+03  0.50400001928E-02 0. -1.
       -1    1    3    3    0  502  0.21016681901E+03 -0.21540730737E+03 -0.34876071920E+03  0.46065653057E+03  0.50400001928E-02 0.  1.
</event>
<event>
 5   0  0.7424930E-02  0.5384510E+03  0.7818609E-02  0.1004203E+00
       -1   -1    0    0    0  501  0.00000000000E+00  0.00000000000E+00  0.37007729079E+02  0.37007729422E+02  0.50400001928E-02 0. -1.
        1   -1    0    0  501    0  0.00000000000E+00  0.00000000000E+00 -0.19585735902E+04  0.19585735902E+04  0.50400001928E-02 0.  1.
    10030    2    1    2    0    0  0.00000000000E+00  0.00000000000E+00 -0.19215658611E+04  0.19955813196E+04  0.53845096770E+03 0.  0.
        3    1    3    3  502    0  0.16735725999E+03 -0.20052947745E+03 -0.71883540526E+03  0.76481688910E+03  0.10100000352E+00 0.  1.
       -3    1    3    3    0  502 -0.16735725999E+03  0.20052947745E+03 -0.12027304558E+04  0.12307644305E+04  0.10100000352E+00 0. -1.
</event>
<event>
 5   0  0.7424930E-02  0.5990935E+03  0.7818609E-02  0.9907288E-01
        1   -1    0    0  501    0  0.00000000000E+00  0.00000000000E+00  0.12714350048E+04  0.12714350048E+04  0.50400001928E-02 0. -1.
       -1   -1    0    0    0  501  0.00000000000E+00  0.00000000000E+00 -0.70572433054E+02  0.70572433234E+02  0.50400001928E-02 0.  1.
    10030    2    1    2    0    0  0.00000000000E+00  0.00000000000E+00  0.12008625718E+04  0.13420074381E+04  0.59909352154E+03 0.  0.
        3    1    3    3  502    0  0.14602941593E+03 -0.21692994121E+03  0.92770340588E+03  0.96385518061E+03  0.10100000352E+00 0.  1.
       -3    1    3    3    0  502 -0.14602941593E+03  0.21692994121E+03  0.27315916590E+03  0.37815225746E+03  0.10100000352E+00 0. -1.
</event>
<event>
 5   0  0.1166419E-01  0.7556256E+03  0.7818609E-02  0.9626566E-01
        2   -1    0    0  501    0  0.00000000000E+00  0.00000000000E+00  0.21513273364E+04  0.21513273364E+04  0.25500000920E-02 0.  1.
       -2   -1    0    0    0  501  0.00000000000E+00  0.00000000000E+00 -0.66350896492E+02  0.66350896541E+02  0.25500000920E-02 0. -1.
    10030    2    1    2    0    0  0.00000000000E+00  0.00000000000E+00  0.20849764399E+04  0.22176782329E+04  0.75562556197E+03 0.  0.
        1    1    3    3  502    0  0.22582376492E+02 -0.24865136553E+03  0.21027711338E+03  0.32642599428E+03  0.50400001928E-02 0. -1.
       -1    1    3    3    0  502 -0.22582376492E+02  0.24865136553E+03  0.18746993265E+04  0.18912522387E+04  0.50400001928E-02 0.  1.
</event>
<event>
 5   0  0.7266519E-02  0.5996680E+03  0.7818609E-02  0.9906095E-01
        1   -1    0    0  501    0  0.00000000000E+00  0.00000000000E+00  0.15501999440E+04  0.15501999440E+04  0.50400001928E-02 0.  1.
       -1   -1    0    0    0  501  0.00000000000E+00  0.00000000000E+00 -0.57992793407E+02  0.57992793626E+02  0.50400001928E-02 0. -1.
    10030    2    1    2    0    0  0.00000000000E+00  0.00000000000E+00  0.14922071506E+04  0.16081927377E+04  0.59966799240E+03 0.  0.
        4    1    3    3  502    0 -0.11430226587E+03  0.22364016432E+03  0.11852886341E+04  0.12116066565E+04  0.12699999809E+01 0.  1.
       -4    1    3    3    0  502  0.11430226587E+03 -0.22364016432E+03  0.30691851655E+03  0.39658608117E+03  0.12699999809E+01 0. -1.
</event>
<event>
 5   0  0.7263385E-02  0.6026082E+03  0.7818609E-02  0.9900010E-01
       -1   -1    0    0    0  501  0.00000000000E+00  0.00000000000E+00  0.23810446258E+03  0.23810446263E+03  0.50400001928E-02 0. -1.
        1   -1    0    0  501    0  0.00000000000E+00  0.00000000000E+00 -0.38127876187E+03  0.38127876191E+03  0.50400001928E-02 0.  1.
    10030    2    1    2    0    0  0.00000000000E+00  0.00000000000E+00 -0.14317429930E+03  0.61938322454E+03  0.60260824659E+03 0.  0.
        1    1    3    3  502    0 -0.37655505448E+02  0.29874242660E+03 -0.60365343516E+02  0.30709762172E+03  0.50400001928E-02 0. -1.
       -1    1    3    3    0  502  0.37655505448E+02 -0.29874242660E+03 -0.82808955779E+02  0.31228560282E+03  0.50400001928E-02 0.  1.
</event>
<event>
 5   0  0.1219020E-01  0.6022762E+03  0.7818609E-02  0.9900695E-01
       -2   -1    0    0    0  501  0.00000000000E+00  0.00000000000E+00  0.26895840099E+03  0.26895840101E+03  0.25500000920E-02 0. -1.
        2   -1    0    0  501    0  0.00000000000E+00  0.00000000000E+00 -0.33716799724E+03  0.33716799725E+03  0.25500000920E-02 0.  1.
    10030    2    1    2    0    0  0.00000000000E+00  0.00000000000E+00 -0.68209596245E+02  0.60612639826E+03  0.60227623367E+03 0.  0.
        2    1    3    3  502    0  0.16208765283E+03  0.24798672793E+03  0.20224945360E+02  0.29694927656E+03  0.25500000920E-02 0.  1.
       -2    1    3    3    0  502 -0.16208765283E+03 -0.24798672793E+03 -0.88434541606E+02  0.30917712170E+03  0.25500000920E-02 0. -1.
</event>
<event>
 5   0  0.7424930E-02  0.6030195E+03  0.7818609E-02  0.9899161E-01
        1   -1    0    0  501    0  0.00000000000E+00  0.00000000000E+00  0.59718217548E+03  0.59718217550E+03  0.50400001928E-02 0. -1.
       -1   -1    0    0    0  501  0.00000000000E+00  0.00000000000E+00 -0.15222845219E+03  0.15222845228E+03  0.50400001928E-02 0.  1.
    10030    2    1    2    0    0  0.00000000000E+00  0.00000000000E+00  0.44495372329E+03  0.74941062778E+03  0.60301946334E+03 0.  0.
        3    1    3    3  502    0 -0.23812580240E+03 -0.16048899191E+03  0.10825415195E+03  0.30688692691E+03  0.10100000352E+00 0.  1.
       -3    1    3    3    0  502  0.23812580240E+03  0.16048899191E+03  0.33669957134E+03  0.44252370087E+03  0.10100000352E+00 0. -1.
</event>
<event>
 5   0  0.4695625E-02  0.6030919E+03  0.7818609E-02  0.9899012E-01
       -3   -1    0    0    0  501  0.00000000000E+00  0.00000000000E+00  0.48924078743E+02  0.48924182996E+02  0.10100000352E+00 0.  1.
        3   -1    0    0  501    0  0.00000000000E+00  0.00000000000E+00 -0.18585913348E+04  0.18585913376E+04  0.10100000352E+00 0. -1.
    10030    2    1    2    0    0  0.00000000000E+00  0.00000000000E+00 -0.18096672561E+04  0.19075155206E+04  0.60309193617E+03 0.  0.
        1    1    3    3  502    0  0.11528397363E+03  0.15296290709E+03 -0.16414682160E+04  0.16526058059E+04  0.50400001928E-02 0. -1.
       -1    1    3    3    0  502 -0.11528397363E+03 -0.15296290709E+03 -0.16819904007E+03  0.25490971466E+03  0.50400001928E-02 0.  1.
</event>
<event>
 5   0  0.1175861E-01  0.6251407E+03  0.7818609E-02  0.9854578E-01
       -2   -1    0    0    0  501  0.00000000000E+00  0.00000000000E+00  0.41806028334E+02  0.41806028412E+02  0.25500000920E-02 0. -1.
        2   -1    0    0  501    0  0.00000000000E+00  0.00000000000E+00 -0.23369888911E+04  0.23369888911E+04  0.25500000920E-02 0.  1.
    10030    2    1    2    0    0  0.00000000000E+00  0.00000000000E+00 -0.22951828627E+04  0.23787949195E+04  0.62514070061E+03 0.  0.
        3    1    3    3  502    0  0.19308746585E+03  0.10193199679E+03 -0.19986957859E+04  0.20105864210E+04  0.10100000352E+00 0.  1.
       -3    1    3    3    0  502 -0.19308746585E+03 -0.10193199679E+03 -0.29648707680E+03  0.36820849847E+03  0.10100000352E+00 0. -1.
</event>
<event>
 5   0  0.7263385E-02  0.5839546E+03  0.7818609E-02  0.9939266E-01
       -1   -1    0    0    0  501  0.00000000000E+00  0.00000000000E+00  0.30225268752E+03  0.30225268756E+03  0.50400001928E-02 0. -1.
        1   -1    0    0  501    0  0.00000000000E+00  0.00000000000E+00 -0.28205120944E+03  0.28205120948E+03  0.50400001928E-02 0.  1.
    10030    2    1    2    0    0  0.00000000000E+00  0.00000000000E+00  0.20201478078E+02  0.58430389704E+03  0.58395457390E+03 0.  0.
        1    1    3    3  502    0 -0.19856832927E+03  0.68944880060E+02 -0.19267279673E+03  0.28514134127E+03  0.50400001928E-02 0.  1.
       -1    1    3    3    0  502  0.19856832927E+03 -0.68944880060E+02  0.21287427480E+03  0.29916255577E+03  0.50400001928E-02 0. -1.
</event>
<event>
 5   0  0.1219020E-01  0.5928724E+03  0.7818609E-02  0.9920305E-01
       -2   -1    0    0    0  501  0.00000000000E+00  0.00000000000E+00  0.32257451001E+03  0.32257451002E+03  0.25500000920E-02 0. -1.
        2   -1    0    0  501    0  0.00000000000E+00  0.00000000000E+00 -0.27241588446E+03  0.27241588448E+03  0.25500000920E-02 0.  1.
    10030    2    1    2    0    0  0.00000000000E+00  0.00000000000E+00  0.50158625541E+02  0.59499039449E+03  0.59287239927E+03 0.  0.
        2    1    3    3  502    0 -0.49937399481E+02  0.27650527050E+03 -0.69733120023E+02  0.28950236012E+03  0.25500000920E-02 0.  1.
       -2    1    3    3    0  502  0.49937399481E+02 -0.27650527050E+03  0.11989174556E+03  0.30548803437E+03  0.25500000920E-02 0. -1.
</event>
<event>
 5   0  0.7123340E-02  0.5801770E+03  0.7818609E-02  0.9947408E-01
       -1   -1    0    0    0  501  0.00000000000E+00  0.00000000000E+00  0.12718674086E+03  0.12718674096E+03  0.50400001928E-02 0.  1.
        1   -1    0    0  501    0  0.00000000000E+00  0.00000000000E+00 -0.66163611280E+03  0.66163611281E+03  0.50400001928E-02 0. -1.
    10030    2    1    2    0    0  0.00000000000E+00  0.00000000000E+00 -0.53444937193E+03  0.78882285378E+03  0.58017701048E+03 0.  0.
        2    1    3    3  502    0  0.67758558442E+02 -0.27839267760E+03 -0.32889884122E+03  0.43619737842E+03  0.25500000920E-02 0.  1.
       -2    1    3    3    0  502 -0.67758558442E+02  0.27839267760E+03 -0.20555053072E+03  0.35262547535E+03  0.25500000920E-02 0. -1.
</event>
<event>
 5   0  0.1175861E-01  0.6085452E+03  0.7818609E-02  0.9887834E-01
       -2   -1    0    0    0  501  0.00000000000E+00  0.00000000000E+00  0.52463051054E+02  0.52463051116E+02  0.25500000920E-02 0. -1.
        2   -1    0    0  501    0  0.00000000000E+00  0.00000000000E+00 -0.17647051689E+04  0.17647051689E+04  0.25500000920E-02 0.  1.
    10030    2    1    2    0    0  0.00000000000E+00  0.00000000000E+00 -0.17122421178E+04  0.18171682200E+04  0.60854520761E+03 0.  0.
        3    1    3    3  502    0  0.10406285388E+03  0.23527933709E+03 -0.37097295981E+03  0.45144921212E+03  0.10100000352E+00 0. -1.
       -3    1    3    3    0  502 -0.10406285388E+03 -0.23527933709E+03 -0.13412691580E+04  0.13657190079E+04  0.10100000352E+00 0.  1.
</event>
<event>
 5   0  0.1206238E-01  0.6088169E+03  0.7818609E-02  0.9887281E-01
       -2   -1    0    0    0  501  0.00000000000E+00  0.00000000000E+00  0.99539244444E+02  0.99539244477E+02  0.25500000920E-02 0.  1.
        2   -1    0    0  501    0  0.00000000000E+00  0.00000000000E+00 -0.93093440108E+03  0.93093440109E+03  0.25500000920E-02 0. -1.
    10030    2    1    2    0    0  0.00000000000E+00  0.00000000000E+00 -0.83139515664E+03  0.10304736456E+04  0.60881690821E+03 0.  0.
        5    1    3    3  502    0  0.24084620872E+02  0.30185096253E+03 -0.36357411987E+03  0.47318316029E+03  0.46999998093E+01 0.  1.
       -5    1    3    3    0  502 -0.24084620872E+02 -0.30185096253E+03 -0.46782103677E+03  0.55729048528E+03  0.46999998093E+01 0. -1.
</event>
<event>
 5   0  0.7123340E-02  0.5911812E+03  0.7818609E-02  0.9923873E-01
       -1   -1    0    0    0  501  0.00000000000E+00  0.00000000000E+00  0.76743724378E+03  0.76743724379E+03  0.50400001928E-02 0. -1.
        1   -1    0    0  501    0  0.00000000000E+00  0.00000000000E+00 -0.11385140731E+03  0.11385140743E+03  0.50400001928E-02 0.  1.
    10030    2    1    2    0    0  0.00000000000E+00  0.00000000000E+00  0.65358583646E+03  0.88128865122E+03  0.59118122530E+03 0.  0.
        2    1    3    3  502    0  0.24457060221E+02 -0.22605879842E+03  0.45234925010E+02  0.23183383400E+03  0.25500000920E-02 0.  1.
       -2    1    3    3    0  502 -0.24457060221E+02  0.22605879842E+03  0.60835091145E+03  0.64945481722E+03  0.25500000920E-02 0. -1.
</event>
<event>
 5   0  0.1175861E-01  0.6955866E+03  0.7818609E-02  0.9724810E-01
        2   -1    0    0  501    0  0.00000000000E+00  0.00000000000E+00  0.15545169912E+04  0.15545169912E+04  0.25500000920E-02 0.  1.
       -2   -1    0    0    0  501  0.00000000000E+00  0.00000000000E+00 -0.77812072320E+02  0.77812072362E+02  0.25500000920E-02 0. -1.
    10030    2    1    2    0    0  0.00000000000E+00  0.00000000000E+00  0.14767049188E+04  0.16323290635E+04  0.69558662602E+03 0.  0.
        3    1    3    3  502    0  0.13568279709E+02  0.34017088188E+03  0.90527898961E+03  0.96717650216E+03  0.10100000352E+00 0.  1.
       -3    1    3    3    0  502 -0.13568279709E+02 -0.34017088188E+03  0.57142592922E+03  0.66515256136E+03  0.10100000352E+00 0. -1.
</event>
<event>
 5   0  0.1166419E-01  0.6036044E+03  0.7818609E-02  0.9897956E-01
        2   -1    0    0  501    0  0.00000000000E+00  0.00000000000E+00  0.52329051265E+03  0.52329051266E+03  0.25500000920E-02 0. -1.
       -2   -1    0    0    0  501  0.00000000000E+00  0.00000000000E+00 -0.17406118940E+03  0.17406118942E+03  0.25500000920E-02 0.  1.
    10030    2    1    2    0    0  0.00000000000E+00  0.00000000000E+00  0.34922932326E+03  0.69735170208E+03  0.60360440370E+03 0.  0.
        1    1    3    3  502    0 -0.20973098245E+03 -0.18524066993E+03  0.30523845297E+03  0.41409141985E+03  0.50400001928E-02 0. -1.
       -1    1    3    3    0  502  0.20973098245E+03  0.18524066993E+03  0.43990870285E+02  0.28326028223E+03  0.50400001928E-02 0.  1.
</event>
<event>
 5   0  0.7424930E-02  0.6010289E+03  0.7818609E-02  0.9903274E-01
        1   -1    0    0  501    0  0.00000000000E+00  0.00000000000E+00  0.68393731773E+03  0.68393731774E+03  0.50400001928E-02 0.  1.
       -1   -1    0    0    0  501  0.00000000000E+00  0.00000000000E+00 -0.13204268862E+03  0.13204268872E+03  0.50400001928E-02 0. -1.
    10030    2    1    2    0    0  0.00000000000E+00  0.00000000000E+00  0.55189462910E+03  0.81598000646E+03  0.60102885897E+03 0.  0.
        3    1    3    3  502    0  0.22770564591E+03  0.18261782192E+03  0.37299504445E+03  0.47362901457E+03  0.10100000352E+00 0. -1.
       -3    1    3    3    0  502 -0.22770564591E+03 -0.18261782192E+03  0.17889958465E+03  0.34235099189E+03  0.10100000352E+00 0.  1.
</event>
<event>
 5   0  0.1175861E-01  0.5912447E+03  0.7818609E-02  0.9923739E-01
        2   -1    0    0  501    0  0.00000000000E+00  0.00000000000E+00  0.21019282234E+03  0.21019282235E+03  0.25500000920E-02 0.  1.
       -2   -1    0    0    0  501  0.00000000000E+00  0.00000000000E+00 -0.41577335692E+03  0.41577335693E+03  0.25500000920E-02 0. -1.
    10030    2    1    2    0    0  0.00000000000E+00  0.00000000000E+00 -0.20558053459E+03  0.62596617928E+03  0.59124470518E+03 0.  0.
        3    1    3    3  502    0  0.34311458985E+02  0.10027842161E+03  0.18938652978E+03  0.21702604895E+03  0.10100000352E+00 0.  1.
       -3    1    3    3    0  502 -0.34311458985E+02 -0.10027842161E+03 -0.39496706437E+03  0.40894013033E+03  0.10100000352E+00 0. -1.
</event>
<event>
 5   0  0.7266519E-02  0.5985631E+03  0.7818609E-02  0.9908392E-01
       -1   -1    0    0    0  501  0.00000000000E+00  0.00000000000E+00  0.68710807177E+02  0.68710807362E+02  0.50400001928E-02 0.  1.
        1   -1    0    0  501    0  0.00000000000E+00  0.00000000000E+00 -0.13035712256E+04  0.13035712257E+04  0.50400001928E-02 0. -1.
    10030    2    1    2    0    0  0.00000000000E+00  0.00000000000E+00 -0.12348604185E+04  0.13722820330E+04  0.59856305018E+03 0.  0.
        4    1    3    3  502    0  0.42593310841E+02 -0.18886597706E+03 -0.11406481158E+04  0.11569633894E+04  0.12699999809E+01 0. -1.
       -4    1    3    3    0  502 -0.42593310841E+02  0.18886597706E+03 -0.94212302678E+02  0.21531864363E+03  0.12699999809E+01 0.  1.
</event>
<event>
 5   0  0.7263385E-02  0.7343624E+03  0.7818609E-02  0.9660208E-01
       -1   -1    0    0    0  501  0.00000000000E+00  0.00000000000E+00  0.16011175551E+03  0.16011175559E+03  0.50400001928E-02 0. -1.
        1   -1    0    0  501    0  0.00000000000E+00  0.00000000000E+00 -0.84204961835E+03  0.84204961837E+03  0.50400001928E-02 0.  1.
    10030    2    1    2    0    0  0.00000000000E+00  0.00000000000E+00 -0.68193786284E+03  0.10021613740E+04  0.73436242461E+03 0.  0.
        1    1    3    3  502    0 -0.10469479993E+03 -0.58642126272E+02 -0.81453479331E+03  0.82332668465E+03  0.50400001928E-02 0.  1.
       -1    1    3    3    0  502  0.10469479993E+03  0.58642126272E+02  0.13259693047E+03  0.17883468931E+03  0.50400001928E-02 0. -1.
</event>
<event>
 5   0  0.7424930E-02  0.5889584E+03  0.7818609E-02  0.9928582E-01
        1   -1    0    0  501    0  0.00000000000E+00  0.00000000000E+00  0.29629368655E+03  0.29629368659E+03  0.50400001928E-02 0. -1.
       -1   -1    0    0    0  501  0.00000000000E+00  0.00000000000E+00 -0.29267582463E+03  0.29267582467E+03  0.50400001928E-02 0.  1.
    10030    2    1    2    0    0  0.00000000000E+00  0.00000000000E+00  0.36178619170E+01  0.58896951126E+03  0.58895839944E+03 0.  0.
        3    1    3    3  502    0 -0.26637000581E+03  0.38256109877E+01 -0.12369392916E+03  0.29371382945E+03  0.10100000352E+00 0.  1.
       -3    1    3    3    0  502  0.26637000581E+03 -0.38256109877E+01  0.12731179108E+03  0.29525568182E+03  0.10100000352E+00 0. -1.
</event>
<event>
 5   0  0.1146468E-01  0.5992199E+03  0.7818609E-02  0.9907026E-01
        2   -1    0    0  501    0  0.00000000000E+00  0.00000000000E+00  0.13035733719E+04  0.13035733719E+04  0.25500000920E-02 0.  1.
       -2   -1    0    0    0  501  0.00000000000E+00  0.00000000000E+00 -0.68861570755E+02  0.68861570802E+02  0.25500000920E-02 0. -1.
    10030    2    1    2    0    0  0.00000000000E+00  0.00000000000E+00  0.12347118012E+04  0.13724349427E+04  0.59921985954E+03 0.  0.
        4    1    3    3  502    0  0.16359913977E+02 -0.22167975961E+03  0.10774576577E+04  0.11001482534E+04  0.12699999809E+01 0.  1.
       -4    1    3    3    0  502 -0.16359913977E+02  0.22167975961E+03  0.15725414349E+03  0.27228668926E+03  0.12699999809E+01 0. -1.
</event>
<event>
 5   0  0.1146468E-01  0.5926053E+03  0.7818609E-02  0.9920868E-01
       -2   -1    0    0    0  501  0.00000000000E+00  0.00000000000E+00  0.10252131071E+03  0.10252131074E+03  0.25500000920E-02 0. -1.
        2   -1    0    0  501    0  0.00000000000E+00  0.00000000000E+00 -0.85636100509E+03  0.85636100509E+03  0.25500000920E-02 0.  1.
    10030    2    1    2    0    0  0.00000000000E+00  0.00000000000E+00 -0.75383969437E+03  0.95888231583E+03  0.59260527403E+03 0.  0.
        4    1    3    3  502    0  0.28434582566E+02 -0.28422699394E+03 -0.50432887529E+03  0.57960567365E+03  0.12699999809E+01 0.  1.
       -4    1    3    3    0  502 -0.28434582566E+02  0.28422699394E+03 -0.24951081908E+03  0.37927664219E+03  0.12699999809E+01 0. -1.
</event>
<event>
 5   0  0.4695625E-02  0.5525279E+03  0.7818609E-02  0.1000911E+00
        4   -1    0    0  501    0  0.00000000000E+00  0.00000000000E+00  0.15705537226E+03  0.15706050698E+03  0.12699999809E+01 0. -1.
       -4   -1    0    0    0  501  0.00000000000E+00  0.00000000000E+00 -0.48594058579E+03  0.48594224535E+03  0.12699999809E+01 0.  1.
    10030    2    1    2    0    0  0.00000000000E+00  0.00000000000E+00 -0.32888521353E+03  0.64300275234E+03  0.55252787788E+03 0.  0.
        1    1    3    3  502    0  0.17626943681E+02 -0.20337002639E+03 -0.38107371875E+03  0.43230458699E+03  0.50400001928E-02 0.  1.
       -1    1    3    3    0  502 -0.17626943681E+02  0.20337002639E+03  0.52188505219E+02  0.21069816535E+03  0.50400001928E-02 0. -1.
</event>
<event>
 5   0  0.7424930E-02  0.6220819E+03  0.7818609E-02  0.9860623E-01
       -1   -1    0    0    0  501  0.00000000000E+00  0.00000000000E+00  0.25167713599E+03  0.25167713604E+03  0.50400001928E-02 0.  1.
        1   -1    0    0  501    0  0.00000000000E+00  0.00000000000E+00 -0.38440713192E+03  0.38440713195E+03  0.50400001928E-02 0. -1.
    10030    2    1    2    0    0  0.00000000000E+00  0.00000000000E+00 -0.13272999592E+03  0.63608426800E+03  0.62208194330E+03 0.  0.
        3    1    3    3  502    0  0.23375733683E+03  0.12787339729E+03 -0.23045258350E+03  0.35228184980E+03  0.10100000352E+00 0. -1.
       -3    1    3    3    0  502 -0.23375733683E+03 -0.12787339729E+03  0.97722587572E+02  0.28380241820E+03  0.10100000352E+00 0.  1.
</event>
<event>
 5   0  0.7221069E-02  0.6092747E+03  0.7818609E-02  0.9886349E-01
       -1   -1    0    0    0  501  0.00000000000E+00  0.00000000000E+00  0.47519131295E+02  0.47519131563E+02  0.50400001928E-02 0. -1.
        1   -1    0    0  501    0  0.00000000000E+00  0.00000000000E+00 -0.19529799240E+04  0.19529799240E+04  0.50400001928E-02 0.  1.
    10030    2    1    2    0    0  0.00000000000E+00  0.00000000000E+00 -0.19054607927E+04  0.20004990555E+04  0.60927468255E+03 0.  0.
        5    1    3    3  502    0  0.19016279740E+03  0.41325747737E+02 -0.18331779398E+03  0.26738962308E+03  0.46999998093E+01 0. -1.
       -5    1    3    3    0  502 -0.19016279740E+03 -0.41325747737E+02 -0.17221429987E+04  0.17331094325E+04  0.46999998093E+01 0.  1.
</event>
<event>
 5   0  0.1219020E-01  0.5403883E+03  0.7818609E-02  0.1003743E+00
       -2   -1    0    0    0  501  0.00000000000E+00  0.00000000000E+00  0.35877885571E+03  0.35877885572E+03  0.25500000920E-02 0. -1.
        2   -1    0    0  501    0  0.00000000000E+00  0.00000000000E+00 -0.20348153158E+03  0.20348153160E+03  0.25500000920E-02 0.  1.
    10030    2    1    2    0    0  0.00000000000E+00  0.00000000000E+00  0.15529732413E+03  0.56226038732E+03  0.54038827177E+03 0.  0.
        2    1    3    3  502    0  0.10583929293E+03  0.24517958425E+03  0.12042074038E+03  0.29294391815E+03  0.25500000920E-02 0. -1.
       -2    1    3    3    0  502 -0.10583929293E+03 -0.24517958425E+03  0.34876583753E+02  0.26931646916E+03  0.25500000920E-02 0.  1.
</event>
<event>
 5   0  0.1175861E-01  0.6058074E+03  0.7818609E-02  0.9893430E-01
        2   -1    0    0  501    0  0.00000000000E+00  0.00000000000E+00  0.95311280835E+03  0.95311280835E+03  0.25500000920E-02 0.  1.
       -2   -1    0    0    0  501  0.00000000000E+00  0.00000000000E+00 -0.96264206032E+02  0.96264206065E+02  0.25500000920E-02 0. -1.
    10030    2    1    2    0    0  0.00000000000E+00  0.00000000000E+00  0.85684860231E+03  0.10493770144E+04  0.60580738778E+03 0.  0.
        3    1    3    3  502    0  0.82544220427E+02 -0.29129146076E+03  0.41232567407E+03  0.51154348313E+03  0.10100000352E+00 0. -1.
       -3    1    3    3    0  502 -0.82544220427E+02  0.29129146076E+03  0.44452292825E+03  0.53783353129E+03  0.10100000352E+00 0.  1.
</event>
<event>
 5   0  0.1166419E-01  0.6031437E+03  0.7818609E-02  0.9898905E-01
        2   -1    0    0  501    0  0.00000000000E+00  0.00000000000E+00  0.35987549054E+03  0.35987549055E+03  0.25500000920E-02 0. -1.
       -2   -1    0    0    0  501  0.00000000000E+00  0.00000000000E+00 -0.25271401684E+03  0.25271401686E+03  0.25500000920E-02 0.  1.
    10030    2    1    2    0    0  0.00000000000E+00  0.00000000000E+00  0.10716147370E+03  0.61258950741E+03  0.60314370024E+03 0.  0.
        1    1    3    3  502    0  0.20382990700E+03  0.19559542908E+03 -0.53625045459E+02  0.28754103775E+03  0.50400001928E-02 0.  1.
       -1    1    3    3    0  502 -0.20382990700E+03 -0.19559542908E+03  0.16078651916E+03  0.32504846966E+03  0.50400001928E-02 0. -1.
</event>
<event>
 5   0  0.1219020E-01  0.5896212E+03  0.7818609E-02  0.9927176E-01
        2   -1    0    0  501    0  0.00000000000E+00  0.00000000000E+00  0.13947806959E+04  0.13947806959E+04  0.25500000920E-02 0.  1.
       -2   -1    0    0    0  501  0.00000000000E+00  0.00000000000E+00 -0.62313232186E+02  0.62313232238E+02  0.25500000920E-02 0. -1.
    10030    2    1    2    0    0  0.00000000000E+00  0.00000000000E+00  0.13324674637E+04  0.14570939281E+04  0.58962121193E+03 0.  0.
        2    1    3    3  502    0  0.12950034759E+03 -0.23509024125E+03  0.36482856004E+03  0.45292122912E+03  0.25500000920E-02 0. -1.
       -2    1    3    3    0  502 -0.12950034759E+03  0.23509024125E+03  0.96763890364E+03  0.10041726990E+04  0.25500000920E-02 0.  1.
</event>
<event>
 5   0  0.1175861E-01  0.6083709E+03  0.7818609E-02  0.9888190E-01
       -2   -1    0    0    0  501  0.00000000000E+00  0.00000000000E+00  0.92007679780E+02  0.92007679815E+02  0.25500000920E-02 0. -1.
        2   -1    0    0  501    0  0.00000000000E+00  0.00000000000E+00 -0.10056636814E+04  0.10056636814E+04  0.25500000920E-02 0.  1.
    10030    2    1    2    0    0  0.00000000000E+00  0.00000000000E+00 -0.91365600162E+03  0.10976713612E+04  0.60837088026E+03 0.  0.
        3    1    3    3  502    0  0.15690493449E+03  0.23170706564E+03 -0.24166091397E+03  0.36973954383E+03  0.10100000352E+00 0. -1.
       -3    1    3    3    0  502 -0.15690493449E+03 -0.23170706564E+03 -0.67199508765E+03  0.72793181739E+03  0.10100000352E+00 0.  1.
</event>
<event>
 5   0  0.7424930E-02  0.5176802E+03  0.7818609E-02  0.1009264E+00
        1   -1    0    0  501    0  0.00000000000E+00  0.00000000000E+00  0.79552052672E+03  0.79552052674E+03  0.50400001928E-02 0.  1.
       -1   -1    0    0    0  501  0.00000000000E+00  0.00000000000E+00 -0.84219307627E+02  0.84219307778E+02  0.50400001928E-02 0. -1.
    10030    2    1    2    0    0  0.00000000000E+00  0.00000000000E+00  0.71130121910E+03  0.87973983452E+03  0.51768016395E+03 0.  0.
        3    1    3    3  502    0 -0.15299391612E+03 -0.46919973580E+02  0.70138144391E+03  0.71940570081E+03  0.10100000352E+00 0.  1.
       -3    1    3    3    0  502  0.15299391612E+03  0.46919973580E+02  0.99197751845E+01  0.16033413371E+03  0.10100000352E+00 0. -1.
</event>
<event>
 5   0  0.1206238E-01  0.5943739E+03  0.7818609E-02  0.9917148E-01
       -2   -1    0    0    0  501  0.00000000000E+00  0.00000000000E+00  0.22237011790E+03  0.22237011791E+03  0.25500000920E-02 0.  1.
        2   -1    0    0  501    0  0.00000000000E+00  0.00000000000E+00 -0.39717599626E+03  0.39717599627E+03  0.25500000920E-02 0. -1.
    10030    2    1    2    0    0  0.00000000000E+00  0.00000000000E+00 -0.17480587836E+03  0.61954611418E+03  0.59437386592E+03 0.  0.
        5    1    3    3  502    0 -0.27568145627E+03  0.97674205772E+02 -0.14213844286E+03  0.32521676270E+03  0.46999998093E+01 0. -1.
       -5    1    3    3    0  502  0.27568145627E+03 -0.97674205772E+02 -0.32667435506E+02  0.29432935149E+03  0.46999998093E+01 0.  1.
</event>
<event>
 5   0  0.7221069E-02  0.5965481E+03  0.7818609E-02  0.9912594E-01
        1   -1    0    0  501    0  0.00000000000E+00  0.00000000000E+00  0.26197900524E+03  0.26197900528E+03  0.50400001928E-02 0.  1.
       -1   -1    0    0    0  501  0.00000000000E+00  0.00000000000E+00 -0.33959752984E+03  0.33959752988E+03  0.50400001928E-02 0. -1.
    10030    2    1    2    0    0  0.00000000000E+00  0.00000000000E+00 -0.77618524605E+02  0.60157653516E+03  0.59654814751E+03 0.  0.
        5    1    3    3  502    0 -0.11761331424E+03 -0.97739447206E+02  0.21939476411E+03  0.26747344493E+03  0.46999998093E+01 0.  1.
       -5    1    3    3    0  502  0.11761331424E+03  0.97739447206E+02 -0.29701328872E+03  0.33410309023E+03  0.46999998093E+01 0. -1.
</event>
<event>
 5   0  0.7424930E-02  0.6067520E+03  0.7818609E-02  0.9891496E-01
        1   -1    0    0  501    0  0.00000000000E+00  0.00000000000E+00  0.88352622280E+03  0.88352622282E+03  0.50400001928E-02 0. -1.
       -1   -1    0    0    0  501  0.00000000000E+00  0.00000000000E+00 -0.10417007478E+03  0.10417007491E+03  0.50400001928E-02 0.  1.
    10030    2    1    2    0    0  0.00000000000E+00  0.00000000000E+00  0.77935614802E+03  0.98769629772E+03  0.60675198482E+03 0.  0.
        3    1    3    3  502    0  0.37068640378E+02 -0.28785867146E+03  0.53344779186E+03  0.60729173852E+03  0.10100000352E+00 0. -1.
       -3    1    3    3    0  502 -0.37068640378E+02  0.28785867146E+03  0.24590835616E+03  0.38040455920E+03  0.10100000352E+00 0.  1.
</event>
<event>
 5   0  0.1175861E-01  0.6079035E+03  0.7818609E-02  0.9889143E-01
       -2   -1    0    0    0  501  0.00000000000E+00  0.00000000000E+00  0.28353237094E+03  0.28353237095E+03  0.25500000920E-02 0.  1.
        2   -1    0    0  501    0  0.00000000000E+00  0.00000000000E+00 -0.32584173307E+03  0.32584173308E+03  0.25500000920E-02 0. -1.
    10030    2    1    2    0    0  0.00000000000E+00  0.00000000000E+00 -0.42309362124E+02  0.60937410403E+03  0.60790354213E+03 0.  0.
        3    1    3    3  502    0 -0.16925989285E+03 -0.25143576359E+03  0.16559016347E+01  0.30310329386E+03  0.10100000352E+00 0.  1.
       -3    1    3    3    0  502  0.16925989285E+03  0.25143576359E+03 -0.43965263759E+02  0.30627081016E+03  0.10100000352E+00 0. -1.
</event>
<event>
 5   0  0.7263385E-02  0.5757884E+03  0.7818609E-02  0.9956951E-01
        1   -1    0    0  501    0  0.00000000000E+00  0.00000000000E+00  0.44641895354E+03  0.44641895357E+03  0.50400001928E-02 0. -1.
       -1   -1    0    0    0  501  0.00000000000E+00  0.00000000000E+00 -0.18566210879E+03  0.18566210886E+03  0.50400001928E-02 0.  1.
    10030    2    1    2    0    0  0.00000000000E+00  0.00000000000E+00  0.26075684475E+03  0.63208106243E+03  0.57578844848E+03 0.  0.
        1    1    3    3  502    0 -0.14850757644E+03 -0.20595380661E+03 -0.18576807842E+02  0.25459098282E+03  0.50400001928E-02 0.  1.
       -1    1    3    3    0  502  0.14850757644E+03  0.20595380661E+03  0.27933365259E+03  0.37749007962E+03  0.50400001928E-02 0. -1.
</event>
<event>
 5   0  0.7424930E-02  0.5919155E+03  0.7818609E-02  0.9922322E-01
        1   -1    0    0  501    0  0.00000000000E+00  0.00000000000E+00  0.78891769783E+03  0.78891769785E+03  0.50400001928E-02 0.  1.
       -1   -1    0    0    0  501  0.00000000000E+00  0.00000000000E+00 -0.11102678657E+03  0.11102678669E+03  0.50400001928E-02 0. -1.
    10030    2    1    2    0    0  0.00000000000E+00  0.00000000000E+00  0.67789091126E+03  0.89994448454E+03  0.59191552411E+03 0.  0.
        3    1    3    3  502    0  0.13294243666E+03  0.15858550880E+03  0.17254016022E+02  0.20765540286E+03  0.10100000352E+00 0. -1.
       -3    1    3    3    0  502 -0.13294243666E+03 -0.15858550880E+03  0.66063689524E+03  0.69228908168E+03  0.10100000352E+00 0.  1.
</event>
<event>
 5   0  0.7123340E-02  0.6043263E+03  0.7818609E-02  0.9896471E-01
        1   -1    0    0  501    0  0.00000000000E+00  0.00000000000E+00  0.58379720829E+03  0.58379720831E+03  0.50400001928E-02 0. -1.
       -1   -1    0    0    0  501  0.00000000000E+00  0.00000000000E+00 -0.15639432508E+03  0.15639432516E+03  0.50400001928E-02 0.  1.
    10030    2    1    2    0    0  0.00000000000E+00  0.00000000000E+00  0.42740288321E+03  0.74019153347E+03  0.60432630395E+03 0.  0.
        2    1    3    3  502    0 -0.21468358452E+03 -0.69445158919E+02 -0.32456796276E+02  0.22795858218E+03  0.25500000920E-02 0. -1.
       -2    1    3    3    0  502  0.21468358452E+03  0.69445158919E+02  0.45985967949E+03  0.51223295129E+03  0.25500000920E-02 0.  1.
</event>
<event>
 5   0  0.7221069E-02  0.5975828E+03  0.7818609E-02  0.9910434E-01
       -1   -1    0    0    0  501  0.00000000000E+00  0.00000000000E+00  0.89476488423E+03  0.89476488424E+03  0.50400001928E-02 0. -1.
        1   -1    0    0  501    0  0.00000000000E+00  0.00000000000E+00 -0.99776277539E+02  0.99776277666E+02  0.50400001928E-02 0.  1.
    10030    2    1    2    0    0  0.00000000000E+00  0.00000000000E+00  0.79498860669E+03  0.99454116191E+03  0.59758282937E+03 0.  0.
        5    1    3    3  502    0 -0.23411015528E+03 -0.16579041292E+03  0.25864768263E+03  0.38628323747E+03  0.46999998093E+01 0.  1.
       -5    1    3    3    0  502  0.23411015528E+03  0.16579041292E+03  0.53634092406E+03  0.60825792444E+03  0.46999998093E+01 0. -1.
</event>
<event>
 5   0  0.1146468E-01  0.5951062E+03  0.7818609E-02  0.9915611E-01
       -2   -1    0    0    0  501  0.00000000000E+00  0.00000000000E+00  0.15597508859E+03  0.15597508861E+03  0.25500000920E-02 0. -1.
        2   -1    0    0  501    0  0.00000000000E+00  0.00000000000E+00 -0.56764099569E+03  0.56764099570E+03  0.25500000920E-02 0.  1.
    10030    2    1    2    0    0  0.00000000000E+00  0.00000000000E+00 -0.41166590710E+03  0.72361608431E+03  0.59510622447E+03 0.  0.
        4    1    3    3  502    0 -0.24177134253E+03  0.11221936349E+03 -0.45026091510E+02  0.27032485906E+03  0.12699999809E+01 0. -1.
       -4    1    3    3    0  502  0.24177134253E+03 -0.11221936349E+03 -0.36663981559E+03  0.45329122525E+03  0.12699999809E+01 0.  1.
</event>
<event>
 5   0  0.1166419E-01  0.5965224E+03  0.7818609E-02  0.9912647E-01
       -2   -1    0    0    0  501  0.00000000000E+00  0.00000000000E+00  0.20404793584E+03  0.20404793586E+03  0.25500000920E-02 0.  1.
        2   -1    0    0  501    0  0.00000000000E+00  0.00000000000E+00 -0.43597475458E+03  0.43597475459E+03  0.25500000920E-02 0. -1.
    10030    2    1    2    0    0  0.00000000000E+00  0.00000000000E+00 -0.23192681874E+03  0.64002269045E+03  0.59652241788E+03 0.  0.
        1    1    3    3  502    0 -0.29258045848E+02  0.16885383122E+03  0.14595314188E+03  0.22509990941E+03  0.50400001928E-02 0.  1.
       -1    1    3    3    0  502  0.29258045848E+02 -0.16885383122E+03 -0.37787996062E+03  0.41492278104E+03  0.50400001928E-02 0. -1.
</event>
<event>
 5   0  0.7266519E-02  0.4575841E+03  0.7818609E-02  0.1025484E+00
        1   -1    0    0  501    0  0.00000000000E+00  0.00000000000E+00  0.76824277945E+02  0.76824278110E+02  0.50400001928E-02 0. -1.
       -1   -1    0    0    0  501  0.00000000000E+00  0.00000000000E+00 -0.68137065612E+03  0.68137065614E+03  0.50400001928E-02 0.  1.
    10030    2    1    2    0    0  0.00000000000E+00  0.00000000000E+00 -0.60454637817E+03  0.75819493425E+03  0.45758412883E+03 0.  0.
        4    1    3    3  502    0 -0.65952065773E+02  0.80425884785E+02  0.35380120188E+02  0.10986975802E+03  0.12699999809E+01 0. -1.
       -4    1    3    3    0  502  0.65952065773E+02 -0.80425884785E+02 -0.63992649836E+03  0.64832517622E+03  0.12699999809E+01 0.  1.
</event>
<event>
 5   0  0.1219020E-01  0.6069618E+03  0.7818609E-02  0.9891067E-01
        2   -1    0    0  501    0  0.00000000000E+00  0.00000000000E+00  0.12964887908E+04  0.12964887908E+04  0.25500000920E-02 0.  1.
       -2   -1    0    0    0  501  0.00000000000E+00  0.00000000000E+00 -0.71038528080E+02  0.71038528126E+02  0.25500000920E-02 0. -1.
    10030    2    1    2    0    0  0.00000000000E+00  0.00000000000E+00  0.12254502628E+04  0.13675273190E+04  0.60696179585E+03 0.  0.
        2    1    3    3  502    0  0.49280598469E+02  0.11372093619E+03  0.12368686946E+04  0.12430628288E+04  0.25500000920E-02 0.  1.
       -2    1    3    3    0  502 -0.49280598469E+02 -0.11372093619E+03 -0.11418431850E+02  0.12446449014E+03  0.25500000920E-02 0. -1.
</event>
<event>
 5   0  0.7221069E-02  0.6024407E+03  0.7818609E-02  0.9900355E-01
        1   -1    0    0  501    0  0.00000000000E+00  0.00000000000E+00  0.20776849552E+04  0.20776849552E+04  0.50400001928E-02 0. -1.
       -1   -1    0    0    0  501  0.00000000000E+00  0.00000000000E+00 -0.43670577849E+02  0.43670578140E+02  0.50400001928E-02 0.  1.
    10030    2    1    2    0    0  0.00000000000E+00  0.00000000000E+00  0.20340143773E+04  0.21213555333E+04  0.60244071209E+03 0.  0.
        5    1    3    3  502    0  0.20856823966E+03  0.41387665732E+02  0.17681026309E+04  0.17808488574E+04  0.46999998093E+01 0. -1.
       -5    1    3    3    0  502 -0.20856823966E+03 -0.41387665732E+02  0.26591174642E+03  0.34050667593E+03  0.46999998093E+01 0.  1.
</event>
<event>
 5   0  0.1219020E-01  0.6147038E+03  0.7818609E-02  0.9875361E-01
        2   -1    0    0  501    0  0.00000000000E+00  0.00000000000E+00  0.72050648686E+03  0.72050648686E+03  0.25500000920E-02 0. -1.
       -2   -1    0    0    0  501  0.00000000000E+00  0.00000000000E+00 -0.13110940445E+03  0.13110940447E+03  0.25500000920E-02 0.  1.
    10030    2    1    2    0    0  0.00000000000E+00  0.00000000000E+00  0.58939708241E+03  0.85161589133E+03  0.61470375436E+03 0.  0.
        2    1    3    3  502    0 -0.82040803071E+02  0.71907217061E+02 -0.10338371517E+03  0.15029814970E+03  0.25500000920E-02 0.  1.
       -2    1    3    3    0  502  0.82040803071E+02 -0.71907217061E+02  0.69278079758E+03  0.70131774163E+03  0.25500000920E-02 0. -1.
</event>
<event>
 5   0  0.7123340E-02  0.6039117E+03  0.7818609E-02  0.9897324E-01
        1   -1    0    0  501    0  0.00000000000E+00  0.00000000000E+00  0.10159386091E+03  0.10159386103E+03  0.50400001928E-02 0. -1.
       -1   -1    0    0    0  501  0.00000000000E+00  0.00000000000E+00 -0.89746889397E+03  0.89746889398E+03  0.50400001928E-02 0.  1.
    10030    2    1    2    0    0  0.00000000000E+00  0.00000000000E+00 -0.79587503306E+03  0.99906275501E+03  0.60391168245E+03 0.  0.
        2    1    3    3  502    0 -0.11352369574E+03 -0.70454691311E+02 -0.84590640421E+03  0.85639309766E+03  0.25500000920E-02 0.  1.
       -2    1    3    3    0  502  0.11352369574E+03  0.70454691311E+02  0.50031371156E+02  0.14266965735E+03  0.25500000920E-02 0. -1.
</event>
<event>
 5   0  0.7123340E-02  0.5946623E+03  0.7818609E-02  0.9916542E-01
        1   -1    0    0  501    0  0.00000000000E+00  0.00000000000E+00  0.34284991480E+03  0.34284991483E+03  0.50400001928E-02 0.  1.
       -1   -1    0    0    0  501  0.00000000000E+00  0.00000000000E+00 -0.25785574134E+03  0.25785574139E+03  0.50400001928E-02 0. -1.
    10030    2    1    2    0    0  0.00000000000E+00  0.00000000000E+00  0.84994173454E+02  0.60070565622E+03  0.59466232090E+03 0.  0.
        2    1    3    3  502    0 -0.21586179225E+03  0.66892940439E+02 -0.15268881607E+03  0.27273586745E+03  0.25500000920E-02 0. -1.
       -2    1    3    3    0  502  0.21586179225E+03 -0.66892940439E+02  0.23768298952E+03  0.32796978877E+03  0.25500000920E-02 0.  1.
</event>
<event>
 5   0  0.7123340E-02  0.6079518E+03  0.7818609E-02  0.9889045E-01
        1   -1    0    0  501    0  0.00000000000E+00  0.00000000000E+00  0.51202705088E+03  0.51202705090E+03  0.50400001928E-02 0.  1.
       -1   -1    0    0    0  501  0.00000000000E+00  0.00000000000E+00 -0.18046185582E+03  0.18046185589E+03  0.50400001928E-02 0. -1.
    10030    2    1    2    0    0  0.00000000000E+00  0.00000000000E+00  0.33156519506E+03  0.69248890679E+03  0.60795181343E+03 0.  0.
        2    1    3    3  502    0  0.94601531321E+02 -0.23046619035E+03  0.36417803313E+03  0.44123661956E+03  0.25500000920E-02 0.  1.
       -2    1    3    3    0  502 -0.94601531321E+02  0.23046619035E+03 -0.32612838070E+02  0.25125228723E+03  0.25500000920E-02 0. -1.
</event>
<event>
 5   0  0.1146468E-01  0.5961895E+03  0.7818609E-02  0.9913343E-01
        2   -1    0    0  501    0  0.00000000000E+00  0.00000000000E+00  0.10510194761E+03  0.10510194764E+03  0.25500000920E-02 0. -1.
       -2   -1    0    0    0  501  0.00000000000E+00  0.00000000000E+00 -0.84546930408E+03  0.84546930408E+03  0.25500000920E-02 0.  1.
    10030    2    1    2    0    0  0.00000000000E+00  0.00000000000E+00 -0.74036735647E+03  0.95057125172E+03  0.59618946827E+03 0.  0.
        4    1    3    3  502    0 -0.20709811176E+03 -0.20477266081E+03 -0.47149327155E+03  0.55419219457E+03  0.12699999809E+01 0.  1.
       -4    1    3    3    0  502  0.20709811176E+03  0.20477266081E+03 -0.26887408492E+03  0.39637905715E+03  0.12699999809E+01 0. -1.
</event>
<event>
 5   0  0.7221069E-02  0.6002796E+03  0.7818609E-02  0.9904826E-01
       -1   -1    0    0    0  501  0.00000000000E+00  0.00000000000E+00  0.61777867734E+02  0.61777867939E+02  0.50400001928E-02 0.  1.
        1   -1    0    0  501    0  0.00000000000E+00  0.00000000000E+00 -0.14581904994E+04  0.14581904995E+04  0.50400001928E-02 0. -1.
    10030    2    1    2    0    0  0.00000000000E+00  0.00000000000E+00 -0.13964126317E+04  0.15199683674E+04  0.60027960141E+03 0.  0.
        5    1    3    3  502    0  0.44861666128E+02  0.23917703924E+03 -0.11429024851E+04  0.11685317307E+04  0.46999998093E+01 0. -1.
       -5    1    3    3    0  502 -0.44861666128E+02 -0.23917703924E+03 -0.25351014664E+03  0.35143663673E+03  0.46999998093E+01 0.  1.
</event>
<event>
 5   0  0.1206238E-01  0.6248846E+03  0.7818609E-02  0.9855082E-01
        2   -1    0    0  501    0  0.00000000000E+00  0.00000000000E+00  0.48714910934E+03  0.48714910934E+03  0.25500000920E-02 0. -1.
       -2   -1    0    0    0  501  0.00000000000E+00  0.00000000000E+00 -0.20039080655E+03  0.20039080657E+03  0.25500000920E-02 0.  1.
    10030    2    1    2    0    0  0.00000000000E+00  0.00000000000E+00  0.28675830278E+03  0.68753991591E+03  0.62488463876E+03 0.  0.
        5    1    3    3  502    0  0.10988156104E+03  0.59442512783E+02  0.45842987350E+03  0.47517092577E+03  0.46999998093E+01 0. -1.
       -5    1    3    3    0  502 -0.10988156104E+03 -0.59442512783E+02 -0.17167157072E+03  0.21236899014E+03  0.46999998093E+01 0.  1.
</event>
<event>
 5   0  0.1206238E-01  0.5753323E+03  0.7818609E-02  0.9957948E-01
        2   -1    0    0  501    0  0.00000000000E+00  0.00000000000E+00  0.16134227360E+03  0.16134227362E+03  0.25500000920E-02 0. -1.
       -2   -1    0    0    0  501  0.00000000000E+00  0.00000000000E+00 -0.51289599736E+03  0.51289599736E+03  0.25500000920E-02 0.  1.
    10030    2    1    2    0    0  0.00000000000E+00  0.00000000000E+00 -0.35155372376E+03  0.67423827099E+03  0.57533227388E+03 0.  0.
        5    1    3    3  502    0  0.25341123920E+02  0.22488940187E+03 -0.38381105338E+03  0.44558998005E+03  0.46999998093E+01 0.  1.
       -5    1    3    3    0  502 -0.25341123920E+02 -0.22488940187E+03  0.32257329618E+02  0.22864829093E+03  0.46999998093E+01 0. -1.
</event>
<event>
 5   0  0.1146468E-01  0.6395599E+03  0.7818609E-02  0.9826569E-01
       -2   -1    0    0    0  501  0.00000000000E+00  0.00000000000E+00  0.92347741267E+02  0.92347741302E+02  0.25500000920E-02 0. -1.
        2   -1    0    0  501    0  0.00000000000E+00  0.00000000000E+00 -0.11073275877E+04  0.11073275877E+04  0.25500000920E-02 0.  1.
    10030    2    1    2    0    0  0.00000000000E+00  0.00000000000E+00 -0.10149798464E+04  0.11996753290E+04  0.63955985361E+03 0.  0.
        4    1    3    3  502    0  0.31326700304E+03  0.23294318738E+02 -0.61970419742E+03  0.69477603995E+03  0.12699999809E+01 0. -1.
       -4    1    3    3    0  502 -0.31326700304E+03 -0.23294318738E+02 -0.39527564897E+03  0.50489928902E+03  0.12699999809E+01 0.  1.
</event>
<event>
 5   0  0.7266519E-02  0.6377624E+03  0.7818609E-02  0.9830017E-01
       -1   -1    0    0    0  501  0.00000000000E+00  0.00000000000E+00  0.15050807299E+03  0.15050807308E+03  0.50400001928E-02 0. -1.
        1   -1    0    0  501    0  0.00000000000E+00  0.00000000000E+00 -0.67561305640E+03  0.67561305641E+03  0.50400001928E-02 0.  1.
    10030    2    1    2    0    0  0.00000000000E+00  0.00000000000E+00 -0.52510498340E+03  0.82612112949E+03  0.63776239854E+03 0.  0.
        4    1    3    3  502    0  0.77611490760E+02  0.13384882305E+03  0.98624280132E+02  0.18348681822E+03  0.12699999809E+01 0. -1.
       -4    1    3    3    0  502 -0.77611490760E+02 -0.13384882305E+03 -0.62372926354E+03  0.64263431127E+03  0.12699999809E+01 0.  1.
</event>
<event>
 5   0  0.7123340E-02  0.5510058E+03  0.7818609E-02  0.1001261E+00
       -1   -1    0    0    0  501  0.00000000000E+00  0.00000000000E+00  0.55993559028E+03  0.55993559031E+03  0.50400001928E-02 0.  1.
        1   -1    0    0  501    0  0.00000000000E+00  0.00000000000E+00 -0.13555462294E+03  0.13555462303E+03  0.50400001928E-02 0. -1.
    10030    2    1    2    0    0  0.00000000000E+00  0.00000000000E+00  0.42438096735E+03  0.69549021334E+03  0.55100583609E+03 0.  0.
        2    1    3    3  502    0 -0.21795145145E+03 -0.13545693807E+03  0.85650616403E+02  0.27053178253E+03  0.25500000920E-02 0. -1.
       -2    1    3    3    0  502  0.21795145145E+03  0.13545693807E+03  0.33873035094E+03  0.42495843081E+03  0.25500000920E-02 0.  1.
</event>
<event>
 5   0  0.4695625E-02  0.6062496E+03  0.7818609E-02  0.9892524E-01
       -3   -1    0    0    0  501  0.00000000000E+00  0.00000000000E+00  0.50698189143E+03  0.50698190149E+03  0.10100000352E+00 0. -1.
        3   -1    0    0  501    0  0.00000000000E+00  0.00000000000E+00 -0.18123848671E+03  0.18123851485E+03  0.10100000352E+00 0.  1.
    10030    2    1    2    0    0  0.00000000000E+00  0.00000000000E+00  0.32574340473E+03  0.68822041634E+03  0.60624959855E+03 0.  0.
        1    1    3    3  502    0 -0.19063705333E+03 -0.32408743140E+02 -0.10212580520E+03  0.21868354498E+03  0.50400001928E-02 0.  1.
       -1    1    3    3    0  502  0.19063705333E+03  0.32408743140E+02  0.42786920993E+03  0.46953687136E+03  0.50400001928E-02 0. -1.
</event>
<event>
 5   0  0.1219020E-01  0.6011652E+03  0.7818609E-02  0.9902992E-01
       -2   -1    0    0    0  501  0.00000000000E+00  0.00000000000E+00  0.12729531551E+03  0.12729531553E+03  0.25500000920E-02 0. -1.
        2   -1    0    0  501    0  0.00000000000E+00  0.00000000000E+00 -0.70976614286E+03  0.70976614287E+03  0.25500000920E-02 0.  1.
    10030    2    1    2    0    0  0.00000000000E+00  0.00000000000E+00 -0.58247082736E+03  0.83706145840E+03  0.60116521890E+03 0.  0.
        2    1    3    3  502    0 -0.22897648878E+03 -0.21886737170E+01 -0.20111168271E+02  0.22986840106E+03  0.25500000920E-02 0. -1.
       -2    1    3    3    0  502  0.22897648878E+03  0.21886737170E+01 -0.56235965909E+03  0.60719305734E+03  0.25500000920E-02 0.  1.
</event>
<event>
 5   0  0.7123340E-02  0.6166220E+03  0.7818609E-02  0.9871508E-01
       -1   -1    0    0    0  501  0.00000000000E+00  0.00000000000E+00  0.17177936285E+03  0.17177936293E+03  0.50400001928E-02 0.  1.
        1   -1    0    0  501    0  0.00000000000E+00  0.00000000000E+00 -0.55335913762E+03  0.55335913765E+03  0.50400001928E-02 0. -1.
    10030    2    1    2    0    0  0.00000000000E+00  0.00000000000E+00 -0.38157977477E+03  0.72513850057E+03  0.61662202401E+03 0.  0.
        2    1    3    3  502    0  0.10322201008E+02  0.27693723040E+02 -0.55168942375E+03  0.55248050681E+03  0.25500000920E-02 0. -1.
       -2    1    3    3    0  502 -0.10322201008E+02 -0.27693723040E+02  0.17010964897E+03  0.17265799376E+03  0.25500000920E-02 0.  1.
</event>
<event>
 5   0  0.1175861E-01  0.5584021E+03  0.7818609E-02  0.9995677E-01
       -2   -1    0    0    0  501  0.00000000000E+00  0.00000000000E+00  0.32988500479E+03  0.32988500480E+03  0.25500000920E-02 0.  1.
        2   -1    0    0  501    0  0.00000000000E+00  0.00000000000E+00 -0.23630424061E+03  0.23630424063E+03  0.25500000920E-02 0. -1.
    10030    2    1    2    0    0  0.00000000000E+00  0.00000000000E+00  0.93580764178E+02  0.56618924543E+03  0.55840209725E+03 0.  0.
        3    1    3    3  502    0  0.15297798176E+03  0.15809034087E+03  0.22111351038E+03  0.31190705900E+03  0.10100000352E+00 0.  1.
       -3    1    3    3    0  502 -0.15297798176E+03 -0.15809034087E+03 -0.12753274621E+03  0.25428218643E+03  0.10100000352E+00 0. -1.
</event>
<event>
 5   0  0.1206238E-01  0.6033481E+03  0.7818609E-02  0.9898484E-01
        2   -1    0    0  501    0  0.00000000000E+00  0.00000000000E+00  0.41582332288E+03  0.41582332288E+03  0.25500000920E-02 0. -1.
       -2   -1    0    0    0  501  0.00000000000E+00  0.00000000000E+00 -0.21886031166E+03  0.21886031168E+03  0.25500000920E-02 0.  1.
    10030    2    1    2    0    0  0.00000000000E+00  0.00000000000E+00  0.19696301121E+03  0.63468363456E+03  0.60334806554E+03 0.  0.
        5    1    3    3  502    0  0.10946799051E+03 -0.14089827816E+03  0.35431956834E+03  0.39673670392E+03  0.46999998093E+01 0. -1.
       -5    1    3    3    0  502 -0.10946799051E+03  0.14089827816E+03 -0.15735655712E+03  0.23794693064E+03  0.46999998093E+01 0.  1.
</event>
<event>
 5   0  0.7221069E-02  0.5855473E+03  0.7818609E-02  0.9935853E-01
        1   -1    0    0  501    0  0.00000000000E+00  0.00000000000E+00  0.49363845243E+03  0.49363845245E+03  0.50400001928E-02 0.  1.
       -1   -1    0    0    0  501  0.00000000000E+00  0.00000000000E+00 -0.17364207825E+03  0.17364207833E+03  0.50400001928E-02 0. -1.
    10030    2    1    2    0    0  0.00000000000E+00  0.00000000000E+00  0.31999637417E+03  0.66728053078E+03  0.58554728868E+03 0.  0.
        5    1    3    3  502    0 -0.78459187285E+02 -0.13725557522E+03 -0.12076399313E+03  0.19899992219E+03  0.46999998093E+01 0. -1.
       -5    1    3    3    0  502  0.78459187285E+02  0.13725557522E+03  0.44076036730E+03  0.46828060859E+03  0.46999998093E+01 0.  1.
</event>
<event>
 5   0  0.7424930E-02  0.6004200E+03  0.7818609E-02  0.9904535E-01
        1   -1    0    0  501    0  0.00000000000E+00  0.00000000000E+00  0.51182933285E+03  0.51182933288E+03  0.50400001928E-02 0.  1.
       -1   -1    0    0    0  501  0.00000000000E+00  0.00000000000E+00 -0.17608612585E+03  0.17608612592E+03  0.50400001928E-02 0. -1.
    10030    2    1    2    0    0  0.00000000000E+00  0.00000000000E+00  0.33574320700E+03  0.68791545880E+03  0.60042000084E+03 0.  0.
        3    1    3    3  502    0 -0.13315414373E+03  0.19966767857E+03 -0.38768264095E+02  0.24310531948E+03  0.10100000352E+00 0. -1.
       -3    1    3    3    0  502  0.13315414373E+03 -0.19966767857E+03  0.37451147110E+03  0.44481013932E+03  0.10100000352E+00 0.  1.
</event>
<event>
 5   0  0.1175861E-01  0.5989814E+03  0.7818609E-02  0.9907522E-01
       -2   -1    0    0    0  501  0.00000000000E+00  0.00000000000E+00  0.65792605575E+02  0.65792605625E+02  0.25500000920E-02 0.  1.
        2   -1    0    0  501    0  0.00000000000E+00  0.00000000000E+00 -0.13632940706E+04  0.13632940706E+04  0.25500000920E-02 0. -1.
    10030    2    1    2    0    0  0.00000000000E+00  0.00000000000E+00 -0.12975014650E+04  0.14290866762E+04  0.59898136568E+03 0.  0.
        3    1    3    3  502    0 -0.24827946448E+03 -0.16735978843E+02 -0.25114938535E+03  0.35355170687E+03  0.10100000352E+00 0.  1.
       -3    1    3    3    0  502  0.24827946448E+03  0.16735978843E+02 -0.10463520797E+04  0.10755349694E+04  0.10100000352E+00 0. -1.
</event>
<event>
 5   0  0.1166419E-01  0.5923583E+03  0.7818609E-02  0.9921388E-01
       -2   -1    0    0    0  501  0.00000000000E+00  0.00000000000E+00  0.47280497377E+02  0.47280497445E+02  0.25500000920E-02 0. -1.
        2   -1    0    0  501    0  0.00000000000E+00  0.00000000000E+00 -0.18553545502E+04  0.18553545502E+04  0.25500000920E-02 0.  1.
    10030    2    1    2    0    0  0.00000000000E+00  0.00000000000E+00 -0.18080740528E+04  0.19026350477E+04  0.59235829027E+03 0.  0.
        1    1    3    3  502    0 -0.21277872915E+03 -0.20523406730E+03 -0.96205513994E+03  0.10064521361E+04  0.50400001928E-02 0. -1.
       -1    1    3    3    0  502  0.21277872915E+03  0.20523406730E+03 -0.84601891291E+03  0.89618291157E+03  0.50400001928E-02 0.  1.
</event>
<event>
 5   0  0.1166419E-01  0.5995029E+03  0.7818609E-02  0.9906438E-01
       -2   -1    0    0    0  501  0.00000000000E+00  0.00000000000E+00  0.17726612178E+03  0.17726612180E+03  0.25500000920E-02 0. -1.
        2   -1    0    0  501    0  0.00000000000E+00  0.00000000000E+00 -0.50687037291E+03  0.50687037292E+03  0.25500000920E-02 0.  1.
    10030    2    1    2    0    0  0.00000000000E+00  0.00000000000E+00 -0.32960425113E+03  0.68413649472E+03  0.59950294499E+03 0.  0.
        1    1    3    3  502    0  0.22465632768E+03 -0.19837852135E+03 -0.17067023309E+03  0.34489539253E+03  0.50400001928E-02 0. -1.
       -1    1    3    3    0  502 -0.22465632768E+03  0.19837852135E+03 -0.15893401805E+03  0.33924110219E+03  0.50400001928E-02 0.  1.
</event>
<event>
 5   0  0.1219020E-01  0.6042333E+03  0.7818609E-02  0.9896662E-01
        2   -1    0    0  501    0  0.00000000000E+00  0.00000000000E+00  0.66412923165E+03  0.66412923166E+03  0.25500000920E-02 0.  1.
       -2   -1    0    0    0  501  0.00000000000E+00  0.00000000000E+00 -0.13743480997E+03  0.13743480999E+03  0.25500000920E-02 0. -1.
    10030    2    1    2    0    0  0.00000000000E+00  0.00000000000E+00  0.52669442168E+03  0.80156404165E+03  0.60423331506E+03 0.  0.
        2    1    3    3  502    0  0.69505235795E+02  0.14046135184E+03  0.60599062871E+03  0.62592732106E+03  0.25500000920E-02 0.  1.
       -2    1    3    3    0  502 -0.69505235795E+02 -0.14046135184E+03 -0.79296207022E+02  0.17563672059E+03  0.25500000920E-02 0. -1.
</event>
<event>
 5   0  0.7263385E-02  0.6574170E+03  0.7818609E-02  0.9792960E-01
       -1   -1    0    0    0  501  0.00000000000E+00  0.00000000000E+00  0.70887357383E+02  0.70887357562E+02  0.50400001928E-02 0. -1.
        1   -1    0    0  501    0  0.00000000000E+00  0.00000000000E+00 -0.15242389237E+04  0.15242389237E+04  0.50400001928E-02 0.  1.
    10030    2    1    2    0    0  0.00000000000E+00  0.00000000000E+00 -0.14533515664E+04  0.15951262813E+04  0.65741697414E+03 0.  0.
        1    1    3    3  502    0  0.14099307488E+02  0.94951611575E+02  0.36120936285E+02  0.10256374153E+03  0.50400001928E-02 0. -1.
       -1    1    3    3    0  502 -0.14099307488E+02 -0.94951611575E+02 -0.14894725026E+04  0.14925625398E+04  0.50400001928E-02 0.  1.
</event>
<event>
 5   0  0.1166419E-01  0.6023249E+03  0.7818609E-02  0.9900594E-01
        2   -1    0    0  501    0  0.00000000000E+00  0.00000000000E+00  0.11295427327E+04  0.11295427327E+04  0.25500000920E-02 0.  1.
       -2   -1    0    0    0  501  0.00000000000E+00  0.00000000000E+00 -0.80296942418E+02  0.80296942459E+02  0.25500000920E-02 0. -1.
    10030    2    1    2    0    0  0.00000000000E+00  0.00000000000E+00  0.10492457903E+04  0.12098396751E+04  0.60232492159E+03 0.  0.
        1    1    3    3  502    0  0.27764983953E+03 -0.32254292491E+02  0.74981248136E+03  0.80021780160E+03  0.50400001928E-02 0.  1.
       -1    1    3    3    0  502 -0.27764983953E+03  0.32254292491E+02  0.29943330890E+03  0.40962187354E+03  0.50400001928E-02 0. -1.
</event>
<event>
 5   0  0.1146468E-01  0.5869728E+03  0.7818609E-02  0.9932808E-01
        2   -1    0    0  501    0  0.00000000000E+00  0.00000000000E+00  0.39489934828E+03  0.39489934829E+03  0.25500000920E-02 0. -1.
       -2   -1    0    0    0  501  0.00000000000E+00  0.00000000000E+00 -0.21811702384E+03  0.21811702385E+03  0.25500000920E-02 0.  1.
    10030    2    1    2    0    0  0.00000000000E+00  0.00000000000E+00  0.17678232444E+03  0.61301637214E+03  0.58697281222E+03 0.  0.
        4    1    3    3  502    0 -0.52842978684E+02 -0.75431190529E+02  0.37941326350E+03  0.39043345441E+03  0.12699999809E+01 0. -1.
       -4    1    3    3    0  502  0.52842978684E+02  0.75431190529E+02 -0.20263093906E+03  0.22258291773E+03  0.12699999809E+01 0.  1.
</event>
<event>
 5   0  0.1175861E-01  0.6018905E+03  0.7818609E-02  0.9901492E-01
       -2   -1    0    0    0  501  0.00000000000E+00  0.00000000000E+00  0.12073535655E+03  0.12073535658E+03  0.25500000920E-02 0.  1.
        2   -1    0    0  501    0  0.00000000000E+00  0.00000000000E+00 -0.75013684515E+03  0.75013684515E+03  0.25500000920E-02 0. -1.
    10030    2    1    2    0    0  0.00000000000E+00  0.00000000000E+00 -0.62940148860E+03  0.87087220173E+03  0.60189048664E+03 0.  0.
        3    1    3    3  502    0 -0.19113689880E+03  0.70648188464E+02 -0.63512685071E+03  0.66701619719E+03  0.10100000352E+00 0. -1.
       -3    1    3    3    0  502  0.19113689880E+03 -0.70648188464E+02  0.57253621192E+01  0.20385600454E+03  0.10100000352E+00 0.  1.
</event>
<event>
 5   0  0.7424930E-02  0.5973332E+03  0.7818609E-02  0.9910954E-01
        1   -1    0    0  501    0  0.00000000000E+00  0.00000000000E+00  0.40190600142E+03  0.40190600145E+03  0.50400001928E-02 0.  1.
       -1   -1    0    0    0  501  0.00000000000E+00  0.00000000000E+00 -0.22194679605E+03  0.22194679611E+03  0.50400001928E-02 0. -1.
    10030    2    1    2    0    0  0.00000000000E+00  0.00000000000E+00  0.17995920536E+03  0.62385279756E+03  0.59733323818E+03 0.  0.
        3    1    3    3  502    0 -0.44009362899E+02 -0.67337166034E+02 -0.21041947035E+03  0.22527201703E+03  0.10100000352E+00 0. -1.
       -3    1    3    3    0  502  0.44009362899E+02  0.67337166034E+02  0.39037867572E+03  0.39858078053E+03  0.10100000352E+00 0.  1.
</event>
<event>
 5   0  0.4695625E-02  0.6017054E+03  0.7818609E-02  0.9901874E-01
       -4   -1    0    0    0  501  0.00000000000E+00  0.00000000000E+00  0.20225851589E+03  0.20226250307E+03  0.12699999809E+01 0. -1.
        4   -1    0    0  501    0  0.00000000000E+00  0.00000000000E+00 -0.44749889644E+03  0.44750069856E+03  0.12699999809E+01 0.  1.
    10030    2    1    2    0    0  0.00000000000E+00  0.00000000000E+00 -0.24524038055E+03  0.64976320163E+03  0.60170538799E+03 0.  0.
        1    1    3    3  502    0 -0.70967565692E+02 -0.36752910835E+02  0.19058878113E+03  0.20666701564E+03  0.50400001928E-02 0. -1.
       -1    1    3    3    0  502  0.70967565692E+02  0.36752910835E+02 -0.43582916169E+03  0.44309618599E+03  0.50400001928E-02 0.  1.
</event>
<event>
 5   0  0.1166419E-01  0.5999470E+03  0.7818609E-02  0.9905516E-01
       -2   -1    0    0    0  501  0.00000000000E+00  0.00000000000E+00  0.85832600120E+02  0.85832600157E+02  0.25500000920E-02 0. -1.
        2   -1    0    0  501    0  0.00000000000E+00  0.00000000000E+00 -0.10483674740E+04  0.10483674740E+04  0.25500000920E-02 0.  1.
    10030    2    1    2    0    0  0.00000000000E+00  0.00000000000E+00 -0.96253487387E+03  0.11342000741E+04  0.59994701831E+03 0.  0.
        1    1    3    3  502    0  0.93880619137E+02 -0.46725954394E+02 -0.10125862435E+04  0.10180018595E+04  0.50400001928E-02 0.  1.
       -1    1    3    3    0  502 -0.93880619137E+02  0.46725954394E+02  0.50051369597E+02  0.11619821465E+03  0.50400001928E-02 0. -1.
</event>
<event>
 5   0  0.1146468E-01  0.5981300E+03  0.7818609E-02  0.9909293E-01
        2   -1    0    0  501    0  0.00000000000E+00  0.00000000000E+00  0.83973485675E+03  0.83973485675E+03  0.25500000920E-02 0.  1.
       -2   -1    0    0    0  501  0.00000000000E+00  0.00000000000E+00 -0.10650967428E+03  0.10650967431E+03  0.25500000920E-02 0. -1.
    10030    2    1    2    0    0  0.00000000000E+00  0.00000000000E+00  0.73322518247E+03  0.94624453107E+03  0.59813003969E+03 0.  0.
        4    1    3    3  502    0 -0.68604368486E+02 -0.14502741324E+03 -0.32663465863E+02  0.16373156344E+03  0.12699999809E+01 0. -1.
       -4    1    3    3    0  502  0.68604368486E+02  0.14502741324E+03  0.76588864833E+03  0.78251296763E+03  0.12699999809E+01 0.  1.
</event>
<event>
 5   0  0.1175861E-01  0.5825864E+03  0.7818609E-02  0.9942207E-01
        2   -1    0    0  501    0  0.00000000000E+00  0.00000000000E+00  0.21917271811E+03  0.21917271813E+03  0.25500000920E-02 0.  1.
       -2   -1    0    0    0  501  0.00000000000E+00  0.00000000000E+00 -0.38714541974E+03  0.38714541975E+03  0.25500000920E-02 0. -1.
    10030    2    1    2    0    0  0.00000000000E+00  0.00000000000E+00 -0.16797270163E+03  0.60631813788E+03  0.58258635053E+03 0.  0.
        3    1    3    3  502    0 -0.12245313966E+03 -0.93751809255E+02  0.17319853018E+03  0.23190928012E+03  0.10100000352E+00 0.  1.
       -3    1    3    3    0  502  0.12245313966E+03  0.93751809255E+02 -0.34117123181E+03  0.37440885775E+03  0.10100000352E+00 0. -1.
</event>
<event>
 5   0  0.7263385E-02  0.5799404E+03  0.7818609E-02  0.9947920E-01
        1   -1    0    0  501    0  0.00000000000E+00  0.00000000000E+00  0.26737648059E+04  0.26737648059E+04  0.50400001928E-02 0. -1.
       -1   -1    0    0    0  501  0.00000000000E+00  0.00000000000E+00 -0.31447315171E+02  0.31447315575E+02  0.50400001928E-02 0.  1.
    10030    2    1    2    0    0  0.00000000000E+00  0.00000000000E+00  0.26423174908E+04  0.27052121215E+04  0.57994042831E+03 0.  0.
        1    1    3    3  502    0  0.34080860992E+01 -0.28821678452E+03  0.11734881293E+04  0.12083687019E+04  0.50400001928E-02 0. -1.
       -1    1    3    3    0  502 -0.34080860992E+01  0.28821678452E+03  0.14688293614E+04  0.14968434197E+04  0.50400001928E-02 0.  1.
</event>
<event>
 5   0  0.1219020E-01  0.5784808E+03  0.7818609E-02  0.9951086E-01
       -2   -1    0    0    0  501  0.00000000000E+00  0.00000000000E+00  0.10015190544E+03  0.10015190548E+03  0.25500000920E-02 0. -1.
        2   -1    0    0  501    0  0.00000000000E+00  0.00000000000E+00 -0.83533114113E+03  0.83533114114E+03  0.25500000920E-02 0.  1.
    10030    2    1    2    0    0  0.00000000000E+00  0.00000000000E+00 -0.73517923569E+03  0.93548304661E+03  0.57848078785E+03 0.  0.
        2    1    3    3  502    0 -0.84170196402E+02  0.25751407850E+03 -0.53140719871E+03  0.59648280229E+03  0.25500000920E-02 0.  1.
       -2    1    3    3    0  502  0.84170196402E+02 -0.25751407850E+03 -0.20377203698E+03  0.33900024432E+03  0.25500000920E-02 0. -1.
</event>
<event>
 5   0  0.7266519E-02  0.5948165E+03  0.7818609E-02  0.9916219E-01
        1   -1    0    0  501    0  0.00000000000E+00  0.00000000000E+00  0.20549593036E+03  0.20549593042E+03  0.50400001928E-02 0.  1.
       -1   -1    0    0    0  501  0.00000000000E+00  0.00000000000E+00 -0.43043028291E+03  0.43043028294E+03  0.50400001928E-02 0. -1.
    10030    2    1    2    0    0  0.00000000000E+00  0.00000000000E+00 -0.22493435255E+03  0.63592621336E+03  0.59481651446E+03 0.  0.
        4    1    3    3  502    0 -0.12014248839E+03  0.17152455863E+03 -0.33823789008E+03  0.39782078241E+03  0.12699999809E+01 0. -1.
       -4    1    3    3    0  502  0.12014248839E+03 -0.17152455863E+03  0.11330353753E+03  0.23810543095E+03  0.12699999809E+01 0.  1.
</event>
<event>
 5   0  0.7123340E-02  0.5839372E+03  0.7818609E-02  0.9939303E-01
       -1   -1    0    0    0  501  0.00000000000E+00  0.00000000000E+00  0.39511985284E+03  0.39511985287E+03  0.50400001928E-02 0.  1.
        1   -1    0    0  501    0  0.00000000000E+00  0.00000000000E+00 -0.21574632351E+03  0.21574632356E+03  0.50400001928E-02 0. -1.
    10030    2    1    2    0    0  0.00000000000E+00  0.00000000000E+00  0.17937352933E+03  0.61086617643E+03  0.58393717340E+03 0.  0.
        2    1    3    3  502    0 -0.23231038731E+03 -0.11479575082E+03  0.23042527390E+03  0.34675926421E+03  0.25500000920E-02 0.  1.
       -2    1    3    3    0  502  0.23231038731E+03  0.11479575082E+03 -0.51051744568E+02  0.26410691223E+03  0.25500000920E-02 0. -1.
</event>
<event>
 5   0  0.1206238E-01  0.5788781E+03  0.7818609E-02  0.9950223E-01
       -2   -1    0    0    0  501  0.00000000000E+00  0.00000000000E+00  0.21838832988E+03  0.21838832989E+03  0.25500000920E-02 0.  1.
        2   -1    0    0  501    0  0.00000000000E+00  0.00000000000E+00 -0.38360550921E+03  0.38360550922E+03  0.25500000920E-02 0. -1.
    10030    2    1    2    0    0  0.00000000000E+00  0.00000000000E+00 -0.16521717934E+03  0.60199383911E+03  0.57887810978E+03 0.  0.
        5    1    3    3  502    0 -0.60213603512E+02 -0.18706663123E+02 -0.37633599943E+03  0.38161039262E+03  0.46999998093E+01 0. -1.
       -5    1    3    3    0  502  0.60213603512E+02  0.18706663123E+02  0.21111882009E+03  0.22038344649E+03  0.46999998093E+01 0.  1.
</event>
<event>
 5   0  0.7263385E-02  0.6027719E+03  0.7818609E-02  0.9899672E-01
       -1   -1    0    0    0  501  0.00000000000E+00  0.00000000000E+00  0.25420466511E+03  0.25420466516E+03  0.50400001928E-02 0.  1.
        1   -1    0    0  501    0  0.00000000000E+00  0.00000000000E+00 -0.35732421801E+03  0.35732421804E+03  0.50400001928E-02 0. -1.
    10030    2    1    2    0    0  0.00000000000E+00  0.00000000000E+00 -0.10311955290E+03  0.61152888320E+03  0.60277187459E+03 0.  0.
        1    1    3    3  502    0 -0.28185740549E+03  0.96818138456E+02 -0.60060705648E+01  0.29808291107E+03  0.50400001928E-02 0.  1.
       -1    1    3    3    0  502  0.28185740549E+03 -0.96818138456E+02 -0.97113482336E+02  0.31344597213E+03  0.50400001928E-02 0. -1.
</event>
<event>
 5   0  0.1146468E-01  0.6635775E+03  0.7818609E-02  0.9781630E-01
        2   -1    0    0  501    0  0.00000000000E+00  0.00000000000E+00  0.51540968057E+03  0.51540968058E+03  0.25500000920E-02 0. -1.
       -2   -1    0    0    0  501  0.00000000000E+00  0.00000000000E+00 -0.21358496458E+03  0.21358496459E+03  0.25500000920E-02 0.  1.
    10030    2    1    2    0    0  0.00000000000E+00  0.00000000000E+00  0.30182471600E+03  0.72899464517E+03  0.66357745102E+03 0.  0.
        4    1    3    3  502    0  0.76857810871E+02  0.32267502614E+03  0.14270234443E+03  0.36109814122E+03  0.12699999809E+01 0. -1.
       -4    1    3    3    0  502 -0.76857810871E+02 -0.32267502614E+03  0.15912237156E+03  0.36789650395E+03  0.12699999809E+01 0.  1.
</event>
<event>
 5   0  0.7221069E-02  0.6142289E+03  0.7818609E-02  0.9876318E-01
       -1   -1    0    0    0  501  0.00000000000E+00  0.00000000000E+00  0.17336860537E+03  0.17336860544E+03  0.50400001928E-02 0. -1.
        1   -1    0    0  501    0  0.00000000000E+00  0.00000000000E+00 -0.54403900831E+03  0.54403900834E+03  0.50400001928E-02 0.  1.
    10030    2    1    2    0    0  0.00000000000E+00  0.00000000000E+00 -0.37067040295E+03  0.71740761378E+03  0.61422889601E+03 0.  0.
        5    1    3    3  502    0  0.20397203996E+03 -0.63934896597E+02  0.72164007465E+02  0.22565903053E+03  0.46999998093E+01 0. -1.
       -5    1    3    3    0  502 -0.20397203996E+03  0.63934896597E+02 -0.44283441041E+03  0.49174858325E+03  0.46999998093E+01 0.  1.
</event>
<event>
 5   0  0.1175861E-01  0.6078094E+03  0.7818609E-02  0.9889335E-01
        2   -1    0    0  501    0  0.00000000000E+00  0.00000000000E+00  0.74857842761E+03  0.74857842762E+03  0.25500000920E-02 0. -1.
       -2   -1    0    0    0  501  0.00000000000E+00  0.00000000000E+00 -0.12337795290E+03  0.12337795292E+03  0.25500000920E-02 0.  1.
    10030    2    1    2    0    0  0.00000000000E+00  0.00000000000E+00  0.62520047471E+03  0.87195638054E+03  0.60780942406E+03 0.  0.
        3    1    3    3  502    0 -0.74641359412E+02  0.63117505950E+02 -0.10020969193E+03  0.13998980195E+03  0.10100000352E+00 0.  1.
       -3    1    3    3    0  502  0.74641359412E+02 -0.63117505950E+02  0.72541016665E+03  0.73196657859E+03  0.10100000352E+00 0. -1.
</event>
<event>
 5   0  0.1175861E-01  0.5719676E+03  0.7818609E-02  0.9965334E-01
        2   -1    0    0  501    0  0.00000000000E+00  0.00000000000E+00  0.58584793611E+03  0.58584793611E+03  0.25500000920E-02 0. -1.
       -2   -1    0    0    0  501  0.00000000000E+00  0.00000000000E+00 -0.13960401769E+03  0.13960401771E+03  0.25500000920E-02 0.  1.
    10030    2    1    2    0    0  0.00000000000E+00  0.00000000000E+00  0.44624391842E+03  0.72545195383E+03  0.57196757127E+03 0.  0.
        3    1    3    3  502    0 -0.23632050878E+03 -0.13336679707E+03  0.10860069990E+03  0.29228104224E+03  0.10100000352E+00 0.  1.
       -3    1    3    3    0  502  0.23632050878E+03  0.13336679707E+03  0.33764321852E+03  0.43317091159E+03  0.10100000352E+00 0. -1.
</event>
<event>
 5   0  0.7424930E-02  0.5963754E+03  0.7818609E-02  0.9912955E-01
        1   -1    0    0  501    0  0.00000000000E+00  0.00000000000E+00  0.29486749866E+03  0.29486749870E+03  0.50400001928E-02 0. -1.
       -1   -1    0    0    0  501  0.00000000000E+00  0.00000000000E+00 -0.30154527068E+03  0.30154527072E+03  0.50400001928E-02 0.  1.
    10030    2    1    2    0    0  0.00000000000E+00  0.00000000000E+00 -0.66777720141E+01  0.59641276942E+03  0.59637538421E+03 0.  0.
        3    1    3    3  502    0  0.25773955510E+03  0.89413593444E+02  0.11704897667E+03  0.29685845465E+03  0.10100000352E+00 0. -1.
       -3    1    3    3    0  502 -0.25773955510E+03 -0.89413593444E+02 -0.12372674869E+03  0.29955431477E+03  0.10100000352E+00 0.  1.
</event>
<event>
 5   0  0.1219020E-01  0.6090777E+03  0.7818609E-02  0.9886750E-01
       -2   -1    0    0    0  501  0.00000000000E+00  0.00000000000E+00  0.55812089624E+02  0.55812089682E+02  0.25500000920E-02 0.  1.
        2   -1    0    0  501    0  0.00000000000E+00  0.00000000000E+00 -0.16617171214E+04  0.16617171214E+04  0.25500000920E-02 0. -1.
    10030    2    1    2    0    0  0.00000000000E+00  0.00000000000E+00 -0.16059050317E+04  0.17175292111E+04  0.60907767964E+03 0.  0.
        2    1    3    3  502    0  0.15004924833E+03  0.26397280575E+03 -0.86893336461E+03  0.92045728377E+03  0.25500000920E-02 0. -1.
       -2    1    3    3    0  502 -0.15004924833E+03 -0.26397280575E+03 -0.73697166713E+03  0.79707192728E+03  0.25500000920E-02 0.  1.
</event>
<event>
 5   0  0.1146468E-01  0.4732186E+03  0.7818609E-02  0.1021016E+00
       -2   -1    0    0    0  501  0.00000000000E+00  0.00000000000E+00  0.13317000142E+03  0.13317000145E+03  0.25500000920E-02 0.  1.
        2   -1    0    0  501    0  0.00000000000E+00  0.00000000000E+00 -0.42039465872E+03  0.42039465872E+03  0.25500000920E-02 0. -1.
    10030    2    1    2    0    0  0.00000000000E+00  0.00000000000E+00 -0.28722465729E+03  0.55356466017E+03  0.47321858505E+03 0.  0.
        4    1    3    3  502    0  0.22036532286E+03 -0.84640745319E+02 -0.16238049762E+03  0.28652045336E+03  0.12699999809E+01 0.  1.
       -4    1    3    3    0  502 -0.22036532286E+03  0.84640745319E+02 -0.12484415968E+03  0.26704420681E+03  0.12699999809E+01 0. -1.
</event>
<event>
 5   0  0.1146468E-01  0.5993979E+03  0.7818609E-02  0.9906656E-01
       -2   -1    0    0    0  501  0.00000000000E+00  0.00000000000E+00  0.47587055574E+02  0.47587055642E+02  0.25500000920E-02 0. -1.
        2   -1    0    0  501    0  0.00000000000E+00  0.00000000000E+00 -0.18874767133E+04  0.18874767133E+04  0.25500000920E-02 0.  1.
    10030    2    1    2    0    0  0.00000000000E+00  0.00000000000E+00 -0.18398896577E+04  0.19350637689E+04  0.59939789562E+03 0.  0.
        4    1    3    3  502    0  0.19434169518E+03  0.32910515764E+02 -0.19112437029E+03  0.27455770677E+03  0.12699999809E+01 0. -1.
       -4    1    3    3    0  502 -0.19434169518E+03 -0.32910515764E+02 -0.16487652874E+04  0.16605060622E+04  0.12699999809E+01 0.  1.
</event>
<event>
 5   0  0.7123340E-02  0.6142086E+03  0.7818609E-02  0.9876359E-01
       -1   -1    0    0    0  501  0.00000000000E+00  0.00000000000E+00  0.59610519127E+03  0.59610519129E+03  0.50400001928E-02 0.  1.
        1   -1    0    0  501    0  0.00000000000E+00  0.00000000000E+00 -0.15821542890E+03  0.15821542898E+03  0.50400001928E-02 0. -1.
    10030    2    1    2    0    0  0.00000000000E+00  0.00000000000E+00  0.43788976237E+03  0.75432062027E+03  0.61420855919E+03 0.  0.
        2    1    3    3  502    0  0.58621383488E+02 -0.25360734218E+03  0.41909379370E+03  0.49334851630E+03  0.25500000920E-02 0.  1.
       -2    1    3    3    0  502 -0.58621383488E+02  0.25360734218E+03  0.18795968665E+02  0.26097210397E+03  0.25500000920E-02 0. -1.
</event>
<event>
 5   0  0.7424930E-02  0.5896606E+03  0.7818609E-02  0.9927092E-01
        1   -1    0    0  501    0  0.00000000000E+00  0.00000000000E+00  0.36323233239E+03  0.36323233242E+03  0.50400001928E-02 0. -1.
       -1   -1    0    0    0  501  0.00000000000E+00  0.00000000000E+00 -0.23930940464E+03  0.23930940470E+03  0.50400001928E-02 0.  1.
    10030    2    1    2    0    0  0.00000000000E+00  0.00000000000E+00  0.12392292774E+03  0.60254173712E+03  0.58966062523E+03 0.  0.
        3    1    3    3  502    0 -0.10601358669E+03 -0.23846495591E+03  0.20214610633E+03  0.33010221791E+03  0.10100000352E+00 0. -1.
       -3    1    3    3    0  502  0.10601358669E+03  0.23846495591E+03 -0.78223178589E+02  0.27243951921E+03  0.10100000352E+00 0.  1.
</event>
<event>
 5   0  0.7263385E-02  0.4547567E+03  0.7818609E-02  0.1026313E+00
       -1   -1    0    0    0  501  0.00000000000E+00  0.00000000000E+00  0.58686010664E+02  0.58686010880E+02  0.50400001928E-02 0. -1.
        1   -1    0    0  501    0  0.00000000000E+00  0.00000000000E+00 -0.88097516840E+03  0.88097516841E+03  0.50400001928E-02 0.  1.
    10030    2    1    2    0    0  0.00000000000E+00  0.00000000000E+00 -0.82228915774E+03  0.93966117929E+03  0.45475671841E+03 0.  0.
        1    1    3    3  502    0  0.61854978071E+02 -0.81849062983E+01 -0.86294011607E+03  0.86519285420E+03  0.50400001928E-02 0.  1.
       -1    1    3    3    0  502 -0.61854978071E+02  0.81849062983E+01  0.40650958338E+02  0.74468325095E+02  0.50400001928E-02 0. -1.
</event>
<event>
 5   0  0.7123340E-02  0.5952694E+03  0.7818609E-02  0.9915269E-01
       -1   -1    0    0    0  501  0.00000000000E+00  0.00000000000E+00  0.69592872361E+03  0.69592872363E+03  0.50400001928E-02 0.  1.
        1   -1    0    0  501    0  0.00000000000E+00  0.00000000000E+00 -0.12729238648E+03  0.12729238658E+03  0.50400001928E-02 0. -1.
    10030    2    1    2    0    0  0.00000000000E+00  0.00000000000E+00  0.56863633713E+03  0.82322111021E+03  0.59526944520E+03 0.  0.
        2    1    3    3  502    0 -0.28886879881E+03 -0.33938904492E+02  0.19696946219E+03  0.35127482290E+03  0.25500000920E-02 0.  1.
       -2    1    3    3    0  502  0.28886879881E+03  0.33938904492E+02  0.37166687494E+03  0.47194628730E+03  0.25500000920E-02 0. -1.
</event>
<event>
 5   0  0.7263385E-02  0.5968529E+03  0.7818609E-02  0.9911957E-01
       -1   -1    0    0    0  501  0.00000000000E+00  0.00000000000E+00  0.94259520869E+02  0.94259521004E+02  0.50400001928E-02 0.  1.
        1   -1    0    0  501    0  0.00000000000E+00  0.00000000000E+00 -0.94482054769E+03  0.94482054770E+03  0.50400001928E-02 0. -1.
    10030    2    1    2    0    0  0.00000000000E+00  0.00000000000E+00 -0.85056102682E+03  0.10390800687E+04  0.59685285359E+03 0.  0.
        1    1    3    3  502    0  0.21677241883E+02 -0.22206575831E+03 -0.77029799376E+03  0.80196140995E+03  0.50400001928E-02 0. -1.
       -1    1    3    3    0  502 -0.21677241883E+02  0.22206575831E+03 -0.80263033060E+02  0.23711865876E+03  0.50400001928E-02 0.  1.
</event>
<event>
 5   0  0.1219020E-01  0.6089914E+03  0.7818609E-02  0.9886925E-01
        2   -1    0    0  501    0  0.00000000000E+00  0.00000000000E+00  0.68005807854E+03  0.68005807854E+03  0.25500000920E-02 0.  1.
       -2   -1    0    0    0  501  0.00000000000E+00  0.00000000000E+00 -0.13633779816E+03  0.13633779818E+03  0.25500000920E-02 0. -1.
    10030    2    1    2    0    0  0.00000000000E+00  0.00000000000E+00  0.54372028038E+03  0.81639587673E+03  0.60899136631E+03 0.  0.
        2    1    3    3  502    0 -0.29675240434E+03 -0.29991281660E+02  0.18969995749E+03  0.35347919363E+03  0.25500000920E-02 0. -1.
       -2    1    3    3    0  502  0.29675240434E+03  0.29991281660E+02  0.35402032290E+03  0.46291668309E+03  0.25500000920E-02 0.  1.
</event>
<event>
 5   0  0.7266519E-02  0.5971517E+03  0.7818609E-02  0.9911333E-01
       -1   -1    0    0    0  501  0.00000000000E+00  0.00000000000E+00  0.46953437921E+03  0.46953437923E+03  0.50400001928E-02 0.  1.
        1   -1    0    0  501    0  0.00000000000E+00  0.00000000000E+00 -0.18986371648E+03  0.18986371655E+03  0.50400001928E-02 0. -1.
    10030    2    1    2    0    0  0.00000000000E+00  0.00000000000E+00  0.27967066273E+03  0.65939809578E+03  0.59715171366E+03 0.  0.
        4    1    3    3  502    0 -0.19291297424E+03 -0.17684080544E+03  0.29854577109E+03  0.39701294240E+03  0.12699999809E+01 0.  1.
       -4    1    3    3    0  502  0.19291297424E+03  0.17684080544E+03 -0.18875108362E+02  0.26238515338E+03  0.12699999809E+01 0. -1.
</event>
<event>
 5   0  0.1146468E-01  0.5650071E+03  0.7818609E-02  0.9980788E-01
       -2   -1    0    0    0  501  0.00000000000E+00  0.00000000000E+00  0.58146874524E+02  0.58146874580E+02  0.25500000920E-02 0. -1.
        2   -1    0    0  501    0  0.00000000000E+00  0.00000000000E+00 -0.13725286830E+04  0.13725286830E+04  0.25500000920E-02 0.  1.
    10030    2    1    2    0    0  0.00000000000E+00  0.00000000000E+00 -0.13143818084E+04  0.14306755575E+04  0.56500709075E+03 0.  0.
        4    1    3    3  502    0  0.17221392015E+03 -0.64552372407E+02 -0.12001675802E+04  0.12141781074E+04  0.12699999809E+01 0.  1.
       -4    1    3    3    0  502 -0.17221392015E+03  0.64552372407E+02 -0.11421422824E+03  0.21649745013E+03  0.12699999809E+01 0. -1.
</event>
<event>
 5   0  0.7266519E-02  0.6001643E+03  0.7818609E-02  0.9905065E-01
        1   -1    0    0  501    0  0.00000000000E+00  0.00000000000E+00  0.55471421955E+03  0.55471421958E+03  0.50400001928E-02 0. -1.
       -1   -1    0    0    0  501  0.00000000000E+00  0.00000000000E+00 -0.16233455155E+03  0.16233455163E+03  0.50400001928E-02 0.  1.
    10030    2    1    2    0    0  0.00000000000E+00  0.00000000000E+00  0.39237966801E+03  0.71704877120E+03  0.60016425786E+03 0.  0.
        4    1    3    3  502    0  0.26479645117E+02  0.77063478789E+02 -0.14885989637E+03  0.16970808176E+03  0.12699999809E+01 0.  1.
       -4    1    3    3    0  502 -0.26479645117E+02 -0.77063478789E+02  0.54123956438E+03  0.54734068944E+03  0.12699999809E+01 0. -1.
</event>
<event>
 5   0  0.7424930E-02  0.6469375E+03  0.7818609E-02  0.9812543E-01
        1   -1    0    0  501    0  0.00000000000E+00  0.00000000000E+00  0.99131649437E+02  0.99131649565E+02  0.50400001928E-02 0. -1.
       -1   -1    0    0    0  501  0.00000000000E+00  0.00000000000E+00 -0.10554855215E+04  0.10554855215E+04  0.50400001928E-02 0.  1.
    10030    2    1    2    0    0  0.00000000000E+00  0.00000000000E+00 -0.95635387201E+03  0.11546171710E+04  0.64693746461E+03 0.  0.
        3    1    3    3  502    0  0.20419822576E+02 -0.90525336958E+02 -0.10312175470E+04  0.10353846846E+04  0.10100000352E+00 0.  1.
       -3    1    3    3    0  502 -0.20419822576E+02  0.90525336958E+02  0.74863674952E+02  0.11923248640E+03  0.10100000352E+00 0. -1.
</event>
<event>
 5   0  0.1219020E-01  0.6009208E+03  0.7818609E-02  0.9903497E-01
        2   -1    0    0  501    0  0.00000000000E+00  0.00000000000E+00  0.42829308599E+03  0.42829308599E+03  0.25500000920E-02 0.  1.
       -2   -1    0    0    0  501  0.00000000000E+00  0.00000000000E+00 -0.21078196531E+03  0.21078196533E+03  0.25500000920E-02 0. -1.
    10030    2    1    2    0    0  0.00000000000E+00  0.00000000000E+00  0.21751112067E+03  0.63907505132E+03  0.60092082141E+03 0.  0.
        2    1    3    3  502    0 -0.65260361261E+02 -0.14681390194E+03 -0.16126113337E+03  0.22763652980E+03  0.25500000920E-02 0.  1.
       -2    1    3    3    0  502  0.65260361261E+02  0.14681390194E+03  0.37877225404E+03  0.41143852153E+03  0.25500000920E-02 0. -1.
</event>
<event>
 5   0  0.1175861E-01  0.6166802E+03  0.7818609E-02  0.9871392E-01
       -2   -1    0    0    0  501  0.00000000000E+00  0.00000000000E+00  0.10687693418E+03  0.10687693421E+03  0.25500000920E-02 0. -1.
        2   -1    0    0  501    0  0.00000000000E+00  0.00000000000E+00 -0.88956162356E+03  0.88956162356E+03  0.25500000920E-02 0.  1.
    10030    2    1    2    0    0  0.00000000000E+00  0.00000000000E+00 -0.78268468938E+03  0.99643855777E+03  0.61668020597E+03 0.  0.
        3    1    3    3  502    0 -0.28794675150E+01 -0.87048702774E+02  0.86587735397E+02  0.12281373746E+03  0.10100000352E+00 0. -1.
       -3    1    3    3    0  502  0.28794675150E+01  0.87048702774E+02 -0.86927242477E+03  0.87362482031E+03  0.10100000352E+00 0.  1.
</event>
<event>
 5   0  0.1206238E-01  0.5859667E+03  0.7818609E-02  0.9934956E-01
       -2   -1    0    0    0  501  0.00000000000E+00  0.00000000000E+00  0.92263640937E+02  0.92263640972E+02  0.25500000920E-02 0.  1.
        2   -1    0    0  501    0  0.00000000000E+00  0.00000000000E+00 -0.93036906797E+03  0.93036906798E+03  0.25500000920E-02 0. -1.
    10030    2    1    2    0    0  0.00000000000E+00  0.00000000000E+00 -0.83810542704E+03  0.10226327089E+04  0.58596668044E+03 0.  0.
        5    1    3    3  502    0  0.14284928547E+03 -0.40115016327E+02  0.21769990795E+02  0.15003718003E+03  0.46999998093E+01 0.  1.
       -5    1    3    3    0  502 -0.14284928547E+03  0.40115016327E+02 -0.85987541783E+03  0.87259552891E+03  0.46999998093E+01 0. -1.
</event>
<event>
 5   0  0.7266519E-02  0.5884335E+03  0.7818609E-02  0.9929698E-01
        1   -1    0    0  501    0  0.00000000000E+00  0.00000000000E+00  0.19652227859E+04  0.19652227859E+04  0.50400001928E-02 0. -1.
       -1   -1    0    0    0  501  0.00000000000E+00  0.00000000000E+00 -0.44047680436E+02  0.44047680724E+02  0.50400001928E-02 0.  1.
    10030    2    1    2    0    0  0.00000000000E+00  0.00000000000E+00  0.19211751055E+04  0.20092704666E+04  0.58843353254E+03 0.  0.
        4    1    3    3  502    0  0.23979620544E+03  0.19896049129E+02  0.38248083066E+03  0.45187528328E+03  0.12699999809E+01 0.  1.
       -4    1    3    3    0  502 -0.23979620544E+03 -0.19896049129E+02  0.15386942748E+04  0.15573951833E+04  0.12699999809E+01 0. -1.
</event>
<event>
 5   0  0.7263385E-02  0.5995914E+03  0.7818609E-02  0.9906254E-01
       -1   -1    0    0    0  501  0.00000000000E+00  0.00000000000E+00  0.21521870634E+03  0.21521870640E+03  0.50400001928E-02 0. -1.
        1   -1    0    0  501    0  0.00000000000E+00  0.00000000000E+00 -0.41760991171E+03  0.41760991174E+03  0.50400001928E-02 0.  1.
    10030    2    1    2    0    0  0.00000000000E+00  0.00000000000E+00 -0.20239120537E+03  0.63282861814E+03  0.59959141082E+03 0.  0.
        1    1    3    3  502    0 -0.10062519322E+03  0.20866338570E+02 -0.39843942577E+03  0.41147880824E+03  0.50400001928E-02 0.  1.
       -1    1    3    3    0  502  0.10062519322E+03 -0.20866338570E+02  0.19604822040E+03  0.22134980990E+03  0.50400001928E-02 0. -1.
</event>
<event>
 5   0  0.7424930E-02  0.6008260E+03  0.7818609E-02  0.9903694E-01
        1   -1    0    0  501    0  0.00000000000E+00  0.00000000000E+00  0.12786290846E+03  0.12786290856E+03  0.50400001928E-02 0.  1.
       -1   -1    0    0    0  501  0.00000000000E+00  0.00000000000E+00 -0.70581829226E+03  0.70581829228E+03  0.50400001928E-02 0. -1.
    10030    2    1    2    0    0  0.00000000000E+00  0.00000000000E+00 -0.57795538380E+03  0.83368120084E+03  0.60082603054E+03 0.  0.
        3    1    3    3  502    0 -0.21084587122E+02  0.20235147687E+03  0.17723845777E+02  0.20421759208E+03  0.10100000352E+00 0.  1.
       -3    1    3    3    0  502  0.21084587122E+02 -0.20235147687E+03 -0.59567922957E+03  0.62946360876E+03  0.10100000352E+00 0. -1.
</event>
<event>
 5   0  0.1175861E-01  0.6116083E+03  0.7818609E-02  0.9881611E-01
       -2   -1    0    0    0  501  0.00000000000E+00  0.00000000000E+00  0.47016124051E+02  0.47016124120E+02  0.25500000920E-02 0.  1.
        2   -1    0    0  501    0  0.00000000000E+00  0.00000000000E+00 -0.19890235211E+04  0.19890235211E+04  0.25500000920E-02 0. -1.
    10030    2    1    2    0    0  0.00000000000E+00  0.00000000000E+00 -0.19420073970E+04  0.20360396452E+04  0.61160829517E+03 0.  0.
        3    1    3    3  502    0  0.28014049241E+03 -0.19761326416E+02 -0.13738938258E+04  0.14023029132E+04  0.10100000352E+00 0. -1.
       -3    1    3    3    0  502 -0.28014049241E+03  0.19761326416E+02 -0.56811357124E+03  0.63373673204E+03  0.10100000352E+00 0.  1.
</event>
<event>
 5   0  0.1219020E-01  0.5971608E+03  0.7818609E-02  0.9911314E-01
        2   -1    0    0  501    0  0.00000000000E+00  0.00000000000E+00  0.19557202505E+04  0.19557202505E+04  0.25500000920E-02 0.  1.
       -2   -1    0    0    0  501  0.00000000000E+00  0.00000000000E+00 -0.45584353454E+02  0.45584353526E+02  0.25500000920E-02 0. -1.
    10030    2    1    2    0    0  0.00000000000E+00  0.00000000000E+00  0.19101358971E+04  0.20013046040E+04  0.59716075969E+03 0.  0.
        2    1    3    3  502    0  0.16216799580E+03 -0.27676538606E+02  0.12000723758E+03  0.20363247955E+03  0.25500000920E-02 0. -1.
       -2    1    3    3    0  502 -0.16216799580E+03  0.27676538606E+02  0.17901286595E+04  0.17976721245E+04  0.25500000920E-02 0.  1.
</event>
<event>
 5   0  0.4695625E-02  0.5957801E+03  0.7818609E-02  0.9914200E-01
       -4   -1    0    0    0  501  0.00000000000E+00  0.00000000000E+00  0.37361489252E+03  0.37361705102E+03  0.12699999809E+01 0.  1.
        4   -1    0    0  501    0  0.00000000000E+00  0.00000000000E+00 -0.23750869667E+03  0.23751209211E+03  0.12699999809E+01 0. -1.
    10030    2    1    2    0    0  0.00000000000E+00  0.00000000000E+00  0.13610619584E+03  0.61112914312E+03  0.59578010459E+03 0.  0.
        1    1    3    3  502    0 -0.13239303574E+03  0.15249033043E+03  0.29268643476E+03  0.35559325908E+03  0.50400001928E-02 0.  1.
       -1    1    3    3    0  502  0.13239303574E+03 -0.15249033043E+03 -0.15658023892E+03  0.25553588404E+03  0.50400001928E-02 0. -1.
</event>
<event>
 5   0  0.7123340E-02  0.6718729E+03  0.7818609E-02  0.9766580E-01
       -1   -1    0    0    0  501  0.00000000000E+00  0.00000000000E+00  0.27100593873E+03  0.27100593877E+03  0.50400001928E-02 0. -1.
        1   -1    0    0  501    0  0.00000000000E+00  0.00000000000E+00 -0.41642373561E+03  0.41642373564E+03  0.50400001928E-02 0.  1.
    10030    2    1    2    0    0  0.00000000000E+00  0.00000000000E+00 -0.14541779688E+03  0.68742967441E+03  0.67187292073E+03 0.  0.
        2    1    3    3  502    0 -0.28487381496E+03  0.72987885776E+02  0.93448915312E+02  0.30856607347E+03  0.25500000920E-02 0.  1.
       -2    1    3    3    0  502  0.28487381496E+03 -0.72987885776E+02 -0.23886671219E+03  0.37886360094E+03  0.25500000920E-02 0. -1.
</event>
<event>
 5   0  0.1166419E-01  0.5920566E+03  0.7818609E-02  0.9922025E-01
       -2   -1    0    0    0  501  0.00000000000E+00  0.00000000000E+00  0.10996364602E+03  0.10996364604E+03  0.25500000920E-02 0. -1.
        2   -1    0    0  501    0  0.00000000000E+00  0.00000000000E+00 -0.79692470610E+03  0.79692470610E+03  0.25500000920E-02 0.  1.
    10030    2    1    2    0    0  0.00000000000E+00  0.00000000000E+00 -0.68696106008E+03  0.90688835215E+03  0.59205657263E+03 0.  0.
        1    1    3    3  502    0  0.14052479009E+03 -0.22676792708E+03 -0.14695011815E+03  0.30457387713E+03  0.50400001928E-02 0. -1.
       -1    1    3    3    0  502 -0.14052479009E+03  0.22676792708E+03 -0.54001094193E+03  0.60231447501E+03  0.50400001928E-02 0.  1.
</event>
<event>
 5   0  0.7424930E-02  0.5130948E+03  0.7818609E-02  0.1010416E+00
        1   -1    0    0  501    0  0.00000000000E+00  0.00000000000E+00  0.22321626579E+03  0.22321626585E+03  0.50400001928E-02 0.  1.
       -1   -1    0    0    0  501  0.00000000000E+00  0.00000000000E+00 -0.29485564277E+03  0.29485564281E+03  0.50400001928E-02 0. -1.
    10030    2    1    2    0    0  0.00000000000E+00  0.00000000000E+00 -0.71639376981E+02  0.51807190866E+03  0.51309482770E+03 0.  0.
        3    1    3    3  502    0 -0.18807993664E+03 -0.16598858228E+03 -0.90102629386E+02  0.26654224062E+03  0.10100000352E+00 0. -1.
       -3    1    3    3    0  502  0.18807993664E+03  0.16598858228E+03  0.18463252405E+02  0.25152966804E+03  0.10100000352E+00 0.  1.
</event>
<event>
 5   0  0.1166419E-01  0.6141096E+03  0.7818609E-02  0.9876558E-01
       -2   -1    0    0    0  501  0.00000000000E+00  0.00000000000E+00  0.12933282677E+03  0.12933282679E+03  0.25500000920E-02 0. -1.
        2   -1    0    0  501    0  0.00000000000E+00  0.00000000000E+00 -0.72899252934E+03  0.72899252934E+03  0.25500000920E-02 0.  1.
    10030    2    1    2    0    0  0.00000000000E+00  0.00000000000E+00 -0.59965970257E+03  0.85832535614E+03  0.61410964665E+03 0.  0.
        1    1    3    3  502    0 -0.12457263899E+03  0.82147889691E+02 -0.67490704707E+03  0.69120629365E+03  0.50400001928E-02 0.  1.
       -1    1    3    3    0  502  0.12457263899E+03 -0.82147889691E+02  0.75247344504E+02  0.16711906249E+03  0.50400001928E-02 0. -1.
</event>
<event>
 5   0  0.4695625E-02  0.6328180E+03  0.7818609E-02  0.9839565E-01
        4   -1    0    0  501    0  0.00000000000E+00  0.00000000000E+00  0.14471097785E+04  0.14471103358E+04  0.12699999809E+01 0.  1.
       -4   -1    0    0    0  501  0.00000000000E+00  0.00000000000E+00 -0.69176081340E+02  0.69187738289E+02  0.12699999809E+01 0. -1.
    10030    2    1    2    0    0  0.00000000000E+00  0.00000000000E+00  0.13779336972E+04  0.15162980741E+04  0.63281796409E+03 0.  0.
        3    1    3    3  502    0  0.13820356792E+03  0.28377261826E+03  0.74187187680E+03  0.80622640546E+03  0.10100000352E+00 0.  1.
       -3    1    3    3    0  502 -0.13820356792E+03 -0.28377261826E+03  0.63606182039E+03  0.71007166865E+03  0.10100000352E+00 0. -1.
</event>
<event>
 5   0  0.7266519E-02  0.5305675E+03  0.7818609E-02  0.1006095E+00
       -1   -1    0    0    0  501  0.00000000000E+00  0.00000000000E+00  0.34587956907E+03  0.34587956911E+03  0.50400001928E-02 0. -1.
        1   -1    0    0  501    0  0.00000000000E+00  0.00000000000E+00 -0.20346812807E+03  0.20346812813E+03  0.50400001928E-02 0.  1.
    10030    2    1    2    0    0  0.00000000000E+00  0.00000000000E+00  0.14241144100E+03  0.54934769724E+03  0.53056750177E+03 0.  0.
        4    1    3    3  502    0  0.14153939378E+03  0.19147607421E+03  0.19229562560E+03  0.30606487467E+03  0.12699999809E+01 0. -1.
       -4    1    3    3    0  502 -0.14153939378E+03 -0.19147607421E+03 -0.49884184600E+02  0.24328282257E+03  0.12699999809E+01 0.  1.
</event>
<event>
 5   0  0.1146468E-01  0.6084470E+03  0.7818609E-02  0.9888035E-01
       -2   -1    0    0    0  501  0.00000000000E+00  0.00000000000E+00  0.51577120377E+03  0.51577120377E+03  0.25500000920E-02 0.  1.
        2   -1    0    0  501    0  0.00000000000E+00  0.00000000000E+00 -0.17944377569E+03  0.17944377570E+03  0.25500000920E-02 0. -1.
    10030    2    1    2    0    0  0.00000000000E+00  0.00000000000E+00  0.33632742808E+03  0.69521497948E+03  0.60844698110E+03 0.  0.
        4    1    3    3  502    0  0.18776339689E+03  0.96509213619E+02  0.41844704317E+03  0.46868823579E+03  0.12699999809E+01 0.  1.
       -4    1    3    3    0  502 -0.18776339689E+03 -0.96509213619E+02 -0.82119615089E+02  0.22652674369E+03  0.12699999809E+01 0. -1.
</event>
<event>
 5   0  0.1219020E-01  0.6015150E+03  0.7818609E-02  0.9902268E-01
        2   -1    0    0  501    0  0.00000000000E+00  0.00000000000E+00  0.25503406194E+03  0.25503406196E+03  0.25500000920E-02 0.  1.
       -2   -1    0    0    0  501  0.00000000000E+00  0.00000000000E+00 -0.35467836117E+03  0.35467836118E+03  0.25500000920E-02 0. -1.
    10030    2    1    2    0    0  0.00000000000E+00  0.00000000000E+00 -0.99644299228E+02  0.60971242314E+03  0.60151496454E+03 0.  0.
        2    1    3    3  502    0  0.12250455917E+03  0.24911299286E+03  0.67471795117E+02  0.28568705496E+03  0.25500000920E-02 0.  1.
       -2    1    3    3    0  502 -0.12250455917E+03 -0.24911299286E+03 -0.16711609435E+03  0.32402536818E+03  0.25500000920E-02 0. -1.
</event>
<event>
 5   0  0.7221069E-02  0.6003021E+03  0.7818609E-02  0.9904779E-01
        1   -1    0    0  501    0  0.00000000000E+00  0.00000000000E+00  0.15661504048E+04  0.15661504048E+04  0.50400001928E-02 0.  1.
       -1   -1    0    0    0  501  0.00000000000E+00  0.00000000000E+00 -0.57523627841E+02  0.57523628061E+02  0.50400001928E-02 0. -1.
    10030    2    1    2    0    0  0.00000000000E+00  0.00000000000E+00  0.15086267770E+04  0.16236740329E+04  0.60030210133E+03 0.  0.
        5    1    3    3  502    0  0.26214159765E+03 -0.71557169144E+02  0.10988910650E+04  0.11319992529E+04  0.46999998093E+01 0. -1.
       -5    1    3    3    0  502 -0.26214159765E+03  0.71557169144E+02  0.40973571194E+03  0.49167478002E+03  0.46999998093E+01 0.  1.
</event>
<event>
 5   0  0.1206238E-01  0.6211942E+03  0.7818609E-02  0.9862385E-01
       -2   -1    0    0    0  501  0.00000000000E+00  0.00000000000E+00  0.52473661741E+03  0.52473661742E+03  0.25500000920E-02 0. -1.
        2   -1    0    0  501    0  0.00000000000E+00  0.00000000000E+00 -0.18384566177E+03  0.18384566179E+03  0.25500000920E-02 0.  1.
    10030    2    1    2    0    0  0.00000000000E+00  0.00000000000E+00  0.34089095564E+03  0.70858227920E+03  0.62119417477E+03 0.  0.
        5    1    3    3  502    0 -0.98248601244E+02  0.18621513048E+03 -0.89967990687E+02  0.22900915225E+03  0.46999998093E+01 0.  1.
       -5    1    3    3    0  502  0.98248601244E+02 -0.18621513048E+03  0.43085894633E+03  0.47957312696E+03  0.46999998093E+01 0. -1.
</event>
<event>
 5   0  0.1219020E-01  0.6094646E+03  0.7818609E-02  0.9885962E-01
        2   -1    0    0  501    0  0.00000000000E+00  0.00000000000E+00  0.56691717530E+03  0.56691717530E+03  0.25500000920E-02 0.  1.
       -2   -1    0    0    0  501  0.00000000000E+00  0.00000000000E+00 -0.16380132847E+03  0.16380132849E+03  0.25500000920E-02 0. -1.
    10030    2    1    2    0    0  0.00000000000E+00  0.00000000000E+00  0.40311584683E+03  0.73071850379E+03  0.60946463869E+03 0.  0.
        2    1    3    3  502    0 -0.29876239433E+01 -0.30326038202E+03  0.16587020697E+03  0.34567139130E+03  0.25500000920E-02 0. -1.
       -2    1    3    3    0  502  0.29876239433E+01  0.30326038202E+03  0.23724563986E+03  0.38504711249E+03  0.25500000920E-02 0.  1.
</event>
<event>
 5   0  0.4695625E-02  0.5812619E+03  0.7818609E-02  0.9945063E-01
        4   -1    0    0  501    0  0.00000000000E+00  0.00000000000E+00  0.15343267209E+04  0.15343272465E+04  0.12699999809E+01 0. -1.
       -4   -1    0    0    0  501  0.00000000000E+00  0.00000000000E+00 -0.55043223123E+02  0.55057872387E+02  0.12699999809E+01 0.  1.
    10030    2    1    2    0    0  0.00000000000E+00  0.00000000000E+00  0.14792834978E+04  0.15893851189E+04  0.58126189396E+03 0.  0.
        4    1    3    3  502    0  0.55831085895E+02  0.23851909206E+03  0.11672561999E+04  0.11926848354E+04  0.12699999809E+01 0. -1.
       -4    1    3    3    0  502 -0.55831085895E+02 -0.23851909206E+03  0.31202729791E+03  0.39670028355E+03  0.12699999809E+01 0.  1.
</event>
<event>
 5   0  0.7424930E-02  0.6088081E+03  0.7818609E-02  0.9887299E-01
       -1   -1    0    0    0  501  0.00000000000E+00  0.00000000000E+00  0.14164918788E+03  0.14164918797E+03  0.50400001928E-02 0. -1.
        1   -1    0    0  501    0  0.00000000000E+00  0.00000000000E+00 -0.65416415715E+03  0.65416415717E+03  0.50400001928E-02 0.  1.
    10030    2    1    2    0    0  0.00000000000E+00  0.00000000000E+00 -0.51251496927E+03  0.79581334513E+03  0.60880808681E+03 0.  0.
        3    1    3    3  502    0 -0.50303460871E+02 -0.87840213799E+02 -0.63151999128E+03  0.63958099637E+03  0.10100000352E+00 0.  1.
       -3    1    3    3    0  502  0.50303460871E+02  0.87840213799E+02  0.11900502200E+03  0.15623234876E+03  0.10100000352E+00 0. -1.
</event>
<event>
 5   0  0.1166419E-01  0.5757141E+03  0.7818609E-02  0.9957113E-01
       -2   -1    0    0    0  501  0.00000000000E+00  0.00000000000E+00  0.15690130406E+03  0.15690130408E+03  0.25500000920E-02 0.  1.
        2   -1    0    0  501    0  0.00000000000E+00  0.00000000000E+00 -0.52811338521E+03  0.52811338521E+03  0.25500000920E-02 0. -1.
    10030    2    1    2    0    0  0.00000000000E+00  0.00000000000E+00 -0.37121208115E+03  0.68501468929E+03  0.57571409168E+03 0.  0.
        1    1    3    3  502    0  0.18864508407E+03 -0.21519883752E+03 -0.14865980911E+03  0.32248604045E+03  0.50400001928E-02 0.  1.
       -1    1    3    3    0  502 -0.18864508407E+03  0.21519883752E+03 -0.22255227204E+03  0.36252864884E+03  0.50400001928E-02 0. -1.
</event>
<event>
 5   0  0.7424930E-02  0.5967795E+03  0.7818609E-02  0.9912110E-01
        1   -1    0    0  501    0  0.00000000000E+00  0.00000000000E+00  0.22632882994E+03  0.22632883000E+03  0.50400001928E-02 0.  1.
       -1   -1    0    0    0  501  0.00000000000E+00  0.00000000000E+00 -0.39339420873E+03  0.39339420876E+03  0.50400001928E-02 0. -1.
    10030    2    1    2    0    0  0.00000000000E+00  0.00000000000E+00 -0.16706537879E+03  0.61972303877E+03  0.59677952712E+03 0.  0.
        3    1    3    3  502    0 -0.13321248621E+03 -0.93909219089E+02 -0.34308577570E+03  0.37983202551E+03  0.10100000352E+00 0. -1.
       -3    1    3    3    0  502  0.13321248621E+03  0.93909219089E+02  0.17602039691E+03  0.23989101326E+03  0.10100000352E+00 0.  1.
</event>
<event>
 5   0  0.1219020E-01  0.5947052E+03  0.7818609E-02  0.9916452E-01
        2   -1    0    0  501    0  0.00000000000E+00  0.00000000000E+00  0.21937800073E+04  0.21937800073E+04  0.25500000920E-02 0.  1.
       -2   -1    0    0    0  501  0.00000000000E+00  0.00000000000E+00 -0.40304212392E+02  0.40304212473E+02  0.25500000920E-02 0. -1.
    10030    2    1    2    0    0  0.00000000000E+00  0.00000000000E+00  0.21534757949E+04  0.22340842198E+04  0.59470522260E+03 0.  0.
        2    1    3    3  502    0 -0.16262736714E+03  0.22073830761E+03  0.64439114219E+03  0.70029494153E+03  0.25500000920E-02 0. -1.
       -2    1    3    3    0  502  0.16262736714E+03 -0.22073830761E+03  0.15090846527E+04  0.15337892782E+04  0.25500000920E-02 0.  1.
</event>
<event>
 5   0  0.1175861E-01  0.5985131E+03  0.7818609E-02  0.9908496E-01
       -2   -1    0    0    0  501  0.00000000000E+00  0.00000000000E+00  0.90660746945E+02  0.90660746981E+02  0.25500000920E-02 0. -1.
        2   -1    0    0  501    0  0.00000000000E+00  0.00000000000E+00 -0.98779762974E+03  0.98779762974E+03  0.25500000920E-02 0.  1.
    10030    2    1    2    0    0  0.00000000000E+00  0.00000000000E+00 -0.89713688279E+03  0.10784583767E+04  0.59851306072E+03 0.  0.
        3    1    3    3  502    0 -0.14521131148E+03  0.23539317186E+02 -0.91814837210E+03  0.92985852033E+03  0.10100000352E+00 0.  1.
       -3    1    3    3    0  502  0.14521131148E+03 -0.23539317186E+02  0.21011489309E+02  0.14859985639E+03  0.10100000352E+00 0. -1.
</event>
<event>
 5   0  0.1166419E-01  0.5859187E+03  0.7818609E-02  0.9935059E-01
       -2   -1    0    0    0  501  0.00000000000E+00  0.00000000000E+00  0.49139416803E+02  0.49139416869E+02  0.25500000920E-02 0. -1.
        2   -1    0    0  501    0  0.00000000000E+00  0.00000000000E+00 -0.17465649633E+04  0.17465649633E+04  0.25500000920E-02 0.  1.
    10030    2    1    2    0    0  0.00000000000E+00  0.00000000000E+00 -0.16974255465E+04  0.17957043801E+04  0.58591871028E+03 0.  0.
        1    1    3    3  502    0  0.25037927068E+03 -0.93885875890E+01 -0.13139849862E+04  0.13376600722E+04  0.50400001928E-02 0.  1.
       -1    1    3    3    0  502 -0.25037927068E+03  0.93885875890E+01 -0.38344056031E+03  0.45804430798E+03  0.50400001928E-02 0. -1.
</event>
<event>
 5   0  0.1206238E-01  0.6009157E+03  0.7818609E-02  0.9903508E-01
       -2   -1    0    0    0  501  0.00000000000E+00  0.00000000000E+00  0.56613606505E+03  0.56613606505E+03  0.25500000920E-02 0. -1.
        2   -1    0    0  501    0  0.00000000000E+00  0.00000000000E+00 -0.15945800489E+03  0.15945800491E+03  0.25500000920E-02 0.  1.
    10030    2    1    2    0    0  0.00000000000E+00  0.00000000000E+00  0.40667806016E+03  0.72559406996E+03  0.60091572599E+03 0.  0.
        5    1    3    3  502    0  0.16234391413E+03  0.24883573097E+03  0.25704233097E+03  0.39289644612E+03  0.46999998093E+01 0. -1.
       -5    1    3    3    0  502 -0.16234391413E+03 -0.24883573097E+03  0.14963572918E+03  0.33269762384E+03  0.46999998093E+01 0.  1.
</event>
<event>
 5   0  0.7266519E-02  0.6047474E+03  0.7818609E-02  0.9895605E-01
       -1   -1    0    0    0  501  0.00000000000E+00  0.00000000000E+00  0.38680014363E+03  0.38680014366E+03  0.50400001928E-02 0. -1.
        1   -1    0    0  501    0  0.00000000000E+00  0.00000000000E+00 -0.23637490082E+03  0.23637490087E+03  0.50400001928E-02 0.  1.
    10030    2    1    2    0    0  0.00000000000E+00  0.00000000000E+00  0.15042524281E+03  0.62317504454E+03  0.60474737077E+03 0.  0.
        4    1    3    3  502    0  0.29133533594E+03 -0.42889292765E+01  0.15850610015E+03  0.33169333664E+03  0.12699999809E+01 0. -1.
       -4    1    3    3    0  502 -0.29133533594E+03  0.42889292765E+01 -0.80808573442E+01  0.29148170790E+03  0.12699999809E+01 0.  1.
</event>
<event>
 5   0  0.7221069E-02  0.5949512E+03  0.7818609E-02  0.9915936E-01
        1   -1    0    0  501    0  0.00000000000E+00  0.00000000000E+00  0.15203007043E+03  0.15203007051E+03  0.50400001928E-02 0.  1.
       -1   -1    0    0    0  501  0.00000000000E+00  0.00000000000E+00 -0.58206739514E+03  0.58206739516E+03  0.50400001928E-02 0. -1.
    10030    2    1    2    0    0  0.00000000000E+00  0.00000000000E+00 -0.43003732471E+03  0.73409746567E+03  0.59495124881E+03 0.  0.
        5    1    3    3  502    0  0.10395939580E+03  0.28927462059E+02  0.12698006144E+03  0.16670446915E+03  0.46999998093E+01 0.  1.
       -5    1    3    3    0  502 -0.10395939580E+03 -0.28927462059E+02 -0.55701738614E+03  0.56739299652E+03  0.46999998093E+01 0. -1.
</event>
<event>
 5   0  0.4695625E-02  0.5895974E+03  0.7818609E-02  0.9927226E-01
       -3   -1    0    0    0  501  0.00000000000E+00  0.00000000000E+00  0.25360383116E+03  0.25360385127E+03  0.10100000352E+00 0.  1.
        3   -1    0    0  501    0  0.00000000000E+00  0.00000000000E+00 -0.34268518022E+03  0.34268519511E+03  0.10100000352E+00 0. -1.
    10030    2    1    2    0    0  0.00000000000E+00  0.00000000000E+00 -0.89081349064E+02  0.59628904638E+03  0.58959743900E+03 0.  0.
        1    1    3    3  502    0 -0.17550192049E+03 -0.11718814133E+03  0.16364088834E+03  0.26704367607E+03  0.50400001928E-02 0.  1.
       -1    1    3    3    0  502  0.17550192049E+03  0.11718814133E+03 -0.25272223740E+03  0.32924537031E+03  0.50400001928E-02 0. -1.
</event>
<event>
 5   0  0.1146468E-01  0.5949388E+03  0.7818609E-02  0.9915962E-01
       -2   -1    0    0    0  501  0.00000000000E+00  0.00000000000E+00  0.10693224798E+03  0.10693224801E+03  0.25500000920E-02 0.  1.
        2   -1    0    0  501    0  0.00000000000E+00  0.00000000000E+00 -0.82751500793E+03  0.82751500794E+03  0.25500000920E-02 0. -1.
    10030    2    1    2    0    0  0.00000000000E+00  0.00000000000E+00 -0.72058275995E+03  0.93444725595E+03  0.59493878695E+03 0.  0.
        4    1    3    3  502    0 -0.36617113841E+02 -0.26672490887E+03 -0.16159537128E+03  0.31400265438E+03  0.12699999809E+01 0. -1.
       -4    1    3    3    0  502  0.36617113841E+02  0.26672490887E+03 -0.55898738867E+03  0.62044460157E+03  0.12699999809E+01 0.  1.
</event>
<event>
 5   0  0.7266519E-02  0.5944862E+03  0.7818609E-02  0.9916912E-01
        1   -1    0    0  501    0  0.00000000000E+00  0.00000000000E+00  0.26364614439E+03  0.26364614444E+03  0.50400001928E-02 0.  1.
       -1   -1    0    0    0  501  0.00000000000E+00  0.00000000000E+00 -0.33512133942E+03  0.33512133946E+03  0.50400001928E-02 0. -1.
    10030    2    1    2    0    0  0.00000000000E+00  0.00000000000E+00 -0.71475195025E+02  0.59876748390E+03  0.59448616154E+03 0.  0.
        4    1    3    3  502    0  0.22402811100E+03  0.18682850254E+03  0.21755469522E+02  0.29252076376E+03  0.12699999809E+01 0.  1.
       -4    1    3    3    0  502 -0.22402811100E+03 -0.18682850254E+03 -0.93230664547E+02  0.30624672013E+03  0.12699999809E+01 0. -1.
</event>
<event>
 5   0  0.4695625E-02  0.5833478E+03  0.7818609E-02  0.9940569E-01
        3   -1    0    0  501    0  0.00000000000E+00  0.00000000000E+00  0.19339689136E+03  0.19339691773E+03  0.10100000352E+00 0. -1.
       -3   -1    0    0    0  501  0.00000000000E+00  0.00000000000E+00 -0.43989150430E+03  0.43989151590E+03  0.10100000352E+00 0.  1.
    10030    2    1    2    0    0  0.00000000000E+00  0.00000000000E+00 -0.24649461295E+03  0.63328843363E+03  0.58334779159E+03 0.  0.
        1    1    3    3  502    0 -0.11149309376E+03 -0.13701884594E+03  0.12871907423E+03  0.21857143957E+03  0.50400001928E-02 0. -1.
       -1    1    3    3    0  502  0.11149309376E+03  0.13701884594E+03 -0.37521368717E+03  0.41471699406E+03  0.50400001928E-02 0.  1.
</event>
<event>
 5   0  0.7263385E-02  0.5939270E+03  0.7818609E-02  0.9918086E-01
        1   -1    0    0  501    0  0.00000000000E+00  0.00000000000E+00  0.88881176601E+03  0.88881176602E+03  0.50400001928E-02 0.  1.
       -1   -1    0    0    0  501  0.00000000000E+00  0.00000000000E+00 -0.99219327181E+02  0.99219327309E+02  0.50400001928E-02 0. -1.
    10030    2    1    2    0    0  0.00000000000E+00  0.00000000000E+00  0.78959243883E+03  0.98803109333E+03  0.59392695000E+03 0.  0.
        1    1    3    3  502    0 -0.17663774805E+02  0.25110280740E+03  0.13269931917E+03  0.28455884832E+03  0.50400001928E-02 0. -1.
       -1    1    3    3    0  502  0.17663774805E+02 -0.25110280740E+03  0.65689311966E+03  0.70347224501E+03  0.50400001928E-02 0.  1.
</event>
<event>
 5   0  0.1166419E-01  0.5991579E+03  0.7818609E-02  0.9907155E-01
        2   -1    0    0  501    0  0.00000000000E+00  0.00000000000E+00  0.12469290051E+04  0.12469290051E+04  0.25500000920E-02 0. -1.
       -2   -1    0    0    0  501  0.00000000000E+00  0.00000000000E+00 -0.71974856981E+02  0.71974857026E+02  0.25500000920E-02 0.  1.
    10030    2    1    2    0    0  0.00000000000E+00  0.00000000000E+00  0.11749541481E+04  0.13189038621E+04  0.59915786513E+03 0.  0.
        1    1    3    3  502    0 -0.88937610741E+02 -0.13473919368E+03  0.11429764701E+04  0.11543222081E+04  0.50400001928E-02 0. -1.
       -1    1    3    3    0  502  0.88937610741E+02  0.13473919368E+03  0.31977678001E+02  0.16458165400E+03  0.50400001928E-02 0.  1.
</event>
<event>
 5   0  0.7221069E-02  0.5905251E+03  0.7818609E-02  0.9925261E-01
        1   -1    0    0  501    0  0.00000000000E+00  0.00000000000E+00  0.28929923891E+03  0.28929923895E+03  0.50400001928E-02 0. -1.
       -1   -1    0    0    0  501  0.00000000000E+00  0.00000000000E+00 -0.30134882518E+03  0.30134882523E+03  0.50400001928E-02 0.  1.
    10030    2    1    2    0    0  0.00000000000E+00  0.00000000000E+00 -0.12049586279E+02  0.59064806418E+03  0.59052514187E+03 0.  0.
        5    1    3    3  502    0 -0.23871966847E+03 -0.16905423755E+03  0.33876874464E+02  0.29451001336E+03  0.46999998093E+01 0.  1.
       -5    1    3    3    0  502  0.23871966847E+03  0.16905423755E+03 -0.45926460743E+02  0.29613805082E+03  0.46999998093E+01 0. -1.
</event>
<event>
 5   0  0.1146468E-01  0.5935877E+03  0.7818609E-02  0.9918800E-01
       -2   -1    0    0    0  501  0.00000000000E+00  0.00000000000E+00  0.69862984331E+02  0.69862984378E+02  0.25500000920E-02 0.  1.
        2   -1    0    0  501    0  0.00000000000E+00  0.00000000000E+00 -0.12608478643E+04  0.12608478643E+04  0.25500000920E-02 0. -1.
    10030    2    1    2    0    0  0.00000000000E+00  0.00000000000E+00 -0.11909848800E+04  0.13307108487E+04  0.59358771759E+03 0.  0.
        4    1    3    3  502    0  0.27313366905E+03 -0.90237524562E+02 -0.75931598557E+03  0.81197733395E+03  0.12699999809E+01 0.  1.
       -4    1    3    3    0  502 -0.27313366905E+03  0.90237524562E+02 -0.43166889439E+03  0.51873351472E+03  0.12699999809E+01 0. -1.
</event>
<event>
 5   0  0.1166419E-01  0.6175356E+03  0.7818609E-02  0.9869679E-01
        2   -1    0    0  501    0  0.00000000000E+00  0.00000000000E+00  0.22108098452E+04  0.22108098452E+04  0.25500000920E-02 0.  1.
       -2   -1    0    0    0  501  0.00000000000E+00  0.00000000000E+00 -0.43123369291E+02  0.43123369366E+02  0.25500000920E-02 0. -1.
    10030    2    1    2    0    0  0.00000000000E+00  0.00000000000E+00  0.21676864759E+04  0.22539332146E+04  0.61753564909E+03 0.  0.
        1    1    3    3  502    0  0.20165002869E+03  0.73205749236E+02  0.27330809960E+03  0.34744659031E+03  0.50400001928E-02 0. -1.
       -1    1    3    3    0  502 -0.20165002869E+03 -0.73205749236E+02  0.18943783763E+04  0.19064866243E+04  0.50400001928E-02 0.  1.
</event>
<event>
 5   0  0.1175861E-01  0.5986330E+03  0.7818609E-02  0.9908246E-01
        2   -1    0    0  501    0  0.00000000000E+00  0.00000000000E+00  0.17635122863E+04  0.17635122863E+04  0.25500000920E-02 0. -1.
       -2   -1    0    0    0  501  0.00000000000E+00  0.00000000000E+00 -0.50802238109E+02  0.50802238173E+02  0.25500000920E-02 0.  1.
    10030    2    1    2    0    0  0.00000000000E+00  0.00000000000E+00  0.17127100482E+04  0.18143145245E+04  0.59863301324E+03 0.  0.
        3    1    3    3  502    0 -0.24680515262E+03  0.22043555595E+02  0.34747871523E+03  0.42677882965E+03  0.10100000352E+00 0.  1.
       -3    1    3    3    0  502  0.24680515262E+03 -0.22043555595E+02  0.13652313330E+04  0.13875356948E+04  0.10100000352E+00 0. -1.
</event>
<event>
 5   0  0.1219020E-01  0.6002418E+03  0.7818609E-02  0.9904905E-01
        2   -1    0    0  501    0  0.00000000000E+00  0.00000000000E+00  0.11109433094E+04  0.11109433094E+04  0.25500000920E-02 0. -1.
       -2   -1    0    0    0  501  0.00000000000E+00  0.00000000000E+00 -0.81077541488E+02  0.81077541528E+02  0.25500000920E-02 0.  1.
    10030    2    1    2    0    0  0.00000000000E+00  0.00000000000E+00  0.10298657679E+04  0.11920208509E+04  0.60024179223E+03 0.  0.
        2    1    3    3  502    0  0.10580492138E+03 -0.94944079050E+02 -0.99746049707E+01  0.14250807797E+03  0.25500000920E-02 0.  1.
       -2    1    3    3    0  502 -0.10580492138E+03  0.94944079050E+02  0.10398403729E+04  0.10495127730E+04  0.25500000920E-02 0. -1.
</event>
<event>
 5   0  0.1166419E-01  0.6019826E+03  0.7818609E-02  0.9901301E-01
       -2   -1    0    0    0  501  0.00000000000E+00  0.00000000000E+00  0.14213118794E+03  0.14213118796E+03  0.25500000920E-02 0. -1.
        2   -1    0    0  501    0  0.00000000000E+00  0.00000000000E+00 -0.63740952930E+03  0.63740952931E+03  0.25500000920E-02 0.  1.
    10030    2    1    2    0    0  0.00000000000E+00  0.00000000000E+00 -0.49527834137E+03  0.77954071727E+03  0.60198263633E+03 0.  0.
        1    1    3    3  502    0 -0.20881798035E+03  0.13247258638E+03 -0.46983571637E+03  0.53094212063E+03  0.50400001928E-02 0.  1.
       -1    1    3    3    0  502  0.20881798035E+03 -0.13247258638E+03 -0.25442625000E+02  0.24859859664E+03  0.50400001928E-02 0. -1.
</event>
<event>
 5   0  0.1206238E-01  0.5790737E+03  0.7818609E-02  0.9949798E-01
        2   -1    0    0  501    0  0.00000000000E+00  0.00000000000E+00  0.25620904272E+03  0.25620904273E+03  0.25500000920E-02 0. -1.
       -2   -1    0    0    0  501  0.00000000000E+00  0.00000000000E+00 -0.32719999950E+03  0.32719999951E+03  0.25500000920E-02 0.  1.
    10030    2    1    2    0    0  0.00000000000E+00  0.00000000000E+00 -0.70990956780E+02  0.58340904224E+03  0.57907373850E+03 0.  0.
        5    1    3    3  502    0  0.16054917475E+03  0.22640595678E+03 -0.11841483355E+03  0.30179439620E+03  0.46999998093E+01 0. -1.
       -5    1    3    3    0  502 -0.16054917475E+03 -0.22640595678E+03  0.47423876773E+02  0.28161464604E+03  0.46999998093E+01 0.  1.
</event>
<event>
 5   0  0.4695625E-02  0.6013632E+03  0.7818609E-02  0.9902582E-01
       -3   -1    0    0    0  501  0.00000000000E+00  0.00000000000E+00  0.16438737943E+03  0.16438741046E+03  0.10100000352E+00 0. -1.
        3   -1    0    0  501    0  0.00000000000E+00  0.00000000000E+00 -0.54997789687E+03  0.54997790614E+03  0.10100000352E+00 0.  1.
    10030    2    1    2    0    0  0.00000000000E+00  0.00000000000E+00 -0.38559051744E+03  0.71436531660E+03  0.60136324997E+03 0.  0.
        5    1    3    3  502    0 -0.26009101327E+03  0.15079754283E+03 -0.19319897086E+03  0.35740056862E+03  0.46999998093E+01 0. -1.
       -5    1    3    3    0  502  0.26009101327E+03 -0.15079754283E+03 -0.19239154658E+03  0.35696474798E+03  0.46999998093E+01 0.  1.
</event>
<event>
 5   0  0.1219020E-01  0.6004177E+03  0.7818609E-02  0.9904540E-01
        2   -1    0    0  501    0  0.00000000000E+00  0.00000000000E+00  0.79174548716E+03  0.79174548716E+03  0.25500000920E-02 0. -1.
       -2   -1    0    0    0  501  0.00000000000E+00  0.00000000000E+00 -0.11383122863E+03  0.11383122866E+03  0.25500000920E-02 0.  1.
    10030    2    1    2    0    0  0.00000000000E+00  0.00000000000E+00  0.67791425853E+03  0.90557671582E+03  0.60041772652E+03 0.  0.
        2    1    3    3  502    0 -0.10559947314E+03 -0.68511773484E+02  0.75002015941E+03  0.76050992851E+03  0.25500000920E-02 0. -1.
       -2    1    3    3    0  502  0.10559947314E+03  0.68511773484E+02 -0.72105900878E+02  0.14506678731E+03  0.25500000920E-02 0.  1.
</event>
<event>
 5   0  0.7424930E-02  0.5985432E+03  0.7818609E-02  0.9908433E-01
        1   -1    0    0  501    0  0.00000000000E+00  0.00000000000E+00  0.16235796011E+03  0.16235796019E+03  0.50400001928E-02 0.  1.
       -1   -1    0    0    0  501  0.00000000000E+00  0.00000000000E+00 -0.55164204078E+03  0.55164204080E+03  0.50400001928E-02 0. -1.
    10030    2    1    2    0    0  0.00000000000E+00  0.00000000000E+00 -0.38928408066E+03  0.71400000099E+03  0.59854315296E+03 0.  0.
        3    1    3    3  502    0  0.22646065194E+03 -0.38034865269E+02  0.34295855210E+02  0.23217944297E+03  0.10100000352E+00 0.  1.
       -3    1    3    3    0  502 -0.22646065194E+03  0.38034865269E+02 -0.42357993587E+03  0.48182055802E+03  0.10100000352E+00 0. -1.
</event>
<event>
 5   0  0.7263385E-02  0.5951366E+03  0.7818609E-02  0.9915548E-01
       -1   -1    0    0    0  501  0.00000000000E+00  0.00000000000E+00  0.41588241877E+03  0.41588241880E+03  0.50400001928E-02 0. -1.
        1   -1    0    0  501    0  0.00000000000E+00  0.00000000000E+00 -0.21291332187E+03  0.21291332193E+03  0.50400001928E-02 0.  1.
    10030    2    1    2    0    0  0.00000000000E+00  0.00000000000E+00  0.20296909690E+03  0.62879574072E+03  0.59513664755E+03 0.  0.
        1    1    3    3  502    0  0.39330037651E+02 -0.29383901340E+03  0.12860102825E+03  0.32315080404E+03  0.50400001928E-02 0. -1.
       -1    1    3    3    0  502 -0.39330037651E+02  0.29383901340E+03  0.74368068648E+02  0.30564493668E+03  0.50400001928E-02 0.  1.
</event>
<event>
 5   0  0.1146468E-01  0.5962501E+03  0.7818609E-02  0.9913217E-01
        2   -1    0    0  501    0  0.00000000000E+00  0.00000000000E+00  0.39949425749E+03  0.39949425750E+03  0.25500000920E-02 0. -1.
       -2   -1    0    0    0  501  0.00000000000E+00  0.00000000000E+00 -0.22247767239E+03  0.22247767240E+03  0.25500000920E-02 0.  1.
    10030    2    1    2    0    0  0.00000000000E+00  0.00000000000E+00  0.17701658510E+03  0.62197192990E+03  0.59625012385E+03 0.  0.
        4    1    3    3  502    0 -0.57092241751E+02 -0.28652980886E+03  0.15038047255E+03  0.32859512300E+03  0.12699999809E+01 0. -1.
       -4    1    3    3    0  502  0.57092241751E+02  0.28652980886E+03  0.26636112553E+02  0.29337680690E+03  0.12699999809E+01 0.  1.
</event>
<event>
 5   0  0.1206238E-01  0.5997641E+03  0.7818609E-02  0.9905896E-01
        2   -1    0    0  501    0  0.00000000000E+00  0.00000000000E+00  0.16906484864E+04  0.16906484864E+04  0.25500000920E-02 0.  1.
       -2   -1    0    0    0  501  0.00000000000E+00  0.00000000000E+00 -0.53192156116E+02  0.53192156177E+02  0.25500000920E-02 0. -1.
    10030    2    1    2    0    0  0.00000000000E+00  0.00000000000E+00  0.16374563303E+04  0.17438406426E+04  0.59976408123E+03 0.  0.
        5    1    3    3  502    0 -0.90100315323E+02  0.27161429093E+03  0.55842972805E+03  0.62750158648E+03  0.46999998093E+01 0.  1.
       -5    1    3    3    0  502  0.90100315323E+02 -0.27161429093E+03  0.10790266023E+04  0.11163390561E+04  0.46999998093E+01 0. -1.
</event>
<event>
 5   0  0.1206238E-01  0.6127012E+03  0.7818609E-02  0.9879400E-01
        2   -1    0    0  501    0  0.00000000000E+00  0.00000000000E+00  0.85253324257E+03  0.85253324257E+03  0.25500000920E-02 0.  1.
       -2   -1    0    0    0  501  0.00000000000E+00  0.00000000000E+00 -0.11008449953E+03  0.11008449956E+03  0.25500000920E-02 0. -1.
    10030    2    1    2    0    0  0.00000000000E+00  0.00000000000E+00  0.74244874303E+03  0.96261774213E+03  0.61270121710E+03 0.  0.
        5    1    3    3  502    0 -0.61951014094E+02  0.17333904730E+03 -0.13437279401E+02  0.18462666097E+03  0.46999998093E+01 0. -1.
       -5    1    3    3    0  502  0.61951014094E+02 -0.17333904730E+03  0.75588602243E+03  0.77799108117E+03  0.46999998093E+01 0.  1.
</event>
<event>
 5   0  0.7266519E-02  0.6403279E+03  0.7818609E-02  0.9825099E-01
       -1   -1    0    0    0  501  0.00000000000E+00  0.00000000000E+00  0.23288609280E+03  0.23288609285E+03  0.50400001928E-02 0.  1.
        1   -1    0    0  501    0  0.00000000000E+00  0.00000000000E+00 -0.44015061183E+03  0.44015061186E+03  0.50400001928E-02 0. -1.
    10030    2    1    2    0    0  0.00000000000E+00  0.00000000000E+00 -0.20726451903E+03  0.67303670472E+03  0.64032790432E+03 0.  0.
        4    1    3    3  502    0 -0.57528891539E+02 -0.26969566332E+03  0.67335801026E+02  0.28386801013E+03  0.12699999809E+01 0.  1.
       -4    1    3    3    0  502  0.57528891539E+02  0.26969566332E+03 -0.27460032006E+03  0.38916869459E+03  0.12699999809E+01 0. -1.
</event>
<event>
 5   0  0.7221069E-02  0.5907434E+03  0.7818609E-02  0.9924799E-01
        1   -1    0    0  501    0  0.00000000000E+00  0.00000000000E+00  0.56253481227E+03  0.56253481229E+03  0.50400001928E-02 0. -1.
       -1   -1    0    0    0  501  0.00000000000E+00  0.00000000000E+00 -0.15509164366E+03  0.15509164375E+03  0.50400001928E-02 0.  1.
    10030    2    1    2    0    0  0.00000000000E+00  0.00000000000E+00  0.40744316860E+03  0.71762645604E+03  0.59074342549E+03 0.  0.
        5    1    3    3  502    0  0.11805023389E+03  0.12830412681E+03 -0.85857742638E+02  0.19440022800E+03  0.46999998093E+01 0.  1.
       -5    1    3    3    0  502 -0.11805023389E+03 -0.12830412681E+03  0.49330091124E+03  0.52322622804E+03  0.46999998093E+01 0. -1.
</event>
<event>
 5   0  0.1166419E-01  0.5960398E+03  0.7818609E-02  0.9913656E-01
        2   -1    0    0  501    0  0.00000000000E+00  0.00000000000E+00  0.12831042560E+04  0.12831042560E+04  0.25500000920E-02 0.  1.
       -2   -1    0    0    0  501  0.00000000000E+00  0.00000000000E+00 -0.69219530638E+02  0.69219530685E+02  0.25500000920E-02 0. -1.
    10030    2    1    2    0    0  0.00000000000E+00  0.00000000000E+00  0.12138847253E+04  0.13523237867E+04  0.59603984562E+03 0.  0.
        1    1    3    3  502    0 -0.16078084972E+02 -0.12253838361E+03 -0.83368853982E+01  0.12386954411E+03  0.50400001928E-02 0. -1.
       -1    1    3    3    0  502  0.16078084972E+02  0.12253838361E+03  0.12222216107E+04  0.12284542425E+04  0.50400001928E-02 0.  1.
</event>
<event>
 5   0  0.1146468E-01  0.6018737E+03  0.7818609E-02  0.9901526E-01
       -2   -1    0    0    0  501  0.00000000000E+00  0.00000000000E+00  0.25078487217E+03  0.25078487219E+03  0.25500000920E-02 0.  1.
        2   -1    0    0  501    0  0.00000000000E+00  0.00000000000E+00 -0.36111818897E+03  0.36111818897E+03  0.25500000920E-02 0. -1.
    10030    2    1    2    0    0  0.00000000000E+00  0.00000000000E+00 -0.11033331679E+03  0.61190306116E+03  0.60187367069E+03 0.  0.
        4    1    3    3  502    0 -0.12429431777E+03  0.11755224803E+03 -0.30686792646E+03  0.35133622876E+03  0.12699999809E+01 0. -1.
       -4    1    3    3    0  502  0.12429431777E+03 -0.11755224803E+03  0.19653460967E+03  0.26056683240E+03  0.12699999809E+01 0.  1.
</event>
<event>
 5   0  0.1146468E-01  0.5987255E+03  0.7818609E-02  0.9908054E-01
       -2   -1    0    0    0  501  0.00000000000E+00  0.00000000000E+00  0.17475966091E+03  0.17475966093E+03  0.25500000920E-02 0. -1.
        2   -1    0    0  501    0  0.00000000000E+00  0.00000000000E+00 -0.51280744136E+03  0.51280744137E+03  0.25500000920E-02 0.  1.
    10030    2    1    2    0    0  0.00000000000E+00  0.00000000000E+00 -0.33804778045E+03  0.68756710230E+03  0.59872549494E+03 0.  0.
        4    1    3    3  502    0  0.76347372926E+02 -0.34192982337E+02 -0.49910876391E+03  0.50607237872E+03  0.12699999809E+01 0.  1.
       -4    1    3    3    0  502 -0.76347372926E+02  0.34192982337E+02  0.16106098346E+03  0.18149472358E+03  0.12699999809E+01 0. -1.
</event>
<event>
 5   0  0.1219020E-01  0.5645568E+03  0.7818609E-02  0.9981797E-01
       -2   -1    0    0    0  501  0.00000000000E+00  0.00000000000E+00  0.95069317842E+02  0.95069317876E+02  0.25500000920E-02 0. -1.
        2   -1    0    0  501    0  0.00000000000E+00  0.00000000000E+00 -0.83813680673E+03  0.83813680673E+03  0.25500000920E-02 0.  1.
    10030    2    1    2    0    0  0.00000000000E+00  0.00000000000E+00 -0.74306748889E+03  0.93320612461E+03  0.56455679782E+03 0.  0.
        2    1    3    3  502    0 -0.17276833609E+03 -0.10463567718E+03 -0.69748526702E+03  0.72614269990E+03  0.25500000920E-02 0.  1.
       -2    1    3    3    0  502  0.17276833609E+03  0.10463567718E+03 -0.45582221861E+02  0.20706342471E+03  0.25500000920E-02 0. -1.
</event>
<event>
 5   0  0.4695625E-02  0.6015595E+03  0.7818609E-02  0.9902176E-01
       -4   -1    0    0    0  501  0.00000000000E+00  0.00000000000E+00  0.87387005730E+03  0.87387098015E+03  0.12699999809E+01 0.  1.
        4   -1    0    0  501    0  0.00000000000E+00  0.00000000000E+00 -0.10352134636E+03  0.10352913625E+03  0.12699999809E+01 0. -1.
    10030    2    1    2    0    0  0.00000000000E+00  0.00000000000E+00  0.77034871094E+03  0.97740011640E+03  0.60155951583E+03 0.  0.
        1    1    3    3  502    0  0.23299002162E+03  0.45164610717E+02  0.84945310660E+02  0.25207121626E+03  0.50400001928E-02 0. -1.
       -1    1    3    3    0  502 -0.23299002162E+03 -0.45164610717E+02  0.68540340028E+03  0.72532890014E+03  0.50400001928E-02 0.  1.
</event>
<event>
 5   0  0.7263385E-02  0.6274880E+03  0.7818609E-02  0.9849963E-01
        1   -1    0    0  501    0  0.00000000000E+00  0.00000000000E+00  0.75623545050E+02  0.75623545218E+02  0.50400001928E-02 0.  1.
       -1   -1    0    0    0  501  0.00000000000E+00  0.00000000000E+00 -0.13016486826E+04  0.13016486826E+04  0.50400001928E-02 0. -1.
    10030    2    1    2    0    0  0.00000000000E+00  0.00000000000E+00 -0.12260251376E+04  0.13772722278E+04  0.62748796933E+03 0.  0.
        1    1    3    3  502    0  0.20451042262E+03 -0.13078101371E+03 -0.17674596399E+03  0.30027874103E+03  0.50400001928E-02 0.  1.
       -1    1    3    3    0  502 -0.20451042262E+03  0.13078101371E+03 -0.10492791736E+04  0.10769934868E+04  0.50400001928E-02 0. -1.
</event>
<event>
 5   0  0.1206238E-01  0.6010801E+03  0.7818609E-02  0.9903168E-01
       -2   -1    0    0    0  501  0.00000000000E+00  0.00000000000E+00  0.49071532798E+02  0.49071532864E+02  0.25500000920E-02 0. -1.
        2   -1    0    0  501    0  0.00000000000E+00  0.00000000000E+00 -0.18406662141E+04  0.18406662141E+04  0.25500000920E-02 0.  1.
    10030    2    1    2    0    0  0.00000000000E+00  0.00000000000E+00 -0.17915946813E+04  0.18897377470E+04  0.60108006974E+03 0.  0.
        5    1    3    3  502    0  0.13270841475E+03 -0.19718061519E+03 -0.14738867773E+04  0.14929353772E+04  0.46999998093E+01 0.  1.
       -5    1    3    3    0  502 -0.13270841475E+03  0.19718061519E+03 -0.31770790405E+03  0.39680236976E+03  0.46999998093E+01 0. -1.
</event>
<event>
 5   0  0.1166419E-01  0.7380796E+03  0.7818609E-02  0.9654239E-01
        2   -1    0    0  501    0  0.00000000000E+00  0.00000000000E+00  0.40199374349E+03  0.40199374350E+03  0.25500000920E-02 0.  1.
       -2   -1    0    0    0  501  0.00000000000E+00  0.00000000000E+00 -0.33878725847E+03  0.33878725848E+03  0.25500000920E-02 0. -1.
    10030    2    1    2    0    0  0.00000000000E+00  0.00000000000E+00  0.63206485020E+02  0.74078100198E+03  0.73807955747E+03 0.  0.
        1    1    3    3  502    0 -0.89527934257E+02  0.34059127405E+03  0.14233698118E+03  0.37983875949E+03  0.50400001928E-02 0.  1.
       -1    1    3    3    0  502  0.89527934257E+02 -0.34059127405E+03 -0.79130496162E+02  0.36094224250E+03  0.50400001928E-02 0. -1.
</event>
<event>
 5   0  0.7266519E-02  0.6025699E+03  0.7818609E-02  0.9900089E-01
        1   -1    0    0  501    0  0.00000000000E+00  0.00000000000E+00  0.57027610266E+03  0.57027610268E+03  0.50400001928E-02 0. -1.
       -1   -1    0    0    0  501  0.00000000000E+00  0.00000000000E+00 -0.15917312277E+03  0.15917312285E+03  0.50400001928E-02 0.  1.
    10030    2    1    2    0    0  0.00000000000E+00  0.00000000000E+00  0.41110297990E+03  0.72944922553E+03  0.60256992337E+03 0.  0.
        4    1    3    3  502    0  0.28787401757E+03 -0.35108699297E+02  0.30439565475E+03  0.42043120518E+03  0.12699999809E+01 0. -1.
       -4    1    3    3    0  502 -0.28787401757E+03  0.35108699297E+02  0.10670732514E+03  0.30901802035E+03  0.12699999809E+01 0.  1.
</event>
<event>
 5   0  0.7424930E-02  0.5947037E+03  0.7818609E-02  0.9916455E-01
       -1   -1    0    0    0  501  0.00000000000E+00  0.00000000000E+00  0.60260975154E+02  0.60260975365E+02  0.50400001928E-02 0.  1.
        1   -1    0    0  501    0  0.00000000000E+00  0.00000000000E+00 -0.14672536258E+04  0.14672536258E+04  0.50400001928E-02 0. -1.
    10030    2    1    2    0    0  0.00000000000E+00  0.00000000000E+00 -0.14069926507E+04  0.15275146012E+04  0.59470373955E+03 0.  0.
        3    1    3    3  502    0 -0.13449787006E+03  0.23326273190E+03 -0.37944443426E+03  0.46527332616E+03  0.10100000352E+00 0.  1.
       -3    1    3    3    0  502  0.13449787006E+03 -0.23326273190E+03 -0.10275482164E+04  0.10622412750E+04  0.10100000352E+00 0. -1.
</event>
<event>
 5   0  0.1206238E-01  0.6021373E+03  0.7818609E-02  0.9900982E-01
        2   -1    0    0  501    0  0.00000000000E+00  0.00000000000E+00  0.18885837950E+04  0.18885837950E+04  0.25500000920E-02 0. -1.
       -2   -1    0    0    0  501  0.00000000000E+00  0.00000000000E+00 -0.47994863056E+02  0.47994863123E+02  0.25500000920E-02 0.  1.
    10030    2    1    2    0    0  0.00000000000E+00  0.00000000000E+00  0.18405889320E+04  0.19365786582E+04  0.60213726235E+03 0.  0.
        5    1    3    3  502    0 -0.71210708705E+02  0.11403810542E+03  0.54046731919E+02  0.14497859757E+03  0.46999998093E+01 0.  1.
       -5    1    3    3    0  502  0.71210708705E+02 -0.11403810542E+03  0.17865422001E+04  0.17916000606E+04  0.46999998093E+01 0. -1.
</event>
<event>
 5   0  0.4695625E-02  0.6029684E+03  0.7818609E-02  0.9899267E-01
       -4   -1    0    0    0  501  0.00000000000E+00  0.00000000000E+00  0.23433720334E+03  0.23434064473E+03  0.12699999809E+01 0.  1.
        4   -1    0    0  501    0  0.00000000000E+00  0.00000000000E+00 -0.38786412648E+03  0.38786620568E+03  0.12699999809E+01 0. -1.
    10030    2    1    2    0    0  0.00000000000E+00  0.00000000000E+00 -0.15352692314E+03  0.62220685041E+03  0.60296836448E+03 0.  0.
        2    1    3    3  502    0 -0.28125563064E+03  0.95568405604E+02 -0.12993079706E+03  0.32422224160E+03  0.25500000920E-02 0. -1.
       -2    1    3    3    0  502  0.28125563064E+03 -0.95568405604E+02 -0.23596126078E+02  0.29798460881E+03  0.25500000920E-02 0.  1.
</event>
<event>
 5   0  0.1219020E-01  0.5971809E+03  0.7818609E-02  0.9911272E-01
       -2   -1    0    0    0  501  0.00000000000E+00  0.00000000000E+00  0.66283690022E+03  0.66283690022E+03  0.25500000920E-02 0. -1.
        2   -1    0    0  501    0  0.00000000000E+00  0.00000000000E+00 -0.13450706063E+03  0.13450706066E+03  0.25500000920E-02 0.  1.
    10030    2    1    2    0    0  0.00000000000E+00  0.00000000000E+00  0.52832983959E+03  0.79734396088E+03  0.59718085414E+03 0.  0.
        2    1    3    3  502    0 -0.13533828238E+03  0.24836232992E+03  0.39192389921E+03  0.48332663942E+03  0.25500000920E-02 0. -1.
       -2    1    3    3    0  502  0.13533828238E+03 -0.24836232992E+03  0.13640594038E+03  0.31401732146E+03  0.25500000920E-02 0.  1.
</event>
<event>
 5   0  0.1146468E-01  0.6058906E+03  0.7818609E-02  0.9893260E-01
        2   -1    0    0  501    0  0.00000000000E+00  0.00000000000E+00  0.31571865482E+03  0.31571865483E+03  0.25500000920E-02 0. -1.
       -2   -1    0    0    0  501  0.00000000000E+00  0.00000000000E+00 -0.29068876037E+03  0.29068876039E+03  0.25500000920E-02 0.  1.
    10030    2    1    2    0    0  0.00000000000E+00  0.00000000000E+00  0.25029894449E+02  0.60640741522E+03  0.60589063173E+03 0.  0.
        4    1    3    3  502    0 -0.12524324964E+03  0.74773321522E+02 -0.25322485117E+03  0.29223510970E+03  0.12699999809E+01 0.  1.
       -4    1    3    3    0  502  0.12524324964E+03 -0.74773321522E+02  0.27825474562E+03  0.31417230552E+03  0.12699999809E+01 0. -1.
</event>
<event>
 5   0  0.7263385E-02  0.6038985E+03  0.7818609E-02  0.9897351E-01
        1   -1    0    0  501    0  0.00000000000E+00  0.00000000000E+00  0.13296299994E+04  0.13296299994E+04  0.50400001928E-02 0. -1.
       -1   -1    0    0    0  501  0.00000000000E+00  0.00000000000E+00 -0.68570475749E+02  0.68570475934E+02  0.50400001928E-02 0.  1.
    10030    2    1    2    0    0  0.00000000000E+00  0.00000000000E+00  0.12610595236E+04  0.13982004753E+04  0.60389854036E+03 0.  0.
        1    1    3    3  502    0 -0.16326110584E+03  0.11325554129E+03  0.11569330899E+04  0.11738718759E+04  0.50400001928E-02 0. -1.
       -1    1    3    3    0  502  0.16326110584E+03 -0.11325554129E+03  0.10412643367E+03  0.22432859944E+03  0.50400001928E-02 0.  1.
</event>
<event>
 5   0  0.7263385E-02  0.6095704E+03  0.7818609E-02  0.9885747E-01
       -1   -1    0    0    0  501  0.00000000000E+00  0.00000000000E+00  0.13124485849E+03  0.13124485859E+03  0.50400001928E-02 0. -1.
        1   -1    0    0  501    0  0.00000000000E+00  0.00000000000E+00 -0.70779164350E+03  0.70779164352E+03  0.50400001928E-02 0.  1.
    10030    2    1    2    0    0  0.00000000000E+00  0.00000000000E+00 -0.57654678501E+03  0.83903650211E+03  0.60957038688E+03 0.  0.
        1    1    3    3  502    0  0.25147855964E+03  0.16314842395E+03 -0.21244246765E+03  0.36741077322E+03  0.50400001928E-02 0. -1.
       -1    1    3    3    0  502 -0.25147855964E+03 -0.16314842395E+03 -0.36410431736E+03  0.47162572888E+03  0.50400001928E-02 0.  1.
</event>
<event>
 5   0  0.7424930E-02  0.5702167E+03  0.7818609E-02  0.9969199E-01
       -1   -1    0    0    0  501  0.00000000000E+00  0.00000000000E+00  0.38768791444E+03  0.38768791447E+03  0.50400001928E-02 0. -1.
        1   -1    0    0  501    0  0.00000000000E+00  0.00000000000E+00 -0.20967065788E+03  0.20967065794E+03  0.50400001928E-02 0.  1.
    10030    2    1    2    0    0  0.00000000000E+00  0.00000000000E+00  0.17801725655E+03  0.59735857241E+03  0.57021673108E+03 0.  0.
        3    1    3    3  502    0  0.22111617924E+03  0.83995281275E+02  0.25576850910E+03  0.34837495955E+03  0.10100000352E+00 0.  1.
       -3    1    3    3    0  502 -0.22111617924E+03 -0.83995281275E+02 -0.77751252542E+02  0.24898361286E+03  0.10100000352E+00 0. -1.
</event>
<event>
 5   0  0.1166419E-01  0.5981284E+03  0.7818609E-02  0.9909297E-01
        2   -1    0    0  501    0  0.00000000000E+00  0.00000000000E+00  0.35444807241E+03  0.35444807242E+03  0.25500000920E-02 0.  1.
       -2   -1    0    0    0  501  0.00000000000E+00  0.00000000000E+00 -0.25233424530E+03  0.25233424531E+03  0.25500000920E-02 0. -1.
    10030    2    1    2    0    0  0.00000000000E+00  0.00000000000E+00  0.10211382711E+03  0.60678231773E+03  0.59812837036E+03 0.  0.
        1    1    3    3  502    0 -0.74999434043E+02  0.13322839911E+03  0.31180620325E+03  0.34727198253E+03  0.50400001928E-02 0.  1.
       -1    1    3    3    0  502  0.74999434043E+02 -0.13322839911E+03 -0.20969237615E+03  0.25951033520E+03  0.50400001928E-02 0. -1.
</event>
<event>
 5   0  0.4695625E-02  0.5974843E+03  0.7818609E-02  0.9910639E-01
       -3   -1    0    0    0  501  0.00000000000E+00  0.00000000000E+00  0.43288923793E+03  0.43288924971E+03  0.10100000352E+00 0. -1.
        3   -1    0    0  501    0  0.00000000000E+00  0.00000000000E+00 -0.20616561209E+03  0.20616563683E+03  0.10100000352E+00 0.  1.
    10030    2    1    2    0    0  0.00000000000E+00  0.00000000000E+00  0.22672362584E+03  0.63905488654E+03  0.59748434749E+03 0.  0.
        4    1    3    3  502    0 -0.23945134072E+03  0.15436788037E+03  0.20949810744E+03  0.35363463770E+03  0.12699999809E+01 0. -1.
       -4    1    3    3    0  502  0.23945134072E+03 -0.15436788037E+03  0.17225518394E+02  0.28542024884E+03  0.12699999809E+01 0.  1.
</event>
<event>
 5   0  0.1146468E-01  0.5982112E+03  0.7818609E-02  0.9909124E-01
       -2   -1    0    0    0  501  0.00000000000E+00  0.00000000000E+00  0.15665979530E+03  0.15665979532E+03  0.25500000920E-02 0.  1.
        2   -1    0    0  501    0  0.00000000000E+00  0.00000000000E+00 -0.57107282991E+03  0.57107282992E+03  0.25500000920E-02 0. -1.
    10030    2    1    2    0    0  0.00000000000E+00  0.00000000000E+00 -0.41441303461E+03  0.72773262523E+03  0.59821117557E+03 0.  0.
        4    1    3    3  502    0  0.17385447222E+03 -0.22566098718E+03 -0.96281456616E+02  0.30069916933E+03  0.12699999809E+01 0. -1.
       -4    1    3    3    0  502 -0.17385447222E+03  0.22566098718E+03 -0.31813157800E+03  0.42703345591E+03  0.12699999809E+01 0.  1.
</event>
<event>
 5   0  0.7266519E-02  0.5966498E+03  0.7818609E-02  0.9912381E-01
       -1   -1    0    0    0  501  0.00000000000E+00  0.00000000000E+00  0.26006966881E+03  0.26006966886E+03  0.50400001928E-02 0.  1.
        1   -1    0    0  501    0  0.00000000000E+00  0.00000000000E+00 -0.34220737589E+03  0.34220737593E+03  0.50400001928E-02 0. -1.
    10030    2    1    2    0    0  0.00000000000E+00  0.00000000000E+00 -0.82137707083E+02  0.60227704479E+03  0.59664984350E+03 0.  0.
        4    1    3    3  502    0 -0.92287876957E+02 -0.27188859672E+03 -0.12279966508E+03  0.31228485699E+03  0.12699999809E+01 0. -1.
       -4    1    3    3    0  502  0.92287876957E+02  0.27188859672E+03  0.40661958001E+02  0.28999218780E+03  0.12699999809E+01 0.  1.
</event>
<event>
 5   0  0.7221069E-02  0.6015967E+03  0.7818609E-02  0.9902099E-01
       -1   -1    0    0    0  501  0.00000000000E+00  0.00000000000E+00  0.45367459225E+02  0.45367459505E+02  0.50400001928E-02 0.  1.
        1   -1    0    0  501    0  0.00000000000E+00  0.00000000000E+00 -0.19943733743E+04  0.19943733743E+04  0.50400001928E-02 0. -1.
    10030    2    1    2    0    0  0.00000000000E+00  0.00000000000E+00 -0.19490059150E+04  0.20397408338E+04  0.60159671884E+03 0.  0.
        5    1    3    3  502    0  0.25096991604E+03  0.78675781559E+02 -0.47988080421E+03  0.54725081416E+03  0.46999998093E+01 0.  1.
       -5    1    3    3    0  502 -0.25096991604E+03 -0.78675781559E+02 -0.14691251108E+04  0.14924900196E+04  0.46999998093E+01 0. -1.
</event>
<event>
 5   0  0.1166419E-01  0.6056216E+03  0.7818609E-02  0.9893811E-01
        2   -1    0    0  501    0  0.00000000000E+00  0.00000000000E+00  0.45932389223E+03  0.45932389224E+03  0.25500000920E-02 0.  1.
       -2   -1    0    0    0  501  0.00000000000E+00  0.00000000000E+00 -0.19962905683E+03  0.19962905685E+03  0.25500000920E-02 0. -1.
    10030    2    1    2    0    0  0.00000000000E+00  0.00000000000E+00  0.25969483540E+03  0.65895294908E+03  0.60562164886E+03 0.  0.
        1    1    3    3  502    0  0.16212546036E+03 -0.80434595226E+02 -0.13430713727E+03  0.22537257187E+03  0.50400001928E-02 0. -1.
       -1    1    3    3    0  502 -0.16212546036E+03  0.80434595226E+02  0.39400197267E+03  0.43358037721E+03  0.50400001928E-02 0.  1.
</event>
<event>
 5   0  0.7424930E-02  0.5948471E+03  0.7818609E-02  0.9916155E-01
       -1   -1    0    0    0  501  0.00000000000E+00  0.00000000000E+00  0.11917209783E+03  0.11917209794E+03  0.50400001928E-02 0. -1.
        1   -1    0    0  501    0  0.00000000000E+00  0.00000000000E+00 -0.74229433016E+03  0.74229433017E+03  0.50400001928E-02 0.  1.
    10030    2    1    2    0    0  0.00000000000E+00  0.00000000000E+00 -0.62312223233E+03  0.86146642811E+03  0.59484711510E+03 0.  0.
        3    1    3    3  502    0  0.22671018642E+03 -0.19037728072E+03 -0.35302522322E+03  0.46072533691E+03  0.10100000352E+00 0.  1.
       -3    1    3    3    0  502 -0.22671018642E+03  0.19037728072E+03 -0.27009700911E+03  0.40074109120E+03  0.10100000352E+00 0. -1.
</event>
<event>
 5   0  0.1219020E-01  0.5958123E+03  0.7818609E-02  0.9914132E-01
        2   -1    0    0  501    0  0.00000000000E+00  0.00000000000E+00  0.86415952851E+03  0.86415952851E+03  0.25500000920E-02 0. -1.
       -2   -1    0    0    0  501  0.00000000000E+00  0.00000000000E+00 -0.10269872841E+03  0.10269872844E+03  0.25500000920E-02 0.  1.
    10030    2    1    2    0    0  0.00000000000E+00  0.00000000000E+00  0.76146080009E+03  0.96685825696E+03  0.59581233536E+03 0.  0.
        2    1    3    3  502    0 -0.29981018315E+02  0.22954300081E+03  0.76450669655E+02  0.24378998252E+03  0.25500000920E-02 0.  1.
       -2    1    3    3    0  502  0.29981018315E+02 -0.22954300081E+03  0.68501013044E+03  0.72306827443E+03  0.25500000920E-02 0. -1.
</event>
<event>
 5   0  0.1219020E-01  0.5991923E+03  0.7818609E-02  0.9907083E-01
        2   -1    0    0  501    0  0.00000000000E+00  0.00000000000E+00  0.21653872045E+04  0.21653872045E+04  0.25500000920E-02 0.  1.
       -2   -1    0    0    0  501  0.00000000000E+00  0.00000000000E+00 -0.41451185074E+02  0.41451185152E+02  0.25500000920E-02 0. -1.
    10030    2    1    2    0    0  0.00000000000E+00  0.00000000000E+00  0.21239360194E+04  0.22068383896E+04  0.59919234260E+03 0.  0.
        2    1    3    3  502    0  0.16242399137E+03 -0.22793236503E+03  0.66832983203E+03  0.72456847874E+03  0.25500000920E-02 0. -1.
       -2    1    3    3    0  502 -0.16242399137E+03  0.22793236503E+03  0.14556061874E+04  0.14822699109E+04  0.25500000920E-02 0.  1.
</event>
<event>
 5   0  0.1146468E-01  0.5270110E+03  0.7818609E-02  0.1006960E+00
        2   -1    0    0  501    0  0.00000000000E+00  0.00000000000E+00  0.39294089894E+03  0.39294089895E+03  0.25500000920E-02 0.  1.
       -2   -1    0    0    0  501  0.00000000000E+00  0.00000000000E+00 -0.17670636886E+03  0.17670636888E+03  0.25500000920E-02 0. -1.
    10030    2    1    2    0    0  0.00000000000E+00  0.00000000000E+00  0.21623453008E+03  0.56964726783E+03  0.52701104139E+03 0.  0.
        4    1    3    3  502    0  0.11997583508E+03  0.80072922225E+02  0.34647433975E+03  0.37530248451E+03  0.12699999809E+01 0.  1.
       -4    1    3    3    0  502 -0.11997583508E+03 -0.80072922225E+02 -0.13023980967E+03  0.19434478331E+03  0.12699999809E+01 0. -1.
</event>
<event>
 5   0  0.1206238E-01  0.5775290E+03  0.7818609E-02  0.9953155E-01
        2   -1    0    0  501    0  0.00000000000E+00  0.00000000000E+00  0.55273005357E+03  0.55273005358E+03  0.25500000920E-02 0.  1.
       -2   -1    0    0    0  501  0.00000000000E+00  0.00000000000E+00 -0.15086013495E+03  0.15086013497E+03  0.25500000920E-02 0. -1.
    10030    2    1    2    0    0  0.00000000000E+00  0.00000000000E+00  0.40186991862E+03  0.70359018855E+03  0.57752897930E+03 0.  0.
        5    1    3    3  502    0  0.20924543686E+03  0.10103021890E+03  0.40972672318E+03  0.47105077823E+03  0.46999998093E+01 0.  1.
       -5    1    3    3    0  502 -0.20924543686E+03 -0.10103021890E+03 -0.78568045627E+01  0.23253941032E+03  0.46999998093E+01 0. -1.
</event>
<event>
 5   0  0.1166419E-01  0.6308112E+03  0.7818609E-02  0.9843467E-01
        2   -1    0    0  501    0  0.00000000000E+00  0.00000000000E+00  0.71995302057E+03  0.71995302057E+03  0.25500000920E-02 0.  1.
       -2   -1    0    0    0  501  0.00000000000E+00  0.00000000000E+00 -0.13817662823E+03  0.13817662826E+03  0.25500000920E-02 0. -1.
    10030    2    1    2    0    0  0.00000000000E+00  0.00000000000E+00  0.58177639234E+03  0.85812964883E+03  0.63081116312E+03 0.  0.
        1    1    3    3  502    0  0.15593456384E+03 -0.72827765321E+02 -0.68671981623E+02  0.18529790254E+03  0.50400001928E-02 0. -1.
       -1    1    3    3    0  502 -0.15593456384E+03  0.72827765321E+02  0.65044837396E+03  0.67283174629E+03  0.50400001928E-02 0.  1.
</event>
<event>
 5   0  0.1206238E-01  0.5969446E+03  0.7818609E-02  0.9911765E-01
        2   -1    0    0  501    0  0.00000000000E+00  0.00000000000E+00  0.29938863461E+03  0.29938863462E+03  0.25500000920E-02 0.  1.
       -2   -1    0    0    0  501  0.00000000000E+00  0.00000000000E+00 -0.29755876067E+03  0.29755876068E+03  0.25500000920E-02 0. -1.
    10030    2    1    2    0    0  0.00000000000E+00  0.00000000000E+00  0.18298739387E+01  0.59694739531E+03  0.59694459067E+03 0.  0.
        5    1    3    3  502    0 -0.10335420791E+03 -0.26225100752E+03  0.98925283925E+02  0.29877413716E+03  0.46999998093E+01 0.  1.
       -5    1    3    3    0  502  0.10335420791E+03  0.26225100752E+03 -0.97095409986E+02  0.29817325815E+03  0.46999998093E+01 0. -1.
</event>
<event>
 5   0  0.7266519E-02  0.5955853E+03  0.7818609E-02  0.9914608E-01
        1   -1    0    0  501    0  0.00000000000E+00  0.00000000000E+00  0.15726566301E+03  0.15726566309E+03  0.50400001928E-02 0. -1.
       -1   -1    0    0    0  501  0.00000000000E+00  0.00000000000E+00 -0.56388951024E+03  0.56388951026E+03  0.50400001928E-02 0.  1.
    10030    2    1    2    0    0  0.00000000000E+00  0.00000000000E+00 -0.40662384723E+03  0.72115517335E+03  0.59558528433E+03 0.  0.
        4    1    3    3  502    0 -0.24517037840E+03 -0.35212995523E+02 -0.31379720154E+01  0.24770936452E+03  0.12699999809E+01 0. -1.
       -4    1    3    3    0  502  0.24517037840E+03  0.35212995523E+02 -0.40348587522E+03  0.47344580883E+03  0.12699999809E+01 0.  1.
</event>
<event>
 5   0  0.7221069E-02  0.5986005E+03  0.7818609E-02  0.9908314E-01
        1   -1    0    0  501    0  0.00000000000E+00  0.00000000000E+00  0.50312245815E+03  0.50312245817E+03  0.50400001928E-02 0.  1.
       -1   -1    0    0    0  501  0.00000000000E+00  0.00000000000E+00 -0.17804936265E+03  0.17804936272E+03  0.50400001928E-02 0. -1.
    10030    2    1    2    0    0  0.00000000000E+00  0.00000000000E+00  0.32507309550E+03  0.68117182090E+03  0.59860047792E+03 0.  0.
        5    1    3    3  502    0  0.58953805216E+02  0.40601060177E+01  0.49637526590E+03  0.49990252070E+03  0.46999998093E+01 0.  1.
       -5    1    3    3    0  502 -0.58953805216E+02 -0.40601060177E+01 -0.17130217040E+03  0.18126930020E+03  0.46999998093E+01 0. -1.
</event>
<event>
 5   0  0.1146468E-01  0.5957010E+03  0.7818609E-02  0.9914365E-01
       -2   -1    0    0    0  501  0.00000000000E+00  0.00000000000E+00  0.24005728954E+03  0.24005728956E+03  0.25500000920E-02 0.  1.
        2   -1    0    0  501    0  0.00000000000E+00  0.00000000000E+00 -0.36955728134E+03  0.36955728134E+03  0.25500000920E-02 0. -1.
    10030    2    1    2    0    0  0.00000000000E+00  0.00000000000E+00 -0.12949999179E+03  0.60961457090E+03  0.59570099646E+03 0.  0.
        4    1    3    3  502    0 -0.81849226686E+02 -0.27791231663E+03  0.59931524547E+01  0.28977936852E+03  0.12699999809E+01 0.  1.
       -4    1    3    3    0  502  0.81849226686E+02  0.27791231663E+03 -0.13549314425E+03  0.31983520238E+03  0.12699999809E+01 0. -1.
</event>
<event>
 5   0  0.1219020E-01  0.5978878E+03  0.7818609E-02  0.9909798E-01
        2   -1    0    0  501    0  0.00000000000E+00  0.00000000000E+00  0.15460752094E+04  0.15460752094E+04  0.25500000920E-02 0.  1.
       -2   -1    0    0    0  501  0.00000000000E+00  0.00000000000E+00 -0.57802783509E+02  0.57802783565E+02  0.25500000920E-02 0. -1.
    10030    2    1    2    0    0  0.00000000000E+00  0.00000000000E+00  0.14882724259E+04  0.16038779929E+04  0.59788778433E+03 0.  0.
        2    1    3    3  502    0 -0.17020720469E+03 -0.17559763709E+03  0.12053706209E+04  0.12299281916E+04  0.25500000920E-02 0.  1.
       -2    1    3    3    0  502  0.17020720469E+03  0.17559763709E+03  0.28290180492E+03  0.37394980133E+03  0.25500000920E-02 0. -1.
</event>
<event>
 5   0  0.7221069E-02  0.6040901E+03  0.7818609E-02  0.9896957E-01
       -1   -1    0    0    0  501  0.00000000000E+00  0.00000000000E+00  0.96079564037E+02  0.96079564169E+02  0.50400001928E-02 0.  1.
        1   -1    0    0  501    0  0.00000000000E+00  0.00000000000E+00 -0.94953800983E+03  0.94953800984E+03  0.50400001928E-02 0. -1.
    10030    2    1    2    0    0  0.00000000000E+00  0.00000000000E+00 -0.85345844579E+03  0.10456175740E+04  0.60409005321E+03 0.  0.
        5    1    3    3  502    0 -0.56265642384E+02 -0.24837802994E+03 -0.14574947913E+03  0.29346629949E+03  0.46999998093E+01 0.  1.
       -5    1    3    3    0  502  0.56265642384E+02  0.24837802994E+03 -0.70770896666E+03  0.75215127452E+03  0.46999998093E+01 0. -1.
</event>
<event>
 5   0  0.7123340E-02  0.6014292E+03  0.7818609E-02  0.9902445E-01
        1   -1    0    0  501    0  0.00000000000E+00  0.00000000000E+00  0.58891658737E+03  0.58891658739E+03  0.50400001928E-02 0.  1.
       -1   -1    0    0    0  501  0.00000000000E+00  0.00000000000E+00 -0.15355189203E+03  0.15355189212E+03  0.50400001928E-02 0. -1.
    10030    2    1    2    0    0  0.00000000000E+00  0.00000000000E+00  0.43536469534E+03  0.74246847951E+03  0.60142915220E+03 0.  0.
        2    1    3    3  502    0 -0.26395386371E+03  0.13440396901E+03  0.28174823097E+03  0.40880084970E+03  0.25500000920E-02 0. -1.
       -2    1    3    3    0  502  0.26395386371E+03 -0.13440396901E+03  0.15361646437E+03  0.33366762981E+03  0.25500000920E-02 0.  1.
</event>
<event>
 5   0  0.1206238E-01  0.5820468E+03  0.7818609E-02  0.9943370E-01
       -2   -1    0    0    0  501  0.00000000000E+00  0.00000000000E+00  0.33427595053E+03  0.33427595054E+03  0.25500000920E-02 0.  1.
        2   -1    0    0  501    0  0.00000000000E+00  0.00000000000E+00 -0.25336733129E+03  0.25336733131E+03  0.25500000920E-02 0. -1.
    10030    2    1    2    0    0  0.00000000000E+00  0.00000000000E+00  0.80908619242E+02  0.58764328185E+03  0.58204675245E+03 0.  0.
        5    1    3    3  502    0 -0.84279688498E+02 -0.23857493181E+03 -0.10463359087E+03  0.27384547160E+03  0.46999998093E+01 0. -1.
       -5    1    3    3    0  502  0.84279688498E+02  0.23857493181E+03  0.18554221011E+03  0.31379781024E+03  0.46999998093E+01 0.  1.
</event>
<event>
 5   0  0.7123340E-02  0.6045323E+03  0.7818609E-02  0.9896047E-01
       -1   -1    0    0    0  501  0.00000000000E+00  0.00000000000E+00  0.80204140573E+02  0.80204140732E+02  0.50400001928E-02 0. -1.
        1   -1    0    0  501    0  0.00000000000E+00  0.00000000000E+00 -0.11391533275E+04  0.11391533275E+04  0.50400001928E-02 0.  1.
    10030    2    1    2    0    0  0.00000000000E+00  0.00000000000E+00 -0.10589491869E+04  0.12193574683E+04  0.60453226123E+03 0.  0.
        2    1    3    3  502    0 -0.10981404394E+03  0.28012215156E+03 -0.58783848470E+03  0.66036476901E+03  0.25500000920E-02 0.  1.
       -2    1    3    3    0  502  0.10981404394E+03 -0.28012215156E+03 -0.47111070224E+03  0.55899269925E+03  0.25500000920E-02 0. -1.
</event>
<event>
 5   0  0.7424930E-02  0.5241488E+03  0.7818609E-02  0.1007661E+00
       -1   -1    0    0    0  501  0.00000000000E+00  0.00000000000E+00  0.75015986558E+02  0.75015986728E+02  0.50400001928E-02 0.  1.
        1   -1    0    0  501    0  0.00000000000E+00  0.00000000000E+00 -0.91557815407E+03  0.91557815408E+03  0.50400001928E-02 0. -1.
    10030    2    1    2    0    0  0.00000000000E+00  0.00000000000E+00 -0.84056216751E+03  0.99059414081E+03  0.52414882844E+03 0.  0.
        3    1    3    3  502    0 -0.82826571789E+02 -0.66374567625E+02  0.32576875262E+02  0.11102741654E+03  0.10100000352E+00 0.  1.
       -3    1    3    3    0  502  0.82826571789E+02  0.66374567625E+02 -0.87313904277E+03  0.87956672426E+03  0.10100000352E+00 0. -1.
</event>
<event>
 5   0  0.7263385E-02  0.5786646E+03  0.7818609E-02  0.9950686E-01
       -1   -1    0    0    0  501  0.00000000000E+00  0.00000000000E+00  0.17372041314E+03  0.17372041321E+03  0.50400001928E-02 0. -1.
        1   -1    0    0  501    0  0.00000000000E+00  0.00000000000E+00 -0.48188455189E+03  0.48188455191E+03  0.50400001928E-02 0.  1.
    10030    2    1    2    0    0  0.00000000000E+00  0.00000000000E+00 -0.30816413875E+03  0.65560496512E+03  0.57866461261E+03 0.  0.
        1    1    3    3  502    0 -0.22442687893E+03 -0.17915002031E+03 -0.19415481655E+03  0.34663849553E+03  0.50400001928E-02 0. -1.
       -1    1    3    3    0  502  0.22442687893E+03  0.17915002031E+03 -0.11400932219E+03  0.30896646960E+03  0.50400001928E-02 0.  1.
</event>
<event>
 5   0  0.1166419E-01  0.5782630E+03  0.7818609E-02  0.9951559E-01
        2   -1    0    0  501    0  0.00000000000E+00  0.00000000000E+00  0.25004336622E+03  0.25004336623E+03  0.25500000920E-02 0.  1.
       -2   -1    0    0    0  501  0.00000000000E+00  0.00000000000E+00 -0.33433007944E+03  0.33433007945E+03  0.25500000920E-02 0. -1.
    10030    2    1    2    0    0  0.00000000000E+00  0.00000000000E+00 -0.84286713218E+02  0.58437344568E+03  0.57826297996E+03 0.  0.
        1    1    3    3  502    0  0.66173172788E+02  0.18234916231E+03  0.17452113945E+03  0.26093626412E+03  0.50400001928E-02 0.  1.
       -1    1    3    3    0  502 -0.66173172788E+02 -0.18234916231E+03 -0.25880785266E+03  0.32343718157E+03  0.50400001928E-02 0. -1.
</event>
<event>
 5   0  0.4695625E-02  0.5998644E+03  0.7818609E-02  0.9905687E-01
        3   -1    0    0  501    0  0.00000000000E+00  0.00000000000E+00  0.15361060466E+03  0.15361063786E+03  0.10100000352E+00 0. -1.
       -3   -1    0    0    0  501  0.00000000000E+00  0.00000000000E+00 -0.58563208310E+03  0.58563209181E+03  0.10100000352E+00 0.  1.
    10030    2    1    2    0    0  0.00000000000E+00  0.00000000000E+00 -0.43202147845E+03  0.73924272967E+03  0.59986436428E+03 0.  0.
        4    1    3    3  502    0  0.35483301193E+02  0.11564165463E+03  0.12221404308E+03  0.17195912937E+03  0.12699999809E+01 0. -1.
       -4    1    3    3    0  502 -0.35483301193E+02 -0.11564165463E+03 -0.55423552153E+03  0.56728360030E+03  0.12699999809E+01 0.  1.
</event>
<event>
 5   0  0.1175861E-01  0.5936580E+03  0.7818609E-02  0.9918652E-01
        2   -1    0    0  501    0  0.00000000000E+00  0.00000000000E+00  0.64046591343E+03  0.64046591344E+03  0.25500000920E-02 0. -1.
       -2   -1    0    0    0  501  0.00000000000E+00  0.00000000000E+00 -0.13756776863E+03  0.13756776865E+03  0.25500000920E-02 0.  1.
    10030    2    1    2    0    0  0.00000000000E+00  0.00000000000E+00  0.50289814480E+03  0.77803368209E+03  0.59365803829E+03 0.  0.
        3    1    3    3  502    0  0.25894896073E+03 -0.14306874095E+03  0.21977141582E+03  0.36854133325E+03  0.10100000352E+00 0.  1.
       -3    1    3    3    0  502 -0.25894896073E+03  0.14306874095E+03  0.28312672898E+03  0.40949234884E+03  0.10100000352E+00 0. -1.
</event>
<event>
 5   0  0.1206238E-01  0.5957798E+03  0.7818609E-02  0.9914201E-01
        2   -1    0    0  501    0  0.00000000000E+00  0.00000000000E+00  0.16502736645E+04  0.16502736645E+04  0.25500000920E-02 0.  1.
       -2   -1    0    0    0  501  0.00000000000E+00  0.00000000000E+00 -0.53771917058E+02  0.53771917118E+02  0.25500000920E-02 0. -1.
    10030    2    1    2    0    0  0.00000000000E+00  0.00000000000E+00  0.15965017475E+04  0.17040455817E+04  0.59577975348E+03 0.  0.
        5    1    3    3  502    0  0.29284135296E+03  0.51904243054E+01  0.64334318298E+03  0.70689146238E+03  0.46999998093E+01 0. -1.
       -5    1    3    3    0  502 -0.29284135296E+03 -0.51904243054E+01  0.95315856450E+03  0.99715411927E+03  0.46999998093E+01 0.  1.
</event>
<event>
 5   0  0.1146468E-01  0.5904698E+03  0.7818609E-02  0.9925378E-01
       -2   -1    0    0    0  501  0.00000000000E+00  0.00000000000E+00  0.42897615692E+03  0.42897615693E+03  0.25500000920E-02 0.  1.
        2   -1    0    0  501    0  0.00000000000E+00  0.00000000000E+00 -0.20318997499E+03  0.20318997500E+03  0.25500000920E-02 0. -1.
    10030    2    1    2    0    0  0.00000000000E+00  0.00000000000E+00  0.22578618193E+03  0.63216613193E+03  0.59046982853E+03 0.  0.
        4    1    3    3  502    0 -0.68317821685E+02 -0.24839409639E+03 -0.41495041567E+02  0.26094137896E+03  0.12699999809E+01 0. -1.
       -4    1    3    3    0  502  0.68317821685E+02  0.24839409639E+03  0.26728122350E+03  0.37122475297E+03  0.12699999809E+01 0.  1.
</event>
<event>
 5   0  0.1166419E-01  0.5373708E+03  0.7818609E-02  0.1004460E+00
       -2   -1    0    0    0  501  0.00000000000E+00  0.00000000000E+00  0.74881586912E+02  0.74881586955E+02  0.25500000920E-02 0. -1.
        2   -1    0    0  501    0  0.00000000000E+00  0.00000000000E+00 -0.96408000033E+03  0.96408000033E+03  0.25500000920E-02 0.  1.
    10030    2    1    2    0    0  0.00000000000E+00  0.00000000000E+00 -0.88919841342E+03  0.10389615873E+04  0.53737078580E+03 0.  0.
        1    1    3    3  502    0 -0.41975969774E+02 -0.14603126382E+03 -0.16162083179E+02  0.15280158707E+03  0.50400001928E-02 0. -1.
       -1    1    3    3    0  502  0.41975969774E+02  0.14603126382E+03 -0.87303633024E+03  0.88616000022E+03  0.50400001928E-02 0.  1.
</event>
<event>
 5   0  0.7123340E-02  0.6023461E+03  0.7818609E-02  0.9900551E-01
        1   -1    0    0  501    0  0.00000000000E+00  0.00000000000E+00  0.88602640952E+03  0.88602640953E+03  0.50400001928E-02 0.  1.
       -1   -1    0    0    0  501  0.00000000000E+00  0.00000000000E+00 -0.10237302432E+03  0.10237302444E+03  0.50400001928E-02 0. -1.
    10030    2    1    2    0    0  0.00000000000E+00  0.00000000000E+00  0.78365338520E+03  0.98839943397E+03  0.60234609067E+03 0.  0.
        2    1    3    3  502    0 -0.58055841945E+02 -0.28064603303E+03  0.54375573917E+03  0.61465679897E+03  0.25500000920E-02 0. -1.
       -2    1    3    3    0  502  0.58055841945E+02  0.28064603303E+03  0.23989764603E+03  0.37374263500E+03  0.25500000920E-02 0.  1.
</event>
<event>
 5   0  0.7424930E-02  0.6054446E+03  0.7818609E-02  0.9894174E-01
        1   -1    0    0  501    0  0.00000000000E+00  0.00000000000E+00  0.53072975462E+03  0.53072975464E+03  0.50400001928E-02 0. -1.
       -1   -1    0    0    0  501  0.00000000000E+00  0.00000000000E+00 -0.17266940701E+03  0.17266940708E+03  0.50400001928E-02 0.  1.
    10030    2    1    2    0    0  0.00000000000E+00  0.00000000000E+00  0.35806034761E+03  0.70339916172E+03  0.60544460372E+03 0.  0.
        3    1    3    3  502    0  0.27778319401E+03  0.54292450085E+01  0.31867611850E+03  0.42278535722E+03  0.10100000352E+00 0. -1.
       -3    1    3    3    0  502 -0.27778319401E+03 -0.54292450085E+01  0.39384229107E+02  0.28061380450E+03  0.10100000352E+00 0.  1.
</event>
<event>
 5   0  0.4695625E-02  0.6043338E+03  0.7818609E-02  0.9896455E-01
       -3   -1    0    0    0  501  0.00000000000E+00  0.00000000000E+00  0.15476984249E+03  0.15476987544E+03  0.10100000352E+00 0.  1.
        3   -1    0    0  501    0  0.00000000000E+00  0.00000000000E+00 -0.58993933541E+03  0.58993934406E+03  0.10100000352E+00 0. -1.
    10030    2    1    2    0    0  0.00000000000E+00  0.00000000000E+00 -0.43516949292E+03  0.74470921950E+03  0.60433379356E+03 0.  0.
        3    1    3    3  502    0  0.18876775478E+02 -0.29791846851E+03 -0.27529284545E+03  0.40607623360E+03  0.10100000352E+00 0.  1.
       -3    1    3    3    0  502 -0.18876775478E+02  0.29791846851E+03 -0.15987664747E+03  0.33863298590E+03  0.10100000352E+00 0. -1.
</event>
<event>
 5   0  0.1175861E-01  0.6109060E+03  0.7818609E-02  0.9883034E-01
        2   -1    0    0  501    0  0.00000000000E+00  0.00000000000E+00  0.86623683507E+03  0.86623683507E+03  0.25500000920E-02 0. -1.
       -2   -1    0    0    0  501  0.00000000000E+00  0.00000000000E+00 -0.10770902480E+03  0.10770902483E+03  0.25500000920E-02 0.  1.
    10030    2    1    2    0    0  0.00000000000E+00  0.00000000000E+00  0.75852781027E+03  0.97394585990E+03  0.61090596582E+03 0.  0.
        3    1    3    3  502    0 -0.27534205028E+03 -0.61673655018E+01  0.16866259379E+03  0.32295256895E+03  0.10100000352E+00 0.  1.
       -3    1    3    3    0  502  0.27534205028E+03  0.61673655018E+01  0.58986521648E+03  0.65099329095E+03  0.10100000352E+00 0. -1.
</event>
<event>
 5   0  0.1175861E-01  0.5706906E+03  0.7818609E-02  0.9968151E-01
       -2   -1    0    0    0  501  0.00000000000E+00  0.00000000000E+00  0.14472981588E+03  0.14472981590E+03  0.25500000920E-02 0.  1.
        2   -1    0    0  501    0  0.00000000000E+00  0.00000000000E+00 -0.56257897851E+03  0.56257897852E+03  0.25500000920E-02 0. -1.
    10030    2    1    2    0    0  0.00000000000E+00  0.00000000000E+00 -0.41784916263E+03  0.70730879442E+03  0.57069064119E+03 0.  0.
        3    1    3    3  502    0  0.16003452534E+03 -0.19088954400E+03 -0.38142747015E+03  0.45556206218E+03  0.10100000352E+00 0. -1.
       -3    1    3    3    0  502 -0.16003452534E+03  0.19088954400E+03 -0.36421692481E+02  0.25174673224E+03  0.10100000352E+00 0.  1.
</event>
<event>
 5   0  0.7123340E-02  0.5962042E+03  0.7818609E-02  0.9913313E-01
        1   -1    0    0  501    0  0.00000000000E+00  0.00000000000E+00  0.38727893728E+03  0.38727893731E+03  0.50400001928E-02 0. -1.
       -1   -1    0    0    0  501  0.00000000000E+00  0.00000000000E+00 -0.22945956694E+03  0.22945956699E+03  0.50400001928E-02 0.  1.
    10030    2    1    2    0    0  0.00000000000E+00  0.00000000000E+00  0.15781937034E+03  0.61673850431E+03  0.59620418402E+03 0.  0.
        2    1    3    3  502    0 -0.19776045741E+03  0.55043059451E+02  0.30251646938E+03  0.36558877330E+03  0.25500000920E-02 0. -1.
       -2    1    3    3    0  502  0.19776045741E+03 -0.55043059451E+02 -0.14469709904E+03  0.25114973101E+03  0.25500000920E-02 0.  1.
</event>
<event>
 5   0  0.7263385E-02  0.6173646E+03  0.7818609E-02  0.9870021E-01
       -1   -1    0    0    0  501  0.00000000000E+00  0.00000000000E+00  0.14793232524E+03  0.14793232532E+03  0.50400001928E-02 0. -1.
        1   -1    0    0  501    0  0.00000000000E+00  0.00000000000E+00 -0.64411042814E+03  0.64411042816E+03  0.50400001928E-02 0.  1.
    10030    2    1    2    0    0  0.00000000000E+00  0.00000000000E+00 -0.49617810290E+03  0.79204275348E+03  0.61736457101E+03 0.  0.
        1    1    3    3  502    0  0.24142780602E+02  0.72177253865E+02 -0.63188449469E+03  0.63645144708E+03  0.50400001928E-02 0.  1.
       -1    1    3    3    0  502 -0.24142780602E+02 -0.72177253865E+02  0.13570639179E+03  0.15559130640E+03  0.50400001928E-02 0. -1.
</event>
<event>
 5   0  0.1206238E-01  0.5996271E+03  0.7818609E-02  0.9906180E-01
        2   -1    0    0  501    0  0.00000000000E+00  0.00000000000E+00  0.35593957385E+03  0.35593957386E+03  0.25500000920E-02 0. -1.
       -2   -1    0    0    0  501  0.00000000000E+00  0.00000000000E+00 -0.25253770965E+03  0.25253770966E+03  0.25500000920E-02 0.  1.
    10030    2    1    2    0    0  0.00000000000E+00  0.00000000000E+00  0.10340186421E+03  0.60847728352E+03  0.59962709999E+03 0.  0.
        5    1    3    3  502    0  0.28096089525E+03 -0.65945648554E+02 -0.30602389805E+02  0.29025238928E+03  0.46999998093E+01 0. -1.
       -5    1    3    3    0  502 -0.28096089525E+03  0.65945648554E+02  0.13400425401E+03  0.31822489424E+03  0.46999998093E+01 0.  1.
</event>
<event>
 5   0  0.7266519E-02  0.6169391E+03  0.7818609E-02  0.9870873E-01
       -1   -1    0    0    0  501  0.00000000000E+00  0.00000000000E+00  0.53987412458E+02  0.53987412693E+02  0.50400001928E-02 0.  1.
        1   -1    0    0  501    0  0.00000000000E+00  0.00000000000E+00 -0.17625117303E+04  0.17625117303E+04  0.50400001928E-02 0. -1.
    10030    2    1    2    0    0  0.00000000000E+00  0.00000000000E+00 -0.17085243178E+04  0.18164991430E+04  0.61693905036E+03 0.  0.
        4    1    3    3  502    0 -0.20841911503E+03 -0.59319313656E+02 -0.15006479422E+04  0.15162134309E+04  0.12699999809E+01 0. -1.
       -4    1    3    3    0  502  0.20841911503E+03  0.59319313656E+02 -0.20787637561E+03  0.30028571214E+03  0.12699999809E+01 0.  1.
</event>
<event>
 5   0  0.7263385E-02  0.5916632E+03  0.7818609E-02  0.9922855E-01
        1   -1    0    0  501    0  0.00000000000E+00  0.00000000000E+00  0.48177077859E+03  0.48177077861E+03  0.50400001928E-02 0. -1.
       -1   -1    0    0    0  501  0.00000000000E+00  0.00000000000E+00 -0.18165555772E+03  0.18165555779E+03  0.50400001928E-02 0.  1.
    10030    2    1    2    0    0  0.00000000000E+00  0.00000000000E+00  0.30011522087E+03  0.66342633641E+03  0.59166321336E+03 0.  0.
        1    1    3    3  502    0 -0.24034461998E+03 -0.15888917930E+03  0.22531810572E+03  0.36575887746E+03  0.50400001928E-02 0.  1.
       -1    1    3    3    0  502  0.24034461998E+03  0.15888917930E+03  0.74797115148E+02  0.29766745894E+03  0.50400001928E-02 0. -1.
</event>
<event>
 5   0  0.1146468E-01  0.5916686E+03  0.7818609E-02  0.9922843E-01
       -2   -1    0    0    0  501  0.00000000000E+00  0.00000000000E+00  0.14921899875E+03  0.14921899877E+03  0.25500000920E-02 0.  1.
        2   -1    0    0  501    0  0.00000000000E+00  0.00000000000E+00 -0.58650666115E+03  0.58650666116E+03  0.25500000920E-02 0. -1.
    10030    2    1    2    0    0  0.00000000000E+00  0.00000000000E+00 -0.43728766240E+03  0.73572565993E+03  0.59166861247E+03 0.  0.
        4    1    3    3  502    0 -0.28594104232E+03  0.23580085268E+02 -0.30829511267E+03  0.42114817998E+03  0.12699999809E+01 0. -1.
       -4    1    3    3    0  502  0.28594104232E+03 -0.23580085268E+02 -0.12899254974E+03  0.31457747995E+03  0.12699999809E+01 0.  1.
</event>
<event>
 5   0  0.7263385E-02  0.5837402E+03  0.7818609E-02  0.9939726E-01
       -1   -1    0    0    0  501  0.00000000000E+00  0.00000000000E+00  0.15887351634E+03  0.15887351642E+03  0.50400001928E-02 0. -1.
        1   -1    0    0  501    0  0.00000000000E+00  0.00000000000E+00 -0.53620110572E+03  0.53620110575E+03  0.50400001928E-02 0.  1.
    10030    2    1    2    0    0  0.00000000000E+00  0.00000000000E+00 -0.37732758939E+03  0.69507462217E+03  0.58374019963E+03 0.  0.
        1    1    3    3  502    0 -0.87123634422E+02 -0.27329531229E+03 -0.25286700367E+03  0.38239060784E+03  0.50400001928E-02 0.  1.
       -1    1    3    3    0  502  0.87123634422E+02  0.27329531229E+03 -0.12446058572E+03  0.31268401433E+03  0.50400001928E-02 0. -1.
</event>
<event>
 5   0  0.7263385E-02  0.5889530E+03  0.7818609E-02  0.9928594E-01
        1   -1    0    0  501    0  0.00000000000E+00  0.00000000000E+00  0.56850241354E+03  0.56850241356E+03  0.50400001928E-02 0. -1.
       -1   -1    0    0    0  501  0.00000000000E+00  0.00000000000E+00 -0.15253480026E+03  0.15253480034E+03  0.50400001928E-02 0.  1.
    10030    2    1    2    0    0  0.00000000000E+00  0.00000000000E+00  0.41596761327E+03  0.72103721390E+03  0.58895297651E+03 0.  0.
        1    1    3    3  502    0 -0.22621655586E+03  0.51161559804E+02  0.43013043778E+03  0.48867538190E+03  0.50400001928E-02 0. -1.
       -1    1    3    3    0  502  0.22621655586E+03 -0.51161559804E+02 -0.14162824503E+02  0.23236183200E+03  0.50400001928E-02 0.  1.
</event>
<event>
 5   0  0.7263385E-02  0.7384497E+03  0.7818609E-02  0.9653647E-01
        1   -1    0    0  501    0  0.00000000000E+00  0.00000000000E+00  0.12439953632E+04  0.12439953632E+04  0.50400001928E-02 0.  1.
       -1   -1    0    0    0  501  0.00000000000E+00  0.00000000000E+00 -0.10958800611E+03  0.10958800622E+03  0.50400001928E-02 0. -1.
    10030    2    1    2    0    0  0.00000000000E+00  0.00000000000E+00  0.11344073571E+04  0.13535833694E+04  0.73844965040E+03 0.  0.
        1    1    3    3  502    0 -0.29441814699E+02 -0.33175155789E+03  0.85934298724E+03  0.92162697788E+03  0.50400001928E-02 0.  1.
       -1    1    3    3    0  502  0.29441814699E+02  0.33175155789E+03  0.27506436986E+03  0.43195639156E+03  0.50400001928E-02 0. -1.
</event>
<event>
 5   0  0.7221069E-02  0.6098519E+03  0.7818609E-02  0.9885175E-01
        1   -1    0    0  501    0  0.00000000000E+00  0.00000000000E+00  0.19937170868E+03  0.19937170875E+03  0.50400001928E-02 0. -1.
       -1   -1    0    0    0  501  0.00000000000E+00  0.00000000000E+00 -0.46636420878E+03  0.46636420880E+03  0.50400001928E-02 0.  1.
    10030    2    1    2    0    0  0.00000000000E+00  0.00000000000E+00 -0.26699250009E+03  0.66573591755E+03  0.60985188104E+03 0.  0.
        5    1    3    3  502    0  0.10579224820E+02 -0.28827658468E+03 -0.24124475834E+03  0.37608035404E+03  0.46999998093E+01 0.  1.
       -5    1    3    3    0  502 -0.10579224820E+02  0.28827658468E+03 -0.25747741751E+02  0.28965556351E+03  0.46999998093E+01 0. -1.
</event>
<event>
 5   0  0.7221069E-02  0.5553214E+03  0.7818609E-02  0.1000270E+00
       -1   -1    0    0    0  501  0.00000000000E+00  0.00000000000E+00  0.47763989088E+03  0.47763989091E+03  0.50400001928E-02 0.  1.
        1   -1    0    0  501    0  0.00000000000E+00  0.00000000000E+00 -0.16140915488E+03  0.16140915496E+03  0.50400001928E-02 0. -1.
    10030    2    1    2    0    0  0.00000000000E+00  0.00000000000E+00  0.31623073600E+03  0.63904904587E+03  0.55532135259E+03 0.  0.
        5    1    3    3  502    0 -0.12644060404E+03  0.59894644944E+02 -0.11782744123E+03  0.18297538290E+03  0.46999998093E+01 0. -1.
       -5    1    3    3    0  502  0.12644060404E+03 -0.59894644944E+02  0.43405817723E+03  0.45607366297E+03  0.46999998093E+01 0.  1.
</event>
<event>
 5   0  0.7123340E-02  0.6066883E+03  0.7818609E-02  0.9891626E-01
       -1   -1    0    0    0  501  0.00000000000E+00  0.00000000000E+00  0.65493268439E+02  0.65493268633E+02  0.50400001928E-02 0.  1.
        1   -1    0    0  501    0  0.00000000000E+00  0.00000000000E+00 -0.14049942983E+04  0.14049942983E+04  0.50400001928E-02 0. -1.
    10030    2    1    2    0    0  0.00000000000E+00  0.00000000000E+00 -0.13395010298E+04  0.14704875669E+04  0.60668828531E+03 0.  0.
        2    1    3    3  502    0  0.58497558817E+00 -0.24805202410E+03 -0.10929613685E+04  0.11207563080E+04  0.25500000920E-02 0. -1.
       -2    1    3    3    0  502 -0.58497558817E+00  0.24805202410E+03 -0.24653966134E+03  0.34973125893E+03  0.25500000920E-02 0.  1.
</event>
<event>
 5   0  0.7123340E-02  0.5991681E+03  0.7818609E-02  0.9907134E-01
       -1   -1    0    0    0  501  0.00000000000E+00  0.00000000000E+00  0.41187955339E+03  0.41187955342E+03  0.50400001928E-02 0. -1.
        1   -1    0    0  501    0  0.00000000000E+00  0.00000000000E+00 -0.21790495743E+03  0.21790495748E+03  0.50400001928E-02 0.  1.
    10030    2    1    2    0    0  0.00000000000E+00  0.00000000000E+00  0.19397459596E+03  0.62978451090E+03  0.59916807850E+03 0.  0.
        2    1    3    3  502    0 -0.11065899394E+03 -0.12381073878E+03 -0.16510544285E+03  0.23416728901E+03  0.25500000920E-02 0.  1.
       -2    1    3    3    0  502  0.11065899394E+03  0.12381073878E+03  0.35908003881E+03  0.39561722189E+03  0.25500000920E-02 0. -1.
</event>
<event>
 5   0  0.7123340E-02  0.5996135E+03  0.7818609E-02  0.9906208E-01
       -1   -1    0    0    0  501  0.00000000000E+00  0.00000000000E+00  0.17275171285E+03  0.17275171292E+03  0.50400001928E-02 0.  1.
        1   -1    0    0  501    0  0.00000000000E+00  0.00000000000E+00 -0.52030785708E+03  0.52030785710E+03  0.50400001928E-02 0. -1.
    10030    2    1    2    0    0  0.00000000000E+00  0.00000000000E+00 -0.34755614423E+03  0.69305957002E+03  0.59961345399E+03 0.  0.
        2    1    3    3  502    0 -0.23191247992E+03  0.18516630800E+03 -0.22300825321E+03  0.37121778105E+03  0.25500000920E-02 0. -1.
       -2    1    3    3    0  502  0.23191247992E+03 -0.18516630800E+03 -0.12454789102E+03  0.32184178897E+03  0.25500000920E-02 0.  1.
</event>
<event>
 5   0  0.1206238E-01  0.5948756E+03  0.7818609E-02  0.9916095E-01
       -2   -1    0    0    0  501  0.00000000000E+00  0.00000000000E+00  0.11201044161E+03  0.11201044164E+03  0.25500000920E-02 0.  1.
        2   -1    0    0  501    0  0.00000000000E+00  0.00000000000E+00 -0.78983035547E+03  0.78983035548E+03  0.25500000920E-02 0. -1.
    10030    2    1    2    0    0  0.00000000000E+00  0.00000000000E+00 -0.67781991387E+03  0.90184079711E+03  0.59487560692E+03 0.  0.
        5    1    3    3  502    0  0.23829605193E+03 -0.13383933665E+03 -0.16114664866E+03  0.31731421143E+03  0.46999998093E+01 0.  1.
       -5    1    3    3    0  502 -0.23829605193E+03  0.13383933665E+03 -0.51667326520E+03  0.58452658569E+03  0.46999998093E+01 0. -1.
</event>
<event>
 5   0  0.7263385E-02  0.6002361E+03  0.7818609E-02  0.9904916E-01
       -1   -1    0    0    0  501  0.00000000000E+00  0.00000000000E+00  0.13447190734E+03  0.13447190744E+03  0.50400001928E-02 0.  1.
        1   -1    0    0  501    0  0.00000000000E+00  0.00000000000E+00 -0.66981153420E+03  0.66981153422E+03  0.50400001928E-02 0. -1.
    10030    2    1    2    0    0  0.00000000000E+00  0.00000000000E+00 -0.53533962686E+03  0.80428344166E+03  0.60023606893E+03 0.  0.
        1    1    3    3  502    0 -0.12531906590E+03 -0.27265688031E+03 -0.27426037265E+03  0.40652846726E+03  0.50400001928E-02 0.  1.
       -1    1    3    3    0  502  0.12531906590E+03  0.27265688031E+03 -0.26107925421E+03  0.39775497440E+03  0.50400001928E-02 0. -1.
</event>
<event>
 5   0  0.4695625E-02  0.5914654E+03  0.7818609E-02  0.9923273E-01
       -3   -1    0    0    0  501  0.00000000000E+00  0.00000000000E+00  0.72507428030E+03  0.72507428733E+03  0.10100000352E+00 0. -1.
        3   -1    0    0  501    0  0.00000000000E+00  0.00000000000E+00 -0.12061910409E+03  0.12061914637E+03  0.10100000352E+00 0.  1.
    10030    2    1    2    0    0  0.00000000000E+00  0.00000000000E+00  0.60445517621E+03  0.84569343370E+03  0.59146540369E+03 0.  0.
        2    1    3    3  502    0  0.26826489561E+01  0.29571899052E+03  0.30359378216E+03  0.42382319726E+03  0.25500000920E-02 0.  1.
       -2    1    3    3    0  502 -0.26826489561E+01 -0.29571899052E+03  0.30086139405E+03  0.42187023645E+03  0.25500000920E-02 0. -1.
</event>
<event>
 5   0  0.1175861E-01  0.5979461E+03  0.7818609E-02  0.9909677E-01
       -2   -1    0    0    0  501  0.00000000000E+00  0.00000000000E+00  0.10145224370E+03  0.10145224373E+03  0.25500000920E-02 0.  1.
        2   -1    0    0  501    0  0.00000000000E+00  0.00000000000E+00 -0.88105369156E+03  0.88105369156E+03  0.25500000920E-02 0. -1.
    10030    2    1    2    0    0  0.00000000000E+00  0.00000000000E+00 -0.77960144786E+03  0.98250593530E+03  0.59794606395E+03 0.  0.
        3    1    3    3  502    0 -0.13196626129E+03 -0.23628557015E+03 -0.18105858884E+03  0.32561969777E+03  0.10100000352E+00 0.  1.
       -3    1    3    3    0  502  0.13196626129E+03  0.23628557015E+03 -0.59854285901E+03  0.65688623753E+03  0.10100000352E+00 0. -1.
</event>
<event>
 5   0  0.7266519E-02  0.5856065E+03  0.7818609E-02  0.9935726E-01
       -1   -1    0    0    0  501  0.00000000000E+00  0.00000000000E+00  0.69856848760E+03  0.69856848762E+03  0.50400001928E-02 0. -1.
        1   -1    0    0  501    0  0.00000000000E+00  0.00000000000E+00 -0.12272775065E+03  0.12272775075E+03  0.50400001928E-02 0.  1.
    10030    2    1    2    0    0  0.00000000000E+00  0.00000000000E+00  0.57584073695E+03  0.82129623838E+03  0.58560648633E+03 0.  0.
        4    1    3    3  502    0 -0.85580614387E+02  0.48172610663E+02  0.67477746496E+03  0.68188773424E+03  0.12699999809E+01 0. -1.
       -4    1    3    3    0  502  0.85580614387E+02 -0.48172610663E+02 -0.98936728011E+02  0.13940850414E+03  0.12699999809E+01 0.  1.
</event>
<event>
 5   0  0.1146468E-01  0.5731686E+03  0.7818609E-02  0.9962691E-01
        2   -1    0    0  501    0  0.00000000000E+00  0.00000000000E+00  0.10807028436E+04  0.10807028436E+04  0.25500000920E-02 0. -1.
       -2   -1    0    0    0  501  0.00000000000E+00  0.00000000000E+00 -0.75997369914E+02  0.75997369957E+02  0.25500000920E-02 0.  1.
    10030    2    1    2    0    0  0.00000000000E+00  0.00000000000E+00  0.10047054737E+04  0.11567002136E+04  0.57316864465E+03 0.  0.
        4    1    3    3  502    0 -0.12659395799E+03  0.14619186746E+03  0.75535394440E+02  0.20761816159E+03  0.12699999809E+01 0.  1.
       -4    1    3    3    0  502  0.12659395799E+03 -0.14619186746E+03  0.92917007928E+03  0.94908205201E+03  0.12699999809E+01 0. -1.
</event>
<event>
 5   0  0.1166419E-01  0.5134297E+03  0.7818609E-02  0.1010332E+00
        2   -1    0    0  501    0  0.00000000000E+00  0.00000000000E+00  0.37653427068E+03  0.37653427069E+03  0.25500000920E-02 0. -1.
       -2   -1    0    0    0  501  0.00000000000E+00  0.00000000000E+00 -0.17502396100E+03  0.17502396102E+03  0.25500000920E-02 0.  1.
    10030    2    1    2    0    0  0.00000000000E+00  0.00000000000E+00  0.20151030968E+03  0.55155823171E+03  0.51342972066E+03 0.  0.
        1    1    3    3  502    0  0.10170889523E+03  0.20149585027E+03  0.23213723458E+03  0.32377920370E+03  0.50400001928E-02 0. -1.
       -1    1    3    3    0  502 -0.10170889523E+03 -0.20149585027E+03 -0.30626924906E+02  0.22777902801E+03  0.50400001928E-02 0.  1.
</event>
<event>
 5   0  0.7424930E-02  0.5977237E+03  0.7818609E-02  0.9910140E-01
        1   -1    0    0  501    0  0.00000000000E+00  0.00000000000E+00  0.19257664485E+03  0.19257664492E+03  0.50400001928E-02 0. -1.
       -1   -1    0    0    0  501  0.00000000000E+00  0.00000000000E+00 -0.46380699255E+03  0.46380699258E+03  0.50400001928E-02 0.  1.
    10030    2    1    2    0    0  0.00000000000E+00  0.00000000000E+00 -0.27123034770E+03  0.65638363750E+03  0.59772366363E+03 0.  0.
        3    1    3    3  502    0 -0.17486960026E+03 -0.49544592342E+02 -0.39614118358E+03  0.43584617844E+03  0.10100000352E+00 0.  1.
       -3    1    3    3    0  502  0.17486960026E+03  0.49544592342E+02  0.12491083589E+03  0.22053745906E+03  0.10100000352E+00 0. -1.
</event>
<event>
 5   0  0.1175861E-01  0.6072025E+03  0.7818609E-02  0.9890575E-01
       -2   -1    0    0    0  501  0.00000000000E+00  0.00000000000E+00  0.14426400635E+03  0.14426400637E+03  0.25500000920E-02 0. -1.
        2   -1    0    0  501    0  0.00000000000E+00  0.00000000000E+00 -0.63892391558E+03  0.63892391559E+03  0.25500000920E-02 0.  1.
    10030    2    1    2    0    0  0.00000000000E+00  0.00000000000E+00 -0.49465990923E+03  0.78318792196E+03  0.60720251588E+03 0.  0.
        3    1    3    3  502    0 -0.37250160121E+02  0.12522633560E+03 -0.60081041367E+03  0.61485150478E+03  0.10100000352E+00 0.  1.
       -3    1    3    3    0  502  0.37250160121E+02 -0.12522633560E+03  0.10615050443E+03  0.16833641718E+03  0.10100000352E+00 0. -1.
</event>
<event>
 5   0  0.7266519E-02  0.5968811E+03  0.7818609E-02  0.9911898E-01
       -1   -1    0    0    0  501  0.00000000000E+00  0.00000000000E+00  0.56860246313E+02  0.56860246536E+02  0.50400001928E-02 0. -1.
        1   -1    0    0  501    0  0.00000000000E+00  0.00000000000E+00 -0.15664155158E+04  0.15664155158E+04  0.50400001928E-02 0.  1.
    10030    2    1    2    0    0  0.00000000000E+00  0.00000000000E+00 -0.15095552695E+04  0.16232757624E+04  0.59688113472E+03 0.  0.
        4    1    3    3  502    0 -0.12061618456E+02  0.82627967482E+02 -0.15339896702E+04  0.15362613010E+04  0.12699999809E+01 0.  1.
       -4    1    3    3    0  502  0.12061618456E+02 -0.82627967482E+02  0.24434400720E+02  0.87014461376E+02  0.12699999809E+01 0. -1.
</event>
<event>
 5   0  0.1219020E-01  0.6063563E+03  0.7818609E-02  0.9892306E-01
        2   -1    0    0  501    0  0.00000000000E+00  0.00000000000E+00  0.79227946521E+02  0.79227946562E+02  0.25500000920E-02 0.  1.
       -2   -1    0    0    0  501  0.00000000000E+00  0.00000000000E+00 -0.11601587637E+04  0.11601587637E+04  0.25500000920E-02 0. -1.
    10030    2    1    2    0    0  0.00000000000E+00  0.00000000000E+00 -0.10809308171E+04  0.12393867102E+04  0.60635631937E+03 0.  0.
        2    1    3    3  502    0 -0.98216411960E+02 -0.16607671979E+03 -0.10184667778E+04  0.10365821327E+04  0.25500000920E-02 0. -1.
       -2    1    3    3    0  502  0.98216411960E+02  0.16607671979E+03 -0.62464039354E+02  0.20280457750E+03  0.25500000920E-02 0.  1.
</event>
<event>
 5   0  0.7266519E-02  0.6016533E+03  0.7818609E-02  0.9901982E-01
       -1   -1    0    0    0  501  0.00000000000E+00  0.00000000000E+00  0.19946333946E+03  0.19946333952E+03  0.50400001928E-02 0.  1.
        1   -1    0    0  501    0  0.00000000000E+00  0.00000000000E+00 -0.45370076590E+03  0.45370076593E+03  0.50400001928E-02 0. -1.
    10030    2    1    2    0    0  0.00000000000E+00  0.00000000000E+00 -0.25423742644E+03  0.65316410545E+03  0.60165328857E+03 0.  0.
        4    1    3    3  502    0 -0.12025141024E+03  0.50186778436E+01 -0.42642088099E+03  0.44308235062E+03  0.12699999809E+01 0. -1.
       -4    1    3    3    0  502  0.12025141024E+03 -0.50186778436E+01  0.17218345454E+03  0.21008175483E+03  0.12699999809E+01 0.  1.
</event>
<event>
 5   0  0.7266519E-02  0.6075052E+03  0.7818609E-02  0.9889956E-01
        1   -1    0    0  501    0  0.00000000000E+00  0.00000000000E+00  0.11311670438E+04  0.11311670438E+04  0.50400001928E-02 0. -1.
       -1   -1    0    0    0  501  0.00000000000E+00  0.00000000000E+00 -0.81566770538E+02  0.81566770694E+02  0.50400001928E-02 0.  1.
    10030    2    1    2    0    0  0.00000000000E+00  0.00000000000E+00  0.10496002733E+04  0.12127338145E+04  0.60750520262E+03 0.  0.
        4    1    3    3  502    0  0.11458290774E+02 -0.30352595418E+03  0.52914289957E+03  0.61012549394E+03  0.12699999809E+01 0.  1.
       -4    1    3    3    0  502 -0.11458290774E+02  0.30352595418E+03  0.52045737369E+03  0.60260832056E+03  0.12699999809E+01 0. -1.
</event>
<event>
 5   0  0.7123340E-02  0.6017433E+03  0.7818609E-02  0.9901796E-01
        1   -1    0    0  501    0  0.00000000000E+00  0.00000000000E+00  0.61048926900E+03  0.61048926902E+03  0.50400001928E-02 0.  1.
       -1   -1    0    0    0  501  0.00000000000E+00  0.00000000000E+00 -0.14828067707E+03  0.14828067716E+03  0.50400001928E-02 0. -1.
    10030    2    1    2    0    0  0.00000000000E+00  0.00000000000E+00  0.46220859193E+03  0.75876994618E+03  0.60174334128E+03 0.  0.
        2    1    3    3  502    0 -0.21456311976E+03  0.17229241687E+03  0.38451490806E+03  0.47283583176E+03  0.25500000920E-02 0.  1.
       -2    1    3    3    0  502  0.21456311976E+03 -0.17229241687E+03  0.77693683870E+02  0.28593411442E+03  0.25500000920E-02 0. -1.
</event>
<event>
 5   0  0.1219020E-01  0.5880482E+03  0.7818609E-02  0.9930517E-01
       -2   -1    0    0    0  501  0.00000000000E+00  0.00000000000E+00  0.18254417447E+03  0.18254417449E+03  0.25500000920E-02 0.  1.
        2   -1    0    0  501    0  0.00000000000E+00  0.00000000000E+00 -0.47358492869E+03  0.47358492870E+03  0.25500000920E-02 0. -1.
    10030    2    1    2    0    0  0.00000000000E+00  0.00000000000E+00 -0.29104075423E+03  0.65612910319E+03  0.58804819482E+03 0.  0.
        2    1    3    3  502    0 -0.17690526447E+03  0.22779994403E+03 -0.20924548126E+03  0.35633124832E+03  0.25500000920E-02 0.  1.
       -2    1    3    3    0  502  0.17690526447E+03 -0.22779994403E+03 -0.81795272969E+02  0.29979785487E+03  0.25500000920E-02 0. -1.
</event>
<event>
 5   0  0.1166419E-01  0.5366806E+03  0.7818609E-02  0.1004625E+00
        2   -1    0    0  501    0  0.00000000000E+00  0.00000000000E+00  0.65994812650E+03  0.65994812651E+03  0.25500000920E-02 0.  1.
       -2   -1    0    0    0  501  0.00000000000E+00  0.00000000000E+00 -0.10910935235E+03  0.10910935238E+03  0.25500000920E-02 0. -1.
    10030    2    1    2    0    0  0.00000000000E+00  0.00000000000E+00  0.55083877415E+03  0.76905747889E+03  0.53668058538E+03 0.  0.
        1    1    3    3  502    0 -0.26468258262E+03 -0.43822671591E+02  0.26767374387E+03  0.37898090885E+03  0.50400001928E-02 0.  1.
       -1    1    3    3    0  502  0.26468258262E+03  0.43822671591E+02  0.28316503029E+03  0.39007657004E+03  0.50400001928E-02 0. -1.
</event>
<event>
 5   0  0.4695625E-02  0.6105929E+03  0.7818609E-02  0.9883670E-01
        4   -1    0    0  501    0  0.00000000000E+00  0.00000000000E+00  0.28368530639E+03  0.28368814913E+03  0.12699999809E+01 0. -1.
       -4   -1    0    0    0  501  0.00000000000E+00  0.00000000000E+00 -0.32854824500E+03  0.32855069958E+03  0.12699999809E+01 0.  1.
    10030    2    1    2    0    0  0.00000000000E+00  0.00000000000E+00 -0.44862938613E+02  0.61223884871E+03  0.61059292873E+03 0.  0.
        2    1    3    3  502    0  0.12715239539E+03  0.38790297046E+02  0.25314298320E+03  0.28592619459E+03  0.25500000920E-02 0. -1.
       -2    1    3    3    0  502 -0.12715239539E+03 -0.38790297046E+02 -0.29800592182E+03  0.32631265413E+03  0.25500000920E-02 0.  1.
</event>
<event>
 5   0  0.1166419E-01  0.6028042E+03  0.7818609E-02  0.9899605E-01
        2   -1    0    0  501    0  0.00000000000E+00  0.00000000000E+00  0.63992259330E+03  0.63992259331E+03  0.25500000920E-02 0. -1.
       -2   -1    0    0    0  501  0.00000000000E+00  0.00000000000E+00 -0.14195971302E+03  0.14195971305E+03  0.25500000920E-02 0.  1.
    10030    2    1    2    0    0  0.00000000000E+00  0.00000000000E+00  0.49796288028E+03  0.78188230635E+03  0.60280420607E+03 0.  0.
        1    1    3    3  502    0 -0.89967417617E+02  0.28274876709E+03  0.31764348029E+03  0.43467042931E+03  0.50400001928E-02 0. -1.
       -1    1    3    3    0  502  0.89967417617E+02 -0.28274876709E+03  0.18031939998E+03  0.34721187704E+03  0.50400001928E-02 0.  1.
</event>
<event>
 5   0  0.7263385E-02  0.6193725E+03  0.7818609E-02  0.9866010E-01
       -1   -1    0    0    0  501  0.00000000000E+00  0.00000000000E+00  0.17227468404E+03  0.17227468411E+03  0.50400001928E-02 0. -1.
        1   -1    0    0  501    0  0.00000000000E+00  0.00000000000E+00 -0.55670148943E+03  0.55670148945E+03  0.50400001928E-02 0.  1.
    10030    2    1    2    0    0  0.00000000000E+00  0.00000000000E+00 -0.38442680539E+03  0.72897617356E+03  0.61937249932E+03 0.  0.
        1    1    3    3  502    0 -0.17454824436E+03 -0.20031866664E+03 -0.49661987490E+01  0.26574296034E+03  0.50400001928E-02 0. -1.
       -1    1    3    3    0  502  0.17454824436E+03  0.20031866664E+03 -0.37946060664E+03  0.46323321322E+03  0.50400001928E-02 0.  1.
</event>
<event>
 5   0  0.1206238E-01  0.5916801E+03  0.7818609E-02  0.9922819E-01
       -2   -1    0    0    0  501  0.00000000000E+00  0.00000000000E+00  0.15311639757E+03  0.15311639759E+03  0.25500000920E-02 0.  1.
        2   -1    0    0  501    0  0.00000000000E+00  0.00000000000E+00 -0.57160003804E+03  0.57160003804E+03  0.25500000920E-02 0. -1.
    10030    2    1    2    0    0  0.00000000000E+00  0.00000000000E+00 -0.41848364047E+03  0.72471643563E+03  0.59168011183E+03 0.  0.
        5    1    3    3  502    0 -0.24139162689E+03  0.11881428837E+03 -0.58668079778E+02  0.27541021448E+03  0.46999998093E+01 0.  1.
       -5    1    3    3    0  502  0.24139162689E+03 -0.11881428837E+03 -0.35981556069E+03  0.44930622116E+03  0.46999998093E+01 0. -1.
</event>
<event>
 5   0  0.4695625E-02  0.6483163E+03  0.7818609E-02  0.9809944E-01
        3   -1    0    0  501    0  0.00000000000E+00  0.00000000000E+00  0.25759680508E+03  0.25759682488E+03  0.10100000352E+00 0. -1.
       -3   -1    0    0    0  501  0.00000000000E+00  0.00000000000E+00 -0.40791842538E+03  0.40791843788E+03  0.10100000352E+00 0.  1.
    10030    2    1    2    0    0  0.00000000000E+00  0.00000000000E+00 -0.15032162029E+03  0.66551526276E+03  0.64831626190E+03 0.  0.
        2    1    3    3  502    0 -0.15032145878E+03  0.24649824130E+03  0.76127967111E+02  0.29858565156E+03  0.25500000920E-02 0. -1.
       -2    1    3    3    0  502  0.15032145878E+03 -0.24649824130E+03 -0.22644958740E+03  0.36692961120E+03  0.25500000920E-02 0.  1.
</event>
<event>
 5   0  0.1146468E-01  0.5599363E+03  0.7818609E-02  0.9992199E-01
       -2   -1    0    0    0  501  0.00000000000E+00  0.00000000000E+00  0.72796105516E+02  0.72796105561E+02  0.25500000920E-02 0. -1.
        2   -1    0    0  501    0  0.00000000000E+00  0.00000000000E+00 -0.10767357284E+04  0.10767357284E+04  0.25500000920E-02 0.  1.
    10030    2    1    2    0    0  0.00000000000E+00  0.00000000000E+00 -0.10039396229E+04  0.11495318340E+04  0.55993630969E+03 0.  0.
        4    1    3    3  502    0  0.27090514973E+02 -0.50280057747E+02 -0.10646427665E+04  0.10661743823E+04  0.12699999809E+01 0.  1.
       -4    1    3    3    0  502 -0.27090514973E+02  0.50280057747E+02  0.60703143625E+02  0.83357451703E+02  0.12699999809E+01 0. -1.
</event>
<event>
 5   0  0.1146468E-01  0.5973011E+03  0.7818609E-02  0.9911021E-01
        2   -1    0    0  501    0  0.00000000000E+00  0.00000000000E+00  0.35434105897E+03  0.35434105897E+03  0.25500000920E-02 0. -1.
       -2   -1    0    0    0  501  0.00000000000E+00  0.00000000000E+00 -0.25171275335E+03  0.25171275337E+03  0.25500000920E-02 0.  1.
    10030    2    1    2    0    0  0.00000000000E+00  0.00000000000E+00  0.10262830561E+03  0.60605381234E+03  0.59730114209E+03 0.  0.
        4    1    3    3  502    0  0.20290070619E+03  0.21686874683E+03  0.83236273409E+02  0.30843255346E+03  0.12699999809E+01 0.  1.
       -4    1    3    3    0  502 -0.20290070619E+03 -0.21686874683E+03  0.19392032203E+02  0.29762125888E+03  0.12699999809E+01 0. -1.
</event>
<event>
 5   0  0.4695625E-02  0.5864762E+03  0.7818609E-02  0.9933868E-01
        4   -1    0    0  501    0  0.00000000000E+00  0.00000000000E+00  0.69220568940E+03  0.69220685444E+03  0.12699999809E+01 0. -1.
       -4   -1    0    0    0  501  0.00000000000E+00  0.00000000000E+00 -0.12421953464E+03  0.12422602661E+03  0.12699999809E+01 0.  1.
    10030    2    1    2    0    0  0.00000000000E+00  0.00000000000E+00  0.56798615476E+03  0.81643288104E+03  0.58647623759E+03 0.  0.
        5    1    3    3  502    0 -0.22243603701E+02  0.12404102922E+03  0.65253280294E+03  0.66460672864E+03  0.46999998093E+01 0. -1.
       -5    1    3    3    0  502  0.22243603701E+02 -0.12404102922E+03 -0.84546648188E+02  0.15182615241E+03  0.46999998093E+01 0.  1.
</event>
<event>
 5   0  0.4695625E-02  0.5969827E+03  0.7818609E-02  0.9911686E-01
       -3   -1    0    0    0  501  0.00000000000E+00  0.00000000000E+00  0.83703425309E+03  0.83703425918E+03  0.10100000352E+00 0.  1.
        3   -1    0    0  501    0  0.00000000000E+00  0.00000000000E+00 -0.10644374437E+03  0.10644379228E+03  0.10100000352E+00 0. -1.
    10030    2    1    2    0    0  0.00000000000E+00  0.00000000000E+00  0.73059050872E+03  0.94347805147E+03  0.59698269838E+03 0.  0.
        5    1    3    3  502    0 -0.12582655020E+03  0.11166406399E+03 -0.24313130107E+02  0.17004235418E+03  0.46999998093E+01 0. -1.
       -5    1    3    3    0  502  0.12582655020E+03 -0.11166406399E+03  0.75490363883E+03  0.77343569728E+03  0.46999998093E+01 0.  1.
</event>
<event>
 5   0  0.7263385E-02  0.6025242E+03  0.7818609E-02  0.9900183E-01
       -1   -1    0    0    0  501  0.00000000000E+00  0.00000000000E+00  0.12939209588E+03  0.12939209598E+03  0.50400001928E-02 0.  1.
        1   -1    0    0  501    0  0.00000000000E+00  0.00000000000E+00 -0.70142501564E+03  0.70142501565E+03  0.50400001928E-02 0. -1.
    10030    2    1    2    0    0  0.00000000000E+00  0.00000000000E+00 -0.57203291975E+03  0.83081711163E+03  0.60252420010E+03 0.  0.
        1    1    3    3  502    0  0.51558107835E+02 -0.24907597555E+03 -0.50862043493E+03  0.56867550232E+03  0.50400001928E-02 0. -1.
       -1    1    3    3    0  502 -0.51558107835E+02  0.24907597555E+03 -0.63412484824E+02  0.26214160932E+03  0.50400001928E-02 0.  1.
</event>
<event>
 5   0  0.7221069E-02  0.6003888E+03  0.7818609E-02  0.9904600E-01
        1   -1    0    0  501    0  0.00000000000E+00  0.00000000000E+00  0.66722483201E+03  0.66722483203E+03  0.50400001928E-02 0. -1.
       -1   -1    0    0    0  501  0.00000000000E+00  0.00000000000E+00 -0.13506192182E+03  0.13506192192E+03  0.50400001928E-02 0.  1.
    10030    2    1    2    0    0  0.00000000000E+00  0.00000000000E+00  0.53216291019E+03  0.80228675395E+03  0.60038876787E+03 0.  0.
        5    1    3    3  502    0 -0.10422667965E+03 -0.18102254773E+03  0.55411761768E+03  0.59219995590E+03  0.46999998093E+01 0. -1.
       -5    1    3    3    0  502  0.10422667965E+03  0.18102254773E+03 -0.21954707491E+02  0.21008679805E+03  0.46999998093E+01 0.  1.
</event>
<event>
 5   0  0.1146468E-01  0.6121578E+03  0.7818609E-02  0.9880499E-01
       -2   -1    0    0    0  501  0.00000000000E+00  0.00000000000E+00  0.24553849852E+03  0.24553849854E+03  0.25500000920E-02 0. -1.
        2   -1    0    0  501    0  0.00000000000E+00  0.00000000000E+00 -0.38154629946E+03  0.38154629947E+03  0.25500000920E-02 0.  1.
    10030    2    1    2    0    0  0.00000000000E+00  0.00000000000E+00 -0.13600780094E+03  0.62708479801E+03  0.61215784074E+03 0.  0.
        4    1    3    3  502    0  0.16157821207E+03  0.20354301943E+03  0.97634341044E+02  0.27761728481E+03  0.12699999809E+01 0. -1.
       -4    1    3    3    0  502 -0.16157821207E+03 -0.20354301943E+03 -0.23364214198E+03  0.34946751320E+03  0.12699999809E+01 0.  1.
</event>
<event>
 5   0  0.1206238E-01  0.6165261E+03  0.7818609E-02  0.9871701E-01
        2   -1    0    0  501    0  0.00000000000E+00  0.00000000000E+00  0.27568539317E+03  0.27568539318E+03  0.25500000920E-02 0.  1.
       -2   -1    0    0    0  501  0.00000000000E+00  0.00000000000E+00 -0.34469042280E+03  0.34469042281E+03  0.25500000920E-02 0. -1.
    10030    2    1    2    0    0  0.00000000000E+00  0.00000000000E+00 -0.69005029624E+02  0.62037581599E+03  0.61652612187E+03 0.  0.
        5    1    3    3  502    0 -0.22031867129E+03  0.14241594304E+03 -0.19731955975E+03  0.32829821262E+03  0.46999998093E+01 0. -1.
       -5    1    3    3    0  502  0.22031867129E+03 -0.14241594304E+03  0.12831453013E+03  0.29207760337E+03  0.46999998093E+01 0.  1.
</event>
<event>
 5   0  0.1166419E-01  0.6001375E+03  0.7818609E-02  0.9905121E-01
        2   -1    0    0  501    0  0.00000000000E+00  0.00000000000E+00  0.22181334278E+03  0.22181334280E+03  0.25500000920E-02 0.  1.
       -2   -1    0    0    0  501  0.00000000000E+00  0.00000000000E+00 -0.40593259361E+03  0.40593259362E+03  0.25500000920E-02 0. -1.
    10030    2    1    2    0    0  0.00000000000E+00  0.00000000000E+00 -0.18411925083E+03  0.62774593642E+03  0.60013753604E+03 0.  0.
        1    1    3    3  502    0 -0.27358430258E+03 -0.11625750609E+03 -0.49223425351E+02  0.30130901740E+03  0.50400001928E-02 0.  1.
       -1    1    3    3    0  502  0.27358430258E+03  0.11625750609E+03 -0.13489582548E+03  0.32643691902E+03  0.50400001928E-02 0. -1.
</event>
<event>
 5   0  0.1166419E-01  0.6111737E+03  0.7818609E-02  0.9882492E-01
        2   -1    0    0  501    0  0.00000000000E+00  0.00000000000E+00  0.80568053430E+03  0.80568053431E+03  0.25500000920E-02 0.  1.
       -2   -1    0    0    0  501  0.00000000000E+00  0.00000000000E+00 -0.11590613172E+03  0.11590613175E+03  0.25500000920E-02 0. -1.
    10030    2    1    2    0    0  0.00000000000E+00  0.00000000000E+00  0.68977440258E+03  0.92158666605E+03  0.61117367138E+03 0.  0.
        1    1    3    3  502    0  0.45918089287E+02 -0.29971626505E+03  0.28756722271E+03  0.41789139505E+03  0.50400001928E-02 0.  1.
       -1    1    3    3    0  502 -0.45918089287E+02  0.29971626505E+03  0.40220717988E+03  0.50369527100E+03  0.50400001928E-02 0. -1.
</event>
<event>
 5   0  0.7221069E-02  0.6227359E+03  0.7818609E-02  0.9859328E-01
        1   -1    0    0  501    0  0.00000000000E+00  0.00000000000E+00  0.39901372030E+03  0.39901372033E+03  0.50400001928E-02 0. -1.
       -1   -1    0    0    0  501  0.00000000000E+00  0.00000000000E+00 -0.24297408783E+03  0.24297408789E+03  0.50400001928E-02 0.  1.
    10030    2    1    2    0    0  0.00000000000E+00  0.00000000000E+00  0.15603963247E+03  0.64198780822E+03  0.62273588222E+03 0.  0.
        5    1    3    3  502    0 -0.17866445993E+02  0.28790489470E+03 -0.42731396529E+02  0.29164447626E+03  0.46999998093E+01 0. -1.
       -5    1    3    3    0  502  0.17866445993E+02 -0.28790489470E+03  0.19877102900E+03  0.35034333196E+03  0.46999998093E+01 0.  1.
</event>
<event>
 5   0  0.7221069E-02  0.5890135E+03  0.7818609E-02  0.9928465E-01
       -1   -1    0    0    0  501  0.00000000000E+00  0.00000000000E+00  0.45009853187E+02  0.45009853470E+02  0.50400001928E-02 0.  1.
        1   -1    0    0  501    0  0.00000000000E+00  0.00000000000E+00 -0.19270050183E+04  0.19270050183E+04  0.50400001928E-02 0. -1.
    10030    2    1    2    0    0  0.00000000000E+00  0.00000000000E+00 -0.18819951651E+04  0.19720148718E+04  0.58901345741E+03 0.  0.
        5    1    3    3  502    0 -0.17374491157E+03 -0.20796375833E+03 -0.13267574316E+04  0.13541578901E+04  0.46999998093E+01 0.  1.
       -5    1    3    3    0  502  0.17374491157E+03  0.20796375833E+03 -0.55523773360E+03  0.61785698174E+03  0.46999998093E+01 0. -1.
</event>
<event>
 5   0  0.1146468E-01  0.6202120E+03  0.7818609E-02  0.9864338E-01
       -2   -1    0    0    0  501  0.00000000000E+00  0.00000000000E+00  0.21355222898E+03  0.21355222899E+03  0.25500000920E-02 0.  1.
        2   -1    0    0  501    0  0.00000000000E+00  0.00000000000E+00 -0.45031487382E+03  0.45031487382E+03  0.25500000920E-02 0. -1.
    10030    2    1    2    0    0  0.00000000000E+00  0.00000000000E+00 -0.23676264484E+03  0.66386710282E+03  0.62021204455E+03 0.  0.
        4    1    3    3  502    0  0.90503912440E+02 -0.24094979696E+03 -0.30351924886E+03  0.39796144304E+03  0.12699999809E+01 0.  1.
       -4    1    3    3    0  502 -0.90503912440E+02  0.24094979696E+03  0.66756604018E+02  0.26590565978E+03  0.12699999809E+01 0. -1.
</event>
<event>
 5   0  0.7266519E-02  0.6121988E+03  0.7818609E-02  0.9880416E-01
        1   -1    0    0  501    0  0.00000000000E+00  0.00000000000E+00  0.19926292478E+03  0.19926292484E+03  0.50400001928E-02 0.  1.
       -1   -1    0    0    0  501  0.00000000000E+00  0.00000000000E+00 -0.47021716753E+03  0.47021716756E+03  0.50400001928E-02 0. -1.
    10030    2    1    2    0    0  0.00000000000E+00  0.00000000000E+00 -0.27095424275E+03  0.66948009240E+03  0.61219881775E+03 0.  0.
        4    1    3    3  502    0 -0.10336277160E+03 -0.22017421312E+03  0.67745922809E+02  0.25249092980E+03  0.12699999809E+01 0.  1.
       -4    1    3    3    0  502  0.10336277160E+03  0.22017421312E+03 -0.33870016556E+03  0.41698916260E+03  0.12699999809E+01 0. -1.
</event>
<event>
 5   0  0.1146468E-01  0.6114759E+03  0.7818609E-02  0.9881879E-01
        2   -1    0    0  501    0  0.00000000000E+00  0.00000000000E+00  0.16280228966E+04  0.16280228966E+04  0.25500000920E-02 0. -1.
       -2   -1    0    0    0  501  0.00000000000E+00  0.00000000000E+00 -0.57416687667E+02  0.57416687724E+02  0.25500000920E-02 0.  1.
    10030    2    1    2    0    0  0.00000000000E+00  0.00000000000E+00  0.15706062089E+04  0.16854395843E+04  0.61147586123E+03 0.  0.
        4    1    3    3  502    0  0.12399351696E+03 -0.16848089201E+03  0.17073128639E+03  0.27002034789E+03  0.12699999809E+01 0.  1.
       -4    1    3    3    0  502 -0.12399351696E+03  0.16848089201E+03  0.13998749225E+04  0.14154192364E+04  0.12699999809E+01 0. -1.
</event>
<event>
 5   0  0.7424930E-02  0.6034165E+03  0.7818609E-02  0.9898343E-01
       -1   -1    0    0    0  501  0.00000000000E+00  0.00000000000E+00  0.33329861024E+03  0.33329861028E+03  0.50400001928E-02 0. -1.
        1   -1    0    0  501    0  0.00000000000E+00  0.00000000000E+00 -0.27311203485E+03  0.27311203490E+03  0.50400001928E-02 0.  1.
    10030    2    1    2    0    0  0.00000000000E+00  0.00000000000E+00  0.60186575389E+02  0.60641064518E+03  0.60341647867E+03 0.  0.
        3    1    3    3  502    0 -0.81973330921E+00 -0.29199423626E+03  0.10640786663E+03  0.31077958468E+03  0.10100000352E+00 0. -1.
       -3    1    3    3    0  502  0.81973330921E+00  0.29199423626E+03 -0.46221291242E+02  0.29563106050E+03  0.10100000352E+00 0.  1.
</event>
<event>
 5   0  0.7266519E-02  0.5801042E+03  0.7818609E-02  0.9947565E-01
        1   -1    0    0  501    0  0.00000000000E+00  0.00000000000E+00  0.12904846719E+03  0.12904846729E+03  0.50400001928E-02 0.  1.
       -1   -1    0    0    0  501  0.00000000000E+00  0.00000000000E+00 -0.65192730034E+03  0.65192730036E+03  0.50400001928E-02 0. -1.
    10030    2    1    2    0    0  0.00000000000E+00  0.00000000000E+00 -0.52287883315E+03  0.78097576765E+03  0.58010419367E+03 0.  0.
        4    1    3    3  502    0  0.18444425522E+02  0.28887724274E+03 -0.28620298427E+03  0.40706758568E+03  0.12699999809E+01 0.  1.
       -4    1    3    3    0  502 -0.18444425522E+02 -0.28887724274E+03 -0.23667584888E+03  0.37390818198E+03  0.12699999809E+01 0. -1.
</event>
<event>
 5   0  0.7123340E-02  0.5777670E+03  0.7818609E-02  0.9952637E-01
       -1   -1    0    0    0  501  0.00000000000E+00  0.00000000000E+00  0.24325120787E+03  0.24325120792E+03  0.50400001928E-02 0. -1.
        1   -1    0    0  501    0  0.00000000000E+00  0.00000000000E+00 -0.34307614012E+03  0.34307614016E+03  0.50400001928E-02 0.  1.
    10030    2    1    2    0    0  0.00000000000E+00  0.00000000000E+00 -0.99824932253E+02  0.58632734808E+03  0.57776703091E+03 0.  0.
        2    1    3    3  502    0  0.56726024844E+02 -0.10839937790E+03  0.21566208265E+03  0.24794838359E+03  0.25500000920E-02 0. -1.
       -2    1    3    3    0  502 -0.56726024844E+02  0.10839937790E+03 -0.31548701491E+03  0.33837896449E+03  0.25500000920E-02 0.  1.
</event>
<event>
 5   0  0.1166419E-01  0.5965413E+03  0.7818609E-02  0.9912608E-01
       -2   -1    0    0    0  501  0.00000000000E+00  0.00000000000E+00  0.48649882448E+02  0.48649882515E+02  0.25500000920E-02 0. -1.
        2   -1    0    0  501    0  0.00000000000E+00  0.00000000000E+00 -0.18286867267E+04  0.18286867267E+04  0.25500000920E-02 0.  1.
    10030    2    1    2    0    0  0.00000000000E+00  0.00000000000E+00 -0.17800368442E+04  0.18773366092E+04  0.59654134593E+03 0.  0.
        1    1    3    3  502    0  0.22172501149E+03 -0.16492494942E+03 -0.53672009826E+03  0.60368094517E+03  0.50400001928E-02 0. -1.
       -1    1    3    3    0  502 -0.22172501149E+03  0.16492494942E+03 -0.12433167460E+04  0.12736556640E+04  0.50400001928E-02 0.  1.
</event>
<event>
 5   0  0.7263385E-02  0.5989066E+03  0.7818609E-02  0.9907677E-01
       -1   -1    0    0    0  501  0.00000000000E+00  0.00000000000E+00  0.72375266082E+02  0.72375266258E+02  0.50400001928E-02 0. -1.
        1   -1    0    0  501    0  0.00000000000E+00  0.00000000000E+00 -0.12389907848E+04  0.12389907848E+04  0.50400001928E-02 0.  1.
    10030    2    1    2    0    0  0.00000000000E+00  0.00000000000E+00 -0.11666155187E+04  0.13113660511E+04  0.59890662994E+03 0.  0.
        1    1    3    3  502    0  0.16414884507E+02  0.76362931560E+02 -0.12162936411E+04  0.12187989855E+04  0.50400001928E-02 0.  1.
       -1    1    3    3    0  502 -0.16414884507E+02 -0.76362931560E+02  0.49678122389E+02  0.92567065521E+02  0.50400001928E-02 0. -1.
</event>
<event>
 5   0  0.1166419E-01  0.6004019E+03  0.7818609E-02  0.9904573E-01
        2   -1    0    0  501    0  0.00000000000E+00  0.00000000000E+00  0.15117893088E+03  0.15117893090E+03  0.25500000920E-02 0.  1.
       -2   -1    0    0    0  501  0.00000000000E+00  0.00000000000E+00 -0.59611893885E+03  0.59611893885E+03  0.25500000920E-02 0. -1.
    10030    2    1    2    0    0  0.00000000000E+00  0.00000000000E+00 -0.44494000797E+03  0.74729786975E+03  0.60040194490E+03 0.  0.
        1    1    3    3  502    0  0.25344891410E+03 -0.15799453353E+03 -0.18467652126E+03  0.35114675310E+03  0.50400001928E-02 0.  1.
       -1    1    3    3    0  502 -0.25344891410E+03  0.15799453353E+03 -0.26026348671E+03  0.39615111665E+03  0.50400001928E-02 0. -1.
</event>
<event>
 5   0  0.1219020E-01  0.6051817E+03  0.7818609E-02  0.9894714E-01
        2   -1    0    0  501    0  0.00000000000E+00  0.00000000000E+00  0.61420271154E+03  0.61420271154E+03  0.25500000920E-02 0. -1.
       -2   -1    0    0    0  501  0.00000000000E+00  0.00000000000E+00 -0.14907331476E+03  0.14907331478E+03  0.25500000920E-02 0.  1.
    10030    2    1    2    0    0  0.00000000000E+00  0.00000000000E+00  0.46512939677E+03  0.76327602632E+03  0.60518173850E+03 0.  0.
        2    1    3    3  502    0 -0.14532170706E+03  0.17319024918E+03  0.48622014345E+03  0.53621198127E+03  0.25500000920E-02 0. -1.
       -2    1    3    3    0  502  0.14532170706E+03 -0.17319024918E+03 -0.21090746680E+02  0.22706404505E+03  0.25500000920E-02 0.  1.
</event>
<event>
 5   0  0.1146468E-01  0.5798930E+03  0.7818609E-02  0.9948023E-01
        2   -1    0    0  501    0  0.00000000000E+00  0.00000000000E+00  0.64349490150E+03  0.64349490151E+03  0.25500000920E-02 0. -1.
       -2   -1    0    0    0  501  0.00000000000E+00  0.00000000000E+00 -0.13064435410E+03  0.13064435412E+03  0.25500000920E-02 0.  1.
    10030    2    1    2    0    0  0.00000000000E+00  0.00000000000E+00  0.51285054741E+03  0.77413925563E+03  0.57989301008E+03 0.  0.
        4    1    3    3  502    0  0.55442940522E+02 -0.86645753615E+02 -0.10546206825E+03  0.14732707495E+03  0.12699999809E+01 0.  1.
       -4    1    3    3    0  502 -0.55442940522E+02  0.86645753615E+02  0.61831261566E+03  0.62681218068E+03  0.12699999809E+01 0. -1.
</event>
<event>
 5   0  0.7123340E-02  0.5908242E+03  0.7818609E-02  0.9924628E-01
       -1   -1    0    0    0  501  0.00000000000E+00  0.00000000000E+00  0.23396564268E+03  0.23396564273E+03  0.50400001928E-02 0.  1.
        1   -1    0    0  501    0  0.00000000000E+00  0.00000000000E+00 -0.37299629748E+03  0.37299629751E+03  0.50400001928E-02 0. -1.
    10030    2    1    2    0    0  0.00000000000E+00  0.00000000000E+00 -0.13903065480E+03  0.60696194024E+03  0.59082423269E+03 0.  0.
        2    1    3    3  502    0 -0.79257298463E+02 -0.11268859391E+03 -0.33797247695E+03  0.36497374391E+03  0.25500000920E-02 0. -1.
       -2    1    3    3    0  502  0.79257298463E+02  0.11268859391E+03  0.19894182215E+03  0.24198819633E+03  0.25500000920E-02 0.  1.
</event>
<event>
 5   0  0.7263385E-02  0.6103734E+03  0.7818609E-02  0.9884115E-01
        1   -1    0    0  501    0  0.00000000000E+00  0.00000000000E+00  0.11525542456E+03  0.11525542468E+03  0.50400001928E-02 0.  1.
       -1   -1    0    0    0  501  0.00000000000E+00  0.00000000000E+00 -0.80810891627E+03  0.80810891628E+03  0.50400001928E-02 0. -1.
    10030    2    1    2    0    0  0.00000000000E+00  0.00000000000E+00 -0.69285349170E+03  0.92336434096E+03  0.61037344732E+03 0.  0.
        1    1    3    3  502    0  0.26825164309E+03 -0.19897087332E+02 -0.12833307688E+03  0.29803391879E+03  0.50400001928E-02 0.  1.
       -1    1    3    3    0  502 -0.26825164309E+03  0.19897087332E+02 -0.56452041482E+03  0.62533042216E+03  0.50400001928E-02 0. -1.
</event>
<event>
 5   0  0.1146468E-01  0.6093830E+03  0.7818609E-02  0.9886128E-01
        2   -1    0    0  501    0  0.00000000000E+00  0.00000000000E+00  0.31437356895E+03  0.31437356896E+03  0.25500000920E-02 0. -1.
       -2   -1    0    0    0  501  0.00000000000E+00  0.00000000000E+00 -0.29530763204E+03  0.29530763205E+03  0.25500000920E-02 0.  1.
    10030    2    1    2    0    0  0.00000000000E+00  0.00000000000E+00  0.19065936914E+02  0.60968120102E+03  0.60938301332E+03 0.  0.
        4    1    3    3  502    0 -0.25143876873E+03  0.16768635064E+03  0.48218861203E+02  0.30605038488E+03  0.12699999809E+01 0. -1.
       -4    1    3    3    0  502  0.25143876873E+03 -0.16768635064E+03 -0.29152924288E+02  0.30363081613E+03  0.12699999809E+01 0.  1.
</event>
<event>
 5   0  0.1206238E-01  0.6021506E+03  0.7818609E-02  0.9900954E-01
        2   -1    0    0  501    0  0.00000000000E+00  0.00000000000E+00  0.11215492827E+04  0.11215492827E+04  0.25500000920E-02 0.  1.
       -2   -1    0    0    0  501  0.00000000000E+00  0.00000000000E+00 -0.80822429564E+02  0.80822429604E+02  0.25500000920E-02 0. -1.
    10030    2    1    2    0    0  0.00000000000E+00  0.00000000000E+00  0.10407268532E+04  0.12023717123E+04  0.60215060552E+03 0.  0.
        5    1    3    3  502    0  0.22468269860E+02  0.97950436218E+01  0.11194802654E+04  0.11197584207E+04  0.46999998093E+01 0.  1.
       -5    1    3    3    0  502 -0.22468269860E+02 -0.97950436218E+01 -0.78753412216E+02  0.82613291691E+02  0.46999998093E+01 0. -1.
</event>
<event>
 5   0  0.4695625E-02  0.5814416E+03  0.7818609E-02  0.9944675E-01
       -4   -1    0    0    0  501  0.00000000000E+00  0.00000000000E+00  0.87608885162E+02  0.87618089794E+02  0.12699999809E+01 0. -1.
        4   -1    0    0  501    0  0.00000000000E+00  0.00000000000E+00 -0.96466573879E+03  0.96466657478E+03  0.12699999809E+01 0.  1.
    10030    2    1    2    0    0  0.00000000000E+00  0.00000000000E+00 -0.87705685363E+03  0.10522846646E+04  0.58144156267E+03 0.  0.
        5    1    3    3  502    0 -0.12539904871E+03  0.63365279295E+02  0.22012813115E+02  0.14229101861E+03  0.46999998093E+01 0. -1.
       -5    1    3    3    0  502  0.12539904871E+03 -0.63365279295E+02 -0.89906966674E+03  0.90999364596E+03  0.46999998093E+01 0.  1.
</event>
<event>
 5   0  0.4695625E-02  0.6049175E+03  0.7818609E-02  0.9895256E-01
       -3   -1    0    0    0  501  0.00000000000E+00  0.00000000000E+00  0.30765150352E+03  0.30765152010E+03  0.10100000352E+00 0. -1.
        3   -1    0    0  501    0  0.00000000000E+00  0.00000000000E+00 -0.29735361993E+03  0.29735363709E+03  0.10100000352E+00 0.  1.
    10030    2    1    2    0    0  0.00000000000E+00  0.00000000000E+00  0.10297883587E+02  0.60500515719E+03  0.60491750993E+03 0.  0.
        4    1    3    3  502    0 -0.16792498927E+03  0.22437897869E+03  0.11889737498E+03  0.30443870775E+03  0.12699999809E+01 0. -1.
       -4    1    3    3    0  502  0.16792498927E+03 -0.22437897869E+03 -0.10859949139E+03  0.30056644944E+03  0.12699999809E+01 0.  1.
</event>
<event>
 5   0  0.7424930E-02  0.6005359E+03  0.7818609E-02  0.9904295E-01
        1   -1    0    0  501    0  0.00000000000E+00  0.00000000000E+00  0.87227227474E+03  0.87227227475E+03  0.50400001928E-02 0.  1.
       -1   -1    0    0    0  501  0.00000000000E+00  0.00000000000E+00 -0.10336317320E+03  0.10336317332E+03  0.50400001928E-02 0. -1.
    10030    2    1    2    0    0  0.00000000000E+00  0.00000000000E+00  0.76890910154E+03  0.97563544807E+03  0.60053586163E+03 0.  0.
        3    1    3    3  502    0  0.16432707611E+03  0.17372287516E+03  0.67947996578E+03  0.72033052094E+03  0.10100000352E+00 0.  1.
       -3    1    3    3    0  502 -0.16432707611E+03 -0.17372287516E+03  0.89429135766E+02  0.25530492714E+03  0.10100000352E+00 0. -1.
</event>
<event>
 5   0  0.1219020E-01  0.6014469E+03  0.7818609E-02  0.9902409E-01
       -2   -1    0    0    0  501  0.00000000000E+00  0.00000000000E+00  0.70638925526E+02  0.70638925572E+02  0.25500000920E-02 0. -1.
        2   -1    0    0  501    0  0.00000000000E+00  0.00000000000E+00 -0.12802373210E+04  0.12802373210E+04  0.25500000920E-02 0.  1.
    10030    2    1    2    0    0  0.00000000000E+00  0.00000000000E+00 -0.12095983955E+04  0.13508762466E+04  0.60144688479E+03 0.  0.
        2    1    3    3  502    0  0.92367133463E+02  0.27588045136E+03 -0.77574776960E+03  0.82850848688E+03  0.25500000920E-02 0.  1.
       -2    1    3    3    0  502 -0.92367133463E+02 -0.27588045136E+03 -0.43385062586E+03  0.52236775968E+03  0.25500000920E-02 0. -1.
</event>
<event>
 5   0  0.1146468E-01  0.6109547E+03  0.7818609E-02  0.9882936E-01
        2   -1    0    0  501    0  0.00000000000E+00  0.00000000000E+00  0.16569356674E+04  0.16569356675E+04  0.25500000920E-02 0. -1.
       -2   -1    0    0    0  501  0.00000000000E+00  0.00000000000E+00 -0.56318668499E+02  0.56318668557E+02  0.25500000920E-02 0.  1.
    10030    2    1    2    0    0  0.00000000000E+00  0.00000000000E+00  0.16006169989E+04  0.17132543360E+04  0.61095469760E+03 0.  0.
        4    1    3    3  502    0  0.16286880909E+03 -0.20659941430E+03  0.36492849654E+03  0.44987107870E+03  0.12699999809E+01 0.  1.
       -4    1    3    3    0  502 -0.16286880909E+03  0.20659941430E+03  0.12356885024E+04  0.12633832573E+04  0.12699999809E+01 0. -1.
</event>
<event>
 5   0  0.7263385E-02  0.5952197E+03  0.7818609E-02  0.9915374E-01
        1   -1    0    0  501    0  0.00000000000E+00  0.00000000000E+00  0.85511877182E+03  0.85511877183E+03  0.50400001928E-02 0. -1.
       -1   -1    0    0    0  501  0.00000000000E+00  0.00000000000E+00 -0.10357815990E+03  0.10357816002E+03  0.50400001928E-02 0.  1.
    10030    2    1    2    0    0  0.00000000000E+00  0.00000000000E+00  0.75154061192E+03  0.95869693186E+03  0.59521972060E+03 0.  0.
        1    1    3    3  502    0  0.22815185821E+03 -0.17774557596E+03  0.26273832054E+03  0.39074056007E+03  0.50400001928E-02 0.  1.
       -1    1    3    3    0  502 -0.22815185821E+03  0.17774557596E+03  0.48880229138E+03  0.56795637179E+03  0.50400001928E-02 0. -1.
</event>
<event>
 5   0  0.7263385E-02  0.6063111E+03  0.7818609E-02  0.9892398E-01
       -1   -1    0    0    0  501  0.00000000000E+00  0.00000000000E+00  0.25653625184E+03  0.25653625189E+03  0.50400001928E-02 0.  1.
        1   -1    0    0  501    0  0.00000000000E+00  0.00000000000E+00 -0.35824675888E+03  0.35824675891E+03  0.50400001928E-02 0. -1.
    10030    2    1    2    0    0  0.00000000000E+00  0.00000000000E+00 -0.10171050704E+03  0.61478301080E+03  0.60631107785E+03 0.  0.
        1    1    3    3  502    0  0.18289036239E+03  0.21914233010E+03 -0.15441478119E+03  0.32452452938E+03  0.50400001928E-02 0. -1.
       -1    1    3    3    0  502 -0.18289036239E+03 -0.21914233010E+03  0.52704274148E+02  0.29025848142E+03  0.50400001928E-02 0.  1.
</event>
<event>
 5   0  0.1175861E-01  0.6134015E+03  0.7818609E-02  0.9877986E-01
        2   -1    0    0  501    0  0.00000000000E+00  0.00000000000E+00  0.93688612350E+03  0.93688612350E+03  0.25500000920E-02 0.  1.
       -2   -1    0    0    0  501  0.00000000000E+00  0.00000000000E+00 -0.10040211464E+03  0.10040211467E+03  0.25500000920E-02 0. -1.
    10030    2    1    2    0    0  0.00000000000E+00  0.00000000000E+00  0.83648400886E+03  0.10372882382E+04  0.61340149330E+03 0.  0.
        3    1    3    3  502    0  0.18837089390E+03 -0.64237082634E+02  0.81285816507E+03  0.83686821136E+03  0.10100000352E+00 0. -1.
       -3    1    3    3    0  502 -0.18837089390E+03  0.64237082634E+02  0.23625843790E+02  0.20042002682E+03  0.10100000352E+00 0.  1.
</event>
<event>
 5   0  0.7266519E-02  0.5852400E+03  0.7818609E-02  0.9936510E-01
       -1   -1    0    0    0  501  0.00000000000E+00  0.00000000000E+00  0.70668695088E+03  0.70668695090E+03  0.50400001928E-02 0.  1.
        1   -1    0    0  501    0  0.00000000000E+00  0.00000000000E+00 -0.12116605278E+03  0.12116605288E+03  0.50400001928E-02 0. -1.
    10030    2    1    2    0    0  0.00000000000E+00  0.00000000000E+00  0.58552089810E+03  0.82785300378E+03  0.58524001380E+03 0.  0.
        4    1    3    3  502    0  0.11624587095E+02  0.23993945891E+03  0.52911688889E+03  0.58109583545E+03  0.12699999809E+01 0.  1.
       -4    1    3    3    0  502 -0.11624587095E+02 -0.23993945891E+03  0.56404009213E+02  0.24675716833E+03  0.12699999809E+01 0. -1.
</event>
<event>
 5   0  0.7263385E-02  0.6006771E+03  0.7818609E-02  0.9904002E-01
       -1   -1    0    0    0  501  0.00000000000E+00  0.00000000000E+00  0.65690733901E+02  0.65690734095E+02  0.50400001928E-02 0. -1.
        1   -1    0    0  501    0  0.00000000000E+00  0.00000000000E+00 -0.13731503144E+04  0.13731503144E+04  0.50400001928E-02 0.  1.
    10030    2    1    2    0    0  0.00000000000E+00  0.00000000000E+00 -0.13074595805E+04  0.14388410485E+04  0.60067712477E+03 0.  0.
        1    1    3    3  502    0  0.90610668750E+02 -0.28634118439E+03 -0.65683902944E+03  0.72224585688E+03  0.50400001928E-02 0. -1.
       -1    1    3    3    0  502 -0.90610668750E+02  0.28634118439E+03 -0.65062055108E+03  0.71659519164E+03  0.50400001928E-02 0.  1.
</event>
<event>
 5   0  0.4695625E-02  0.5878347E+03  0.7818609E-02  0.9930972E-01
        3   -1    0    0  501    0  0.00000000000E+00  0.00000000000E+00  0.24455550939E+03  0.24455553025E+03  0.10100000352E+00 0. -1.
       -3   -1    0    0    0  501  0.00000000000E+00  0.00000000000E+00 -0.35324252585E+03  0.35324254029E+03  0.10100000352E+00 0.  1.
    10030    2    1    2    0    0  0.00000000000E+00  0.00000000000E+00 -0.10868701645E+03  0.59779807054E+03  0.58783472643E+03 0.  0.
        1    1    3    3  502    0  0.34317430506E+02  0.27453303690E+03  0.46541453220E+02  0.28055691273E+03  0.50400001928E-02 0.  1.
       -1    1    3    3    0  502 -0.34317430506E+02 -0.27453303690E+03 -0.15522846968E+03  0.31724115781E+03  0.50400001928E-02 0. -1.
</event>
<event>
 5   0  0.7263385E-02  0.5900645E+03  0.7818609E-02  0.9926236E-01
        1   -1    0    0  501    0  0.00000000000E+00  0.00000000000E+00  0.33787056247E+03  0.33787056251E+03  0.50400001928E-02 0.  1.
       -1   -1    0    0    0  501  0.00000000000E+00  0.00000000000E+00 -0.25762538222E+03  0.25762538227E+03  0.50400001928E-02 0. -1.
    10030    2    1    2    0    0  0.00000000000E+00  0.00000000000E+00  0.80245180250E+02  0.59549594479E+03  0.59006451453E+03 0.  0.
        1    1    3    3  502    0 -0.24533389204E+03  0.11707470242E+03 -0.75601250179E+02  0.28215377649E+03  0.50400001928E-02 0.  1.
       -1    1    3    3    0  502  0.24533389204E+03 -0.11707470242E+03  0.15584643043E+03  0.31334216830E+03  0.50400001928E-02 0. -1.
</event>
<event>
 5   0  0.7424930E-02  0.6004089E+03  0.7818609E-02  0.9904558E-01
        1   -1    0    0  501    0  0.00000000000E+00  0.00000000000E+00  0.14604896986E+04  0.14604896986E+04  0.50400001928E-02 0.  1.
       -1   -1    0    0    0  501  0.00000000000E+00  0.00000000000E+00 -0.61707190922E+02  0.61707191128E+02  0.50400001928E-02 0. -1.
    10030    2    1    2    0    0  0.00000000000E+00  0.00000000000E+00  0.13987825077E+04  0.15221968897E+04  0.60040891676E+03 0.  0.
        3    1    3    3  502    0  0.66438352957E+02  0.28904841021E+03  0.81721077084E+03  0.86936556889E+03  0.10100000352E+00 0.  1.
       -3    1    3    3    0  502 -0.66438352957E+02 -0.28904841021E+03  0.58157173681E+03  0.65283132082E+03  0.10100000352E+00 0. -1.
</event>
<event>
 5   0  0.4695625E-02  0.5586961E+03  0.7818609E-02  0.9995009E-01
       -4   -1    0    0    0  501  0.00000000000E+00  0.00000000000E+00  0.73372116925E+02  0.73383107334E+02  0.12699999809E+01 0.  1.
        4   -1    0    0  501    0  0.00000000000E+00  0.00000000000E+00 -0.10634648469E+04  0.10634656052E+04  0.12699999809E+01 0. -1.
    10030    2    1    2    0    0  0.00000000000E+00  0.00000000000E+00 -0.99009272995E+03  0.11368487125E+04  0.55869614397E+03 0.  0.
        2    1    3    3  502    0  0.11041574755E+03 -0.25428642537E+03 -0.42508502343E+03  0.50749433552E+03  0.25500000920E-02 0.  1.
       -2    1    3    3    0  502 -0.11041574755E+03  0.25428642537E+03 -0.56500770653E+03  0.62935437702E+03  0.25500000920E-02 0. -1.
</event>
<event>
 5   0  0.7266519E-02  0.6969880E+03  0.7818609E-02  0.9722397E-01
       -1   -1    0    0    0  501  0.00000000000E+00  0.00000000000E+00  0.11153231470E+03  0.11153231481E+03  0.50400001928E-02 0.  1.
        1   -1    0    0  501    0  0.00000000000E+00  0.00000000000E+00 -0.10889047473E+04  0.10889047473E+04  0.50400001928E-02 0. -1.
    10030    2    1    2    0    0  0.00000000000E+00  0.00000000000E+00 -0.97737243256E+03  0.12004370621E+04  0.69698799710E+03 0.  0.
        4    1    3    3  502    0 -0.19193395228E+03  0.28946858726E+03 -0.53787797963E+03  0.64026950491E+03  0.12699999809E+01 0.  1.
       -4    1    3    3    0  502  0.19193395228E+03 -0.28946858726E+03 -0.43949445293E+03  0.56016755717E+03  0.12699999809E+01 0. -1.
</event>
<event>
 5   0  0.7263385E-02  0.5879689E+03  0.7818609E-02  0.9930686E-01
       -1   -1    0    0    0  501  0.00000000000E+00  0.00000000000E+00  0.87521481722E+02  0.87521481868E+02  0.50400001928E-02 0.  1.
        1   -1    0    0  501    0  0.00000000000E+00  0.00000000000E+00 -0.98749303698E+03  0.98749303699E+03  0.50400001928E-02 0. -1.
    10030    2    1    2    0    0  0.00000000000E+00  0.00000000000E+00 -0.89997155525E+03  0.10750145189E+04  0.58796888990E+03 0.  0.
        1    1    3    3  502    0  0.12742028943E+03  0.77625120894E+02 -0.91312330834E+03  0.92523281708E+03  0.50400001928E-02 0. -1.
       -1    1    3    3    0  502 -0.12742028943E+03 -0.77625120894E+02  0.13151753082E+02  0.14978170178E+03  0.50400001928E-02 0.  1.
</event>
<event>
 5   0  0.7263385E-02  0.5591443E+03  0.7818609E-02  0.9993993E-01
        1   -1    0    0  501    0  0.00000000000E+00  0.00000000000E+00  0.62706945830E+03  0.62706945832E+03  0.50400001928E-02 0. -1.
       -1   -1    0    0    0  501  0.00000000000E+00  0.00000000000E+00 -0.12464422778E+03  0.12464422788E+03  0.50400001928E-02 0.  1.
    10030    2    1    2    0    0  0.00000000000E+00  0.00000000000E+00  0.50242523052E+03  0.75171368620E+03  0.55914430495E+03 0.  0.
        1    1    3    3  502    0  0.34228215735E+02  0.14898480976E+03  0.56590721079E+03  0.58619025542E+03  0.50400001928E-02 0. -1.
       -1    1    3    3    0  502 -0.34228215735E+02 -0.14898480976E+03 -0.63481980275E+02  0.16552343078E+03  0.50400001928E-02 0.  1.
</event>
<event>
 5   0  0.1206238E-01  0.6013475E+03  0.7818609E-02  0.9902614E-01
        2   -1    0    0  501    0  0.00000000000E+00  0.00000000000E+00  0.16958164157E+04  0.16958164157E+04  0.25500000920E-02 0.  1.
       -2   -1    0    0    0  501  0.00000000000E+00  0.00000000000E+00 -0.53310435502E+02  0.53310435563E+02  0.25500000920E-02 0. -1.
    10030    2    1    2    0    0  0.00000000000E+00  0.00000000000E+00  0.16425059802E+04  0.17491268513E+04  0.60134752584E+03 0.  0.
        5    1    3    3  502    0  0.19078163696E+02 -0.88349775556E+02 -0.12746773358E+02  0.91401473730E+02  0.46999998093E+01 0. -1.
       -5    1    3    3    0  502 -0.19078163696E+02  0.88349775556E+02  0.16552527536E+04  0.16577253776E+04  0.46999998093E+01 0.  1.
</event>
<event>
 5   0  0.1146468E-01  0.5869843E+03  0.7818609E-02  0.9932784E-01
        2   -1    0    0  501    0  0.00000000000E+00  0.00000000000E+00  0.14040516436E+04  0.14040516436E+04  0.25500000920E-02 0.  1.
       -2   -1    0    0    0  501  0.00000000000E+00  0.00000000000E+00 -0.61349332124E+02  0.61349332177E+02  0.25500000920E-02 0. -1.
    10030    2    1    2    0    0  0.00000000000E+00  0.00000000000E+00  0.13427023115E+04  0.14654009758E+04  0.58698426092E+03 0.  0.
        4    1    3    3  502    0  0.25368607828E+03  0.14313773962E+03  0.76105056765E+03  0.81488932883E+03  0.12699999809E+01 0.  1.
       -4    1    3    3    0  502 -0.25368607828E+03 -0.14313773962E+03  0.58165174381E+03  0.65051164693E+03  0.12699999809E+01 0. -1.
</event>
<event>
 5   0  0.7221069E-02  0.5871948E+03  0.7818609E-02  0.9932335E-01
        1   -1    0    0  501    0  0.00000000000E+00  0.00000000000E+00  0.11271706789E+04  0.11271706789E+04  0.50400001928E-02 0. -1.
       -1   -1    0    0    0  501  0.00000000000E+00  0.00000000000E+00 -0.76474150385E+02  0.76474150551E+02  0.50400001928E-02 0.  1.
    10030    2    1    2    0    0  0.00000000000E+00  0.00000000000E+00  0.10506965285E+04  0.12036448295E+04  0.58719475514E+03 0.  0.
        5    1    3    3  502    0  0.73341246253E+02 -0.93315774034E+01 -0.57000816144E+02  0.93472989564E+02  0.46999998093E+01 0.  1.
       -5    1    3    3    0  502 -0.73341246253E+02  0.93315774034E+01  0.11076973447E+04  0.11101718399E+04  0.46999998093E+01 0. -1.
</event>
<event>
 5   0  0.1146468E-01  0.6075909E+03  0.7818609E-02  0.9889781E-01
       -2   -1    0    0    0  501  0.00000000000E+00  0.00000000000E+00  0.18725394880E+03  0.18725394882E+03  0.25500000920E-02 0.  1.
        2   -1    0    0  501    0  0.00000000000E+00  0.00000000000E+00 -0.49286908440E+03  0.49286908441E+03  0.25500000920E-02 0. -1.
    10030    2    1    2    0    0  0.00000000000E+00  0.00000000000E+00 -0.30561513560E+03  0.68012303323E+03  0.60759092260E+03 0.  0.
        4    1    3    3  502    0 -0.23210992750E+03 -0.18467348000E+03 -0.22630175046E+03  0.37308632757E+03  0.12699999809E+01 0. -1.
       -4    1    3    3    0  502  0.23210992750E+03  0.18467348000E+03 -0.79313385137E+02  0.30703670566E+03  0.12699999809E+01 0.  1.
</event>
<event>
 5   0  0.7424930E-02  0.4973458E+03  0.7818609E-02  0.1014474E+00
       -1   -1    0    0    0  501  0.00000000000E+00  0.00000000000E+00  0.43568011842E+02  0.43568012134E+02  0.50400001928E-02 0. -1.
        1   -1    0    0  501    0  0.00000000000E+00  0.00000000000E+00 -0.14193488532E+04  0.14193488532E+04  0.50400001928E-02 0.  1.
    10030    2    1    2    0    0  0.00000000000E+00  0.00000000000E+00 -0.13757808414E+04  0.14629168653E+04  0.49734578661E+03 0.  0.
        3    1    3    3  502    0  0.11744373635E+03  0.15088540075E+03 -0.11555599845E+04  0.11712720962E+04  0.10100000352E+00 0.  1.
       -3    1    3    3    0  502 -0.11744373635E+03 -0.15088540075E+03 -0.22022085684E+03  0.29164476912E+03  0.10100000352E+00 0. -1.
</event>
<event>
 5   0  0.1219020E-01  0.6444677E+03  0.7818609E-02  0.9817216E-01
        2   -1    0    0  501    0  0.00000000000E+00  0.00000000000E+00  0.66259286706E+03  0.66259286707E+03  0.25500000920E-02 0. -1.
       -2   -1    0    0    0  501  0.00000000000E+00  0.00000000000E+00 -0.15670960669E+03  0.15670960671E+03  0.25500000920E-02 0.  1.
    10030    2    1    2    0    0  0.00000000000E+00  0.00000000000E+00  0.50588326037E+03  0.81930247378E+03  0.64446774195E+03 0.  0.
        2    1    3    3  502    0  0.52340343319E+02  0.59693483503E+02  0.64996520905E+03  0.65479584336E+03  0.25500000920E-02 0. -1.
       -2    1    3    3    0  502 -0.52340343319E+02 -0.59693483503E+02 -0.14408194867E+03  0.16450663042E+03  0.25500000920E-02 0.  1.
</event>
<event>
 5   0  0.1166419E-01  0.5909963E+03  0.7818609E-02  0.9924264E-01
        2   -1    0    0  501    0  0.00000000000E+00  0.00000000000E+00  0.34113227157E+03  0.34113227158E+03  0.25500000920E-02 0. -1.
       -2   -1    0    0    0  501  0.00000000000E+00  0.00000000000E+00 -0.25596861463E+03  0.25596861464E+03  0.25500000920E-02 0.  1.
    10030    2    1    2    0    0  0.00000000000E+00  0.00000000000E+00  0.85163656941E+02  0.59710088622E+03  0.59099629428E+03 0.  0.
        1    1    3    3  502    0  0.84767495146E+02  0.20181940306E+03 -0.15796931910E+03  0.26994611589E+03  0.50400001928E-02 0.  1.
       -1    1    3    3    0  502 -0.84767495146E+02 -0.20181940306E+03  0.24313297604E+03  0.32715477032E+03  0.50400001928E-02 0. -1.
</event>
<event>
 5   0  0.4695625E-02  0.6002798E+03  0.7818609E-02  0.9904826E-01
        3   -1    0    0  501    0  0.00000000000E+00  0.00000000000E+00  0.24551900780E+03  0.24551902857E+03  0.10100000352E+00 0. -1.
       -3   -1    0    0    0  501  0.00000000000E+00  0.00000000000E+00 -0.36691232931E+03  0.36691234321E+03  0.10100000352E+00 0.  1.
    10030    2    1    2    0    0  0.00000000000E+00  0.00000000000E+00 -0.12139332151E+03  0.61243137178E+03  0.60027980695E+03 0.  0.
        5    1    3    3  502    0  0.34382420510E+02  0.89622103988E+02 -0.35078966744E+03  0.36371658354E+03  0.46999998093E+01 0.  1.
       -5    1    3    3    0  502 -0.34382420510E+02 -0.89622103988E+02  0.22939634593E+03  0.24871478824E+03  0.46999998093E+01 0. -1.
</event>
<event>
 5   0  0.7266519E-02  0.6002830E+03  0.7818609E-02  0.9904819E-01
        1   -1    0    0  501    0  0.00000000000E+00  0.00000000000E+00  0.20628277196E+04  0.20628277196E+04  0.50400001928E-02 0.  1.
       -1   -1    0    0    0  501  0.00000000000E+00  0.00000000000E+00 -0.43670602635E+02  0.43670602926E+02  0.50400001928E-02 0. -1.
    10030    2    1    2    0    0  0.00000000000E+00  0.00000000000E+00  0.20191571170E+04  0.21064983225E+04  0.60028303311E+03 0.  0.
        4    1    3    3  502    0  0.77763049501E+02 -0.20184448814E+03  0.27940843180E+03  0.35335389332E+03  0.12699999809E+01 0. -1.
       -4    1    3    3    0  502 -0.77763049501E+02  0.20184448814E+03  0.17397486852E+04  0.17531444292E+04  0.12699999809E+01 0.  1.
</event>
<event>
 5   0  0.1166419E-01  0.5946277E+03  0.7818609E-02  0.9916615E-01
        2   -1    0    0  501    0  0.00000000000E+00  0.00000000000E+00  0.72649970566E+02  0.72649970611E+02  0.25500000920E-02 0.  1.
       -2   -1    0    0    0  501  0.00000000000E+00  0.00000000000E+00 -0.12167315661E+04  0.12167315661E+04  0.25500000920E-02 0. -1.
    10030    2    1    2    0    0  0.00000000000E+00  0.00000000000E+00 -0.11440815956E+04  0.12893815367E+04  0.59462765659E+03 0.  0.
        1    1    3    3  502    0  0.97366670114E+02  0.65580105284E+02  0.20267669200E+02  0.11912932929E+03  0.50400001928E-02 0.  1.
       -1    1    3    3    0  502 -0.97366670114E+02 -0.65580105284E+02 -0.11643492648E+04  0.11702522074E+04  0.50400001928E-02 0. -1.
</event>
<event>
 5   0  0.4695625E-02  0.5957672E+03  0.7818609E-02  0.9914227E-01
       -4   -1    0    0    0  501  0.00000000000E+00  0.00000000000E+00  0.10224724668E+03  0.10225513362E+03  0.12699999809E+01 0. -1.
        4   -1    0    0  501    0  0.00000000000E+00  0.00000000000E+00 -0.86780189095E+03  0.86780282025E+03  0.12699999809E+01 0.  1.
    10030    2    1    2    0    0  0.00000000000E+00  0.00000000000E+00 -0.76555464427E+03  0.97005795387E+03  0.59576716971E+03 0.  0.
        1    1    3    3  502    0  0.28745178022E+02  0.17478434578E+03  0.71835708058E+01  0.17727790755E+03  0.50400001928E-02 0. -1.
       -1    1    3    3    0  502 -0.28745178022E+02 -0.17478434578E+03 -0.77273821508E+03  0.79278004633E+03  0.50400001928E-02 0.  1.
</event>
<event>
 5   0  0.1146468E-01  0.5093319E+03  0.7818609E-02  0.1011371E+00
       -2   -1    0    0    0  501  0.00000000000E+00  0.00000000000E+00  0.72517396507E+02  0.72517396552E+02  0.25500000920E-02 0.  1.
        2   -1    0    0  501    0  0.00000000000E+00  0.00000000000E+00 -0.89433350829E+03  0.89433350830E+03  0.25500000920E-02 0. -1.
    10030    2    1    2    0    0  0.00000000000E+00  0.00000000000E+00 -0.82181611179E+03  0.96685090485E+03  0.50933186688E+03 0.  0.
        4    1    3    3  502    0 -0.20798688673E+03 -0.25755659736E+02 -0.68554312257E+03  0.71686322605E+03  0.12699999809E+01 0. -1.
       -4    1    3    3    0  502  0.20798688673E+03  0.25755659736E+02 -0.13627298921E+03  0.24998767880E+03  0.12699999809E+01 0.  1.
</event>
<event>
 5   0  0.1175861E-01  0.5893946E+03  0.7818609E-02  0.9927657E-01
        2   -1    0    0  501    0  0.00000000000E+00  0.00000000000E+00  0.52695586226E+03  0.52695586227E+03  0.25500000920E-02 0.  1.
       -2   -1    0    0    0  501  0.00000000000E+00  0.00000000000E+00 -0.16480789151E+03  0.16480789153E+03  0.25500000920E-02 0. -1.
    10030    2    1    2    0    0  0.00000000000E+00  0.00000000000E+00  0.36214797075E+03  0.69176375379E+03  0.58939455235E+03 0.  0.
        3    1    3    3  502    0  0.27735232236E+02 -0.15035437082E+03  0.47676535735E+03  0.50068043311E+03  0.10100000352E+00 0.  1.
       -3    1    3    3    0  502 -0.27735232236E+02  0.15035437082E+03 -0.11461738660E+03  0.19108332068E+03  0.10100000352E+00 0. -1.
</event>
<event>
 5   0  0.7123340E-02  0.7604955E+03  0.7818609E-02  0.9619027E-01
        1   -1    0    0  501    0  0.00000000000E+00  0.00000000000E+00  0.10801226426E+03  0.10801226438E+03  0.50400001928E-02 0.  1.
       -1   -1    0    0    0  501  0.00000000000E+00  0.00000000000E+00 -0.13386290431E+04  0.13386290431E+04  0.50400001928E-02 0. -1.
    10030    2    1    2    0    0  0.00000000000E+00  0.00000000000E+00 -0.12306167788E+04  0.14466413075E+04  0.76049550701E+03 0.  0.
        2    1    3    3  502    0  0.74895062852E+02 -0.21040894043E+02 -0.13233293294E+04  0.13256140101E+04  0.25500000920E-02 0. -1.
       -2    1    3    3    0  502 -0.74895062852E+02  0.21040894043E+02  0.92712550608E+02  0.12102729737E+03  0.25500000920E-02 0.  1.
</event>
<event>
 5   0  0.7266519E-02  0.6054344E+03  0.7818609E-02  0.9894195E-01
        1   -1    0    0  501    0  0.00000000000E+00  0.00000000000E+00  0.30810146723E+03  0.30810146727E+03  0.50400001928E-02 0.  1.
       -1   -1    0    0    0  501  0.00000000000E+00  0.00000000000E+00 -0.29742702143E+03  0.29742702148E+03  0.50400001928E-02 0. -1.
    10030    2    1    2    0    0  0.00000000000E+00  0.00000000000E+00  0.10674445797E+02  0.60552848875E+03  0.60543439520E+03 0.  0.
        4    1    3    3  502    0  0.17824629500E+03 -0.21621520871E+03 -0.10920275972E+03  0.30074509770E+03  0.12699999809E+01 0. -1.
       -4    1    3    3    0  502 -0.17824629500E+03  0.21621520871E+03  0.11987720552E+03  0.30478339105E+03  0.12699999809E+01 0.  1.
</event>
<event>
 5   0  0.7424930E-02  0.5372991E+03  0.7818609E-02  0.1004477E+00
        1   -1    0    0  501    0  0.00000000000E+00  0.00000000000E+00  0.10688399358E+04  0.10688399358E+04  0.50400001928E-02 0.  1.
       -1   -1    0    0    0  501  0.00000000000E+00  0.00000000000E+00 -0.67524230215E+02  0.67524230403E+02  0.50400001928E-02 0. -1.
    10030    2    1    2    0    0  0.00000000000E+00  0.00000000000E+00  0.10013157056E+04  0.11363641662E+04  0.53729914946E+03 0.  0.
        3    1    3    3  502    0  0.74104240141E+02  0.25021741523E+03  0.63562438385E+03  0.68710884206E+03  0.10100000352E+00 0. -1.
       -3    1    3    3    0  502 -0.74104240141E+02 -0.25021741523E+03  0.36569132176E+03  0.44925532418E+03  0.10100000352E+00 0.  1.
</event>
<event>
 5   0  0.7424930E-02  0.6342700E+03  0.7818609E-02  0.9836751E-01
       -1   -1    0    0    0  501  0.00000000000E+00  0.00000000000E+00  0.11229862663E+03  0.11229862675E+03  0.50400001928E-02 0.  1.
        1   -1    0    0  501    0  0.00000000000E+00  0.00000000000E+00 -0.89559969853E+03  0.89559969855E+03  0.50400001928E-02 0. -1.
    10030    2    1    2    0    0  0.00000000000E+00  0.00000000000E+00 -0.78330107190E+03  0.10078983253E+04  0.63427002522E+03 0.  0.
        3    1    3    3  502    0 -0.21252315254E+03 -0.14080029238E+03 -0.69140706924E+03  0.73690878560E+03  0.10100000352E+00 0. -1.
       -3    1    3    3    0  502  0.21252315254E+03  0.14080029238E+03 -0.91894002662E+02  0.27098953969E+03  0.10100000352E+00 0.  1.
</event>
<event>
 5   0  0.1175861E-01  0.5893937E+03  0.7818609E-02  0.9927658E-01
       -2   -1    0    0    0  501  0.00000000000E+00  0.00000000000E+00  0.20361770027E+03  0.20361770029E+03  0.25500000920E-02 0.  1.
        2   -1    0    0  501    0  0.00000000000E+00  0.00000000000E+00 -0.42651609705E+03  0.42651609706E+03  0.25500000920E-02 0. -1.
    10030    2    1    2    0    0  0.00000000000E+00  0.00000000000E+00 -0.22289839678E+03  0.63013379734E+03  0.58939367766E+03 0.  0.
        3    1    3    3  502    0  0.39211234637E+02 -0.24966418255E+03  0.50608310443E+02  0.25774199552E+03  0.10100000352E+00 0.  1.
       -3    1    3    3    0  502 -0.39211234637E+02  0.24966418255E+03 -0.27350670722E+03  0.37239180182E+03  0.10100000352E+00 0. -1.
</event>
<event>
 5   0  0.1206238E-01  0.5863264E+03  0.7818609E-02  0.9934188E-01
       -2   -1    0    0    0  501  0.00000000000E+00  0.00000000000E+00  0.11448555083E+03  0.11448555085E+03  0.25500000920E-02 0.  1.
        2   -1    0    0  501    0  0.00000000000E+00  0.00000000000E+00 -0.75070325779E+03  0.75070325780E+03  0.25500000920E-02 0. -1.
    10030    2    1    2    0    0  0.00000000000E+00  0.00000000000E+00 -0.63621770697E+03  0.86518880865E+03  0.58632644828E+03 0.  0.
        5    1    3    3  502    0 -0.10073533630E+03  0.20009021307E+03 -0.39148872006E+02  0.22746082195E+03  0.46999998093E+01 0.  1.
       -5    1    3    3    0  502  0.10073533630E+03 -0.20009021307E+03 -0.59706883496E+03  0.63772798670E+03  0.46999998093E+01 0. -1.
</event>
<event>
 5   0  0.1219020E-01  0.6320052E+03  0.7818609E-02  0.9841144E-01
        2   -1    0    0  501    0  0.00000000000E+00  0.00000000000E+00  0.53937056856E+03  0.53937056856E+03  0.25500000920E-02 0. -1.
       -2   -1    0    0    0  501  0.00000000000E+00  0.00000000000E+00 -0.18513733697E+03  0.18513733698E+03  0.25500000920E-02 0.  1.
    10030    2    1    2    0    0  0.00000000000E+00  0.00000000000E+00  0.35423323159E+03  0.72450790555E+03  0.63200516045E+03 0.  0.
        2    1    3    3  502    0  0.11425086702E+03  0.29042393385E+03  0.23395486824E+03  0.39004384670E+03  0.25500000920E-02 0.  1.
       -2    1    3    3    0  502 -0.11425086702E+03 -0.29042393385E+03  0.12027836335E+03  0.33446405885E+03  0.25500000920E-02 0. -1.
</event>
<event>
 5   0  0.7263385E-02  0.6060378E+03  0.7818609E-02  0.9892958E-01
        1   -1    0    0  501    0  0.00000000000E+00  0.00000000000E+00  0.83362198086E+03  0.83362198087E+03  0.50400001928E-02 0. -1.
       -1   -1    0    0    0  501  0.00000000000E+00  0.00000000000E+00 -0.11014638522E+03  0.11014638533E+03  0.50400001928E-02 0.  1.
    10030    2    1    2    0    0  0.00000000000E+00  0.00000000000E+00  0.72347559564E+03  0.94376836621E+03  0.60603778064E+03 0.  0.
        1    1    3    3  502    0  0.18637096196E+03  0.21416417909E+03  0.52669165327E+03  0.59833479652E+03  0.50400001928E-02 0. -1.
       -1    1    3    3    0  502 -0.18637096196E+03 -0.21416417909E+03  0.19678394236E+03  0.34543356969E+03  0.50400001928E-02 0.  1.
</event>
<event>
 5   0  0.1219020E-01  0.5110104E+03  0.7818609E-02  0.1010944E+00
       -2   -1    0    0    0  501  0.00000000000E+00  0.00000000000E+00  0.74919164244E+02  0.74919164287E+02  0.25500000920E-02 0.  1.
        2   -1    0    0  501    0  0.00000000000E+00  0.00000000000E+00 -0.87137794172E+03  0.87137794172E+03  0.25500000920E-02 0. -1.
    10030    2    1    2    0    0  0.00000000000E+00  0.00000000000E+00 -0.79645877747E+03  0.94629710601E+03  0.51101039972E+03 0.  0.
        2    1    3    3  502    0 -0.81089903723E+02  0.22814215719E+03 -0.24712200912E+03  0.34596777852E+03  0.25500000920E-02 0.  1.
       -2    1    3    3    0  502  0.81089903723E+02 -0.22814215719E+03 -0.54933676835E+03  0.60032932749E+03  0.25500000920E-02 0. -1.
</event>
<event>
 5   0  0.7263385E-02  0.6004665E+03  0.7818609E-02  0.9904439E-01
       -1   -1    0    0    0  501  0.00000000000E+00  0.00000000000E+00  0.21508515558E+03  0.21508515564E+03  0.50400001928E-02 0. -1.
        1   -1    0    0  501    0  0.00000000000E+00  0.00000000000E+00 -0.41908987517E+03  0.41908987520E+03  0.50400001928E-02 0.  1.
    10030    2    1    2    0    0  0.00000000000E+00  0.00000000000E+00 -0.20400471959E+03  0.63417503084E+03  0.60046652207E+03 0.  0.
        1    1    3    3  502    0  0.13718178029E+03  0.14209869052E+03  0.13680876322E+03  0.24026551232E+03  0.50400001928E-02 0. -1.
       -1    1    3    3    0  502 -0.13718178029E+03 -0.14209869052E+03 -0.34081348281E+03  0.39390951852E+03  0.50400001928E-02 0.  1.
</event>
<event>
 5   0  0.7221069E-02  0.6022050E+03  0.7818609E-02  0.9900842E-01
       -1   -1    0    0    0  501  0.00000000000E+00  0.00000000000E+00  0.11121549086E+04  0.11121549087E+04  0.50400001928E-02 0. -1.
        1   -1    0    0  501    0  0.00000000000E+00  0.00000000000E+00 -0.81519858465E+02  0.81519858621E+02  0.50400001928E-02 0.  1.
    10030    2    1    2    0    0  0.00000000000E+00  0.00000000000E+00  0.10306350502E+04  0.11936747673E+04  0.60220498451E+03 0.  0.
        5    1    3    3  502    0  0.27658860517E+03 -0.17498342431E+02  0.74844988589E+03  0.79812703888E+03  0.46999998093E+01 0. -1.
       -5    1    3    3    0  502 -0.27658860517E+03  0.17498342431E+02  0.28218516429E+03  0.39554772840E+03  0.46999998093E+01 0.  1.
</event>
<event>
 5   0  0.1146468E-01  0.5466195E+03  0.7818609E-02  0.1002279E+00
       -2   -1    0    0    0  501  0.00000000000E+00  0.00000000000E+00  0.40074928643E+02  0.40074928724E+02  0.25500000920E-02 0. -1.
        2   -1    0    0  501    0  0.00000000000E+00  0.00000000000E+00 -0.18639637145E+04  0.18639637145E+04  0.25500000920E-02 0.  1.
    10030    2    1    2    0    0  0.00000000000E+00  0.00000000000E+00 -0.18238887859E+04  0.19040386432E+04  0.54661947616E+03 0.  0.
        4    1    3    3  502    0 -0.23570400643E+03 -0.46789545098E+02 -0.45843341497E+03  0.51759873362E+03  0.12699999809E+01 0. -1.
       -4    1    3    3    0  502  0.23570400643E+03  0.46789545098E+02 -0.13654553709E+04  0.13864399096E+04  0.12699999809E+01 0.  1.
</event>
<event>
 5   0  0.7263385E-02  0.6017040E+03  0.7818609E-02  0.9901877E-01
       -1   -1    0    0    0  501  0.00000000000E+00  0.00000000000E+00  0.26288295364E+03  0.26288295368E+03  0.50400001928E-02 0.  1.
        1   -1    0    0  501    0  0.00000000000E+00  0.00000000000E+00 -0.34430507838E+03  0.34430507842E+03  0.50400001928E-02 0. -1.
    10030    2    1    2    0    0  0.00000000000E+00  0.00000000000E+00 -0.81422124746E+02  0.60718803210E+03  0.60170403350E+03 0.  0.
        1    1    3    3  502    0 -0.10978587756E+03  0.19604766811E+02  0.24125400279E+03  0.26578333222E+03  0.50400001928E-02 0.  1.
       -1    1    3    3    0  502  0.10978587756E+03 -0.19604766811E+02 -0.32267612754E+03  0.34140469989E+03  0.50400001928E-02 0. -1.
</event>
<event>
 5   0  0.4695625E-02  0.6737231E+03  0.7818609E-02  0.9763255E-01
        3   -1    0    0  501    0  0.00000000000E+00  0.00000000000E+00  0.32269112402E+03  0.32269113983E+03  0.10100000352E+00 0. -1.
       -3   -1    0    0    0  501  0.00000000000E+00  0.00000000000E+00 -0.35165418560E+03  0.35165420010E+03  0.10100000352E+00 0.  1.
    10030    2    1    2    0    0  0.00000000000E+00  0.00000000000E+00 -0.28963061577E+02  0.67434533993E+03  0.67372307259E+03 0.  0.
        2    1    3    3  502    0  0.35318941661E+02  0.13717288211E+03 -0.32039737236E+03  0.35031172325E+03  0.25500000920E-02 0.  1.
       -2    1    3    3    0  502 -0.35318941661E+02 -0.13717288211E+03  0.29143431078E+03  0.32403361667E+03  0.25500000920E-02 0. -1.
</event>
<event>
 5   0  0.7263385E-02  0.5738123E+03  0.7818609E-02  0.9961278E-01
       -1   -1    0    0    0  501  0.00000000000E+00  0.00000000000E+00  0.39595910286E+03  0.39595910289E+03  0.50400001928E-02 0. -1.
        1   -1    0    0  501    0  0.00000000000E+00  0.00000000000E+00 -0.20788797016E+03  0.20788797023E+03  0.50400001928E-02 0.  1.
    10030    2    1    2    0    0  0.00000000000E+00  0.00000000000E+00  0.18807113269E+03  0.60384707312E+03  0.57381228355E+03 0.  0.
        1    1    3    3  502    0 -0.12688391116E+03 -0.95028924928E+02  0.34568653573E+03  0.38030146528E+03  0.50400001928E-02 0. -1.
       -1    1    3    3    0  502  0.12688391116E+03  0.95028924928E+02 -0.15761540303E+03  0.22354560784E+03  0.50400001928E-02 0.  1.
</event>
<event>
 5   0  0.7123340E-02  0.6369283E+03  0.7818609E-02  0.9831621E-01
        1   -1    0    0  501    0  0.00000000000E+00  0.00000000000E+00  0.52485438282E+03  0.52485438285E+03  0.50400001928E-02 0. -1.
       -1   -1    0    0    0  501  0.00000000000E+00  0.00000000000E+00 -0.19323344776E+03  0.19323344783E+03  0.50400001928E-02 0.  1.
    10030    2    1    2    0    0  0.00000000000E+00  0.00000000000E+00  0.33162093506E+03  0.71808783068E+03  0.63692832250E+03 0.  0.
        2    1    3    3  502    0 -0.59202384222E+02  0.78031929933E+02  0.50745045572E+03  0.51681705603E+03  0.25500000920E-02 0. -1.
       -2    1    3    3    0  502  0.59202384222E+02 -0.78031929933E+02 -0.17582952066E+03  0.20127077465E+03  0.25500000920E-02 0.  1.
</event>
<event>
 5   0  0.7123340E-02  0.6085520E+03  0.7818609E-02  0.9887820E-01
       -1   -1    0    0    0  501  0.00000000000E+00  0.00000000000E+00  0.32135400095E+03  0.32135400099E+03  0.50400001928E-02 0. -1.
        1   -1    0    0  501    0  0.00000000000E+00  0.00000000000E+00 -0.28810563558E+03  0.28810563562E+03  0.50400001928E-02 0.  1.
    10030    2    1    2    0    0  0.00000000000E+00  0.00000000000E+00  0.33248365375E+02  0.60945963662E+03  0.60855204779E+03 0.  0.
        2    1    3    3  502    0 -0.16172702079E+03 -0.51457420886E+02  0.26954865392E+03  0.31852782022E+03  0.25500000920E-02 0. -1.
       -2    1    3    3    0  502  0.16172702079E+03  0.51457420886E+02 -0.23630028854E+03  0.29093181640E+03  0.25500000920E-02 0.  1.
</event>
<event>
 5   0  0.4695625E-02  0.5959974E+03  0.7818609E-02  0.9913745E-01
        3   -1    0    0  501    0  0.00000000000E+00  0.00000000000E+00  0.85856588975E+03  0.85856589569E+03  0.10100000352E+00 0. -1.
       -3   -1    0    0    0  501  0.00000000000E+00  0.00000000000E+00 -0.10343199819E+03  0.10343204750E+03  0.10100000352E+00 0.  1.
    10030    2    1    2    0    0  0.00000000000E+00  0.00000000000E+00  0.75513389156E+03  0.96199794319E+03  0.59599735613E+03 0.  0.
        5    1    3    3  502    0  0.21059872345E+02 -0.14215265653E+03  0.79887496495E+03  0.81171066002E+03  0.46999998093E+01 0. -1.
       -5    1    3    3    0  502 -0.21059872345E+02  0.14215265653E+03 -0.43741073383E+02  0.15028728317E+03  0.46999998093E+01 0.  1.
</event>
<event>
 5   0  0.7221069E-02  0.6224523E+03  0.7818609E-02  0.9859889E-01
        1   -1    0    0  501    0  0.00000000000E+00  0.00000000000E+00  0.92656829851E+02  0.92656829988E+02  0.50400001928E-02 0.  1.
       -1   -1    0    0    0  501  0.00000000000E+00  0.00000000000E+00 -0.10453811251E+04  0.10453811251E+04  0.50400001928E-02 0. -1.
    10030    2    1    2    0    0  0.00000000000E+00  0.00000000000E+00 -0.95272429523E+03  0.11380379551E+04  0.62245225077E+03 0.  0.
        5    1    3    3  502    0 -0.17106692753E+03  0.25992887609E+03 -0.46984739547E+03  0.56356506221E+03  0.46999998093E+01 0.  1.
       -5    1    3    3    0  502  0.17106692753E+03 -0.25992887609E+03 -0.48287689976E+03  0.57447289287E+03  0.46999998093E+01 0. -1.
</event>
<event>
 5   0  0.1166419E-01  0.6091655E+03  0.7818609E-02  0.9886571E-01
       -2   -1    0    0    0  501  0.00000000000E+00  0.00000000000E+00  0.19344112728E+03  0.19344112730E+03  0.25500000920E-02 0.  1.
        2   -1    0    0  501    0  0.00000000000E+00  0.00000000000E+00 -0.47958085405E+03  0.47958085405E+03  0.25500000920E-02 0. -1.
    10030    2    1    2    0    0  0.00000000000E+00  0.00000000000E+00 -0.28613972676E+03  0.67302198135E+03  0.60916553100E+03 0.  0.
        1    1    3    3  502    0 -0.27427858811E+02 -0.15126685098E+03 -0.43357130547E+03  0.46001959153E+03  0.50400001928E-02 0. -1.
       -1    1    3    3    0  502  0.27427858811E+02  0.15126685098E+03  0.14743157871E+03  0.21300238982E+03  0.50400001928E-02 0.  1.
</event>
<event>
 5   0  0.7123340E-02  0.5909062E+03  0.7818609E-02  0.9924454E-01
       -1   -1    0    0    0  501  0.00000000000E+00  0.00000000000E+00  0.33751942435E+03  0.33751942439E+03  0.50400001928E-02 0.  1.
        1   -1    0    0  501    0  0.00000000000E+00  0.00000000000E+00 -0.25862969277E+03  0.25862969282E+03  0.50400001928E-02 0. -1.
    10030    2    1    2    0    0  0.00000000000E+00  0.00000000000E+00  0.78889731579E+02  0.59614911721E+03  0.59090623639E+03 0.  0.
        2    1    3    3  502    0 -0.78073602963E+02 -0.27823775167E+03 -0.22588996533E+02  0.28986548036E+03  0.25500000920E-02 0. -1.
       -2    1    3    3    0  502  0.78073602963E+02  0.27823775167E+03  0.10147872811E+03  0.30628363685E+03  0.25500000920E-02 0.  1.
</event>
<event>
 5   0  0.1175861E-01  0.6102587E+03  0.7818609E-02  0.9884348E-01
        2   -1    0    0  501    0  0.00000000000E+00  0.00000000000E+00  0.77857321536E+03  0.77857321536E+03  0.25500000920E-02 0.  1.
       -2   -1    0    0    0  501  0.00000000000E+00  0.00000000000E+00 -0.11958275869E+03  0.11958275872E+03  0.25500000920E-02 0. -1.
    10030    2    1    2    0    0  0.00000000000E+00  0.00000000000E+00  0.65899045666E+03  0.89815597409E+03  0.61025874169E+03 0.  0.
        3    1    3    3  502    0  0.74331854739E+02 -0.29364129860E+03  0.27534944782E+03  0.40935041894E+03  0.10100000352E+00 0.  1.
       -3    1    3    3    0  502 -0.74331854739E+02  0.29364129860E+03  0.38364100884E+03  0.48880555514E+03  0.10100000352E+00 0. -1.
</event>
<event>
 5   0  0.7266519E-02  0.5878934E+03  0.7818609E-02  0.9930847E-01
        1   -1    0    0  501    0  0.00000000000E+00  0.00000000000E+00  0.46569765722E+03  0.46569765725E+03  0.50400001928E-02 0.  1.
       -1   -1    0    0    0  501  0.00000000000E+00  0.00000000000E+00 -0.18553808540E+03  0.18553808547E+03  0.50400001928E-02 0. -1.
    10030    2    1    2    0    0  0.00000000000E+00  0.00000000000E+00  0.28015957182E+03  0.65123574272E+03  0.58789336356E+03 0.  0.
        4    1    3    3  502    0 -0.13510676441E+03 -0.25539947955E+03  0.80217414527E+02  0.29986526714E+03  0.12699999809E+01 0.  1.
       -4    1    3    3    0  502  0.13510676441E+03  0.25539947955E+03  0.19994215729E+03  0.35137047558E+03  0.12699999809E+01 0. -1.
</event>
<event>
 5   0  0.1166419E-01  0.6233257E+03  0.7818609E-02  0.9858161E-01
       -2   -1    0    0    0  501  0.00000000000E+00  0.00000000000E+00  0.28042576001E+03  0.28042576002E+03  0.25500000920E-02 0. -1.
        2   -1    0    0  501    0  0.00000000000E+00  0.00000000000E+00 -0.34637945486E+03  0.34637945487E+03  0.25500000920E-02 0.  1.
    10030    2    1    2    0    0  0.00000000000E+00  0.00000000000E+00 -0.65953694853E+02  0.62680521489E+03  0.62332566733E+03 0.  0.
        1    1    3    3  502    0  0.20949223615E+03  0.63116693175E+02  0.19021485926E+03  0.28991793092E+03  0.50400001928E-02 0. -1.
       -1    1    3    3    0  502 -0.20949223615E+03 -0.63116693175E+02 -0.25616855411E+03  0.33688728397E+03  0.50400001928E-02 0.  1.
</event>
<event>
 5   0  0.7424930E-02  0.5554391E+03  0.7818609E-02  0.1000243E+00
        1   -1    0    0  501    0  0.00000000000E+00  0.00000000000E+00  0.13867337757E+04  0.13867337757E+04  0.50400001928E-02 0. -1.
       -1   -1    0    0    0  501  0.00000000000E+00  0.00000000000E+00 -0.55618577952E+02  0.55618578181E+02  0.50400001928E-02 0.  1.
    10030    2    1    2    0    0  0.00000000000E+00  0.00000000000E+00  0.13311151977E+04  0.14423523539E+04  0.55543914436E+03 0.  0.
        3    1    3    3  502    0 -0.11193190653E+03 -0.45450855922E+02  0.16188430827E+02  0.12188768395E+03  0.10100000352E+00 0.  1.
       -3    1    3    3    0  502  0.11193190653E+03  0.45450855922E+02  0.13149267669E+04  0.13204646699E+04  0.10100000352E+00 0. -1.
</event>
<event>
 5   0  0.1146468E-01  0.5986381E+03  0.7818609E-02  0.9908236E-01
        2   -1    0    0  501    0  0.00000000000E+00  0.00000000000E+00  0.63677552235E+03  0.63677552235E+03  0.25500000920E-02 0. -1.
       -2   -1    0    0    0  501  0.00000000000E+00  0.00000000000E+00 -0.14069620795E+03  0.14069620797E+03  0.25500000920E-02 0.  1.
    10030    2    1    2    0    0  0.00000000000E+00  0.00000000000E+00  0.49607931440E+03  0.77747173032E+03  0.59863812548E+03 0.  0.
        4    1    3    3  502    0  0.25366895995E+03  0.69876262595E+02  0.62726846749E+02  0.27049381420E+03  0.12699999809E+01 0.  1.
       -4    1    3    3    0  502 -0.25366895995E+03 -0.69876262595E+02  0.43335246765E+03  0.50697791612E+03  0.12699999809E+01 0. -1.
</event>
<event>
 5   0  0.4695625E-02  0.5919345E+03  0.7818609E-02  0.9922282E-01
       -3   -1    0    0    0  501  0.00000000000E+00  0.00000000000E+00  0.18805755182E+03  0.18805757894E+03  0.10100000352E+00 0.  1.
        3   -1    0    0  501    0  0.00000000000E+00  0.00000000000E+00 -0.46579679618E+03  0.46579680713E+03  0.10100000352E+00 0. -1.
    10030    2    1    2    0    0  0.00000000000E+00  0.00000000000E+00 -0.27773924436E+03  0.65385438607E+03  0.59193451523E+03 0.  0.
        4    1    3    3  502    0 -0.45102797218E+01 -0.17756311619E+03  0.12263519629E+03  0.21584718466E+03  0.12699999809E+01 0.  1.
       -4    1    3    3    0  502  0.45102797218E+01  0.17756311619E+03 -0.40037444066E+03  0.43800720141E+03  0.12699999809E+01 0. -1.
</event>
<event>
 5   0  0.1146468E-01  0.5939243E+03  0.7818609E-02  0.9918092E-01
        2   -1    0    0  501    0  0.00000000000E+00  0.00000000000E+00  0.17826354057E+04  0.17826354057E+04  0.25500000920E-02 0. -1.
       -2   -1    0    0    0  501  0.00000000000E+00  0.00000000000E+00 -0.49469747205E+02  0.49469747271E+02  0.25500000920E-02 0.  1.
    10030    2    1    2    0    0  0.00000000000E+00  0.00000000000E+00  0.17331656585E+04  0.18321051530E+04  0.59392431485E+03 0.  0.
        4    1    3    3  502    0  0.37340270944E+02 -0.10952382155E+03  0.17102205702E+04  0.17141312012E+04  0.12699999809E+01 0. -1.
       -4    1    3    3    0  502 -0.37340270944E+02  0.10952382155E+03  0.22945088316E+02  0.11797395178E+03  0.12699999809E+01 0.  1.
</event>
<event>
 5   0  0.1206238E-01  0.5520070E+03  0.7818609E-02  0.1001030E+00
        2   -1    0    0  501    0  0.00000000000E+00  0.00000000000E+00  0.19152450677E+03  0.19152450679E+03  0.25500000920E-02 0.  1.
       -2   -1    0    0    0  501  0.00000000000E+00  0.00000000000E+00 -0.39774515050E+03  0.39774515050E+03  0.25500000920E-02 0. -1.
    10030    2    1    2    0    0  0.00000000000E+00  0.00000000000E+00 -0.20622064372E+03  0.58926965729E+03  0.55200704263E+03 0.  0.
        5    1    3    3  502    0 -0.19134000924E+01  0.84597668088E+01 -0.39755688960E+03  0.39767926677E+03  0.46999998093E+01 0. -1.
       -5    1    3    3    0  502  0.19134000924E+01 -0.84597668088E+01  0.19133624588E+03  0.19159039052E+03  0.46999998093E+01 0.  1.
</event>
<event>
 5   0  0.1219020E-01  0.6842780E+03  0.7818609E-02  0.9744503E-01
       -2   -1    0    0    0  501  0.00000000000E+00  0.00000000000E+00  0.11632141295E+03  0.11632141298E+03  0.25500000920E-02 0. -1.
        2   -1    0    0  501    0  0.00000000000E+00  0.00000000000E+00 -0.10063416933E+04  0.10063416933E+04  0.25500000920E-02 0.  1.
    10030    2    1    2    0    0  0.00000000000E+00  0.00000000000E+00 -0.89002028035E+03  0.11226631063E+04  0.68427797770E+03 0.  0.
        2    1    3    3  502    0  0.18759392401E+03 -0.10467766038E+03 -0.81210229067E+01  0.21497637993E+03  0.25500000920E-02 0. -1.
       -2    1    3    3    0  502 -0.18759392401E+03  0.10467766038E+03 -0.88189925744E+03  0.90768672635E+03  0.25500000920E-02 0.  1.
</event>
<event>
 5   0  0.1175861E-01  0.6088547E+03  0.7818609E-02  0.9887204E-01
       -2   -1    0    0    0  501  0.00000000000E+00  0.00000000000E+00  0.20986460166E+03  0.20986460168E+03  0.25500000920E-02 0. -1.
        2   -1    0    0  501    0  0.00000000000E+00  0.00000000000E+00 -0.44159908530E+03  0.44159908531E+03  0.25500000920E-02 0.  1.
    10030    2    1    2    0    0  0.00000000000E+00  0.00000000000E+00 -0.23173448364E+03  0.65146368699E+03  0.60885471548E+03 0.  0.
        3    1    3    3  502    0 -0.45070256016E+02  0.94739385228E+02  0.18991023675E+03  0.21696264036E+03  0.10100000352E+00 0. -1.
       -3    1    3    3    0  502  0.45070256016E+02 -0.94739385228E+02 -0.42164472038E+03  0.43450104663E+03  0.10100000352E+00 0.  1.
</event>
<event>
 5   0  0.1175861E-01  0.5988913E+03  0.7818609E-02  0.9907709E-01
        2   -1    0    0  501    0  0.00000000000E+00  0.00000000000E+00  0.79583080974E+03  0.79583080975E+03  0.25500000920E-02 0.  1.
       -2   -1    0    0    0  501  0.00000000000E+00  0.00000000000E+00 -0.11267181242E+03  0.11267181245E+03  0.25500000920E-02 0. -1.
    10030    2    1    2    0    0  0.00000000000E+00  0.00000000000E+00  0.68315899732E+03  0.90850262220E+03  0.59889130811E+03 0.  0.
        3    1    3    3  502    0  0.25195274523E+03 -0.14906897841E+03  0.43711206177E+03  0.52608812085E+03  0.10100000352E+00 0.  1.
       -3    1    3    3    0  502 -0.25195274523E+03  0.14906897841E+03  0.24604693555E+03  0.38241450135E+03  0.10100000352E+00 0. -1.
</event>
<event>
 5   0  0.1219020E-01  0.5913350E+03  0.7818609E-02  0.9923548E-01
        2   -1    0    0  501    0  0.00000000000E+00  0.00000000000E+00  0.16852281916E+04  0.16852281916E+04  0.25500000920E-02 0.  1.
       -2   -1    0    0    0  501  0.00000000000E+00  0.00000000000E+00 -0.51873851005E+02  0.51873851068E+02  0.25500000920E-02 0. -1.
    10030    2    1    2    0    0  0.00000000000E+00  0.00000000000E+00  0.16333543406E+04  0.17371020427E+04  0.59133501902E+03 0.  0.
        2    1    3    3  502    0 -0.28163593858E+03 -0.12598413806E+02  0.10784653022E+04  0.11147039652E+04  0.25500000920E-02 0.  1.
       -2    1    3    3    0  502  0.28163593858E+03  0.12598413806E+02  0.55488903838E+03  0.62239807748E+03  0.25500000920E-02 0. -1.
</event>
<event>
 5   0  0.4695625E-02  0.5957815E+03  0.7818609E-02  0.9914197E-01
       -3   -1    0    0    0  501  0.00000000000E+00  0.00000000000E+00  0.10401121875E+04  0.10401121924E+04  0.10100000352E+00 0. -1.
        3   -1    0    0  501    0  0.00000000000E+00  0.00000000000E+00 -0.85316623382E+02  0.85316683165E+02  0.10100000352E+00 0.  1.
    10030    2    1    2    0    0  0.00000000000E+00  0.00000000000E+00  0.95479556409E+03  0.11254288755E+04  0.59578149073E+03 0.  0.
        2    1    3    3  502    0  0.28686828623E+03  0.74183660800E+02  0.53538309918E+03  0.61190823827E+03  0.25500000920E-02 0. -1.
       -2    1    3    3    0  502 -0.28686828623E+03 -0.74183660800E+02  0.41941246492E+03  0.51352063727E+03  0.25500000920E-02 0.  1.
</event>
<event>
 5   0  0.4695625E-02  0.6481222E+03  0.7818609E-02  0.9810309E-01
       -4   -1    0    0    0  501  0.00000000000E+00  0.00000000000E+00  0.22959826559E+03  0.22960177801E+03  0.12699999809E+01 0.  1.
        4   -1    0    0  501    0  0.00000000000E+00  0.00000000000E+00 -0.45738062621E+03  0.45738238940E+03  0.12699999809E+01 0. -1.
    10030    2    1    2    0    0  0.00000000000E+00  0.00000000000E+00 -0.22778236062E+03  0.68698416740E+03  0.64812224345E+03 0.  0.
        2    1    3    3  502    0 -0.20347306521E+03  0.64821347987E+02 -0.37225325939E+03  0.42915682979E+03  0.25500000920E-02 0. -1.
       -2    1    3    3    0  502  0.20347306521E+03 -0.64821347987E+02  0.14447089878E+03  0.25782733761E+03  0.25500000920E-02 0.  1.
</event>
<event>
 5   0  0.1175861E-01  0.6058078E+03  0.7818609E-02  0.9893429E-01
       -2   -1    0    0    0  501  0.00000000000E+00  0.00000000000E+00  0.15944872729E+03  0.15944872731E+03  0.25500000920E-02 0. -1.
        2   -1    0    0  501    0  0.00000000000E+00  0.00000000000E+00 -0.57542490104E+03  0.57542490105E+03  0.25500000920E-02 0.  1.
    10030    2    1    2    0    0  0.00000000000E+00  0.00000000000E+00 -0.41597617375E+03  0.73487362836E+03  0.60580778514E+03 0.  0.
        3    1    3    3  502    0 -0.19371966408E+03  0.19520204400E+03 -0.53975895438E+02  0.28025801278E+03  0.10100000352E+00 0. -1.
       -3    1    3    3    0  502  0.19371966408E+03 -0.19520204400E+03 -0.36200027831E+03  0.45461561558E+03  0.10100000352E+00 0.  1.
</event>
<event>
 5   0  0.7266519E-02  0.6151379E+03  0.7818609E-02  0.9874488E-01
       -1   -1    0    0    0  501  0.00000000000E+00  0.00000000000E+00  0.10051573298E+03  0.10051573311E+03  0.50400001928E-02 0.  1.
        1   -1    0    0  501    0  0.00000000000E+00  0.00000000000E+00 -0.94113288270E+03  0.94113288272E+03  0.50400001928E-02 0. -1.
    10030    2    1    2    0    0  0.00000000000E+00  0.00000000000E+00 -0.84061714972E+03  0.10416486158E+04  0.61513790847E+03 0.  0.
        4    1    3    3  502    0  0.11817406593E+03 -0.19803877197E+03 -0.76490828871E+03  0.79891849903E+03  0.12699999809E+01 0. -1.
       -4    1    3    3    0  502 -0.11817406593E+03  0.19803877197E+03 -0.75708861011E+02  0.24273011679E+03  0.12699999809E+01 0.  1.
</event>
<event>
 5   0  0.1166419E-01  0.5780637E+03  0.7818609E-02  0.9951992E-01
       -2   -1    0    0    0  501  0.00000000000E+00  0.00000000000E+00  0.14970575202E+03  0.14970575204E+03  0.25500000920E-02 0.  1.
        2   -1    0    0  501    0  0.00000000000E+00  0.00000000000E+00 -0.55802412236E+03  0.55802412237E+03  0.25500000920E-02 0. -1.
    10030    2    1    2    0    0  0.00000000000E+00  0.00000000000E+00 -0.40831837034E+03  0.70772987441E+03  0.57806373660E+03 0.  0.
        1    1    3    3  502    0  0.11899796577E+02  0.23328518134E+03  0.42466232560E+01  0.23362708496E+03  0.50400001928E-02 0.  1.
       -1    1    3    3    0  502 -0.11899796577E+02 -0.23328518134E+03 -0.41256499360E+03  0.47410278945E+03  0.50400001928E-02 0. -1.
</event>
<event>
 5   0  0.1219020E-01  0.6070614E+03  0.7818609E-02  0.9890863E-01
       -2   -1    0    0    0  501  0.00000000000E+00  0.00000000000E+00  0.25022440402E+03  0.25022440403E+03  0.25500000920E-02 0. -1.
        2   -1    0    0  501    0  0.00000000000E+00  0.00000000000E+00 -0.36819298748E+03  0.36819298749E+03  0.25500000920E-02 0.  1.
    10030    2    1    2    0    0  0.00000000000E+00  0.00000000000E+00 -0.11796858347E+03  0.61841739152E+03  0.60706135065E+03 0.  0.
        2    1    3    3  502    0 -0.22722345053E+03 -0.38670578060E+02  0.14220693261E+03  0.27082969144E+03  0.25500000920E-02 0. -1.
       -2    1    3    3    0  502  0.22722345053E+03  0.38670578060E+02 -0.26017551607E+03  0.34758770008E+03  0.25500000920E-02 0.  1.
</event>
<event>
 5   0  0.7123340E-02  0.6085439E+03  0.7818609E-02  0.9887837E-01
        1   -1    0    0  501    0  0.00000000000E+00  0.00000000000E+00  0.23282833190E+03  0.23282833196E+03  0.50400001928E-02 0.  1.
       -1   -1    0    0    0  501  0.00000000000E+00  0.00000000000E+00 -0.39763806617E+03  0.39763806620E+03  0.50400001928E-02 0. -1.
    10030    2    1    2    0    0  0.00000000000E+00  0.00000000000E+00 -0.16480973426E+03  0.63046639815E+03  0.60854386094E+03 0.  0.
        2    1    3    3  502    0 -0.18291044672E+03 -0.23965838308E+03 -0.39826455412E+02  0.30410280935E+03  0.25500000920E-02 0.  1.
       -2    1    3    3    0  502  0.18291044672E+03  0.23965838308E+03 -0.12498327885E+03  0.32636358880E+03  0.25500000920E-02 0. -1.
</event>
<event>
 5   0  0.1206238E-01  0.5678873E+03  0.7818609E-02  0.9974365E-01
       -2   -1    0    0    0  501  0.00000000000E+00  0.00000000000E+00  0.50193523707E+02  0.50193523772E+02  0.25500000920E-02 0.  1.
        2   -1    0    0  501    0  0.00000000000E+00  0.00000000000E+00 -0.16062628406E+04  0.16062628406E+04  0.25500000920E-02 0. -1.
    10030    2    1    2    0    0  0.00000000000E+00  0.00000000000E+00 -0.15560693168E+04  0.16564563643E+04  0.56788728467E+03 0.  0.
        5    1    3    3  502    0 -0.24956228435E+02 -0.27969072256E+03 -0.90013257558E+03  0.94292653862E+03  0.46999998093E+01 0. -1.
       -5    1    3    3    0  502  0.24956228435E+02  0.27969072256E+03 -0.65593674127E+03  0.71352982570E+03  0.46999998093E+01 0.  1.
</event>
<event>
 5   0  0.7424930E-02  0.5382115E+03  0.7818609E-02  0.1004260E+00
        1   -1    0    0  501    0  0.00000000000E+00  0.00000000000E+00  0.18761296369E+03  0.18761296376E+03  0.50400001928E-02 0.  1.
       -1   -1    0    0    0  501  0.00000000000E+00  0.00000000000E+00 -0.38599628429E+03  0.38599628432E+03  0.50400001928E-02 0. -1.
    10030    2    1    2    0    0  0.00000000000E+00  0.00000000000E+00 -0.19838332060E+03  0.57360924808E+03  0.53821150824E+03 0.  0.
        3    1    3    3  502    0 -0.12629510297E+03  0.20930830445E+03 -0.21909650873E+03  0.32827383338E+03  0.10100000352E+00 0. -1.
       -3    1    3    3    0  502  0.12629510297E+03 -0.20930830445E+03  0.20713188132E+02  0.24533541470E+03  0.10100000352E+00 0.  1.
</event>
<event>
 5   0  0.7424930E-02  0.5999567E+03  0.7818609E-02  0.9905496E-01
       -1   -1    0    0    0  501  0.00000000000E+00  0.00000000000E+00  0.56784612082E+02  0.56784612306E+02  0.50400001928E-02 0. -1.
        1   -1    0    0  501    0  0.00000000000E+00  0.00000000000E+00 -0.15847077390E+04  0.15847077390E+04  0.50400001928E-02 0.  1.
    10030    2    1    2    0    0  0.00000000000E+00  0.00000000000E+00 -0.15279231269E+04  0.16414923513E+04  0.59995671314E+03 0.  0.
        3    1    3    3  502    0 -0.14715653370E+03 -0.23421502977E+03 -0.44635620339E+03  0.52511484086E+03  0.10100000352E+00 0. -1.
       -3    1    3    3    0  502  0.14715653370E+03  0.23421502977E+03 -0.10815669235E+04  0.11163775104E+04  0.10100000352E+00 0.  1.
</event>
<event>
 5   0  0.7266519E-02  0.6145863E+03  0.7818609E-02  0.9875598E-01
       -1   -1    0    0    0  501  0.00000000000E+00  0.00000000000E+00  0.58226125434E+03  0.58226125436E+03  0.50400001928E-02 0.  1.
        1   -1    0    0  501    0  0.00000000000E+00  0.00000000000E+00 -0.16217647625E+03  0.16217647633E+03  0.50400001928E-02 0. -1.
    10030    2    1    2    0    0  0.00000000000E+00  0.00000000000E+00  0.42008477809E+03  0.74443773069E+03  0.61458629508E+03 0.  0.
        4    1    3    3  502    0 -0.89528711652E+02 -0.27406457017E+03  0.81277361781E+02  0.29955700839E+03  0.12699999809E+01 0. -1.
       -4    1    3    3    0  502  0.89528711652E+02  0.27406457017E+03  0.33880741631E+03  0.44488072231E+03  0.12699999809E+01 0.  1.
</event>
<event>
 5   0  0.1146468E-01  0.5865646E+03  0.7818609E-02  0.9933679E-01
        2   -1    0    0  501    0  0.00000000000E+00  0.00000000000E+00  0.32601688291E+03  0.32601688292E+03  0.25500000920E-02 0. -1.
       -2   -1    0    0    0  501  0.00000000000E+00  0.00000000000E+00 -0.26383452129E+03  0.26383452130E+03  0.25500000920E-02 0.  1.
    10030    2    1    2    0    0  0.00000000000E+00  0.00000000000E+00  0.62182361622E+02  0.58985140422E+03  0.58656460255E+03 0.  0.
        4    1    3    3  502    0 -0.69665256145E+02 -0.44909899821E+02 -0.25180841724E+03  0.26510231781E+03  0.12699999809E+01 0.  1.
       -4    1    3    3    0  502  0.69665256145E+02  0.44909899821E+02  0.31399077886E+03  0.32474908641E+03  0.12699999809E+01 0. -1.
</event>
<event>
 5   0  0.1219020E-01  0.6042324E+03  0.7818609E-02  0.9896664E-01
        2   -1    0    0  501    0  0.00000000000E+00  0.00000000000E+00  0.17799253457E+04  0.17799253457E+04  0.25500000920E-02 0.  1.
       -2   -1    0    0    0  501  0.00000000000E+00  0.00000000000E+00 -0.51279787755E+02  0.51279787819E+02  0.25500000920E-02 0. -1.
    10030    2    1    2    0    0  0.00000000000E+00  0.00000000000E+00  0.17286455579E+04  0.18312051335E+04  0.60423238578E+03 0.  0.
        2    1    3    3  502    0  0.21500673763E+03 -0.78278591014E+02  0.26644489372E+03  0.35120978977E+03  0.25500000920E-02 0. -1.
       -2    1    3    3    0  502 -0.21500673763E+03  0.78278591014E+02  0.14622006642E+04  0.14799953437E+04  0.25500000920E-02 0.  1.
</event>
<event>
 5   0  0.1146468E-01  0.5878489E+03  0.7818609E-02  0.9930941E-01
       -2   -1    0    0    0  501  0.00000000000E+00  0.00000000000E+00  0.71941276333E+03  0.71941276333E+03  0.25500000920E-02 0.  1.
        2   -1    0    0  501    0  0.00000000000E+00  0.00000000000E+00 -0.12008623819E+03  0.12008623822E+03  0.25500000920E-02 0. -1.
    10030    2    1    2    0    0  0.00000000000E+00  0.00000000000E+00  0.59932652514E+03  0.83949900155E+03  0.58784886652E+03 0.  0.
        4    1    3    3  502    0  0.27263627915E+03  0.68861359630E+02  0.42182545383E+03  0.50696228061E+03  0.12699999809E+01 0.  1.
       -4    1    3    3    0  502 -0.27263627915E+03 -0.68861359630E+02  0.17750107131E+03  0.33253672094E+03  0.12699999809E+01 0. -1.
</event>
<event>
 5   0  0.1166419E-01  0.6164266E+03  0.7818609E-02  0.9871900E-01
       -2   -1    0    0    0  501  0.00000000000E+00  0.00000000000E+00  0.34864990589E+03  0.34864990590E+03  0.25500000920E-02 0.  1.
        2   -1    0    0  501    0  0.00000000000E+00  0.00000000000E+00 -0.27246657355E+03  0.27246657356E+03  0.25500000920E-02 0. -1.
    10030    2    1    2    0    0  0.00000000000E+00  0.00000000000E+00  0.76183332338E+02  0.62111647946E+03  0.61642662250E+03 0.  0.
        1    1    3    3  502    0  0.16243469495E+03  0.19753197953E+03 -0.13523899401E+03  0.28929828653E+03  0.50400001928E-02 0. -1.
       -1    1    3    3    0  502 -0.16243469495E+03 -0.19753197953E+03  0.21142232635E+03  0.33181819294E+03  0.50400001928E-02 0.  1.
</event>
<event>
 5   0  0.1175861E-01  0.6052944E+03  0.7818609E-02  0.9894482E-01
        2   -1    0    0  501    0  0.00000000000E+00  0.00000000000E+00  0.24997467826E+03  0.24997467827E+03  0.25500000920E-02 0.  1.
       -2   -1    0    0    0  501  0.00000000000E+00  0.00000000000E+00 -0.36641842411E+03  0.36641842412E+03  0.25500000920E-02 0. -1.
    10030    2    1    2    0    0  0.00000000000E+00  0.00000000000E+00 -0.11644374585E+03  0.61639310239E+03  0.60529440005E+03 0.  0.
        3    1    3    3  502    0 -0.10334430902E+03 -0.33778800832E+02 -0.34584414782E+03  0.36253170671E+03  0.10100000352E+00 0. -1.
       -3    1    3    3    0  502  0.10334430902E+03  0.33778800832E+02  0.22940040197E+03  0.25386139568E+03  0.10100000352E+00 0.  1.
</event>
<event>
 5   0  0.7263385E-02  0.6249563E+03  0.7818609E-02  0.9854941E-01
        1   -1    0    0  501    0  0.00000000000E+00  0.00000000000E+00  0.18629085499E+03  0.18629085506E+03  0.50400001928E-02 0.  1.
       -1   -1    0    0    0  501  0.00000000000E+00  0.00000000000E+00 -0.52414064488E+03  0.52414064491E+03  0.50400001928E-02 0. -1.
    10030    2    1    2    0    0  0.00000000000E+00  0.00000000000E+00 -0.33784978990E+03  0.71043149997E+03  0.62495634696E+03 0.  0.
        1    1    3    3  502    0 -0.21858346998E+03 -0.96327291172E+02  0.60085354101E+02  0.24630860759E+03  0.50400001928E-02 0.  1.
       -1    1    3    3    0  502  0.21858346998E+03  0.96327291172E+02 -0.39793514400E+03  0.46412289237E+03  0.50400001928E-02 0. -1.
</event>
<event>
 5   0  0.1219020E-01  0.3807307E+03  0.7818609E-02  0.1050664E+00
        2   -1    0    0  501    0  0.00000000000E+00  0.00000000000E+00  0.20254478134E+03  0.20254478136E+03  0.25500000920E-02 0. -1.
       -2   -1    0    0    0  501  0.00000000000E+00  0.00000000000E+00 -0.17891830729E+03  0.17891830731E+03  0.25500000920E-02 0.  1.
    10030    2    1    2    0    0  0.00000000000E+00  0.00000000000E+00  0.23626474057E+02  0.38146308867E+03  0.38073071552E+03 0.  0.
        2    1    3    3  502    0  0.36051414293E+02  0.15795370545E+03 -0.88328472273E+02  0.18452912117E+03  0.25500000920E-02 0.  1.
       -2    1    3    3    0  502 -0.36051414293E+02 -0.15795370545E+03  0.11195494633E+03  0.19693396750E+03  0.25500000920E-02 0. -1.
</event>
<event>
 5   0  0.7123340E-02  0.5922826E+03  0.7818609E-02  0.9921548E-01
       -1   -1    0    0    0  501  0.00000000000E+00  0.00000000000E+00  0.31949323123E+03  0.31949323127E+03  0.50400001928E-02 0. -1.
        1   -1    0    0  501    0  0.00000000000E+00  0.00000000000E+00 -0.27449614198E+03  0.27449614203E+03  0.50400001928E-02 0.  1.
    10030    2    1    2    0    0  0.00000000000E+00  0.00000000000E+00  0.44997089250E+02  0.59398937330E+03  0.59228256563E+03 0.  0.
        2    1    3    3  502    0  0.26119617205E+02  0.15074424054E+03  0.27679106995E+03  0.31625837043E+03  0.25500000920E-02 0. -1.
       -2    1    3    3    0  502 -0.26119617205E+02 -0.15074424054E+03 -0.23179398070E+03  0.27773100287E+03  0.25500000920E-02 0.  1.
</event>
<event>
 5   0  0.1146468E-01  0.6122004E+03  0.7818609E-02  0.9880412E-01
        2   -1    0    0  501    0  0.00000000000E+00  0.00000000000E+00  0.30669759248E+03  0.30669759249E+03  0.25500000920E-02 0.  1.
       -2   -1    0    0    0  501  0.00000000000E+00  0.00000000000E+00 -0.30550397256E+03  0.30550397257E+03  0.25500000920E-02 0. -1.
    10030    2    1    2    0    0  0.00000000000E+00  0.00000000000E+00  0.11936199200E+01  0.61220156507E+03  0.61220040145E+03 0.  0.
        4    1    3    3  502    0  0.12550226141E+03  0.25860082314E+03 -0.10461991266E+03  0.30589563968E+03  0.12699999809E+01 0. -1.
       -4    1    3    3    0  502 -0.12550226141E+03 -0.25860082314E+03  0.10581353258E+03  0.30630592539E+03  0.12699999809E+01 0.  1.
</event>
<event>
 5   0  0.1146468E-01  0.6004274E+03  0.7818609E-02  0.9904520E-01
        2   -1    0    0  501    0  0.00000000000E+00  0.00000000000E+00  0.10771737853E+04  0.10771737853E+04  0.25500000920E-02 0.  1.
       -2   -1    0    0    0  501  0.00000000000E+00  0.00000000000E+00 -0.83671044016E+02  0.83671044055E+02  0.25500000920E-02 0. -1.
    10030    2    1    2    0    0  0.00000000000E+00  0.00000000000E+00  0.99350274130E+03  0.11608448294E+04  0.60042736523E+03 0.  0.
        4    1    3    3  502    0  0.40192171958E+02  0.26517018726E+03  0.23595490663E+03  0.35722117765E+03  0.12699999809E+01 0. -1.
       -4    1    3    3    0  502 -0.40192171958E+02 -0.26517018726E+03  0.75754783466E+03  0.80362365172E+03  0.12699999809E+01 0.  1.
</event>
<event>
 5   0  0.7266519E-02  0.5980729E+03  0.7818609E-02  0.9909412E-01
        1   -1    0    0  501    0  0.00000000000E+00  0.00000000000E+00  0.12611733835E+04  0.12611733835E+04  0.50400001928E-02 0. -1.
       -1   -1    0    0    0  501  0.00000000000E+00  0.00000000000E+00 -0.70904434083E+02  0.70904434262E+02  0.50400001928E-02 0.  1.
    10030    2    1    2    0    0  0.00000000000E+00  0.00000000000E+00  0.11902689494E+04  0.13320778178E+04  0.59807285564E+03 0.  0.
        4    1    3    3  502    0  0.15768152518E+03  0.11261318333E+03  0.87841718591E+02  0.21275096443E+03  0.12699999809E+01 0.  1.
       -4    1    3    3    0  502 -0.15768152518E+03 -0.11261318333E+03  0.11024272308E+04  0.11193268534E+04  0.12699999809E+01 0. -1.
</event>
<event>
 5   0  0.7424930E-02  0.5959264E+03  0.7818609E-02  0.9913894E-01
        1   -1    0    0  501    0  0.00000000000E+00  0.00000000000E+00  0.33552570675E+03  0.33552570678E+03  0.50400001928E-02 0. -1.
       -1   -1    0    0    0  501  0.00000000000E+00  0.00000000000E+00 -0.26460588829E+03  0.26460588834E+03  0.50400001928E-02 0.  1.
    10030    2    1    2    0    0  0.00000000000E+00  0.00000000000E+00  0.70919818454E+02  0.60013159512E+03  0.59592643071E+03 0.  0.
        3    1    3    3  502    0  0.24833236966E+03  0.15242169779E+03 -0.27275167074E+02  0.29265215652E+03  0.10100000352E+00 0.  1.
       -3    1    3    3    0  502 -0.24833236966E+03 -0.15242169779E+03  0.98194985528E+02  0.30747943860E+03  0.10100000352E+00 0. -1.
</event>
<event>
 5   0  0.1175861E-01  0.6121327E+03  0.7818609E-02  0.9880549E-01
       -2   -1    0    0    0  501  0.00000000000E+00  0.00000000000E+00  0.18447624887E+03  0.18447624889E+03  0.25500000920E-02 0. -1.
        2   -1    0    0  501    0  0.00000000000E+00  0.00000000000E+00 -0.50779762439E+03  0.50779762440E+03  0.25500000920E-02 0.  1.
    10030    2    1    2    0    0  0.00000000000E+00  0.00000000000E+00 -0.32332137552E+03  0.69227387329E+03  0.61213266844E+03 0.  0.
        3    1    3    3  502    0  0.65559647403E+02  0.27592320268E+03 -0.29181449694E+03  0.40692430742E+03  0.10100000352E+00 0.  1.
       -3    1    3    3    0  502 -0.65559647403E+02 -0.27592320268E+03 -0.31506878585E+02  0.28534956587E+03  0.10100000352E+00 0. -1.
</event>
<event>
 5   0  0.7221069E-02  0.6157455E+03  0.7818609E-02  0.9873267E-01
       -1   -1    0    0    0  501  0.00000000000E+00  0.00000000000E+00  0.65655011437E+02  0.65655011630E+02  0.50400001928E-02 0.  1.
        1   -1    0    0  501    0  0.00000000000E+00  0.00000000000E+00 -0.14436921619E+04  0.14436921619E+04  0.50400001928E-02 0. -1.
    10030    2    1    2    0    0  0.00000000000E+00  0.00000000000E+00 -0.13780371504E+04  0.15093471735E+04  0.61574548492E+03 0.  0.
        5    1    3    3  502    0  0.14347504515E+03  0.15223326906E+03 -0.13542911981E+03  0.24924524725E+03  0.46999998093E+01 0. -1.
       -5    1    3    3    0  502 -0.14347504515E+03 -0.15223326906E+03 -0.12426080306E+04  0.12601019262E+04  0.46999998093E+01 0.  1.
</event>
<event>
 5   0  0.7266519E-02  0.6008574E+03  0.7818609E-02  0.9903629E-01
        1   -1    0    0  501    0  0.00000000000E+00  0.00000000000E+00  0.19476166752E+03  0.19476166758E+03  0.50400001928E-02 0. -1.
       -1   -1    0    0    0  501  0.00000000000E+00  0.00000000000E+00 -0.46342496201E+03  0.46342496204E+03  0.50400001928E-02 0.  1.
    10030    2    1    2    0    0  0.00000000000E+00  0.00000000000E+00 -0.26866329450E+03  0.65818662962E+03  0.60085744865E+03 0.  0.
        4    1    3    3  502    0  0.16954351383E+03  0.22778241302E+03 -0.26858500445E+02  0.28522416222E+03  0.12699999809E+01 0.  1.
       -4    1    3    3    0  502 -0.16954351383E+03 -0.22778241302E+03 -0.24180479405E+03  0.37296246740E+03  0.12699999809E+01 0. -1.
</event>
<event>
 5   0  0.1146468E-01  0.6011038E+03  0.7818609E-02  0.9903119E-01
       -2   -1    0    0    0  501  0.00000000000E+00  0.00000000000E+00  0.94822877612E+02  0.94822877647E+02  0.25500000920E-02 0. -1.
        2   -1    0    0  501    0  0.00000000000E+00  0.00000000000E+00 -0.95263344166E+03  0.95263344166E+03  0.25500000920E-02 0.  1.
    10030    2    1    2    0    0  0.00000000000E+00  0.00000000000E+00 -0.85781056405E+03  0.10474563193E+04  0.60110379892E+03 0.  0.
        4    1    3    3  502    0 -0.59592343811E+02 -0.51632359328E+02 -0.93428428309E+03  0.93760646462E+03  0.12699999809E+01 0.  1.
       -4    1    3    3    0  502  0.59592343811E+02  0.51632359328E+02  0.76473719043E+02  0.10984985469E+03  0.12699999809E+01 0. -1.
</event>
<event>
 5   0  0.1166419E-01  0.5989651E+03  0.7818609E-02  0.9907555E-01
       -2   -1    0    0    0  501  0.00000000000E+00  0.00000000000E+00  0.21113129978E+03  0.21113129979E+03  0.25500000920E-02 0. -1.
        2   -1    0    0  501    0  0.00000000000E+00  0.00000000000E+00 -0.42480583185E+03  0.42480583186E+03  0.25500000920E-02 0.  1.
    10030    2    1    2    0    0  0.00000000000E+00  0.00000000000E+00 -0.21367453207E+03  0.63593713165E+03  0.59896513234E+03 0.  0.
        1    1    3    3  502    0 -0.28723906398E+03 -0.13900034469E+02 -0.18068319780E+02  0.28814224793E+03  0.50400001928E-02 0. -1.
       -1    1    3    3    0  502  0.28723906398E+03  0.13900034469E+02 -0.19560621229E+03  0.34779488373E+03  0.50400001928E-02 0.  1.
</event>
<event>
 5   0  0.7123340E-02  0.6087603E+03  0.7818609E-02  0.9887396E-01
       -1   -1    0    0    0  501  0.00000000000E+00  0.00000000000E+00  0.22937402024E+03  0.22937402030E+03  0.50400001928E-02 0. -1.
        1   -1    0    0  501    0  0.00000000000E+00  0.00000000000E+00 -0.40391352260E+03  0.40391352263E+03  0.50400001928E-02 0.  1.
    10030    2    1    2    0    0  0.00000000000E+00  0.00000000000E+00 -0.17453950236E+03  0.63328754293E+03  0.60876027642E+03 0.  0.
        2    1    3    3  502    0  0.12469972092E+03  0.26636432737E+03 -0.16883339227E+03  0.33912341359E+03  0.25500000920E-02 0.  1.
       -2    1    3    3    0  502 -0.12469972092E+03 -0.26636432737E+03 -0.57061100853E+01  0.29416412934E+03  0.25500000920E-02 0. -1.
</event>
<event>
 5   0  0.1219020E-01  0.6024854E+03  0.7818609E-02  0.9900263E-01
        2   -1    0    0  501    0  0.00000000000E+00  0.00000000000E+00  0.18840327660E+04  0.18840327660E+04  0.25500000920E-02 0. -1.
       -2   -1    0    0    0  501  0.00000000000E+00  0.00000000000E+00 -0.48166449193E+02  0.48166449261E+02  0.25500000920E-02 0.  1.
    10030    2    1    2    0    0  0.00000000000E+00  0.00000000000E+00  0.18358663168E+04  0.19321992153E+04  0.60248541416E+03 0.  0.
        2    1    3    3  502    0  0.13218915235E+03  0.70917373157E+02  0.80138946936E+02  0.17007497358E+03  0.25500000920E-02 0.  1.
       -2    1    3    3    0  502 -0.13218915235E+03 -0.70917373157E+02  0.17557273699E+04  0.17621242417E+04  0.25500000920E-02 0. -1.
</event>
<event>
 5   0  0.4695625E-02  0.5429001E+03  0.7818609E-02  0.1003151E+00
        3   -1    0    0  501    0  0.00000000000E+00  0.00000000000E+00  0.28613477829E+03  0.28613479612E+03  0.10100000352E+00 0. -1.
       -3   -1    0    0    0  501  0.00000000000E+00  0.00000000000E+00 -0.25751889284E+03  0.25751891265E+03  0.10100000352E+00 0.  1.
    10030    2    1    2    0    0  0.00000000000E+00  0.00000000000E+00  0.28615885449E+02  0.54365370876E+03  0.54290007013E+03 0.  0.
        3    1    3    3  502    0 -0.22904746521E+03 -0.10669489382E+03  0.11363519911E+03  0.27705506739E+03  0.10100000352E+00 0. -1.
       -3    1    3    3    0  502  0.22904746521E+03  0.10669489382E+03 -0.85019313661E+02  0.26659864138E+03  0.10100000352E+00 0.  1.
</event>
<event>
 5   0  0.1166419E-01  0.4144013E+03  0.7818609E-02  0.1038904E+00
       -2   -1    0    0    0  501  0.00000000000E+00  0.00000000000E+00  0.42806874182E+02  0.42806874258E+02  0.25500000920E-02 0. -1.
        2   -1    0    0  501    0  0.00000000000E+00  0.00000000000E+00 -0.10029254642E+04  0.10029254642E+04  0.25500000920E-02 0.  1.
    10030    2    1    2    0    0  0.00000000000E+00  0.00000000000E+00 -0.96011859002E+03  0.10457323385E+04  0.41440127510E+03 0.  0.
        1    1    3    3  502    0 -0.32882918587E+02  0.12564164795E+03 -0.72652497155E+02  0.14881362640E+03  0.50400001928E-02 0. -1.
       -1    1    3    3    0  502  0.32882918587E+02 -0.12564164795E+03 -0.88746609286E+03  0.89691871206E+03  0.50400001928E-02 0.  1.
</event>
<event>
 5   0  0.1175861E-01  0.5987337E+03  0.7818609E-02  0.9908037E-01
       -2   -1    0    0    0  501  0.00000000000E+00  0.00000000000E+00  0.86556256462E+02  0.86556256500E+02  0.25500000920E-02 0.  1.
        2   -1    0    0  501    0  0.00000000000E+00  0.00000000000E+00 -0.10354018490E+04  0.10354018490E+04  0.25500000920E-02 0. -1.
    10030    2    1    2    0    0  0.00000000000E+00  0.00000000000E+00 -0.94884559249E+03  0.11219581055E+04  0.59873369039E+03 0.  0.
        3    1    3    3  502    0 -0.30102661535E+02  0.11463860517E+02 -0.10321449675E+04  0.10326474880E+04  0.10100000352E+00 0. -1.
       -3    1    3    3    0  502  0.30102661535E+02 -0.11463860517E+02  0.83299374962E+02  0.89310617507E+02  0.10100000352E+00 0.  1.
</event>
<event>
 5   0  0.1219020E-01  0.6057892E+03  0.7818609E-02  0.9893468E-01
       -2   -1    0    0    0  501  0.00000000000E+00  0.00000000000E+00  0.15632864103E+03  0.15632864105E+03  0.25500000920E-02 0.  1.
        2   -1    0    0  501    0  0.00000000000E+00  0.00000000000E+00 -0.58687349514E+03  0.58687349514E+03  0.25500000920E-02 0. -1.
    10030    2    1    2    0    0  0.00000000000E+00  0.00000000000E+00 -0.43054485410E+03  0.74320213620E+03  0.60578919093E+03 0.  0.
        2    1    3    3  502    0 -0.70266263401E+02 -0.24253245080E+03 -0.10036077854E+02  0.25270548139E+03  0.25500000920E-02 0.  1.
       -2    1    3    3    0  502  0.70266263401E+02  0.24253245080E+03 -0.42050877625E+03  0.49049665480E+03  0.25500000920E-02 0. -1.
</event>
<event>
 5   0  0.7221069E-02  0.5963382E+03  0.7818609E-02  0.9913032E-01
        1   -1    0    0  501    0  0.00000000000E+00  0.00000000000E+00  0.61982847908E+03  0.61982847910E+03  0.50400001928E-02 0.  1.
       -1   -1    0    0    0  501  0.00000000000E+00  0.00000000000E+00 -0.14343453806E+03  0.14343453815E+03  0.50400001928E-02 0. -1.
    10030    2    1    2    0    0  0.00000000000E+00  0.00000000000E+00  0.47639394102E+03  0.76326301725E+03  0.59633819806E+03 0.  0.
        5    1    3    3  502    0  0.92757545171E+02 -0.11331278530E+03 -0.94184696987E+02  0.17417404125E+03  0.46999998093E+01 0. -1.
       -5    1    3    3    0  502 -0.92757545171E+02  0.11331278530E+03  0.57057863801E+03  0.58908897601E+03  0.46999998093E+01 0.  1.
</event>
<event>
 5   0  0.1146468E-01  0.6120619E+03  0.7818609E-02  0.9880693E-01
       -2   -1    0    0    0  501  0.00000000000E+00  0.00000000000E+00  0.25255072739E+03  0.25255072740E+03  0.25500000920E-02 0.  1.
        2   -1    0    0  501    0  0.00000000000E+00  0.00000000000E+00 -0.37083615642E+03  0.37083615643E+03  0.25500000920E-02 0. -1.
    10030    2    1    2    0    0  0.00000000000E+00  0.00000000000E+00 -0.11828542904E+03  0.62338688383E+03  0.61206189574E+03 0.  0.
        4    1    3    3  502    0  0.12177495658E+01 -0.11752993591E+03  0.22864262312E+03  0.25708720458E+03  0.12699999809E+01 0.  1.
       -4    1    3    3    0  502 -0.12177495658E+01  0.11752993591E+03 -0.34692805216E+03  0.36629967926E+03  0.12699999809E+01 0. -1.
</event>
<event>
 5   0  0.7424930E-02  0.5921635E+03  0.7818609E-02  0.9921799E-01
        1   -1    0    0  501    0  0.00000000000E+00  0.00000000000E+00  0.34188363962E+03  0.34188363966E+03  0.50400001928E-02 0.  1.
       -1   -1    0    0    0  501  0.00000000000E+00  0.00000000000E+00 -0.25641591078E+03  0.25641591083E+03  0.50400001928E-02 0. -1.
    10030    2    1    2    0    0  0.00000000000E+00  0.00000000000E+00  0.85467728841E+02  0.59829955048E+03  0.59216350735E+03 0.  0.
        3    1    3    3  502    0  0.81209391097E+02  0.25227565305E+03  0.17611093633E+03  0.31820283220E+03  0.10100000352E+00 0.  1.
       -3    1    3    3    0  502 -0.81209391097E+02 -0.25227565305E+03 -0.90643207491E+02  0.28009671828E+03  0.10100000352E+00 0. -1.
</event>
<event>
 5   0  0.7263385E-02  0.6101657E+03  0.7818609E-02  0.9884537E-01
       -1   -1    0    0    0  501  0.00000000000E+00  0.00000000000E+00  0.98464510598E+02  0.98464510727E+02  0.50400001928E-02 0. -1.
        1   -1    0    0  501    0  0.00000000000E+00  0.00000000000E+00 -0.94526998132E+03  0.94526998133E+03  0.50400001928E-02 0.  1.
    10030    2    1    2    0    0  0.00000000000E+00  0.00000000000E+00 -0.84680547072E+03  0.10437344921E+04  0.61016570263E+03 0.  0.
        1    1    3    3  502    0 -0.13471026572E+03  0.26471920255E+03 -0.54256042478E+03  0.61854258257E+03  0.50400001928E-02 0.  1.
       -1    1    3    3    0  502  0.13471026572E+03 -0.26471920255E+03 -0.30424504594E+03  0.42519190949E+03  0.50400001928E-02 0. -1.
</event>
<event>
 5   0  0.1175861E-01  0.6059524E+03  0.7818609E-02  0.9893133E-01
       -2   -1    0    0    0  501  0.00000000000E+00  0.00000000000E+00  0.12013895866E+03  0.12013895869E+03  0.25500000920E-02 0.  1.
        2   -1    0    0  501    0  0.00000000000E+00  0.00000000000E+00 -0.76406994354E+03  0.76406994355E+03  0.25500000920E-02 0. -1.
    10030    2    1    2    0    0  0.00000000000E+00  0.00000000000E+00 -0.64393098488E+03  0.88420890223E+03  0.60595236570E+03 0.  0.
        3    1    3    3  502    0 -0.27701298173E+03  0.82637439807E+02 -0.45433896945E+03  0.53850631182E+03  0.10100000352E+00 0. -1.
       -3    1    3    3    0  502  0.27701298173E+03 -0.82637439807E+02 -0.18959201543E+03  0.34570259042E+03  0.10100000352E+00 0.  1.
</event>
<event>
 5   0  0.4695625E-02  0.6033914E+03  0.7818609E-02  0.9898395E-01
       -3   -1    0    0    0  501  0.00000000000E+00  0.00000000000E+00  0.80538342428E+03  0.80538343061E+03  0.10100000352E+00 0. -1.
        3   -1    0    0  501    0  0.00000000000E+00  0.00000000000E+00 -0.11301482964E+03  0.11301487477E+03  0.10100000352E+00 0.  1.
    10030    2    1    2    0    0  0.00000000000E+00  0.00000000000E+00  0.69236859464E+03  0.91839830538E+03  0.60339139576E+03 0.  0.
        2    1    3    3  502    0  0.97015623356E+02 -0.91471206648E+02  0.75810149798E+03  0.76973819839E+03  0.25500000920E-02 0. -1.
       -2    1    3    3    0  502 -0.97015623356E+02  0.91471206648E+02 -0.65732903336E+02  0.14866010698E+03  0.25500000920E-02 0.  1.
</event>
<event>
 5   0  0.7424930E-02  0.5937306E+03  0.7818609E-02  0.9918499E-01
        1   -1    0    0  501    0  0.00000000000E+00  0.00000000000E+00  0.29818620175E+03  0.29818620179E+03  0.50400001928E-02 0. -1.
       -1   -1    0    0    0  501  0.00000000000E+00  0.00000000000E+00 -0.29555028572E+03  0.29555028576E+03  0.50400001928E-02 0.  1.
    10030    2    1    2    0    0  0.00000000000E+00  0.00000000000E+00  0.26359160324E+01  0.59373648755E+03  0.59373063640E+03 0.  0.
        3    1    3    3  502    0  0.24805365156E+03  0.19416613537E+01 -0.16176222786E+03  0.29614424300E+03  0.10100000352E+00 0.  1.
       -3    1    3    3    0  502 -0.24805365156E+03 -0.19416613537E+01  0.16439814389E+03  0.29759224455E+03  0.10100000352E+00 0. -1.
</event>
<event>
 5   0  0.7266519E-02  0.5976311E+03  0.7818609E-02  0.9910333E-01
        1   -1    0    0  501    0  0.00000000000E+00  0.00000000000E+00  0.77863008110E+02  0.77863008274E+02  0.50400001928E-02 0. -1.
       -1   -1    0    0    0  501  0.00000000000E+00  0.00000000000E+00 -0.11467672234E+04  0.11467672234E+04  0.50400001928E-02 0.  1.
    10030    2    1    2    0    0  0.00000000000E+00  0.00000000000E+00 -0.10689042152E+04  0.12246302316E+04  0.59763114283E+03 0.  0.
        4    1    3    3  502    0  0.20071048801E+03  0.56261901627E+02 -0.97317416637E+03  0.99524854813E+03  0.12699999809E+01 0.  1.
       -4    1    3    3    0  502 -0.20071048801E+03 -0.56261901627E+02 -0.95730048874E+02  0.22938168351E+03  0.12699999809E+01 0. -1.
</event>
<event>
 5   0  0.7221069E-02  0.5831913E+03  0.7818609E-02  0.9940906E-01
       -1   -1    0    0    0  501  0.00000000000E+00  0.00000000000E+00  0.14825248171E+03  0.14825248180E+03  0.50400001928E-02 0.  1.
        1   -1    0    0  501    0  0.00000000000E+00  0.00000000000E+00 -0.57353518981E+03  0.57353518983E+03  0.50400001928E-02 0. -1.
    10030    2    1    2    0    0  0.00000000000E+00  0.00000000000E+00 -0.42528270810E+03  0.72178767163E+03  0.58319127317E+03 0.  0.
        5    1    3    3  502    0 -0.36707222145E+02  0.21643104725E+03 -0.45011606870E+03  0.50081571828E+03  0.46999998093E+01 0. -1.
       -5    1    3    3    0  502  0.36707222145E+02 -0.21643104725E+03  0.24833360603E+02  0.22097195335E+03  0.46999998093E+01 0.  1.
</event>
<event>
 5   0  0.7266519E-02  0.5547925E+03  0.7818609E-02  0.1000391E+00
        1   -1    0    0  501    0  0.00000000000E+00  0.00000000000E+00  0.17789960323E+04  0.17789960323E+04  0.50400001928E-02 0.  1.
       -1   -1    0    0    0  501  0.00000000000E+00  0.00000000000E+00 -0.43253987598E+02  0.43253987892E+02  0.50400001928E-02 0. -1.
    10030    2    1    2    0    0  0.00000000000E+00  0.00000000000E+00  0.17357420447E+04  0.18222500202E+04  0.55479247505E+03 0.  0.
        4    1    3    3  502    0  0.18896408378E+03 -0.16025035046E+03  0.12775792269E+04  0.13013830695E+04  0.12699999809E+01 0.  1.
       -4    1    3    3    0  502 -0.18896408378E+03  0.16025035046E+03  0.45816281788E+03  0.52086695074E+03  0.12699999809E+01 0. -1.
</event>
<event>
 5   0  0.1175861E-01  0.6396601E+03  0.7818609E-02  0.9826377E-01
       -2   -1    0    0    0  501  0.00000000000E+00  0.00000000000E+00  0.19835165765E+03  0.19835165766E+03  0.25500000920E-02 0.  1.
        2   -1    0    0  501    0  0.00000000000E+00  0.00000000000E+00 -0.51570666495E+03  0.51570666496E+03  0.25500000920E-02 0. -1.
    10030    2    1    2    0    0  0.00000000000E+00  0.00000000000E+00 -0.31735500731E+03  0.71405832262E+03  0.63966013432E+03 0.  0.
        3    1    3    3  502    0 -0.14604409380E+03 -0.12348806654E+03  0.12748341270E+03  0.22984823390E+03  0.10100000352E+00 0.  1.
       -3    1    3    3    0  502  0.14604409380E+03  0.12348806654E+03 -0.44483842000E+03  0.48421008873E+03  0.10100000352E+00 0. -1.
</event>
<event>
 5   0  0.7266519E-02  0.6000572E+03  0.7818609E-02  0.9905287E-01
       -1   -1    0    0    0  501  0.00000000000E+00  0.00000000000E+00  0.77010876278E+02  0.77010876443E+02  0.50400001928E-02 0.  1.
        1   -1    0    0  501    0  0.00000000000E+00  0.00000000000E+00 -0.11688890986E+04  0.11688890986E+04  0.50400001928E-02 0. -1.
    10030    2    1    2    0    0  0.00000000000E+00  0.00000000000E+00 -0.10918782223E+04  0.12458999751E+04  0.60005724349E+03 0.  0.
        4    1    3    3  502    0 -0.20977302286E+03 -0.16552952559E+03 -0.82919125283E+03  0.87118568149E+03  0.12699999809E+01 0.  1.
       -4    1    3    3    0  502  0.20977302286E+03  0.16552952559E+03 -0.26268696949E+03  0.37471429357E+03  0.12699999809E+01 0. -1.
</event>
<event>
 5   0  0.1175861E-01  0.6007480E+03  0.7818609E-02  0.9903855E-01
       -2   -1    0    0    0  501  0.00000000000E+00  0.00000000000E+00  0.32442815191E+03  0.32442815192E+03  0.25500000920E-02 0. -1.
        2   -1    0    0  501    0  0.00000000000E+00  0.00000000000E+00 -0.27810334566E+03  0.27810334567E+03  0.25500000920E-02 0.  1.
    10030    2    1    2    0    0  0.00000000000E+00  0.00000000000E+00  0.46324806251E+02  0.60253149759E+03  0.60074804862E+03 0.  0.
        3    1    3    3  502    0 -0.31020079427E+02  0.12612638282E+02  0.32255019430E+03  0.32428376773E+03  0.10100000352E+00 0. -1.
       -3    1    3    3    0  502  0.31020079427E+02 -0.12612638282E+02 -0.27622538805E+03  0.27824772986E+03  0.10100000352E+00 0.  1.
</event>
<event>
 5   0  0.1146468E-01  0.6280081E+03  0.7818609E-02  0.9848944E-01
        2   -1    0    0  501    0  0.00000000000E+00  0.00000000000E+00  0.40298913769E+03  0.40298913770E+03  0.25500000920E-02 0. -1.
       -2   -1    0    0    0  501  0.00000000000E+00  0.00000000000E+00 -0.24466801766E+03  0.24466801768E+03  0.25500000920E-02 0.  1.
    10030    2    1    2    0    0  0.00000000000E+00  0.00000000000E+00  0.15832112003E+03  0.64765715537E+03  0.62800813200E+03 0.  0.
        4    1    3    3  502    0 -0.30927977739E+03  0.24619316193E+02  0.29307107683E+02  0.31164179901E+03  0.12699999809E+01 0. -1.
       -4    1    3    3    0  502  0.30927977739E+03 -0.24619316193E+02  0.12901401235E+03  0.33601535636E+03  0.12699999809E+01 0.  1.
</event>
<event>
 5   0  0.7266519E-02  0.5995020E+03  0.7818609E-02  0.9906440E-01
        1   -1    0    0  501    0  0.00000000000E+00  0.00000000000E+00  0.60524213902E+03  0.60524213904E+03  0.50400001928E-02 0. -1.
       -1   -1    0    0    0  501  0.00000000000E+00  0.00000000000E+00 -0.14845408262E+03  0.14845408271E+03  0.50400001928E-02 0.  1.
    10030    2    1    2    0    0  0.00000000000E+00  0.00000000000E+00  0.45678805640E+03  0.75369622175E+03  0.59950201519E+03 0.  0.
        4    1    3    3  502    0 -0.54959337326E+02  0.22825753837E+03 -0.58882595237E+01  0.23485807859E+03  0.12699999809E+01 0.  1.
       -4    1    3    3    0  502  0.54959337326E+02 -0.22825753837E+03  0.46267631592E+03  0.51883814316E+03  0.12699999809E+01 0. -1.
</event>
<event>
 5   0  0.7263385E-02  0.6087787E+03  0.7818609E-02  0.9887359E-01
        1   -1    0    0  501    0  0.00000000000E+00  0.00000000000E+00  0.55973732777E+03  0.55973732780E+03  0.50400001928E-02 0. -1.
       -1   -1    0    0    0  501  0.00000000000E+00  0.00000000000E+00 -0.16552919784E+03  0.16552919792E+03  0.50400001928E-02 0.  1.
    10030    2    1    2    0    0  0.00000000000E+00  0.00000000000E+00  0.39420812993E+03  0.72526652571E+03  0.60877868197E+03 0.  0.
        1    1    3    3  502    0 -0.98833157007E+02  0.15081773686E+03  0.48926079481E+03  0.52143082766E+03  0.50400001928E-02 0. -1.
       -1    1    3    3    0  502  0.98833157007E+02 -0.15081773686E+03 -0.95052664875E+02  0.20383569805E+03  0.50400001928E-02 0.  1.
</event>
<event>
 5   0  0.1219020E-01  0.6042309E+03  0.7818609E-02  0.9896667E-01
        2   -1    0    0  501    0  0.00000000000E+00  0.00000000000E+00  0.56108387689E+02  0.56108387747E+02  0.25500000920E-02 0. -1.
       -2   -1    0    0    0  501  0.00000000000E+00  0.00000000000E+00 -0.16267398186E+04  0.16267398186E+04  0.25500000920E-02 0.  1.
    10030    2    1    2    0    0  0.00000000000E+00  0.00000000000E+00 -0.15706314309E+04  0.16828482063E+04  0.60423091102E+03 0.  0.
        2    1    3    3  502    0 -0.27770110638E+02  0.83455874365E+02  0.19660830671E+02  0.90125525131E+02  0.25500000920E-02 0. -1.
       -2    1    3    3    0  502  0.27770110638E+02 -0.83455874365E+02 -0.15902922615E+04  0.15927226812E+04  0.25500000920E-02 0.  1.
</event>
<event>
 5   0  0.1175861E-01  0.5826615E+03  0.7818609E-02  0.9942045E-01
        2   -1    0    0  501    0  0.00000000000E+00  0.00000000000E+00  0.80265053873E+03  0.80265053873E+03  0.25500000920E-02 0.  1.
       -2   -1    0    0    0  501  0.00000000000E+00  0.00000000000E+00 -0.10574168455E+03  0.10574168458E+03  0.25500000920E-02 0. -1.
    10030    2    1    2    0    0  0.00000000000E+00  0.00000000000E+00  0.69690885418E+03  0.90839222331E+03  0.58266154871E+03 0.  0.
        3    1    3    3  502    0  0.26053322253E+03 -0.80041265794E+02  0.18802144328E+03  0.33111363247E+03  0.10100000352E+00 0. -1.
       -3    1    3    3    0  502 -0.26053322253E+03  0.80041265794E+02  0.50888741089E+03  0.57727859084E+03  0.10100000352E+00 0.  1.
</event>
<event>
 5   0  0.7266519E-02  0.6163515E+03  0.7818609E-02  0.9872051E-01
       -1   -1    0    0    0  501  0.00000000000E+00  0.00000000000E+00  0.32293571753E+03  0.32293571757E+03  0.50400001928E-02 0.  1.
        1   -1    0    0  501    0  0.00000000000E+00  0.00000000000E+00 -0.29409041424E+03  0.29409041428E+03  0.50400001928E-02 0. -1.
    10030    2    1    2    0    0  0.00000000000E+00  0.00000000000E+00  0.28845303293E+02  0.61702613186E+03  0.61635151973E+03 0.  0.
        4    1    3    3  502    0 -0.24313064100E+03  0.18846863424E+03 -0.39754771899E+01  0.30765297333E+03  0.12699999809E+01 0.  1.
       -4    1    3    3    0  502  0.24313064100E+03 -0.18846863424E+03  0.32820780483E+02  0.30937315852E+03  0.12699999809E+01 0. -1.
</event>
<event>
 5   0  0.7123340E-02  0.6057128E+03  0.7818609E-02  0.9893624E-01
        1   -1    0    0  501    0  0.00000000000E+00  0.00000000000E+00  0.80083876198E+03  0.80083876199E+03  0.50400001928E-02 0.  1.
       -1   -1    0    0    0  501  0.00000000000E+00  0.00000000000E+00 -0.11453242594E+03  0.11453242605E+03  0.50400001928E-02 0. -1.
    10030    2    1    2    0    0  0.00000000000E+00  0.00000000000E+00  0.68630633604E+03  0.91537118804E+03  0.60571282388E+03 0.  0.
        2    1    3    3  502    0  0.10543229731E+03 -0.61910093445E+02  0.76188427694E+03  0.77163234798E+03  0.25500000920E-02 0.  1.
       -2    1    3    3    0  502 -0.10543229731E+03  0.61910093445E+02 -0.75577940903E+02  0.14373884007E+03  0.25500000920E-02 0. -1.
</event>
<event>
 5   0  0.7263385E-02  0.6037631E+03  0.7818609E-02  0.9897629E-01
        1   -1    0    0  501    0  0.00000000000E+00  0.00000000000E+00  0.83427487768E+03  0.83427487769E+03  0.50400001928E-02 0. -1.
       -1   -1    0    0    0  501  0.00000000000E+00  0.00000000000E+00 -0.10923555921E+03  0.10923555932E+03  0.50400001928E-02 0.  1.
    10030    2    1    2    0    0  0.00000000000E+00  0.00000000000E+00  0.72503931847E+03  0.94351043701E+03  0.60376314182E+03 0.  0.
        1    1    3    3  502    0 -0.96021809448E+02  0.28098226269E+03  0.27748056976E+03  0.40640704528E+03  0.50400001928E-02 0.  1.
       -1    1    3    3    0  502  0.96021809448E+02 -0.28098226269E+03  0.44755874871E+03  0.53710339173E+03  0.50400001928E-02 0. -1.
</event>
<event>
 5   0  0.1219020E-01  0.6381763E+03  0.7818609E-02  0.9829222E-01
       -2   -1    0    0    0  501  0.00000000000E+00  0.00000000000E+00  0.35134395140E+03  0.35134395141E+03  0.25500000920E-02 0. -1.
        2   -1    0    0  501    0  0.00000000000E+00  0.00000000000E+00 -0.28979364734E+03  0.28979364736E+03  0.25500000920E-02 0.  1.
    10030    2    1    2    0    0  0.00000000000E+00  0.00000000000E+00  0.61550304061E+02  0.64113759877E+03  0.63817629275E+03 0.  0.
        2    1    3    3  502    0 -0.22927143419E+03 -0.17519914248E+03 -0.10608146806E+03  0.30743033021E+03  0.25500000920E-02 0.  1.
       -2    1    3    3    0  502  0.22927143419E+03  0.17519914248E+03  0.16763177212E+03  0.33370726856E+03  0.25500000920E-02 0. -1.
</event>
<event>
 5   0  0.4695625E-02  0.5887448E+03  0.7818609E-02  0.9929036E-01
       -3   -1    0    0    0  501  0.00000000000E+00  0.00000000000E+00  0.12572095406E+03  0.12572099463E+03  0.10100000352E+00 0. -1.
        3   -1    0    0  501    0  0.00000000000E+00  0.00000000000E+00 -0.68926520203E+03  0.68926520943E+03  0.10100000352E+00 0.  1.
    10030    2    1    2    0    0  0.00000000000E+00  0.00000000000E+00 -0.56354424797E+03  0.81498620406E+03  0.58874476082E+03 0.  0.
        3    1    3    3  502    0 -0.25989258699E+03 -0.10267804272E+03 -0.40990682372E+03  0.49609530492E+03  0.10100000352E+00 0. -1.
       -3    1    3    3    0  502  0.25989258699E+03  0.10267804272E+03 -0.15363742425E+03  0.31889089914E+03  0.10100000352E+00 0.  1.
</event>
<event>
 5   0  0.7221069E-02  0.5896354E+03  0.7818609E-02  0.9927146E-01
       -1   -1    0    0    0  501  0.00000000000E+00  0.00000000000E+00  0.42000174939E+03  0.42000174942E+03  0.50400001928E-02 0.  1.
        1   -1    0    0  501    0  0.00000000000E+00  0.00000000000E+00 -0.20694552725E+03  0.20694552732E+03  0.50400001928E-02 0. -1.
    10030    2    1    2    0    0  0.00000000000E+00  0.00000000000E+00  0.21305622213E+03  0.62694727673E+03  0.58963542466E+03 0.  0.
        5    1    3    3  502    0 -0.15912440037E+03  0.11108998708E+03  0.34245599851E+03  0.39364928672E+03  0.46999998093E+01 0.  1.
       -5    1    3    3    0  502  0.15912440037E+03 -0.11108998708E+03 -0.12939977637E+03  0.23329799002E+03  0.46999998093E+01 0. -1.
</event>
<event>
 5   0  0.7424930E-02  0.5999516E+03  0.7818609E-02  0.9905506E-01
        1   -1    0    0  501    0  0.00000000000E+00  0.00000000000E+00  0.40901105937E+03  0.40901105940E+03  0.50400001928E-02 0.  1.
       -1   -1    0    0    0  501  0.00000000000E+00  0.00000000000E+00 -0.22000744814E+03  0.22000744819E+03  0.50400001928E-02 0. -1.
    10030    2    1    2    0    0  0.00000000000E+00  0.00000000000E+00  0.18900361123E+03  0.62901850759E+03  0.59995159624E+03 0.  0.
        3    1    3    3  502    0 -0.13626991024E+03 -0.13393274304E+03  0.33695884285E+03  0.38736125267E+03  0.10100000352E+00 0.  1.
       -3    1    3    3    0  502  0.13626991024E+03  0.13393274304E+03 -0.14795523162E+03  0.24165725492E+03  0.10100000352E+00 0. -1.
</event>
<event>
 5   0  0.1175861E-01  0.5966958E+03  0.7818609E-02  0.9912285E-01
        2   -1    0    0  501    0  0.00000000000E+00  0.00000000000E+00  0.10350420560E+04  0.10350420560E+04  0.25500000920E-02 0.  1.
       -2   -1    0    0    0  501  0.00000000000E+00  0.00000000000E+00 -0.85997916921E+02  0.85997916959E+02  0.25500000920E-02 0. -1.
    10030    2    1    2    0    0  0.00000000000E+00  0.00000000000E+00  0.94904413905E+03  0.11210399729E+04  0.59669577093E+03 0.  0.
        3    1    3    3  502    0  0.20441089732E+03  0.17135412949E+03  0.22340601126E+03  0.34793147127E+03  0.10100000352E+00 0. -1.
       -3    1    3    3    0  502 -0.20441089732E+03 -0.17135412949E+03  0.72563812779E+03  0.77310850166E+03  0.10100000352E+00 0.  1.
</event>
<event>
 5   0  0.1175861E-01  0.6026496E+03  0.7818609E-02  0.9899924E-01
        2   -1    0    0  501    0  0.00000000000E+00  0.00000000000E+00  0.22683391324E+04  0.22683391324E+04  0.25500000920E-02 0.  1.
       -2   -1    0    0    0  501  0.00000000000E+00  0.00000000000E+00 -0.40027810157E+02  0.40027810238E+02  0.25500000920E-02 0. -1.
    10030    2    1    2    0    0  0.00000000000E+00  0.00000000000E+00  0.22283113222E+04  0.23083669426E+04  0.60264964368E+03 0.  0.
        3    1    3    3  502    0  0.14701325053E+03 -0.29554309684E+02  0.21152684072E+04  0.21205769964E+04  0.10100000352E+00 0.  1.
       -3    1    3    3    0  502 -0.14701325053E+03  0.29554309684E+02  0.11304291501E+03  0.18778994618E+03  0.10100000352E+00 0. -1.
</event>
<event>
 5   0  0.7263385E-02  0.4292969E+03  0.7818609E-02  0.1034082E+00
        1   -1    0    0  501    0  0.00000000000E+00  0.00000000000E+00  0.15794242811E+03  0.15794242819E+03  0.50400001928E-02 0.  1.
       -1   -1    0    0    0  501  0.00000000000E+00  0.00000000000E+00 -0.29171365953E+03  0.29171365958E+03  0.50400001928E-02 0. -1.
    10030    2    1    2    0    0  0.00000000000E+00  0.00000000000E+00 -0.13377123142E+03  0.44965608777E+03  0.42929693094E+03 0.  0.
        1    1    3    3  502    0  0.14605343440E+03  0.15726311496E+03 -0.70307132322E+02  0.22584593401E+03  0.50400001928E-02 0.  1.
       -1    1    3    3    0  502 -0.14605343440E+03 -0.15726311496E+03 -0.63464099100E+02  0.22381015376E+03  0.50400001928E-02 0. -1.
</event>
<event>
 5   0  0.1166419E-01  0.6025931E+03  0.7818609E-02  0.9900041E-01
       -2   -1    0    0    0  501  0.00000000000E+00  0.00000000000E+00  0.10363316861E+03  0.10363316864E+03  0.25500000920E-02 0. -1.
        2   -1    0    0  501    0  0.00000000000E+00  0.00000000000E+00 -0.87597058255E+03  0.87597058256E+03  0.25500000920E-02 0.  1.
    10030    2    1    2    0    0  0.00000000000E+00  0.00000000000E+00 -0.77233741394E+03  0.97960375120E+03  0.60259308691E+03 0.  0.
        1    1    3    3  502    0  0.13011028638E+03  0.26660089369E+03 -0.30053421889E+03  0.42228608772E+03  0.50400001928E-02 0. -1.
       -1    1    3    3    0  502 -0.13011028638E+03 -0.26660089369E+03 -0.47180319505E+03  0.55731766348E+03  0.50400001928E-02 0.  1.
</event>
<event>
 5   0  0.7123340E-02  0.6069563E+03  0.7818609E-02  0.9891078E-01
       -1   -1    0    0    0  501  0.00000000000E+00  0.00000000000E+00  0.10395503641E+03  0.10395503653E+03  0.50400001928E-02 0. -1.
        1   -1    0    0  501    0  0.00000000000E+00  0.00000000000E+00 -0.88595024428E+03  0.88595024430E+03  0.50400001928E-02 0.  1.
    10030    2    1    2    0    0  0.00000000000E+00  0.00000000000E+00 -0.78199520788E+03  0.98990528083E+03  0.60695630804E+03 0.  0.
        2    1    3    3  502    0 -0.63190798656E+02 -0.14948305348E+02 -0.87448740464E+03  0.87689494796E+03  0.25500000920E-02 0.  1.
       -2    1    3    3    0  502  0.63190798656E+02  0.14948305348E+02  0.92492196764E+02  0.11301033287E+03  0.25500000920E-02 0. -1.
</event>
<event>
 5   0  0.7263385E-02  0.7062265E+03  0.7818609E-02  0.9706643E-01
       -1   -1    0    0    0  501  0.00000000000E+00  0.00000000000E+00  0.29034546341E+03  0.29034546346E+03  0.50400001928E-02 0. -1.
        1   -1    0    0  501    0  0.00000000000E+00  0.00000000000E+00 -0.42945034853E+03  0.42945034856E+03  0.50400001928E-02 0.  1.
    10030    2    1    2    0    0  0.00000000000E+00  0.00000000000E+00 -0.13910488512E+03  0.71979581202E+03  0.70622648063E+03 0.  0.
        1    1    3    3  502    0  0.20661887426E+03 -0.26868595042E+03 -0.17047757611E+03  0.37940229722E+03  0.50400001928E-02 0.  1.
       -1    1    3    3    0  502 -0.20661887426E+03  0.26868595042E+03  0.31372690995E+02  0.34039351480E+03  0.50400001928E-02 0. -1.
</event>
<event>
 5   0  0.4695625E-02  0.6129394E+03  0.7818609E-02  0.9878919E-01
       -4   -1    0    0    0  501  0.00000000000E+00  0.00000000000E+00  0.22577151850E+03  0.22577509045E+03  0.12699999809E+01 0. -1.
        4   -1    0    0  501    0  0.00000000000E+00  0.00000000000E+00 -0.41600429259E+03  0.41600623115E+03  0.12699999809E+01 0.  1.
    10030    2    1    2    0    0  0.00000000000E+00  0.00000000000E+00 -0.19023277409E+03  0.64178132160E+03  0.61293943943E+03 0.  0.
        4    1    3    3  502    0  0.30279154962E+03 -0.24188552627E+02 -0.52529843935E+02  0.30826742612E+03  0.12699999809E+01 0.  1.
       -4    1    3    3    0  502 -0.30279154962E+03  0.24188552627E+02 -0.13770293016E+03  0.33351389548E+03  0.12699999809E+01 0. -1.
</event>
<event>
 5   0  0.1166419E-01  0.6942473E+03  0.7818609E-02  0.9727121E-01
        2   -1    0    0  501    0  0.00000000000E+00  0.00000000000E+00  0.56855134148E+03  0.56855134148E+03  0.25500000920E-02 0.  1.
       -2   -1    0    0    0  501  0.00000000000E+00  0.00000000000E+00 -0.21193304256E+03  0.21193304258E+03  0.25500000920E-02 0. -1.
    10030    2    1    2    0    0  0.00000000000E+00  0.00000000000E+00  0.35661829891E+03  0.78048438406E+03  0.69424726333E+03 0.  0.
        1    1    3    3  502    0 -0.48871302135E+02 -0.23498136138E+03  0.46023923970E+03  0.51906146279E+03  0.50400001928E-02 0.  1.
       -1    1    3    3    0  502  0.48871302135E+02  0.23498136138E+03 -0.10362094079E+03  0.26142292127E+03  0.50400001928E-02 0. -1.
</event>
<event>
 5   0  0.7123340E-02  0.5992797E+03  0.7818609E-02  0.9906902E-01
        1   -1    0    0  501    0  0.00000000000E+00  0.00000000000E+00  0.69286957242E+03  0.69286957244E+03  0.50400001928E-02 0.  1.
       -1   -1    0    0    0  501  0.00000000000E+00  0.00000000000E+00 -0.12958289770E+03  0.12958289780E+03  0.50400001928E-02 0. -1.
    10030    2    1    2    0    0  0.00000000000E+00  0.00000000000E+00  0.56328667472E+03  0.82245247024E+03  0.59927972424E+03 0.  0.
        2    1    3    3  502    0 -0.79179880308E+02  0.15735649631E+03 -0.51014833280E+02  0.18339311219E+03  0.25500000920E-02 0. -1.
       -2    1    3    3    0  502  0.79179880308E+02 -0.15735649631E+03  0.61430150800E+03  0.63905935805E+03  0.25500000920E-02 0.  1.
</event>
<event>
 5   0  0.7123340E-02  0.5927765E+03  0.7818609E-02  0.9920507E-01
        1   -1    0    0  501    0  0.00000000000E+00  0.00000000000E+00  0.23006737458E+03  0.23006737464E+03  0.50400001928E-02 0.  1.
       -1   -1    0    0    0  501  0.00000000000E+00  0.00000000000E+00 -0.38182730457E+03  0.38182730460E+03  0.50400001928E-02 0. -1.
    10030    2    1    2    0    0  0.00000000000E+00  0.00000000000E+00 -0.15175992998E+03  0.61189467924E+03  0.59277653642E+03 0.  0.
        2    1    3    3  502    0 -0.12318599112E+03  0.14849887181E+03 -0.30812356180E+03  0.36354756591E+03  0.25500000920E-02 0. -1.
       -2    1    3    3    0  502  0.12318599112E+03 -0.14849887181E+03  0.15636363182E+03  0.24834711333E+03  0.25500000920E-02 0.  1.
</event>
<event>
 5   0  0.1219020E-01  0.6033963E+03  0.7818609E-02  0.9898385E-01
       -2   -1    0    0    0  501  0.00000000000E+00  0.00000000000E+00  0.38654080676E+02  0.38654080760E+02  0.25500000920E-02 0. -1.
        2   -1    0    0  501    0  0.00000000000E+00  0.00000000000E+00 -0.23547781428E+04  0.23547781428E+04  0.25500000920E-02 0.  1.
    10030    2    1    2    0    0  0.00000000000E+00  0.00000000000E+00 -0.23161240621E+04  0.23934322235E+04  0.60339633544E+03 0.  0.
        2    1    3    3  502    0 -0.16467686942E+03 -0.52648219631E+02 -0.21387953130E+04  0.21457715855E+04  0.25500000920E-02 0.  1.
       -2    1    3    3    0  502  0.16467686942E+03  0.52648219631E+02 -0.17732874908E+03  0.24766063798E+03  0.25500000920E-02 0. -1.
</event>
<event>
 5   0  0.4695625E-02  0.5865851E+03  0.7818609E-02  0.9933635E-01
       -3   -1    0    0    0  501  0.00000000000E+00  0.00000000000E+00  0.70013889184E+02  0.70013962034E+02  0.10100000352E+00 0. -1.
        3   -1    0    0  501    0  0.00000000000E+00  0.00000000000E+00 -0.12286199813E+04  0.12286199854E+04  0.10100000352E+00 0.  1.
    10030    2    1    2    0    0  0.00000000000E+00  0.00000000000E+00 -0.11586060921E+04  0.12986339474E+04  0.58658507726E+03 0.  0.
        4    1    3    3  502    0  0.25922367515E+03  0.13143547238E+03 -0.49223491400E+03  0.57163714069E+03  0.12699999809E+01 0. -1.
       -4    1    3    3    0  502 -0.25922367515E+03 -0.13143547238E+03 -0.66637117808E+03  0.72699680676E+03  0.12699999809E+01 0.  1.
</event>
<event>
 5   0  0.7424930E-02  0.5997365E+03  0.7818609E-02  0.9905953E-01
        1   -1    0    0  501    0  0.00000000000E+00  0.00000000000E+00  0.26281055082E+03  0.26281055087E+03  0.50400001928E-02 0.  1.
       -1   -1    0    0    0  501  0.00000000000E+00  0.00000000000E+00 -0.34215126439E+03  0.34215126442E+03  0.50400001928E-02 0. -1.
    10030    2    1    2    0    0  0.00000000000E+00  0.00000000000E+00 -0.79340713567E+02  0.60496181529E+03  0.59973648308E+03 0.  0.
        3    1    3    3  502    0  0.22492585308E+03 -0.16678793879E+01  0.16036663432E+03  0.27624606569E+03  0.10100000352E+00 0.  1.
       -3    1    3    3    0  502 -0.22492585308E+03  0.16678793879E+01 -0.23970734788E+03  0.32871574960E+03  0.10100000352E+00 0. -1.
</event>
<event>
 5   0  0.1206238E-01  0.5919339E+03  0.7818609E-02  0.9922283E-01
       -2   -1    0    0    0  501  0.00000000000E+00  0.00000000000E+00  0.17142098958E+03  0.17142098959E+03  0.25500000920E-02 0. -1.
        2   -1    0    0  501    0  0.00000000000E+00  0.00000000000E+00 -0.51100177690E+03  0.51100177691E+03  0.25500000920E-02 0.  1.
    10030    2    1    2    0    0  0.00000000000E+00  0.00000000000E+00 -0.33958078732E+03  0.68242276650E+03  0.59193388239E+03 0.  0.
        5    1    3    3  502    0 -0.29209832691E+02  0.39569852085E+02 -0.50621386170E+03  0.50861925965E+03  0.46999998093E+01 0.  1.
       -5    1    3    3    0  502  0.29209832691E+02 -0.39569852085E+02  0.16663307437E+03  0.17380350685E+03  0.46999998093E+01 0. -1.
</event>
<event>
 5   0  0.7424930E-02  0.5947927E+03  0.7818609E-02  0.9916269E-01
        1   -1    0    0  501    0  0.00000000000E+00  0.00000000000E+00  0.18942306896E+03  0.18942306903E+03  0.50400001928E-02 0.  1.
       -1   -1    0    0    0  501  0.00000000000E+00  0.00000000000E+00 -0.46691556828E+03  0.46691556831E+03  0.50400001928E-02 0. -1.
    10030    2    1    2    0    0  0.00000000000E+00  0.00000000000E+00 -0.27749249932E+03  0.65633863734E+03  0.59479266949E+03 0.  0.
        3    1    3    3  502    0 -0.13302130926E+02  0.46965742641E+02  0.18497237181E+03  0.19130477308E+03  0.10100000352E+00 0.  1.
       -3    1    3    3    0  502  0.13302130926E+02 -0.46965742641E+02 -0.46246487114E+03  0.46503386426E+03  0.10100000352E+00 0. -1.
</event>
<event>
 5   0  0.1219020E-01  0.6033652E+03  0.7818609E-02  0.9898449E-01
       -2   -1    0    0    0  501  0.00000000000E+00  0.00000000000E+00  0.22302674809E+03  0.22302674811E+03  0.25500000920E-02 0.  1.
        2   -1    0    0  501    0  0.00000000000E+00  0.00000000000E+00 -0.40807834186E+03  0.40807834187E+03  0.25500000920E-02 0. -1.
    10030    2    1    2    0    0  0.00000000000E+00  0.00000000000E+00 -0.18505159377E+03  0.63110508997E+03  0.60336518149E+03 0.  0.
        2    1    3    3  502    0 -0.26073953569E+03  0.10570028680E+02 -0.25086433253E+03  0.36198030930E+03  0.25500000920E-02 0. -1.
       -2    1    3    3    0  502  0.26073953569E+03 -0.10570028680E+02  0.65812738764E+02  0.26912478067E+03  0.25500000920E-02 0.  1.
</event>
<event>
 5   0  0.1146468E-01  0.6204538E+03  0.7818609E-02  0.9863857E-01
       -2   -1    0    0    0  501  0.00000000000E+00  0.00000000000E+00  0.11972697290E+03  0.11972697293E+03  0.25500000920E-02 0. -1.
        2   -1    0    0  501    0  0.00000000000E+00  0.00000000000E+00 -0.80383500125E+03  0.80383500125E+03  0.25500000920E-02 0.  1.
    10030    2    1    2    0    0  0.00000000000E+00  0.00000000000E+00 -0.68410802834E+03  0.92356197418E+03  0.62045380627E+03 0.  0.
        4    1    3    3  502    0 -0.25233941205E+03 -0.16707224458E+03 -0.24054125230E+03  0.38658766242E+03  0.12699999809E+01 0. -1.
       -4    1    3    3    0  502  0.25233941205E+03  0.16707224458E+03 -0.44356677604E+03  0.53697431176E+03  0.12699999809E+01 0.  1.
</event>
<event>
 5   0  0.7263385E-02  0.6071853E+03  0.7818609E-02  0.9890610E-01
       -1   -1    0    0    0  501  0.00000000000E+00  0.00000000000E+00  0.21771682430E+03  0.21771682435E+03  0.50400001928E-02 0.  1.
        1   -1    0    0  501    0  0.00000000000E+00  0.00000000000E+00 -0.42334121767E+03  0.42334121770E+03  0.50400001928E-02 0. -1.
    10030    2    1    2    0    0  0.00000000000E+00  0.00000000000E+00 -0.20562439337E+03  0.64105804205E+03  0.60718532766E+03 0.  0.
        1    1    3    3  502    0  0.53405337938E+02 -0.21267638218E+03  0.11886557960E+03  0.24942413616E+03  0.50400001928E-02 0.  1.
       -1    1    3    3    0  502 -0.53405337938E+02  0.21267638218E+03 -0.32448997297E+03  0.39163390589E+03  0.50400001928E-02 0. -1.
</event>
<event>
 5   0  0.1175861E-01  0.6082444E+03  0.7818609E-02  0.9888448E-01
        2   -1    0    0  501    0  0.00000000000E+00  0.00000000000E+00  0.14967024120E+03  0.14967024123E+03  0.25500000920E-02 0. -1.
       -2   -1    0    0    0  501  0.00000000000E+00  0.00000000000E+00 -0.61796053988E+03  0.61796053988E+03  0.25500000920E-02 0.  1.
    10030    2    1    2    0    0  0.00000000000E+00  0.00000000000E+00 -0.46829029867E+03  0.76763078111E+03  0.60824436888E+03 0.  0.
        3    1    3    3  502    0  0.23611381773E+03 -0.11920198217E+03 -0.44706403224E+02  0.26824898913E+03  0.10100000352E+00 0. -1.
       -3    1    3    3    0  502 -0.23611381773E+03  0.11920198217E+03 -0.42358389545E+03  0.49938179198E+03  0.10100000352E+00 0.  1.
</event>
<event>
 5   0  0.1219020E-01  0.5912129E+03  0.7818609E-02  0.9923806E-01
       -2   -1    0    0    0  501  0.00000000000E+00  0.00000000000E+00  0.14894416277E+03  0.14894416280E+03  0.25500000920E-02 0. -1.
        2   -1    0    0  501    0  0.00000000000E+00  0.00000000000E+00 -0.58668419189E+03  0.58668419189E+03  0.25500000920E-02 0.  1.
    10030    2    1    2    0    0  0.00000000000E+00  0.00000000000E+00 -0.43774002912E+03  0.73562835469E+03  0.59121294229E+03 0.  0.
        2    1    3    3  502    0 -0.27114639743E+03 -0.74777447840E+02 -0.33203119850E+03  0.43515141311E+03  0.25500000920E-02 0.  1.
       -2    1    3    3    0  502  0.27114639743E+03  0.74777447840E+02 -0.10570883062E+03  0.30047694158E+03  0.25500000920E-02 0. -1.
</event>
<event>
 5   0  0.7424930E-02  0.8081181E+03  0.7818609E-02  0.9548340E-01
       -1   -1    0    0    0  501  0.00000000000E+00  0.00000000000E+00  0.46343381743E+03  0.46343381746E+03  0.50400001928E-02 0. -1.
        1   -1    0    0  501    0  0.00000000000E+00  0.00000000000E+00 -0.35229131411E+03  0.35229131414E+03  0.50400001928E-02 0.  1.
    10030    2    1    2    0    0  0.00000000000E+00  0.00000000000E+00  0.11114250333E+03  0.81572513160E+03  0.80811808189E+03 0.  0.
        3    1    3    3  502    0 -0.92148949795E+02 -0.29419919121E+03 -0.20807525908E+03  0.37194074353E+03  0.10100000352E+00 0.  1.
       -3    1    3    3    0  502  0.92148949795E+02  0.29419919121E+03  0.31921776241E+03  0.44378438807E+03  0.10100000352E+00 0. -1.
</event>
<event>
 5   0  0.7424930E-02  0.6193157E+03  0.7818609E-02  0.9866123E-01
        1   -1    0    0  501    0  0.00000000000E+00  0.00000000000E+00  0.12965612658E+04  0.12965612658E+04  0.50400001928E-02 0. -1.
       -1   -1    0    0    0  501  0.00000000000E+00  0.00000000000E+00 -0.73955607935E+02  0.73955608107E+02  0.50400001928E-02 0.  1.
    10030    2    1    2    0    0  0.00000000000E+00  0.00000000000E+00  0.12226056578E+04  0.13705168739E+04  0.61931567641E+03 0.  0.
        3    1    3    3  502    0  0.56336722818E+01 -0.64177865870E+02 -0.58960714292E+02  0.87332197739E+02  0.10100000352E+00 0.  1.
       -3    1    3    3    0  502 -0.56336722818E+01  0.64177865870E+02  0.12815663721E+04  0.12831846762E+04  0.10100000352E+00 0. -1.
</event>
<event>
 5   0  0.7266519E-02  0.6028857E+03  0.7818609E-02  0.9899437E-01
        1   -1    0    0  501    0  0.00000000000E+00  0.00000000000E+00  0.58777456717E+03  0.58777456719E+03  0.50400001928E-02 0. -1.
       -1   -1    0    0    0  501  0.00000000000E+00  0.00000000000E+00 -0.15459633088E+03  0.15459633096E+03  0.50400001928E-02 0.  1.
    10030    2    1    2    0    0  0.00000000000E+00  0.00000000000E+00  0.43317823628E+03  0.74237089815E+03  0.60288569898E+03 0.  0.
        4    1    3    3  502    0  0.22769093932E+03  0.10602918088E+03  0.11350753282E+02  0.25142753140E+03  0.12699999809E+01 0.  1.
       -4    1    3    3    0  502 -0.22769093932E+03 -0.10602918088E+03  0.42182748300E+03  0.49094336675E+03  0.12699999809E+01 0. -1.
</event>
<event>
 5   0  0.1175861E-01  0.5974623E+03  0.7818609E-02  0.9910685E-01
       -2   -1    0    0    0  501  0.00000000000E+00  0.00000000000E+00  0.33870554490E+03  0.33870554491E+03  0.25500000920E-02 0. -1.
        2   -1    0    0  501    0  0.00000000000E+00  0.00000000000E+00 -0.26347461256E+03  0.26347461257E+03  0.25500000920E-02 0.  1.
    10030    2    1    2    0    0  0.00000000000E+00  0.00000000000E+00  0.75230932339E+02  0.60218015749E+03  0.59746234098E+03 0.  0.
        3    1    3    3  502    0  0.65188637913E+02  0.12251581508E+03  0.30424287568E+03  0.33440009129E+03  0.10100000352E+00 0. -1.
       -3    1    3    3    0  502 -0.65188637913E+02 -0.12251581508E+03 -0.22901194334E+03  0.26778006619E+03  0.10100000352E+00 0.  1.
</event>
<event>
 5   0  0.1219020E-01  0.6230782E+03  0.7818609E-02  0.9858650E-01
       -2   -1    0    0    0  501  0.00000000000E+00  0.00000000000E+00  0.19198592440E+03  0.19198592441E+03  0.25500000920E-02 0.  1.
        2   -1    0    0  501    0  0.00000000000E+00  0.00000000000E+00 -0.50554032179E+03  0.50554032179E+03  0.25500000920E-02 0. -1.
    10030    2    1    2    0    0  0.00000000000E+00  0.00000000000E+00 -0.31355439739E+03  0.69752624621E+03  0.62307824872E+03 0.  0.
        2    1    3    3  502    0 -0.21613028997E+02 -0.26218137830E+03 -0.34360172889E+03  0.43274512851E+03  0.25500000920E-02 0. -1.
       -2    1    3    3    0  502  0.21613028997E+02  0.26218137830E+03  0.30047331498E+02  0.26478111769E+03  0.25500000920E-02 0.  1.
</event>
<event>
 5   0  0.1146468E-01  0.6166899E+03  0.7818609E-02  0.9871372E-01
        2   -1    0    0  501    0  0.00000000000E+00  0.00000000000E+00  0.69607566009E+03  0.69607566009E+03  0.25500000920E-02 0.  1.
       -2   -1    0    0    0  501  0.00000000000E+00  0.00000000000E+00 -0.13658946896E+03  0.13658946899E+03  0.25500000920E-02 0. -1.
    10030    2    1    2    0    0  0.00000000000E+00  0.00000000000E+00  0.55948619113E+03  0.83266512908E+03  0.61668988894E+03 0.  0.
        4    1    3    3  502    0 -0.10840199753E+03 -0.22481612354E+02  0.66831145046E+03  0.67742027109E+03  0.12699999809E+01 0.  1.
       -4    1    3    3    0  502  0.10840199753E+03  0.22481612354E+02 -0.10882525933E+03  0.15524485799E+03  0.12699999809E+01 0. -1.
</event>
<event>
 5   0  0.7123340E-02  0.5850360E+03  0.7818609E-02  0.9936947E-01
       -1   -1    0    0    0  501  0.00000000000E+00  0.00000000000E+00  0.79302377596E+02  0.79302377756E+02  0.50400001928E-02 0. -1.
        1   -1    0    0  501    0  0.00000000000E+00  0.00000000000E+00 -0.10789938114E+04  0.10789938114E+04  0.50400001928E-02 0.  1.
    10030    2    1    2    0    0  0.00000000000E+00  0.00000000000E+00 -0.99969143380E+03  0.11582961892E+04  0.58503598096E+03 0.  0.
        2    1    3    3  502    0 -0.51544953144E+02 -0.16012446721E+03 -0.97365200748E+03  0.98807639324E+03  0.25500000920E-02 0.  1.
       -2    1    3    3    0  502  0.51544953144E+02  0.16012446721E+03 -0.26039426315E+02  0.17021979592E+03  0.25500000920E-02 0. -1.
</event>
<event>
 5   0  0.4695625E-02  0.6034349E+03  0.7818609E-02  0.9898305E-01
        3   -1    0    0  501    0  0.00000000000E+00  0.00000000000E+00  0.21889316658E+03  0.21889318989E+03  0.10100000352E+00 0.  1.
       -3   -1    0    0    0  501  0.00000000000E+00  0.00000000000E+00 -0.41588048121E+03  0.41588049347E+03  0.10100000352E+00 0. -1.
    10030    2    1    2    0    0  0.00000000000E+00  0.00000000000E+00 -0.19698731462E+03  0.63477368336E+03  0.60343485726E+03 0.  0.
        2    1    3    3  502    0 -0.25956059274E+03  0.12472757080E+03 -0.19319541151E+03  0.34677533830E+03  0.25500000920E-02 0. -1.
       -2    1    3    3    0  502  0.25956059274E+03 -0.12472757080E+03 -0.37919031150E+01  0.28799834506E+03  0.25500000920E-02 0.  1.
</event>
<event>
 5   0  0.1175861E-01  0.5935816E+03  0.7818609E-02  0.9918812E-01
       -2   -1    0    0    0  501  0.00000000000E+00  0.00000000000E+00  0.92295460909E+02  0.92295460944E+02  0.25500000920E-02 0.  1.
        2   -1    0    0  501    0  0.00000000000E+00  0.00000000000E+00 -0.95437818357E+03  0.95437818358E+03  0.25500000920E-02 0. -1.
    10030    2    1    2    0    0  0.00000000000E+00  0.00000000000E+00 -0.86208272266E+03  0.10466736445E+04  0.59358158447E+03 0.  0.
        3    1    3    3  502    0  0.25096227069E+03  0.15618482678E+03 -0.47799343992E+03  0.56200845210E+03  0.10100000352E+00 0. -1.
       -3    1    3    3    0  502 -0.25096227069E+03 -0.15618482678E+03 -0.38408928274E+03  0.48466519242E+03  0.10100000352E+00 0.  1.
</event>
<event>
 5   0  0.1219020E-01  0.5956015E+03  0.7818609E-02  0.9914574E-01
        2   -1    0    0  501    0  0.00000000000E+00  0.00000000000E+00  0.83779352269E+03  0.83779352269E+03  0.25500000920E-02 0.  1.
       -2   -1    0    0    0  501  0.00000000000E+00  0.00000000000E+00 -0.10585578917E+03  0.10585578920E+03  0.25500000920E-02 0. -1.
    10030    2    1    2    0    0  0.00000000000E+00  0.00000000000E+00  0.73193773351E+03  0.94364931190E+03  0.59560152627E+03 0.  0.
        2    1    3    3  502    0  0.11742145320E+03  0.15424753911E+03  0.78004029895E+01  0.19401275032E+03  0.25500000920E-02 0. -1.
       -2    1    3    3    0  502 -0.11742145320E+03 -0.15424753911E+03  0.72413733053E+03  0.74963656158E+03  0.25500000920E-02 0.  1.
</event>
<event>
 5   0  0.7263385E-02  0.6069020E+03  0.7818609E-02  0.9891189E-01
       -1   -1    0    0    0  501  0.00000000000E+00  0.00000000000E+00  0.31221953760E+03  0.31221953764E+03  0.50400001928E-02 0.  1.
        1   -1    0    0  501    0  0.00000000000E+00  0.00000000000E+00 -0.29492868041E+03  0.29492868046E+03  0.50400001928E-02 0. -1.
    10030    2    1    2    0    0  0.00000000000E+00  0.00000000000E+00  0.17290857184E+02  0.60714821809E+03  0.60690195665E+03 0.  0.
        1    1    3    3  502    0  0.93600603745E+02 -0.20559905861E+03 -0.19404589086E+03  0.29780170199E+03  0.50400001928E-02 0. -1.
       -1    1    3    3    0  502 -0.93600603745E+02  0.20559905861E+03  0.21133674805E+03  0.30934651610E+03  0.50400001928E-02 0.  1.
</event>
<event>
 5   0  0.7424930E-02  0.5946156E+03  0.7818609E-02  0.9916640E-01
        1   -1    0    0  501    0  0.00000000000E+00  0.00000000000E+00  0.47754055985E+03  0.47754055988E+03  0.50400001928E-02 0.  1.
       -1   -1    0    0    0  501  0.00000000000E+00  0.00000000000E+00 -0.18509825829E+03  0.18509825836E+03  0.50400001928E-02 0. -1.
    10030    2    1    2    0    0  0.00000000000E+00  0.00000000000E+00  0.29244230156E+03  0.66263881824E+03  0.59461559322E+03 0.  0.
        3    1    3    3  502    0  0.10392410655E+03 -0.17136351706E+03  0.39094837545E+03  0.43932484265E+03  0.10100000352E+00 0.  1.
       -3    1    3    3    0  502 -0.10392410655E+03  0.17136351706E+03 -0.98506073894E+02  0.22331397559E+03  0.10100000352E+00 0. -1.
</event>
<event>
 5   0  0.7266519E-02  0.5929231E+03  0.7818609E-02  0.9920198E-01
       -1   -1    0    0    0  501  0.00000000000E+00  0.00000000000E+00  0.61429746071E+02  0.61429746278E+02  0.50400001928E-02 0.  1.
        1   -1    0    0  501    0  0.00000000000E+00  0.00000000000E+00 -0.14307311386E+04  0.14307311386E+04  0.50400001928E-02 0. -1.
    10030    2    1    2    0    0  0.00000000000E+00  0.00000000000E+00 -0.13693013925E+04  0.14921608849E+04  0.59292310024E+03 0.  0.
        4    1    3    3  502    0  0.21929288270E+03 -0.15573136803E+03 -0.99843379764E+03  0.10340277020E+04  0.12699999809E+01 0. -1.
       -4    1    3    3    0  502 -0.21929288270E+03  0.15573136803E+03 -0.37086759486E+03  0.45813318283E+03  0.12699999809E+01 0.  1.
</event>
<event>
 5   0  0.4695625E-02  0.4553375E+03  0.7818609E-02  0.1026142E+00
       -3   -1    0    0    0  501  0.00000000000E+00  0.00000000000E+00  0.10519121542E+03  0.10519126391E+03  0.10100000352E+00 0. -1.
        3   -1    0    0  501    0  0.00000000000E+00  0.00000000000E+00 -0.49275070416E+03  0.49275071451E+03  0.10100000352E+00 0.  1.
    10030    2    1    2    0    0  0.00000000000E+00  0.00000000000E+00 -0.38755948874E+03  0.59794197842E+03  0.45533751465E+03 0.  0.
        4    1    3    3  502    0 -0.18600242851E+03 -0.12234296273E+02 -0.22134634622E+02  0.18771823664E+03  0.12699999809E+01 0. -1.
       -4    1    3    3    0  502  0.18600242851E+03  0.12234296273E+02 -0.36542485412E+03  0.41022374178E+03  0.12699999809E+01 0.  1.
</event>
<event>
 5   0  0.7263385E-02  0.5682078E+03  0.7818609E-02  0.9973652E-01
        1   -1    0    0  501    0  0.00000000000E+00  0.00000000000E+00  0.11225686172E+03  0.11225686183E+03  0.50400001928E-02 0.  1.
       -1   -1    0    0    0  501  0.00000000000E+00  0.00000000000E+00 -0.71902098644E+03  0.71902098646E+03  0.50400001928E-02 0. -1.
    10030    2    1    2    0    0  0.00000000000E+00  0.00000000000E+00 -0.60676412472E+03  0.83127784829E+03  0.56820784754E+03 0.  0.
        1    1    3    3  502    0 -0.26510317433E+03  0.87278067686E+02 -0.22572148071E+03  0.35895311813E+03  0.50400001928E-02 0.  1.
       -1    1    3    3    0  502  0.26510317433E+03 -0.87278067686E+02 -0.38104264401E+03  0.47232473016E+03  0.50400001928E-02 0. -1.
</event>
<event>
 5   0  0.1175861E-01  0.5875473E+03  0.7818609E-02  0.9931584E-01
       -2   -1    0    0    0  501  0.00000000000E+00  0.00000000000E+00  0.24668636441E+03  0.24668636442E+03  0.25500000920E-02 0. -1.
        2   -1    0    0  501    0  0.00000000000E+00  0.00000000000E+00 -0.34984892208E+03  0.34984892209E+03  0.25500000920E-02 0.  1.
    10030    2    1    2    0    0  0.00000000000E+00  0.00000000000E+00 -0.10316255768E+03  0.59653528651E+03  0.58754730427E+03 0.  0.
        3    1    3    3  502    0  0.10534536146E+03 -0.20612559602E+03 -0.23522819265E+03  0.33002684639E+03  0.10100000352E+00 0.  1.
       -3    1    3    3    0  502 -0.10534536146E+03  0.20612559602E+03  0.13206563497E+03  0.26650844013E+03  0.10100000352E+00 0. -1.
</event>
<event>
 5   0  0.7123340E-02  0.5962370E+03  0.7818609E-02  0.9913244E-01
        1   -1    0    0  501    0  0.00000000000E+00  0.00000000000E+00  0.84625194734E+03  0.84625194736E+03  0.50400001928E-02 0. -1.
       -1   -1    0    0    0  501  0.00000000000E+00  0.00000000000E+00 -0.10502149040E+03  0.10502149052E+03  0.50400001928E-02 0.  1.
    10030    2    1    2    0    0  0.00000000000E+00  0.00000000000E+00  0.74123045694E+03  0.95127343787E+03  0.59623700263E+03 0.  0.
        2    1    3    3  502    0  0.19145410332E+03  0.22645712258E+03  0.32177379524E+03  0.43757956688E+03  0.25500000920E-02 0.  1.
       -2    1    3    3    0  502 -0.19145410332E+03 -0.22645712258E+03  0.41945666171E+03  0.51369387100E+03  0.25500000920E-02 0. -1.
</event>
<event>
 5   0  0.1166419E-01  0.4948634E+03  0.7818609E-02  0.1015128E+00
       -2   -1    0    0    0  501  0.00000000000E+00  0.00000000000E+00  0.55306669584E+02  0.55306669643E+02  0.25500000920E-02 0. -1.
        2   -1    0    0  501    0  0.00000000000E+00  0.00000000000E+00 -0.11069630985E+04  0.11069630985E+04  0.25500000920E-02 0.  1.
    10030    2    1    2    0    0  0.00000000000E+00  0.00000000000E+00 -0.10516564289E+04  0.11622697681E+04  0.49486338464E+03 0.  0.
        1    1    3    3  502    0 -0.10796965301E+03  0.15568912653E+03 -0.15205859558E+03  0.24293696015E+03  0.50400001928E-02 0. -1.
       -1    1    3    3    0  502  0.10796965301E+03 -0.15568912653E+03 -0.89959783331E+03  0.91933280797E+03  0.50400001928E-02 0.  1.
</event>
<event>
 5   0  0.7123340E-02  0.6141005E+03  0.7818609E-02  0.9876576E-01
       -1   -1    0    0    0  501  0.00000000000E+00  0.00000000000E+00  0.15864672051E+03  0.15864672059E+03  0.50400001928E-02 0.  1.
        1   -1    0    0  501    0  0.00000000000E+00  0.00000000000E+00 -0.59427555493E+03  0.59427555495E+03  0.50400001928E-02 0. -1.
    10030    2    1    2    0    0  0.00000000000E+00  0.00000000000E+00 -0.43562883442E+03  0.75292227554E+03  0.61410053870E+03 0.  0.
        2    1    3    3  502    0 -0.20285532589E+03 -0.14823450860E+02 -0.49983378376E+03  0.53963305063E+03  0.25500000920E-02 0. -1.
       -2    1    3    3    0  502  0.20285532589E+03  0.14823450860E+02  0.64204949345E+02  0.21328922491E+03  0.25500000920E-02 0.  1.
</event>
<event>
 5   0  0.7424930E-02  0.6010931E+03  0.7818609E-02  0.9903141E-01
       -1   -1    0    0    0  501  0.00000000000E+00  0.00000000000E+00  0.93000550209E+03  0.93000550211E+03  0.50400001928E-02 0. -1.
        1   -1    0    0  501    0  0.00000000000E+00  0.00000000000E+00 -0.97126548902E+02  0.97126549033E+02  0.50400001928E-02 0.  1.
    10030    2    1    2    0    0  0.00000000000E+00  0.00000000000E+00  0.83287895319E+03  0.10271320511E+04  0.60109308747E+03 0.  0.
        3    1    3    3  502    0  0.23606397420E+03 -0.16003491661E+03  0.57846546876E+03  0.64494936483E+03  0.10100000352E+00 0.  1.
       -3    1    3    3    0  502 -0.23606397420E+03  0.16003491661E+03  0.25441348443E+03  0.38218268631E+03  0.10100000352E+00 0. -1.
</event>
<event>
 5   0  0.1166419E-01  0.6001250E+03  0.7818609E-02  0.9905147E-01
        2   -1    0    0  501    0  0.00000000000E+00  0.00000000000E+00  0.80102616741E+03  0.80102616741E+03  0.25500000920E-02 0. -1.
       -2   -1    0    0    0  501  0.00000000000E+00  0.00000000000E+00 -0.11240268442E+03  0.11240268445E+03  0.25500000920E-02 0.  1.
    10030    2    1    2    0    0  0.00000000000E+00  0.00000000000E+00  0.68862348299E+03  0.91342885187E+03  0.60012495874E+03 0.  0.
        1    1    3    3  502    0 -0.25387469845E+03  0.14710765608E+03  0.24871850346E+03  0.38464778562E+03  0.50400001928E-02 0.  1.
       -1    1    3    3    0  502  0.25387469845E+03 -0.14710765608E+03  0.43990497952E+03  0.52878106625E+03  0.50400001928E-02 0. -1.
</event>
<event>
 5   0  0.7266519E-02  0.5847465E+03  0.7818609E-02  0.9937567E-01
       -1   -1    0    0    0  501  0.00000000000E+00  0.00000000000E+00  0.21585301774E+03  0.21585301780E+03  0.50400001928E-02 0.  1.
        1   -1    0    0  501    0  0.00000000000E+00  0.00000000000E+00 -0.39602007284E+03  0.39602007287E+03  0.50400001928E-02 0. -1.
    10030    2    1    2    0    0  0.00000000000E+00  0.00000000000E+00 -0.18016705510E+03  0.61187309067E+03  0.58474653598E+03 0.  0.
        4    1    3    3  502    0  0.24009432266E+03  0.40881595663E+02 -0.25933994913E+03  0.35577438180E+03  0.12699999809E+01 0. -1.
       -4    1    3    3    0  502 -0.24009432266E+03 -0.40881595663E+02  0.79172894026E+02  0.25609870887E+03  0.12699999809E+01 0.  1.
</event>
<event>
 5   0  0.1219020E-01  0.5892391E+03  0.7818609E-02  0.9927986E-01
       -2   -1    0    0    0  501  0.00000000000E+00  0.00000000000E+00  0.14965785480E+03  0.14965785482E+03  0.25500000920E-02 0.  1.
        2   -1    0    0  501    0  0.00000000000E+00  0.00000000000E+00 -0.57999419485E+03  0.57999419486E+03  0.25500000920E-02 0. -1.
    10030    2    1    2    0    0  0.00000000000E+00  0.00000000000E+00 -0.43033634005E+03  0.72965204968E+03  0.58923912636E+03 0.  0.
        2    1    3    3  502    0 -0.17958615540E+03 -0.21805390082E+03 -0.11155018013E+03  0.30371390084E+03  0.25500000920E-02 0.  1.
       -2    1    3    3    0  502  0.17958615540E+03  0.21805390082E+03 -0.31878615992E+03  0.42593814883E+03  0.25500000920E-02 0. -1.
</event>
<event>
 5   0  0.7424930E-02  0.6230567E+03  0.7818609E-02  0.9858693E-01
       -1   -1    0    0    0  501  0.00000000000E+00  0.00000000000E+00  0.48725978353E+03  0.48725978356E+03  0.50400001928E-02 0. -1.
        1   -1    0    0  501    0  0.00000000000E+00  0.00000000000E+00 -0.19917488555E+03  0.19917488561E+03  0.50400001928E-02 0.  1.
    10030    2    1    2    0    0  0.00000000000E+00  0.00000000000E+00  0.28808489798E+03  0.68643466917E+03  0.62305669613E+03 0.  0.
        3    1    3    3  502    0  0.26277037851E+02 -0.31005648904E+03  0.16054593342E+03  0.35014356492E+03  0.10100000352E+00 0. -1.
       -3    1    3    3    0  502 -0.26277037851E+02  0.31005648904E+03  0.12753896456E+03  0.33629110425E+03  0.10100000352E+00 0.  1.
</event>
<event>
 5   0  0.1175861E-01  0.5922530E+03  0.7818609E-02  0.9921610E-01
       -2   -1    0    0    0  501  0.00000000000E+00  0.00000000000E+00  0.79836833762E+02  0.79836833803E+02  0.25500000920E-02 0.  1.
        2   -1    0    0  501    0  0.00000000000E+00  0.00000000000E+00 -0.10983764072E+04  0.10983764073E+04  0.25500000920E-02 0. -1.
    10030    2    1    2    0    0  0.00000000000E+00  0.00000000000E+00 -0.10185395735E+04  0.11782132411E+04  0.59225296845E+03 0.  0.
        3    1    3    3  502    0  0.13318363499E+03 -0.14188956449E+03 -0.95330771049E+03  0.97296769228E+03  0.10100000352E+00 0. -1.
       -3    1    3    3    0  502 -0.13318363499E+03  0.14188956449E+03 -0.65231863001E+02  0.20524554878E+03  0.10100000352E+00 0.  1.
</event>
<event>
 5   0  0.7123340E-02  0.5756850E+03  0.7818609E-02  0.9957177E-01
        1   -1    0    0  501    0  0.00000000000E+00  0.00000000000E+00  0.24367246961E+03  0.24367246966E+03  0.50400001928E-02 0.  1.
       -1   -1    0    0    0  501  0.00000000000E+00  0.00000000000E+00 -0.34001916509E+03  0.34001916513E+03  0.50400001928E-02 0. -1.
    10030    2    1    2    0    0  0.00000000000E+00  0.00000000000E+00 -0.96346695476E+02  0.58369163479E+03  0.57568501700E+03 0.  0.
        2    1    3    3  502    0  0.68862540335E+01  0.20346621704E+03  0.15814481379E+03  0.25779003880E+03  0.25500000920E-02 0.  1.
       -2    1    3    3    0  502 -0.68862540335E+01 -0.20346621704E+03 -0.25449150926E+03  0.32590159599E+03  0.25500000920E-02 0. -1.
</event>
<event>
 5   0  0.1219020E-01  0.6038363E+03  0.7818609E-02  0.9897479E-01
       -2   -1    0    0    0  501  0.00000000000E+00  0.00000000000E+00  0.40792970429E+03  0.40792970430E+03  0.25500000920E-02 0.  1.
        2   -1    0    0  501    0  0.00000000000E+00  0.00000000000E+00 -0.22345659555E+03  0.22345659557E+03  0.25500000920E-02 0. -1.
    10030    2    1    2    0    0  0.00000000000E+00  0.00000000000E+00  0.18447310874E+03  0.63138629987E+03  0.60383634522E+03 0.  0.
        2    1    3    3  502    0 -0.79835981725E+02  0.52788454814E+02 -0.20717421171E+03  0.22821384476E+03  0.25500000920E-02 0. -1.
       -2    1    3    3    0  502  0.79835981725E+02 -0.52788454814E+02  0.39164732044E+03  0.40317245510E+03  0.25500000920E-02 0.  1.
</event>
<event>
 5   0  0.1166419E-01  0.6039771E+03  0.7818609E-02  0.9897189E-01
       -2   -1    0    0    0  501  0.00000000000E+00  0.00000000000E+00  0.62136301355E+03  0.62136301356E+03  0.25500000920E-02 0. -1.
        2   -1    0    0  501    0  0.00000000000E+00  0.00000000000E+00 -0.14676940300E+03  0.14676940302E+03  0.25500000920E-02 0.  1.
    10030    2    1    2    0    0  0.00000000000E+00  0.00000000000E+00  0.47459361055E+03  0.76813241658E+03  0.60397708087E+03 0.  0.
        1    1    3    3  502    0  0.19639718168E+02 -0.24319194085E+03  0.10971516384E+02  0.24423024551E+03  0.50400001928E-02 0.  1.
       -1    1    3    3    0  502 -0.19639718168E+02  0.24319194085E+03  0.46362209417E+03  0.52390217107E+03  0.50400001928E-02 0. -1.
</event>
<event>
 5   0  0.7263385E-02  0.5975897E+03  0.7818609E-02  0.9910419E-01
        1   -1    0    0  501    0  0.00000000000E+00  0.00000000000E+00  0.92985995237E+03  0.92985995239E+03  0.50400001928E-02 0.  1.
       -1   -1    0    0    0  501  0.00000000000E+00  0.00000000000E+00 -0.96012699047E+02  0.96012699179E+02  0.50400001928E-02 0. -1.
    10030    2    1    2    0    0  0.00000000000E+00  0.00000000000E+00  0.83384725333E+03  0.10258726516E+04  0.59758970486E+03 0.  0.
        1    1    3    3  502    0 -0.94775013470E+02 -0.28282178376E+03  0.38680087287E+03  0.48845202408E+03  0.50400001928E-02 0.  1.
       -1    1    3    3    0  502  0.94775013470E+02  0.28282178376E+03  0.44704638046E+03  0.53742062749E+03  0.50400001928E-02 0. -1.
</event>
<event>
 5   0  0.7123340E-02  0.5062994E+03  0.7818609E-02  0.1012148E+00
       -1   -1    0    0    0  501  0.00000000000E+00  0.00000000000E+00  0.82058164117E+02  0.82058164272E+02  0.50400001928E-02 0.  1.
        1   -1    0    0  501    0  0.00000000000E+00  0.00000000000E+00 -0.78096777097E+03  0.78096777099E+03  0.50400001928E-02 0. -1.
    10030    2    1    2    0    0  0.00000000000E+00  0.00000000000E+00 -0.69890960686E+03  0.86302593526E+03  0.50629944339E+03 0.  0.
        2    1    3    3  502    0 -0.11422780160E+03 -0.26847501132E+02 -0.73181217078E+03  0.74115978863E+03  0.25500000920E-02 0. -1.
       -2    1    3    3    0  502  0.11422780160E+03  0.26847501132E+02  0.32902563923E+02  0.12186614663E+03  0.25500000920E-02 0.  1.
</event>
<event>
 5   0  0.1219020E-01  0.5876910E+03  0.7818609E-02  0.9931277E-01
        2   -1    0    0  501    0  0.00000000000E+00  0.00000000000E+00  0.24265425779E+03  0.24265425780E+03  0.25500000920E-02 0. -1.
       -2   -1    0    0    0  501  0.00000000000E+00  0.00000000000E+00 -0.35583628143E+03  0.35583628144E+03  0.25500000920E-02 0.  1.
    10030    2    1    2    0    0  0.00000000000E+00  0.00000000000E+00 -0.11318202364E+03  0.59849053924E+03  0.58769103710E+03 0.  0.
        2    1    3    3  502    0  0.25691290515E+03  0.13783374070E+03 -0.19273286878E+02  0.29218802251E+03  0.25500000920E-02 0.  1.
       -2    1    3    3    0  502 -0.25691290515E+03 -0.13783374070E+03 -0.93908736759E+02  0.30630251673E+03  0.25500000920E-02 0. -1.
</event>
<event>
 5   0  0.1146468E-01  0.6000527E+03  0.7818609E-02  0.9905297E-01
       -2   -1    0    0    0  501  0.00000000000E+00  0.00000000000E+00  0.10977512489E+03  0.10977512492E+03  0.25500000920E-02 0. -1.
        2   -1    0    0  501    0  0.00000000000E+00  0.00000000000E+00 -0.82000191396E+03  0.82000191396E+03  0.25500000920E-02 0.  1.
    10030    2    1    2    0    0  0.00000000000E+00  0.00000000000E+00 -0.71022678907E+03  0.92977703888E+03  0.60005270612E+03 0.  0.
        4    1    3    3  502    0 -0.15264268692E+03  0.24133771280E+03 -0.21250522459E+03  0.35595472306E+03  0.12699999809E+01 0. -1.
       -4    1    3    3    0  502  0.15264268692E+03 -0.24133771280E+03 -0.49772156448E+03  0.57382231582E+03  0.12699999809E+01 0.  1.
</event>
<event>
 5   0  0.1175861E-01  0.5901875E+03  0.7818609E-02  0.9925976E-01
        2   -1    0    0  501    0  0.00000000000E+00  0.00000000000E+00  0.11381717034E+04  0.11381717034E+04  0.25500000920E-02 0. -1.
       -2   -1    0    0    0  501  0.00000000000E+00  0.00000000000E+00 -0.76508942092E+02  0.76508942134E+02  0.25500000920E-02 0.  1.
    10030    2    1    2    0    0  0.00000000000E+00  0.00000000000E+00  0.10616627614E+04  0.12146806456E+04  0.59018747183E+03 0.  0.
        3    1    3    3  502    0 -0.31013381066E+02 -0.18269327674E+03  0.10034914765E+04  0.10204576507E+04  0.10100000352E+00 0. -1.
       -3    1    3    3    0  502  0.31013381066E+02  0.18269327674E+03  0.58171284837E+02  0.19422299491E+03  0.10100000352E+00 0.  1.
</event>
<event>
 5   0  0.1206238E-01  0.6088789E+03  0.7818609E-02  0.9887154E-01
       -2   -1    0    0    0  501  0.00000000000E+00  0.00000000000E+00  0.27112500264E+03  0.27112500266E+03  0.25500000920E-02 0. -1.
        2   -1    0    0  501    0  0.00000000000E+00  0.00000000000E+00 -0.34184744020E+03  0.34184744021E+03  0.25500000920E-02 0.  1.
    10030    2    1    2    0    0  0.00000000000E+00  0.00000000000E+00 -0.70722437557E+02  0.61297244287E+03  0.60887893094E+03 0.  0.
        5    1    3    3  502    0 -0.10095716601E+03  0.21826866740E+03  0.15251535694E+03  0.28480973410E+03  0.46999998093E+01 0. -1.
       -5    1    3    3    0  502  0.10095716601E+03 -0.21826866740E+03 -0.22323779450E+03  0.32816270877E+03  0.46999998093E+01 0.  1.
</event>
<event>
 5   0  0.7266519E-02  0.5930162E+03  0.7818609E-02  0.9920002E-01
       -1   -1    0    0    0  501  0.00000000000E+00  0.00000000000E+00  0.71900589880E+02  0.71900590057E+02  0.50400001928E-02 0. -1.
        1   -1    0    0  501    0  0.00000000000E+00  0.00000000000E+00 -0.12227583254E+04  0.12227583254E+04  0.50400001928E-02 0.  1.
    10030    2    1    2    0    0  0.00000000000E+00  0.00000000000E+00 -0.11508577355E+04  0.12946589154E+04  0.59301617177E+03 0.  0.
        4    1    3    3  502    0  0.28255357903E+03 -0.78409715510E+02 -0.47949761243E+03  0.56205353991E+03  0.12699999809E+01 0. -1.
       -4    1    3    3    0  502 -0.28255357903E+03  0.78409715510E+02 -0.67136012305E+03  0.73260537551E+03  0.12699999809E+01 0.  1.
</event>
<event>
 5   0  0.7424930E-02  0.5908268E+03  0.7818609E-02  0.9924622E-01
        1   -1    0    0  501    0  0.00000000000E+00  0.00000000000E+00  0.35373387265E+03  0.35373387268E+03  0.50400001928E-02 0. -1.
       -1   -1    0    0    0  501  0.00000000000E+00  0.00000000000E+00 -0.24670827724E+03  0.24670827729E+03  0.50400001928E-02 0.  1.
    10030    2    1    2    0    0  0.00000000000E+00  0.00000000000E+00  0.10702559541E+03  0.60044214997E+03  0.59082679136E+03 0.  0.
        3    1    3    3  502    0  0.24675652828E+03  0.16221903330E+03  0.61722957153E+02  0.30168449191E+03  0.10100000352E+00 0. -1.
       -3    1    3    3    0  502 -0.24675652828E+03 -0.16221903330E+03  0.45302638257E+02  0.29875765806E+03  0.10100000352E+00 0.  1.
</event>
<event>
 5   0  0.7266519E-02  0.6053990E+03  0.7818609E-02  0.9894268E-01
       -1   -1    0    0    0  501  0.00000000000E+00  0.00000000000E+00  0.59390831684E+03  0.59390831686E+03  0.50400001928E-02 0.  1.
        1   -1    0    0  501    0  0.00000000000E+00  0.00000000000E+00 -0.15427799895E+03  0.15427799903E+03  0.50400001928E-02 0. -1.
    10030    2    1    2    0    0  0.00000000000E+00  0.00000000000E+00  0.43963031789E+03  0.74818631589E+03  0.60539899809E+03 0.  0.
        4    1    3    3  502    0  0.50041308397E+02 -0.14003948333E+03  0.54564607034E+03  0.56554967635E+03  0.12699999809E+01 0.  1.
       -4    1    3    3    0  502 -0.50041308397E+02  0.14003948333E+03 -0.10601575245E+03  0.18263663955E+03  0.12699999809E+01 0. -1.
</event>
<event>
 5   0  0.1146468E-01  0.5891882E+03  0.7818609E-02  0.9928095E-01
       -2   -1    0    0    0  501  0.00000000000E+00  0.00000000000E+00  0.98804792132E+02  0.98804792165E+02  0.25500000920E-02 0.  1.
        2   -1    0    0  501    0  0.00000000000E+00  0.00000000000E+00 -0.87835490745E+03  0.87835490746E+03  0.25500000920E-02 0. -1.
    10030    2    1    2    0    0  0.00000000000E+00  0.00000000000E+00 -0.77955011532E+03  0.97715969962E+03  0.58918816711E+03 0.  0.
        4    1    3    3  502    0 -0.85627395094E+02 -0.28122491088E+03 -0.35810885648E+03  0.46331745842E+03  0.12699999809E+01 0.  1.
       -4    1    3    3    0  502  0.85627395094E+02  0.28122491088E+03 -0.42144125884E+03  0.51384224120E+03  0.12699999809E+01 0. -1.
</event>
<event>
 5   0  0.1146468E-01  0.6108345E+03  0.7818609E-02  0.9883179E-01
       -2   -1    0    0    0  501  0.00000000000E+00  0.00000000000E+00  0.46208152006E+02  0.46208152076E+02  0.25500000920E-02 0. -1.
        2   -1    0    0  501    0  0.00000000000E+00  0.00000000000E+00 -0.20186851748E+04  0.20186851748E+04  0.25500000920E-02 0.  1.
    10030    2    1    2    0    0  0.00000000000E+00  0.00000000000E+00 -0.19724770227E+04  0.20648933268E+04  0.61083454873E+03 0.  0.
        4    1    3    3  502    0  0.32182037615E+02  0.15945225783E+03 -0.18600520914E+04  0.18671518690E+04  0.12699999809E+01 0.  1.
       -4    1    3    3    0  502 -0.32182037615E+02 -0.15945225783E+03 -0.11242493131E+03  0.19774145785E+03  0.12699999809E+01 0. -1.
</event>
<event>
 5   0  0.7221069E-02  0.5353381E+03  0.7818609E-02  0.1004946E+00
        1   -1    0    0  501    0  0.00000000000E+00  0.00000000000E+00  0.58088743803E+03  0.58088743806E+03  0.50400001928E-02 0.  1.
       -1   -1    0    0    0  501  0.00000000000E+00  0.00000000000E+00 -0.12334011151E+03  0.12334011161E+03  0.50400001928E-02 0. -1.
    10030    2    1    2    0    0  0.00000000000E+00  0.00000000000E+00  0.45754732653E+03  0.70422754967E+03  0.53533810410E+03 0.  0.
        5    1    3    3  502    0 -0.39666023526E+02 -0.47790059795E+02  0.57122203066E+03  0.57460767620E+03  0.46999998093E+01 0.  1.
       -5    1    3    3    0  502  0.39666023526E+02  0.47790059795E+02 -0.11367470414E+03  0.12961987346E+03  0.46999998093E+01 0. -1.
</event>
<event>
 5   0  0.1219020E-01  0.5936241E+03  0.7818609E-02  0.9918723E-01
        2   -1    0    0  501    0  0.00000000000E+00  0.00000000000E+00  0.74187253203E+03  0.74187253203E+03  0.25500000920E-02 0. -1.
       -2   -1    0    0    0  501  0.00000000000E+00  0.00000000000E+00 -0.11875005728E+03  0.11875005731E+03  0.25500000920E-02 0.  1.
    10030    2    1    2    0    0  0.00000000000E+00  0.00000000000E+00  0.62312247475E+03  0.86062258934E+03  0.59362414266E+03 0.  0.
        2    1    3    3  502    0 -0.25105298092E+03 -0.12382986987E+02  0.82714657492E+02  0.26461793621E+03  0.25500000920E-02 0.  1.
       -2    1    3    3    0  502  0.25105298092E+03  0.12382986987E+02  0.54040781725E+03  0.59600465313E+03  0.25500000920E-02 0. -1.
</event>
<event>
 5   0  0.7123340E-02  0.5913359E+03  0.7818609E-02  0.9923546E-01
        1   -1    0    0  501    0  0.00000000000E+00  0.00000000000E+00  0.29127641563E+03  0.29127641568E+03  0.50400001928E-02 0.  1.
       -1   -1    0    0    0  501  0.00000000000E+00  0.00000000000E+00 -0.30012571192E+03  0.30012571196E+03  0.50400001928E-02 0. -1.
    10030    2    1    2    0    0  0.00000000000E+00  0.00000000000E+00 -0.88492962848E+01  0.59140212764E+03  0.59133591683E+03 0.  0.
        2    1    3    3  502    0  0.21582984613E+03 -0.11517645538E+03 -0.17048962897E+03  0.29818593519E+03  0.25500000920E-02 0. -1.
       -2    1    3    3    0  502 -0.21582984613E+03  0.11517645538E+03  0.16164033269E+03  0.29321619245E+03  0.25500000920E-02 0.  1.
</event>
<event>
 5   0  0.7424930E-02  0.5035946E+03  0.7818609E-02  0.1012845E+00
        1   -1    0    0  501    0  0.00000000000E+00  0.00000000000E+00  0.11955294297E+04  0.11955294297E+04  0.50400001928E-02 0.  1.
       -1   -1    0    0    0  501  0.00000000000E+00  0.00000000000E+00 -0.53032466257E+02  0.53032466497E+02  0.50400001928E-02 0. -1.
    10030    2    1    2    0    0  0.00000000000E+00  0.00000000000E+00  0.11424969634E+04  0.12485618962E+04  0.50359457621E+03 0.  0.
        3    1    3    3  502    0  0.20457353157E+03 -0.14474259653E+03  0.63203507790E+03  0.67990374242E+03  0.10100000352E+00 0.  1.
       -3    1    3    3    0  502 -0.20457353157E+03  0.14474259653E+03  0.51046188553E+03  0.56865815377E+03  0.10100000352E+00 0. -1.
</event>
<event>
 5   0  0.1206238E-01  0.7160921E+03  0.7818609E-02  0.9690102E-01
       -2   -1    0    0    0  501  0.00000000000E+00  0.00000000000E+00  0.22369374598E+03  0.22369374600E+03  0.25500000920E-02 0.  1.
        2   -1    0    0  501    0  0.00000000000E+00  0.00000000000E+00 -0.57309147640E+03  0.57309147640E+03  0.25500000920E-02 0. -1.
    10030    2    1    2    0    0  0.00000000000E+00  0.00000000000E+00 -0.34939773042E+03  0.79678522240E+03  0.71609211462E+03 0.  0.
        5    1    3    3  502    0 -0.96437396589E+01  0.25102134494E+03 -0.45853217148E+03  0.52285615575E+03  0.46999998093E+01 0. -1.
       -5    1    3    3    0  502  0.96437396589E+01 -0.25102134494E+03  0.10913444106E+03  0.27392906665E+03  0.46999998093E+01 0.  1.
</event>
<event>
 5   0  0.1166419E-01  0.5955300E+03  0.7818609E-02  0.9914724E-01
       -2   -1    0    0    0  501  0.00000000000E+00  0.00000000000E+00  0.52534903854E+03  0.52534903855E+03  0.25500000920E-02 0. -1.
        2   -1    0    0  501    0  0.00000000000E+00  0.00000000000E+00 -0.16877157581E+03  0.16877157583E+03  0.25500000920E-02 0.  1.
    10030    2    1    2    0    0  0.00000000000E+00  0.00000000000E+00  0.35657746274E+03  0.69412061438E+03  0.59552996597E+03 0.  0.
        1    1    3    3  502    0 -0.14325192735E+03  0.24657533698E+03  0.27816954959E+03  0.39837019195E+03  0.50400001928E-02 0. -1.
       -1    1    3    3    0  502  0.14325192735E+03 -0.24657533698E+03  0.78407913149E+02  0.29575042242E+03  0.50400001928E-02 0.  1.
</event>
<event>
 5   0  0.7266519E-02  0.5755274E+03  0.7818609E-02  0.9957521E-01
        1   -1    0    0  501    0  0.00000000000E+00  0.00000000000E+00  0.11484375617E+04  0.11484375618E+04  0.50400001928E-02 0. -1.
       -1   -1    0    0    0  501  0.00000000000E+00  0.00000000000E+00 -0.72104883601E+02  0.72104883777E+02  0.50400001928E-02 0.  1.
    10030    2    1    2    0    0  0.00000000000E+00  0.00000000000E+00  0.10763326781E+04  0.12205424455E+04  0.57552743402E+03 0.  0.
        4    1    3    3  502    0 -0.23327908654E+03  0.11091043679E+03  0.80714142792E+03  0.84746631483E+03  0.12699999809E+01 0. -1.
       -4    1    3    3    0  502  0.23327908654E+03 -0.11091043679E+03  0.26919125022E+03  0.37307613070E+03  0.12699999809E+01 0.  1.
</event>
<event>
 5   0  0.7266519E-02  0.6007381E+03  0.7818609E-02  0.9903876E-01
        1   -1    0    0  501    0  0.00000000000E+00  0.00000000000E+00  0.11482559494E+04  0.11482559494E+04  0.50400001928E-02 0.  1.
       -1   -1    0    0    0  501  0.00000000000E+00  0.00000000000E+00 -0.78572692328E+02  0.78572692490E+02  0.50400001928E-02 0. -1.
    10030    2    1    2    0    0  0.00000000000E+00  0.00000000000E+00  0.10696832571E+04  0.12268286419E+04  0.60073808447E+03 0.  0.
        4    1    3    3  502    0 -0.23443149580E+03  0.44454805017E+02  0.16225532272E+03  0.28855286961E+03  0.12699999809E+01 0.  1.
       -4    1    3    3    0  502  0.23443149580E+03 -0.44454805017E+02  0.90742793436E+03  0.93827577230E+03  0.12699999809E+01 0. -1.
</event>
<event>
 5   0  0.7424930E-02  0.6260989E+03  0.7818609E-02  0.9852691E-01
        1   -1    0    0  501    0  0.00000000000E+00  0.00000000000E+00  0.29213868462E+03  0.29213868467E+03  0.50400001928E-02 0.  1.
       -1   -1    0    0    0  501  0.00000000000E+00  0.00000000000E+00 -0.33545698948E+03  0.33545698952E+03  0.50400001928E-02 0. -1.
    10030    2    1    2    0    0  0.00000000000E+00  0.00000000000E+00 -0.43318304858E+02  0.62759567419E+03  0.62609891768E+03 0.  0.
        3    1    3    3  502    0  0.18548558956E+03  0.24926618761E+03 -0.59979029285E+02  0.31644277583E+03  0.10100000352E+00 0.  1.
       -3    1    3    3    0  502 -0.18548558956E+03 -0.24926618761E+03  0.16660724427E+02  0.31115289836E+03  0.10100000352E+00 0. -1.
</event>
<event>
 5   0  0.1146468E-01  0.6006367E+03  0.7818609E-02  0.9904086E-01
       -2   -1    0    0    0  501  0.00000000000E+00  0.00000000000E+00  0.62856742040E+02  0.62856742092E+02  0.25500000920E-02 0.  1.
        2   -1    0    0  501    0  0.00000000000E+00  0.00000000000E+00 -0.14348676687E+04  0.14348676687E+04  0.25500000920E-02 0. -1.
    10030    2    1    2    0    0  0.00000000000E+00  0.00000000000E+00 -0.13720109266E+04  0.14977244108E+04  0.60063668537E+03 0.  0.
        4    1    3    3  502    0  0.26220193781E+02  0.17948355402E+03 -0.12828353397E+04  0.12955963748E+04  0.12699999809E+01 0. -1.
       -4    1    3    3    0  502 -0.26220193781E+02 -0.17948355402E+03 -0.89175586979E+02  0.20212803601E+03  0.12699999809E+01 0.  1.
</event>
<event>
 5   0  0.7221069E-02  0.5951690E+03  0.7818609E-02  0.9915480E-01
        1   -1    0    0  501    0  0.00000000000E+00  0.00000000000E+00  0.66561153314E+02  0.66561153505E+02  0.50400001928E-02 0. -1.
       -1   -1    0    0    0  501  0.00000000000E+00  0.00000000000E+00 -0.13304536673E+04  0.13304536673E+04  0.50400001928E-02 0.  1.
    10030    2    1    2    0    0  0.00000000000E+00  0.00000000000E+00 -0.12638925140E+04  0.13970148208E+04  0.59516898664E+03 0.  0.
        5    1    3    3  502    0 -0.95813158001E+02  0.86104053548E+02 -0.12615206545E+04  0.12680893190E+04  0.46999998093E+01 0.  1.
       -5    1    3    3    0  502  0.95813158001E+02 -0.86104053548E+02 -0.23718594305E+01  0.12892550174E+03  0.46999998093E+01 0. -1.
</event>
<event>
 5   0  0.1175861E-01  0.5975828E+03  0.7818609E-02  0.9910434E-01
        2   -1    0    0  501    0  0.00000000000E+00  0.00000000000E+00  0.18147217383E+03  0.18147217385E+03  0.25500000920E-02 0. -1.
       -2   -1    0    0    0  501  0.00000000000E+00  0.00000000000E+00 -0.49195587942E+03  0.49195587942E+03  0.25500000920E-02 0.  1.
    10030    2    1    2    0    0  0.00000000000E+00  0.00000000000E+00 -0.31048370559E+03  0.67342805327E+03  0.59758280723E+03 0.  0.
        3    1    3    3  502    0  0.22191091043E+03 -0.14082522956E+03  0.49239586274E+01  0.26286965024E+03  0.10100000352E+00 0. -1.
       -3    1    3    3    0  502 -0.22191091043E+03  0.14082522956E+03 -0.31540766422E+03  0.41055840303E+03  0.10100000352E+00 0.  1.
</event>
<event>
 5   0  0.1175861E-01  0.6077766E+03  0.7818609E-02  0.9889402E-01
        2   -1    0    0  501    0  0.00000000000E+00  0.00000000000E+00  0.68915224000E+03  0.68915224000E+03  0.25500000920E-02 0. -1.
       -2   -1    0    0    0  501  0.00000000000E+00  0.00000000000E+00 -0.13400248062E+03  0.13400248065E+03  0.25500000920E-02 0.  1.
    10030    2    1    2    0    0  0.00000000000E+00  0.00000000000E+00  0.55514975937E+03  0.82315472065E+03  0.60777663561E+03 0.  0.
        3    1    3    3  502    0 -0.89921487208E+01 -0.17022632684E+03  0.61830132169E+03  0.64136915711E+03  0.10100000352E+00 0. -1.
       -3    1    3    3    0  502  0.89921487208E+01  0.17022632684E+03 -0.63151562316E+02  0.18178556354E+03  0.10100000352E+00 0.  1.
</event>
<event>
 5   0  0.4695625E-02  0.5975509E+03  0.7818609E-02  0.9910500E-01
        3   -1    0    0  501    0  0.00000000000E+00  0.00000000000E+00  0.10588858387E+04  0.10588858435E+04  0.10100000352E+00 0.  1.
       -3   -1    0    0    0  501  0.00000000000E+00  0.00000000000E+00 -0.84302516987E+02  0.84302577489E+02  0.10100000352E+00 0. -1.
    10030    2    1    2    0    0  0.00000000000E+00  0.00000000000E+00  0.97458332171E+03  0.11431884210E+04  0.59755093085E+03 0.  0.
        2    1    3    3  502    0 -0.23591146045E+03  0.15446827431E+03  0.67621789586E+03  0.73265633664E+03  0.25500000920E-02 0.  1.
       -2    1    3    3    0  502  0.23591146045E+03 -0.15446827431E+03  0.29836542585E+03  0.41053208436E+03  0.25500000920E-02 0. -1.
</event>
<event>
 5   0  0.4695625E-02  0.5999835E+03  0.7818609E-02  0.9905440E-01
        3   -1    0    0  501    0  0.00000000000E+00  0.00000000000E+00  0.47443632635E+03  0.47443633710E+03  0.10100000352E+00 0.  1.
       -3   -1    0    0    0  501  0.00000000000E+00  0.00000000000E+00 -0.18968834359E+03  0.18968837048E+03  0.10100000352E+00 0. -1.
    10030    2    1    2    0    0  0.00000000000E+00  0.00000000000E+00  0.28474798276E+03  0.66412470758E+03  0.59998351105E+03 0.  0.
        5    1    3    3  502    0 -0.97264306173E+02 -0.15879401844E+03 -0.11791836405E+03  0.22046023706E+03  0.46999998093E+01 0. -1.
       -5    1    3    3    0  502  0.97264306173E+02  0.15879401844E+03  0.40266634681E+03  0.44366447052E+03  0.46999998093E+01 0.  1.
</event>
<event>
 5   0  0.4695625E-02  0.5987557E+03  0.7818609E-02  0.9907991E-01
        3   -1    0    0  501    0  0.00000000000E+00  0.00000000000E+00  0.28416192811E+03  0.28416194606E+03  0.10100000352E+00 0.  1.
       -3   -1    0    0    0  501  0.00000000000E+00  0.00000000000E+00 -0.31540853386E+03  0.31540855003E+03  0.10100000352E+00 0. -1.
    10030    2    1    2    0    0  0.00000000000E+00  0.00000000000E+00 -0.31246605745E+02  0.59957049609E+03  0.59875573434E+03 0.  0.
        3    1    3    3  502    0  0.18442278845E+03 -0.22886270530E+03 -0.72597072667E+02  0.30275443504E+03  0.10100000352E+00 0. -1.
       -3    1    3    3    0  502 -0.18442278845E+03  0.22886270530E+03  0.41350466922E+02  0.29681606104E+03  0.10100000352E+00 0.  1.
</event>
<event>
 5   0  0.7221069E-02  0.6050499E+03  0.7818609E-02  0.9894984E-01
       -1   -1    0    0    0  501  0.00000000000E+00  0.00000000000E+00  0.63622052765E+02  0.63622052964E+02  0.50400001928E-02 0. -1.
        1   -1    0    0  501    0  0.00000000000E+00  0.00000000000E+00 -0.14385159793E+04  0.14385159793E+04  0.50400001928E-02 0.  1.
    10030    2    1    2    0    0  0.00000000000E+00  0.00000000000E+00 -0.13748939265E+04  0.15021380323E+04  0.60504988123E+03 0.  0.
        5    1    3    3  502    0  0.22372181354E+03  0.12475783170E+03 -0.10868656181E+04  0.11166534504E+04  0.46999998093E+01 0.  1.
       -5    1    3    3    0  502 -0.22372181354E+03 -0.12475783170E+03 -0.28802830845E+03  0.38548458191E+03  0.46999998093E+01 0. -1.
</event>
<event>
 5   0  0.1175861E-01  0.6030503E+03  0.7818609E-02  0.9899098E-01
       -2   -1    0    0    0  501  0.00000000000E+00  0.00000000000E+00  0.12150217524E+03  0.12150217527E+03  0.25500000920E-02 0.  1.
        2   -1    0    0  501    0  0.00000000000E+00  0.00000000000E+00 -0.74827820301E+03  0.74827820301E+03  0.25500000920E-02 0. -1.
    10030    2    1    2    0    0  0.00000000000E+00  0.00000000000E+00 -0.62677602777E+03  0.86978037828E+03  0.60305034405E+03 0.  0.
        3    1    3    3  502    0  0.28042139073E+03 -0.10669454914E+03 -0.27017824266E+03  0.40375261758E+03  0.10100000352E+00 0.  1.
       -3    1    3    3    0  502 -0.28042139073E+03  0.10669454914E+03 -0.35659778511E+03  0.46602776070E+03  0.10100000352E+00 0. -1.
</event>
<event>
 5   0  0.4695625E-02  0.6052709E+03  0.7818609E-02  0.9894530E-01
       -3   -1    0    0    0  501  0.00000000000E+00  0.00000000000E+00  0.27292265390E+03  0.27292267259E+03  0.10100000352E+00 0.  1.
        3   -1    0    0  501    0  0.00000000000E+00  0.00000000000E+00 -0.33558306262E+03  0.33558307782E+03  0.10100000352E+00 0. -1.
    10030    2    1    2    0    0  0.00000000000E+00  0.00000000000E+00 -0.62660408722E+02  0.60850575041E+03  0.60527094880E+03 0.  0.
        2    1    3    3  502    0  0.21971853559E+03  0.55690892643E+01  0.17782246111E+03  0.28271554134E+03  0.25500000920E-02 0.  1.
       -2    1    3    3    0  502 -0.21971853559E+03 -0.55690892643E+01 -0.24048286983E+03  0.32579020907E+03  0.25500000920E-02 0. -1.
</event>
<event>
 5   0  0.1219020E-01  0.6115841E+03  0.7818609E-02  0.9881660E-01
        2   -1    0    0  501    0  0.00000000000E+00  0.00000000000E+00  0.42111671076E+03  0.42111671077E+03  0.25500000920E-02 0. -1.
       -2   -1    0    0    0  501  0.00000000000E+00  0.00000000000E+00 -0.22204952677E+03  0.22204952679E+03  0.25500000920E-02 0.  1.
    10030    2    1    2    0    0  0.00000000000E+00  0.00000000000E+00  0.19906718399E+03  0.64316623755E+03  0.61158406241E+03 0.  0.
        2    1    3    3  502    0  0.10941160809E+03  0.28501521522E+03  0.11787539436E+03  0.32726011289E+03  0.25500000920E-02 0. -1.
       -2    1    3    3    0  502 -0.10941160809E+03 -0.28501521522E+03  0.81191789629E+02  0.31590612466E+03  0.25500000920E-02 0.  1.
</event>
<event>
 5   0  0.1166419E-01  0.5919988E+03  0.7818609E-02  0.9922146E-01
       -2   -1    0    0    0  501  0.00000000000E+00  0.00000000000E+00  0.20997595558E+03  0.20997595559E+03  0.25500000920E-02 0. -1.
        2   -1    0    0  501    0  0.00000000000E+00  0.00000000000E+00 -0.41726517437E+03  0.41726517438E+03  0.25500000920E-02 0.  1.
    10030    2    1    2    0    0  0.00000000000E+00  0.00000000000E+00 -0.20728921879E+03  0.62724112997E+03  0.59199883015E+03 0.  0.
        1    1    3    3  502    0  0.17022348426E+03  0.21378112417E+03 -0.22415782264E+03  0.35344749698E+03  0.50400001928E-02 0. -1.
       -1    1    3    3    0  502 -0.17022348426E+03 -0.21378112417E+03  0.16868603851E+02  0.27379363299E+03  0.50400001928E-02 0.  1.
</event>
<event>
 5   0  0.7263385E-02  0.5857815E+03  0.7818609E-02  0.9935352E-01
        1   -1    0    0  501    0  0.00000000000E+00  0.00000000000E+00  0.88216805974E+03  0.88216805975E+03  0.50400001928E-02 0.  1.
       -1   -1    0    0    0  501  0.00000000000E+00  0.00000000000E+00 -0.97243367271E+02  0.97243367401E+02  0.50400001928E-02 0. -1.
    10030    2    1    2    0    0  0.00000000000E+00  0.00000000000E+00  0.78492469247E+03  0.97941142715E+03  0.58578150431E+03 0.  0.
        1    1    3    3  502    0  0.22537846189E+03  0.11825676586E+03  0.15014215502E+03  0.29550428168E+03  0.50400001928E-02 0. -1.
       -1    1    3    3    0  502 -0.22537846189E+03 -0.11825676586E+03  0.63478253744E+03  0.68390714547E+03  0.50400001928E-02 0.  1.
</event>
<event>
 5   0  0.1146468E-01  0.6471524E+03  0.7818609E-02  0.9812137E-01
        2   -1    0    0  501    0  0.00000000000E+00  0.00000000000E+00  0.17944661952E+04  0.17944661952E+04  0.25500000920E-02 0. -1.
       -2   -1    0    0    0  501  0.00000000000E+00  0.00000000000E+00 -0.58346901102E+02  0.58346901158E+02  0.25500000920E-02 0.  1.
    10030    2    1    2    0    0  0.00000000000E+00  0.00000000000E+00  0.17361192941E+04  0.18528130964E+04  0.64715235200E+03 0.  0.
        4    1    3    3  502    0  0.17286566277E+02 -0.27218385830E+03  0.36955575569E+03  0.45929940949E+03  0.12699999809E+01 0. -1.
       -4    1    3    3    0  502 -0.17286566277E+02  0.27218385830E+03  0.13665635384E+04  0.13935136869E+04  0.12699999809E+01 0.  1.
</event>
<event>
 5   0  0.1146468E-01  0.5136373E+03  0.7818609E-02  0.1010279E+00
        2   -1    0    0  501    0  0.00000000000E+00  0.00000000000E+00  0.34012818608E+03  0.34012818609E+03  0.25500000920E-02 0.  1.
       -2   -1    0    0    0  501  0.00000000000E+00  0.00000000000E+00 -0.19391461788E+03  0.19391461790E+03  0.25500000920E-02 0. -1.
    10030    2    1    2    0    0  0.00000000000E+00  0.00000000000E+00  0.14621356820E+03  0.53404280399E+03  0.51363733214E+03 0.  0.
        4    1    3    3  502    0 -0.37886089215E+02 -0.19363256699E+03  0.24403141393E+03  0.31381821273E+03  0.12699999809E+01 0.  1.
       -4    1    3    3    0  502  0.37886089215E+02  0.19363256699E+03 -0.97817845726E+02  0.22022459126E+03  0.12699999809E+01 0. -1.
</event>
<event>
 5   0  0.1206238E-01  0.6081042E+03  0.7818609E-02  0.9888734E-01
        2   -1    0    0  501    0  0.00000000000E+00  0.00000000000E+00  0.61097263113E+03  0.61097263114E+03  0.25500000920E-02 0.  1.
       -2   -1    0    0    0  501  0.00000000000E+00  0.00000000000E+00 -0.15131229278E+03  0.15131229280E+03  0.25500000920E-02 0. -1.
    10030    2    1    2    0    0  0.00000000000E+00  0.00000000000E+00  0.45966033835E+03  0.76228492394E+03  0.60810416757E+03 0.  0.
        5    1    3    3  502    0 -0.32189564665E+02  0.37994615998E+02 -0.14611961973E+03  0.15444349188E+03  0.46999998093E+01 0. -1.
       -5    1    3    3    0  502  0.32189564665E+02 -0.37994615998E+02  0.60577995808E+03  0.60784143206E+03  0.46999998093E+01 0.  1.
</event>
<event>
 5   0  0.7266519E-02  0.6262401E+03  0.7818609E-02  0.9852414E-01
       -1   -1    0    0    0  501  0.00000000000E+00  0.00000000000E+00  0.39659676493E+03  0.39659676496E+03  0.50400001928E-02 0. -1.
        1   -1    0    0  501    0  0.00000000000E+00  0.00000000000E+00 -0.24721371529E+03  0.24721371534E+03  0.50400001928E-02 0.  1.
    10030    2    1    2    0    0  0.00000000000E+00  0.00000000000E+00  0.14938304964E+03  0.64381048030E+03  0.62624008098E+03 0.  0.
        4    1    3    3  502    0  0.17920713383E+03  0.22156547177E+03  0.20808599426E+03  0.35285669754E+03  0.12699999809E+01 0. -1.
       -4    1    3    3    0  502 -0.17920713383E+03 -0.22156547177E+03 -0.58702944618E+02  0.29095378276E+03  0.12699999809E+01 0.  1.
</event>
<event>
 5   0  0.7123340E-02  0.6097331E+03  0.7818609E-02  0.9885416E-01
        1   -1    0    0  501    0  0.00000000000E+00  0.00000000000E+00  0.12709332029E+03  0.12709332039E+03  0.50400001928E-02 0.  1.
       -1   -1    0    0    0  501  0.00000000000E+00  0.00000000000E+00 -0.73130217490E+03  0.73130217492E+03  0.50400001928E-02 0. -1.
    10030    2    1    2    0    0  0.00000000000E+00  0.00000000000E+00 -0.60420885461E+03  0.85839549531E+03  0.60973312718E+03 0.  0.
        2    1    3    3  502    0 -0.15951063525E+03  0.25959528632E+03 -0.31688763725E+03  0.43960337816E+03  0.25500000920E-02 0.  1.
       -2    1    3    3    0  502  0.15951063525E+03 -0.25959528632E+03 -0.28732121736E+03  0.41879211716E+03  0.25500000920E-02 0. -1.
</event>
<event>
 5   0  0.1175861E-01  0.5840263E+03  0.7818609E-02  0.9939112E-01
        2   -1    0    0  501    0  0.00000000000E+00  0.00000000000E+00  0.97876695338E+03  0.97876695338E+03  0.25500000920E-02 0.  1.
       -2   -1    0    0    0  501  0.00000000000E+00  0.00000000000E+00 -0.87121544505E+02  0.87121544542E+02  0.25500000920E-02 0. -1.
    10030    2    1    2    0    0  0.00000000000E+00  0.00000000000E+00  0.89164540888E+03  0.10658884979E+04  0.58402633061E+03 0.  0.
        3    1    3    3  502    0  0.24643575326E+03 -0.14245229731E+03  0.32686456999E+03  0.43343245703E+03  0.10100000352E+00 0. -1.
       -3    1    3    3    0  502 -0.24643575326E+03  0.14245229731E+03  0.56478083888E+03  0.63245604089E+03  0.10100000352E+00 0.  1.
</event>
<event>
 5   0  0.1146468E-01  0.5745691E+03  0.7818609E-02  0.9959619E-01
        2   -1    0    0  501    0  0.00000000000E+00  0.00000000000E+00  0.18150918631E+04  0.18150918631E+04  0.25500000920E-02 0.  1.
       -2   -1    0    0    0  501  0.00000000000E+00  0.00000000000E+00 -0.45470102325E+02  0.45470102396E+02  0.25500000920E-02 0. -1.
    10030    2    1    2    0    0  0.00000000000E+00  0.00000000000E+00  0.17696217607E+04  0.18605619655E+04  0.57456910049E+03 0.  0.
        4    1    3    3  502    0  0.20239712048E+02 -0.34999359287E+02 -0.36202479054E+02  0.54284744485E+02  0.12699999809E+01 0. -1.
       -4    1    3    3    0  502 -0.20239712048E+02  0.34999359287E+02  0.18058242398E+04  0.18062772210E+04  0.12699999809E+01 0.  1.
</event>
<event>
 5   0  0.1146468E-01  0.5768305E+03  0.7818609E-02  0.9954677E-01
        2   -1    0    0  501    0  0.00000000000E+00  0.00000000000E+00  0.10870361796E+04  0.10870361796E+04  0.25500000920E-02 0. -1.
       -2   -1    0    0    0  501  0.00000000000E+00  0.00000000000E+00 -0.76523071866E+02  0.76523071909E+02  0.25500000920E-02 0.  1.
    10030    2    1    2    0    0  0.00000000000E+00  0.00000000000E+00  0.10105131077E+04  0.11635592515E+04  0.57683046979E+03 0.  0.
        4    1    3    3  502    0  0.13077776833E+03  0.73467891684E+02  0.10021554496E+04  0.10133200451E+04  0.12699999809E+01 0. -1.
       -4    1    3    3    0  502 -0.13077776833E+03 -0.73467891684E+02  0.83576581820E+01  0.15023920643E+03  0.12699999809E+01 0.  1.
</event>
<event>
 5   0  0.7424930E-02  0.6063092E+03  0.7818609E-02  0.9892402E-01
        1   -1    0    0  501    0  0.00000000000E+00  0.00000000000E+00  0.95497646422E+03  0.95497646423E+03  0.50400001928E-02 0.  1.
       -1   -1    0    0    0  501  0.00000000000E+00  0.00000000000E+00 -0.96235575015E+02  0.96235575147E+02  0.50400001928E-02 0. -1.
    10030    2    1    2    0    0  0.00000000000E+00  0.00000000000E+00  0.85874088920E+03  0.10512120394E+04  0.60630919253E+03 0.  0.
        3    1    3    3  502    0  0.10194742734E+03  0.19799254648E+03  0.72747457211E+02  0.23427874238E+03  0.10100000352E+00 0. -1.
       -3    1    3    3    0  502 -0.10194742734E+03 -0.19799254648E+03  0.78599343199E+03  0.81693329699E+03  0.10100000352E+00 0.  1.
</event>
<event>
 5   0  0.7263385E-02  0.5129182E+03  0.7818609E-02  0.1010461E+00
        1   -1    0    0  501    0  0.00000000000E+00  0.00000000000E+00  0.35717025901E+03  0.35717025905E+03  0.50400001928E-02 0.  1.
       -1   -1    0    0    0  501  0.00000000000E+00  0.00000000000E+00 -0.18414540455E+03  0.18414540462E+03  0.50400001928E-02 0. -1.
    10030    2    1    2    0    0  0.00000000000E+00  0.00000000000E+00  0.17302485446E+03  0.54131566367E+03  0.51291816840E+03 0.  0.
        1    1    3    3  502    0 -0.22493054730E+03 -0.67726969250E+02 -0.22095655111E+02  0.23594260207E+03  0.50400001928E-02 0. -1.
       -1    1    3    3    0  502  0.22493054730E+03  0.67726969250E+02  0.19512050957E+03  0.30537306160E+03  0.50400001928E-02 0.  1.
</event>
<event>
 5   0  0.7123340E-02  0.6101180E+03  0.7818609E-02  0.9884634E-01
       -1   -1    0    0    0  501  0.00000000000E+00  0.00000000000E+00  0.34138682785E+03  0.34138682789E+03  0.50400001928E-02 0.  1.
        1   -1    0    0  501    0  0.00000000000E+00  0.00000000000E+00 -0.27259687515E+03  0.27259687520E+03  0.50400001928E-02 0. -1.
    10030    2    1    2    0    0  0.00000000000E+00  0.00000000000E+00  0.68789952696E+02  0.61398370309E+03  0.61011796406E+03 0.  0.
        2    1    3    3  502    0  0.32069767412E+02  0.29495620646E+03  0.10579059235E+03  0.31499092550E+03  0.25500000920E-02 0.  1.
       -2    1    3    3    0  502 -0.32069767412E+02 -0.29495620646E+03 -0.37000639655E+02  0.29899277759E+03  0.25500000920E-02 0. -1.
</event>
<event>
 5   0  0.1166419E-01  0.6089822E+03  0.7818609E-02  0.9886944E-01
       -2   -1    0    0    0  501  0.00000000000E+00  0.00000000000E+00  0.73371507772E+02  0.73371507816E+02  0.25500000920E-02 0.  1.
        2   -1    0    0  501    0  0.00000000000E+00  0.00000000000E+00 -0.12636352588E+04  0.12636352588E+04  0.25500000920E-02 0. -1.
    10030    2    1    2    0    0  0.00000000000E+00  0.00000000000E+00 -0.11902637510E+04  0.13370067666E+04  0.60898218116E+03 0.  0.
        1    1    3    3  502    0  0.14995243335E+03 -0.49823148358E+02 -0.11665752996E+04  0.11772281036E+04  0.50400001928E-02 0. -1.
       -1    1    3    3    0  502 -0.14995243335E+03  0.49823148358E+02 -0.23688451431E+02  0.15977866296E+03  0.50400001928E-02 0.  1.
</event>
<event>
 5   0  0.1146468E-01  0.6058731E+03  0.7818609E-02  0.9893296E-01
       -2   -1    0    0    0  501  0.00000000000E+00  0.00000000000E+00  0.89046737076E+02  0.89046737112E+02  0.25500000920E-02 0.  1.
        2   -1    0    0  501    0  0.00000000000E+00  0.00000000000E+00 -0.10305884809E+04  0.10305884809E+04  0.25500000920E-02 0. -1.
    10030    2    1    2    0    0  0.00000000000E+00  0.00000000000E+00 -0.94154174385E+03  0.11196352180E+04  0.60587306102E+03 0.  0.
        4    1    3    3  502    0 -0.18964389202E+03  0.18416657033E+03 -0.74416300586E+03  0.78972294104E+03  0.12699999809E+01 0. -1.
       -4    1    3    3    0  502  0.18964389202E+03 -0.18416657033E+03 -0.19737873799E+03  0.32991227701E+03  0.12699999809E+01 0.  1.
</event>
<event>
 5   0  0.7221069E-02  0.5947391E+03  0.7818609E-02  0.9916381E-01
        1   -1    0    0  501    0  0.00000000000E+00  0.00000000000E+00  0.16308953726E+03  0.16308953734E+03  0.50400001928E-02 0.  1.
       -1   -1    0    0    0  501  0.00000000000E+00  0.00000000000E+00 -0.54220923662E+03  0.54220923665E+03  0.50400001928E-02 0. -1.
    10030    2    1    2    0    0  0.00000000000E+00  0.00000000000E+00 -0.37911969936E+03  0.70529877399E+03  0.59473911435E+03 0.  0.
        5    1    3    3  502    0 -0.18703699313E+03  0.11346348832E+03 -0.42836340606E+03  0.48101361481E+03  0.46999998093E+01 0. -1.
       -5    1    3    3    0  502  0.18703699313E+03 -0.11346348832E+03  0.49243706696E+02  0.22428515918E+03  0.46999998093E+01 0.  1.
</event>
<event>
 5   0  0.1166419E-01  0.6249672E+03  0.7818609E-02  0.9854919E-01
       -2   -1    0    0    0  501  0.00000000000E+00  0.00000000000E+00  0.10683244573E+03  0.10683244576E+03  0.25500000920E-02 0. -1.
        2   -1    0    0  501    0  0.00000000000E+00  0.00000000000E+00 -0.91401068333E+03  0.91401068333E+03  0.25500000920E-02 0.  1.
    10030    2    1    2    0    0  0.00000000000E+00  0.00000000000E+00 -0.80717823760E+03  0.10208431291E+04  0.62496718872E+03 0.  0.
        1    1    3    3  502    0  0.12605481171E+03  0.27663374323E+03 -0.52171653292E+03  0.60382463033E+03  0.50400001928E-02 0.  1.
       -1    1    3    3    0  502 -0.12605481171E+03 -0.27663374323E+03 -0.28546170468E+03  0.41701849876E+03  0.50400001928E-02 0. -1.
</event>
<event>
 5   0  0.7424930E-02  0.5731337E+03  0.7818609E-02  0.9962768E-01
       -1   -1    0    0    0  501  0.00000000000E+00  0.00000000000E+00  0.15885051612E+03  0.15885051620E+03  0.50400001928E-02 0.  1.
        1   -1    0    0  501    0  0.00000000000E+00  0.00000000000E+00 -0.51696749823E+03  0.51696749825E+03  0.50400001928E-02 0. -1.
    10030    2    1    2    0    0  0.00000000000E+00  0.00000000000E+00 -0.35811698211E+03  0.67581801445E+03  0.57313368055E+03 0.  0.
        3    1    3    3  502    0  0.23573578243E+03 -0.14698043668E+03 -0.26198589563E+03  0.38185236361E+03  0.10100000352E+00 0. -1.
       -3    1    3    3    0  502 -0.23573578243E+03  0.14698043668E+03 -0.96131086474E+02  0.29396565084E+03  0.10100000352E+00 0.  1.
</event>
<event>
 5   0  0.7221069E-02  0.5896500E+03  0.7818609E-02  0.9927115E-01
        1   -1    0    0  501    0  0.00000000000E+00  0.00000000000E+00  0.29018244983E+03  0.29018244987E+03  0.50400001928E-02 0.  1.
       -1   -1    0    0    0  501  0.00000000000E+00  0.00000000000E+00 -0.29954179023E+03  0.29954179028E+03  0.50400001928E-02 0. -1.
    10030    2    1    2    0    0  0.00000000000E+00  0.00000000000E+00 -0.93593404028E+01  0.58972424015E+03  0.58964996580E+03 0.  0.
        5    1    3    3  502    0  0.19774480706E+02  0.37436236759E+02  0.28708842397E+03  0.29023155425E+03  0.46999998093E+01 0.  1.
       -5    1    3    3    0  502 -0.19774480706E+02 -0.37436236759E+02 -0.29644776437E+03  0.29949268590E+03  0.46999998093E+01 0. -1.
</event>
<event>
 5   0  0.7221069E-02  0.6029238E+03  0.7818609E-02  0.9899359E-01
        1   -1    0    0  501    0  0.00000000000E+00  0.00000000000E+00  0.65511150607E+03  0.65511150609E+03  0.50400001928E-02 0.  1.
       -1   -1    0    0    0  501  0.00000000000E+00  0.00000000000E+00 -0.13872335664E+03  0.13872335673E+03  0.50400001928E-02 0. -1.
    10030    2    1    2    0    0  0.00000000000E+00  0.00000000000E+00  0.51638814944E+03  0.79383486282E+03  0.60292376678E+03 0.  0.
        5    1    3    3  502    0  0.23851242177E+01 -0.30103436392E+03  0.23823488837E+03  0.38393401662E+03  0.46999998093E+01 0. -1.
       -5    1    3    3    0  502 -0.23851242177E+01  0.30103436392E+03  0.27815326106E+03  0.40990084620E+03  0.46999998093E+01 0.  1.
</event>
<event>
 5   0  0.4695625E-02  0.5985766E+03  0.7818609E-02  0.9908364E-01
        4   -1    0    0  501    0  0.00000000000E+00  0.00000000000E+00  0.28137852202E+03  0.28138138807E+03  0.12699999809E+01 0.  1.
       -4   -1    0    0    0  501  0.00000000000E+00  0.00000000000E+00 -0.31833229659E+03  0.31833482994E+03  0.12699999809E+01 0. -1.
    10030    2    1    2    0    0  0.00000000000E+00  0.00000000000E+00 -0.36953774573E+02  0.59971621801E+03  0.59857661221E+03 0.  0.
        2    1    3    3  502    0  0.83143590795E+02 -0.28722551799E+03 -0.57194094617E+01  0.29907200894E+03  0.25500000920E-02 0. -1.
       -2    1    3    3    0  502 -0.83143590795E+02  0.28722551799E+03 -0.31234365111E+02  0.30064420907E+03  0.25500000920E-02 0.  1.
</event>
<event>
 5   0  0.1206238E-01  0.5242084E+03  0.7818609E-02  0.1007646E+00
       -2   -1    0    0    0  501  0.00000000000E+00  0.00000000000E+00  0.70925144164E+03  0.70925144164E+03  0.25500000920E-02 0.  1.
        2   -1    0    0  501    0  0.00000000000E+00  0.00000000000E+00 -0.96860711749E+02  0.96860711783E+02  0.25500000920E-02 0. -1.
    10030    2    1    2    0    0  0.00000000000E+00  0.00000000000E+00  0.61239072989E+03  0.80611215343E+03  0.52420835347E+03 0.  0.
        5    1    3    3  502    0  0.94015007104E+01  0.24590685127E+03  0.16764282337E+03  0.29779988909E+03  0.46999998093E+01 0. -1.
       -5    1    3    3    0  502 -0.94015007104E+01 -0.24590685127E+03  0.44474790652E+03  0.50831226434E+03  0.46999998093E+01 0.  1.
</event>
<event>
 5   0  0.1146468E-01  0.5988176E+03  0.7818609E-02  0.9907862E-01
       -2   -1    0    0    0  501  0.00000000000E+00  0.00000000000E+00  0.49685097259E+02  0.49685097324E+02  0.25500000920E-02 0. -1.
        2   -1    0    0  501    0  0.00000000000E+00  0.00000000000E+00 -0.18042757555E+04  0.18042757555E+04  0.25500000920E-02 0.  1.
    10030    2    1    2    0    0  0.00000000000E+00  0.00000000000E+00 -0.17545906583E+04  0.18539608528E+04  0.59881755638E+03 0.  0.
        4    1    3    3  502    0  0.99699342513E+02 -0.11269998689E+03 -0.75889727874E+02  0.16852925455E+03  0.12699999809E+01 0. -1.
       -4    1    3    3    0  502 -0.99699342513E+02  0.11269998689E+03 -0.16787009304E+04  0.16854315983E+04  0.12699999809E+01 0.  1.
</event>
<event>
 5   0  0.7263385E-02  0.5904548E+03  0.7818609E-02  0.9925410E-01
        1   -1    0    0  501    0  0.00000000000E+00  0.00000000000E+00  0.62111539767E+03  0.62111539769E+03  0.50400001928E-02 0. -1.
       -1   -1    0    0    0  501  0.00000000000E+00  0.00000000000E+00 -0.14032692458E+03  0.14032692467E+03  0.50400001928E-02 0.  1.
    10030    2    1    2    0    0  0.00000000000E+00  0.00000000000E+00  0.48078847309E+03  0.76144232236E+03  0.59045478609E+03 0.  0.
        1    1    3    3  502    0  0.94331937449E+02 -0.26529870954E+03  0.35485032206E+03  0.45299080653E+03  0.50400001928E-02 0. -1.
       -1    1    3    3    0  502 -0.94331937449E+02  0.26529870954E+03  0.12593815103E+03  0.30845151583E+03  0.50400001928E-02 0.  1.
</event>
<event>
 5   0  0.1206238E-01  0.5287543E+03  0.7818609E-02  0.1006535E+00
       -2   -1    0    0    0  501  0.00000000000E+00  0.00000000000E+00  0.92507467659E+03  0.92507467659E+03  0.25500000920E-02 0.  1.
        2   -1    0    0  501    0  0.00000000000E+00  0.00000000000E+00 -0.75556350771E+02  0.75556350814E+02  0.25500000920E-02 0. -1.
    10030    2    1    2    0    0  0.00000000000E+00  0.00000000000E+00  0.84951832582E+03  0.10006310274E+04  0.52875425966E+03 0.  0.
        5    1    3    3  502    0  0.75704763556E+01 -0.25608336683E+03  0.30157404876E+03  0.39573349588E+03  0.46999998093E+01 0.  1.
       -5    1    3    3    0  502 -0.75704763556E+01  0.25608336683E+03  0.54794427706E+03  0.60489753152E+03  0.46999998093E+01 0. -1.
</event>
<event>
 5   0  0.7221069E-02  0.5958280E+03  0.7818609E-02  0.9914100E-01
        1   -1    0    0  501    0  0.00000000000E+00  0.00000000000E+00  0.11301356955E+04  0.11301356955E+04  0.50400001928E-02 0.  1.
       -1   -1    0    0    0  501  0.00000000000E+00  0.00000000000E+00 -0.78532829462E+02  0.78532829624E+02  0.50400001928E-02 0. -1.
    10030    2    1    2    0    0  0.00000000000E+00  0.00000000000E+00  0.10516028660E+04  0.12086685251E+04  0.59582800856E+03 0.  0.
        5    1    3    3  502    0  0.12570709620E+03  0.89900201923E+02  0.10423712713E+04  0.10537761990E+04  0.46999998093E+01 0.  1.
       -5    1    3    3    0  502 -0.12570709620E+03 -0.89900201923E+02  0.92315946848E+01  0.15489232609E+03  0.46999998093E+01 0. -1.
</event>
<event>
 5   0  0.1175861E-01  0.5606733E+03  0.7818609E-02  0.9990532E-01
       -2   -1    0    0    0  501  0.00000000000E+00  0.00000000000E+00  0.54835875655E+03  0.54835875656E+03  0.25500000920E-02 0.  1.
        2   -1    0    0  501    0  0.00000000000E+00  0.00000000000E+00 -0.14331611952E+03  0.14331611954E+03  0.25500000920E-02 0. -1.
    10030    2    1    2    0    0  0.00000000000E+00  0.00000000000E+00  0.40504263703E+03  0.69167487610E+03  0.56067334199E+03 0.  0.
        3    1    3    3  502    0  0.23714935700E+02 -0.25170024588E+03  0.35195720730E+03  0.43334662561E+03  0.10100000352E+00 0.  1.
       -3    1    3    3    0  502 -0.23714935700E+02  0.25170024588E+03  0.53085429730E+02  0.25832825050E+03  0.10100000352E+00 0. -1.
</event>
<event>
 5   0  0.1206238E-01  0.6015636E+03  0.7818609E-02  0.9902167E-01
        2   -1    0    0  501    0  0.00000000000E+00  0.00000000000E+00  0.34233496641E+03  0.34233496642E+03  0.25500000920E-02 0. -1.
       -2   -1    0    0    0  501  0.00000000000E+00  0.00000000000E+00 -0.26427240945E+03  0.26427240946E+03  0.25500000920E-02 0.  1.
    10030    2    1    2    0    0  0.00000000000E+00  0.00000000000E+00  0.78062556960E+02  0.60660737588E+03  0.60156358406E+03 0.  0.
        5    1    3    3  502    0  0.70567149614E+02 -0.26171561862E+03 -0.92340780859E+02  0.28639779580E+03  0.46999998093E+01 0.  1.
       -5    1    3    3    0  502 -0.70567149614E+02  0.26171561862E+03  0.17040333782E+03  0.32020958007E+03  0.46999998093E+01 0. -1.
</event>
<event>
 5   0  0.7266519E-02  0.6037831E+03  0.7818609E-02  0.9897588E-01
        1   -1    0    0  501    0  0.00000000000E+00  0.00000000000E+00  0.86368998021E+02  0.86368998168E+02  0.50400001928E-02 0.  1.
       -1   -1    0    0    0  501  0.00000000000E+00  0.00000000000E+00 -0.10552226082E+04  0.10552226082E+04  0.50400001928E-02 0. -1.
    10030    2    1    2    0    0  0.00000000000E+00  0.00000000000E+00 -0.96885361015E+03  0.11415916064E+04  0.60378313805E+03 0.  0.
        4    1    3    3  502    0 -0.79684300141E+02  0.23653489817E+03 -0.16334434764E+03  0.29829739279E+03  0.12699999809E+01 0.  1.
       -4    1    3    3    0  502  0.79684300141E+02 -0.23653489817E+03 -0.80550926251E+03  0.84329421357E+03  0.12699999809E+01 0. -1.
</event>
<event>
 5   0  0.1175861E-01  0.6705766E+03  0.7818609E-02  0.9768917E-01
       -2   -1    0    0    0  501  0.00000000000E+00  0.00000000000E+00  0.85922391773E+02  0.85922391810E+02  0.25500000920E-02 0.  1.
        2   -1    0    0  501    0  0.00000000000E+00  0.00000000000E+00 -0.13083694557E+04  0.13083694557E+04  0.25500000920E-02 0. -1.
    10030    2    1    2    0    0  0.00000000000E+00  0.00000000000E+00 -0.12224470640E+04  0.13942918476E+04  0.67057656681E+03 0.  0.
        3    1    3    3  502    0 -0.20492886406E+03  0.24540178122E+03 -0.40122665516E+03  0.51303090800E+03  0.10100000352E+00 0. -1.
       -3    1    3    3    0  502  0.20492886406E+03 -0.24540178122E+03 -0.82122040881E+03  0.88126093956E+03  0.10100000352E+00 0.  1.
</event>
<event>
 5   0  0.1219020E-01  0.6010900E+03  0.7818609E-02  0.9903147E-01
        2   -1    0    0  501    0  0.00000000000E+00  0.00000000000E+00  0.10566579567E+04  0.10566579568E+04  0.25500000920E-02 0. -1.
       -2   -1    0    0    0  501  0.00000000000E+00  0.00000000000E+00 -0.85483941007E+02  0.85483941045E+02  0.25500000920E-02 0.  1.
    10030    2    1    2    0    0  0.00000000000E+00  0.00000000000E+00  0.97117401574E+03  0.11421418978E+04  0.60108996486E+03 0.  0.
        2    1    3    3  502    0 -0.28129333306E+02 -0.13369357624E+03  0.99424422855E+03  0.10035869757E+04  0.25500000920E-02 0. -1.
       -2    1    3    3    0  502  0.28129333306E+02  0.13369357624E+03 -0.23070212813E+02  0.13855492212E+03  0.25500000920E-02 0.  1.
</event>
<event>
 5   0  0.1146468E-01  0.5945125E+03  0.7818609E-02  0.9916857E-01
        2   -1    0    0  501    0  0.00000000000E+00  0.00000000000E+00  0.65795149900E+03  0.65795149901E+03  0.25500000920E-02 0.  1.
       -2   -1    0    0    0  501  0.00000000000E+00  0.00000000000E+00 -0.13429754982E+03  0.13429754985E+03  0.25500000920E-02 0. -1.
    10030    2    1    2    0    0  0.00000000000E+00  0.00000000000E+00  0.52365394918E+03  0.79224904885E+03  0.59451248676E+03 0.  0.
        4    1    3    3  502    0  0.74531994264E+02 -0.38396375366E+02  0.64186503870E+03  0.64731880910E+03  0.12699999809E+01 0.  1.
       -4    1    3    3    0  502 -0.74531994264E+02  0.38396375366E+02 -0.11821108952E+03  0.14493023975E+03  0.12699999809E+01 0. -1.
</event>
<event>
 5   0  0.1206238E-01  0.6195480E+03  0.7818609E-02  0.9865660E-01
       -2   -1    0    0    0  501  0.00000000000E+00  0.00000000000E+00  0.11879095023E+03  0.11879095025E+03  0.25500000920E-02 0.  1.
        2   -1    0    0  501    0  0.00000000000E+00  0.00000000000E+00 -0.80780512347E+03  0.80780512347E+03  0.25500000920E-02 0. -1.
    10030    2    1    2    0    0  0.00000000000E+00  0.00000000000E+00 -0.68901417324E+03  0.92659607373E+03  0.61954802309E+03 0.  0.
        5    1    3    3  502    0 -0.25334331562E+02 -0.16487046279E+03 -0.73483793615E+03  0.75354693302E+03  0.46999998093E+01 0. -1.
       -5    1    3    3    0  502  0.25334331562E+02  0.16487046279E+03  0.45823762906E+02  0.17304914071E+03  0.46999998093E+01 0.  1.
</event>
<event>
 5   0  0.1166419E-01  0.5800658E+03  0.7818609E-02  0.9947649E-01
       -2   -1    0    0    0  501  0.00000000000E+00  0.00000000000E+00  0.88112526594E+03  0.88112526595E+03  0.25500000920E-02 0. -1.
        2   -1    0    0  501    0  0.00000000000E+00  0.00000000000E+00 -0.95467786666E+02  0.95467786700E+02  0.25500000920E-02 0.  1.
    10030    2    1    2    0    0  0.00000000000E+00  0.00000000000E+00  0.78565747928E+03  0.97659305265E+03  0.58006578570E+03 0.  0.
        1    1    3    3  502    0 -0.17965329822E+03  0.20276168118E+03  0.56723658976E+03  0.62860556448E+03  0.50400001928E-02 0. -1.
       -1    1    3    3    0  502  0.17965329822E+03 -0.20276168118E+03  0.21842088952E+03  0.34798748816E+03  0.50400001928E-02 0.  1.
</event>
<event>
 5   0  0.1166419E-01  0.6045357E+03  0.7818609E-02  0.9896040E-01
        2   -1    0    0  501    0  0.00000000000E+00  0.00000000000E+00  0.71244254147E+03  0.71244254148E+03  0.25500000920E-02 0.  1.
       -2   -1    0    0    0  501  0.00000000000E+00  0.00000000000E+00 -0.12824312361E+03  0.12824312363E+03  0.25500000920E-02 0. -1.
    10030    2    1    2    0    0  0.00000000000E+00  0.00000000000E+00  0.58419941786E+03  0.84068566511E+03  0.60453571250E+03 0.  0.
        1    1    3    3  502    0 -0.28973420613E+03 -0.41092676972E+02  0.39737821502E+03  0.49350173668E+03  0.50400001928E-02 0.  1.
       -1    1    3    3    0  502  0.28973420613E+03  0.41092676972E+02  0.18682120284E+03  0.34718392843E+03  0.50400001928E-02 0. -1.
</event>
<event>
 5   0  0.7263385E-02  0.5939851E+03  0.7818609E-02  0.9917964E-01
       -1   -1    0    0    0  501  0.00000000000E+00  0.00000000000E+00  0.68665896189E+02  0.68665896374E+02  0.50400001928E-02 0.  1.
        1   -1    0    0  501    0  0.00000000000E+00  0.00000000000E+00 -0.12845469058E+04  0.12845469058E+04  0.50400001928E-02 0. -1.
    10030    2    1    2    0    0  0.00000000000E+00  0.00000000000E+00 -0.12158810096E+04  0.13532128021E+04  0.59398506585E+03 0.  0.
        1    1    3    3  502    0  0.26669373726E+03  0.67996235914E+02 -0.86219674784E+03  0.90505926303E+03  0.50400001928E-02 0.  1.
       -1    1    3    3    0  502 -0.26669373726E+03 -0.67996235914E+02 -0.35368426172E+03  0.44815353910E+03  0.50400001928E-02 0. -1.
</event>
<event>
 5   0  0.7123340E-02  0.6034099E+03  0.7818609E-02  0.9898357E-01
       -1   -1    0    0    0  501  0.00000000000E+00  0.00000000000E+00  0.10964867808E+03  0.10964867819E+03  0.50400001928E-02 0.  1.
        1   -1    0    0  501    0  0.00000000000E+00  0.00000000000E+00 -0.83015945804E+03  0.83015945806E+03  0.50400001928E-02 0. -1.
    10030    2    1    2    0    0  0.00000000000E+00  0.00000000000E+00 -0.72051077997E+03  0.93980813625E+03  0.60340993438E+03 0.  0.
        2    1    3    3  502    0 -0.19494407312E+03 -0.22966044885E+03 -0.33425063710E+03  0.44996733417E+03  0.25500000920E-02 0. -1.
       -2    1    3    3    0  502  0.19494407312E+03  0.22966044885E+03 -0.38626014287E+03  0.48984080208E+03  0.25500000920E-02 0.  1.
</event>
<event>
 5   0  0.1166419E-01  0.6061989E+03  0.7818609E-02  0.9892628E-01
       -2   -1    0    0    0  501  0.00000000000E+00  0.00000000000E+00  0.15676787945E+03  0.15676787947E+03  0.25500000920E-02 0. -1.
        2   -1    0    0  501    0  0.00000000000E+00  0.00000000000E+00 -0.58602095586E+03  0.58602095587E+03  0.25500000920E-02 0.  1.
    10030    2    1    2    0    0  0.00000000000E+00  0.00000000000E+00 -0.42925307641E+03  0.74278883534E+03  0.60619885376E+03 0.  0.
        1    1    3    3  502    0 -0.19691980201E+03 -0.14920411590E+03 -0.42977434325E+03  0.49572700427E+03  0.50400001928E-02 0.  1.
       -1    1    3    3    0  502  0.19691980201E+03  0.14920411590E+03  0.52126683627E+00  0.24706183107E+03  0.50400001928E-02 0. -1.
</event>
<event>
 5   0  0.7424930E-02  0.6309601E+03  0.7818609E-02  0.9843177E-01
        1   -1    0    0  501    0  0.00000000000E+00  0.00000000000E+00  0.13612852226E+04  0.13612852226E+04  0.50400001928E-02 0.  1.
       -1   -1    0    0    0  501  0.00000000000E+00  0.00000000000E+00 -0.73113000742E+02  0.73113000915E+02  0.50400001928E-02 0. -1.
    10030    2    1    2    0    0  0.00000000000E+00  0.00000000000E+00  0.12881722218E+04  0.14343982235E+04  0.63096005458E+03 0.  0.
        3    1    3    3  502    0  0.30510183831E+03 -0.77695584448E+02  0.59839772802E+03  0.67616831239E+03  0.10100000352E+00 0.  1.
       -3    1    3    3    0  502 -0.30510183831E+03  0.77695584448E+02  0.68977449379E+03  0.75822991109E+03  0.10100000352E+00 0. -1.
</event>
<event>
 5   0  0.1206238E-01  0.5859442E+03  0.7818609E-02  0.9935004E-01
       -2   -1    0    0    0  501  0.00000000000E+00  0.00000000000E+00  0.15431118371E+03  0.15431118373E+03  0.25500000920E-02 0.  1.
        2   -1    0    0  501    0  0.00000000000E+00  0.00000000000E+00 -0.55623094771E+03  0.55623094771E+03  0.25500000920E-02 0. -1.
    10030    2    1    2    0    0  0.00000000000E+00  0.00000000000E+00 -0.40191976400E+03  0.71054213144E+03  0.58594421566E+03 0.  0.
        5    1    3    3  502    0 -0.11467401562E+03 -0.26211875145E+03 -0.12470587446E+03  0.31213781386E+03  0.46999998093E+01 0.  1.
       -5    1    3    3    0  502  0.11467401562E+03  0.26211875145E+03 -0.27721388954E+03  0.39840431758E+03  0.46999998093E+01 0. -1.
</event>
<event>
 5   0  0.7424930E-02  0.5938851E+03  0.7818609E-02  0.9918174E-01
       -1   -1    0    0    0  501  0.00000000000E+00  0.00000000000E+00  0.21087129160E+03  0.21087129166E+03  0.50400001928E-02 0.  1.
        1   -1    0    0  501    0  0.00000000000E+00  0.00000000000E+00 -0.41814548213E+03  0.41814548216E+03  0.50400001928E-02 0. -1.
    10030    2    1    2    0    0  0.00000000000E+00  0.00000000000E+00 -0.20727419053E+03  0.62901677382E+03  0.59388509974E+03 0.  0.
        3    1    3    3  502    0 -0.10215328095E+03 -0.13611916846E+03  0.15409086357E+03  0.22958163095E+03  0.10100000352E+00 0.  1.
       -3    1    3    3    0  502  0.10215328095E+03  0.13611916846E+03 -0.36136505410E+03  0.39943514287E+03  0.10100000352E+00 0. -1.
</event>
<event>
 5   0  0.1219020E-01  0.6069278E+03  0.7818609E-02  0.9891136E-01
       -2   -1    0    0    0  501  0.00000000000E+00  0.00000000000E+00  0.89818504569E+02  0.89818504605E+02  0.25500000920E-02 0.  1.
        2   -1    0    0  501    0  0.00000000000E+00  0.00000000000E+00 -0.10252936484E+04  0.10252936484E+04  0.25500000920E-02 0. -1.
    10030    2    1    2    0    0  0.00000000000E+00  0.00000000000E+00 -0.93547514382E+03  0.11151121530E+04  0.60692781207E+03 0.  0.
        2    1    3    3  502    0  0.25744583037E+03  0.27987006855E+02 -0.17706719167E+03  0.31371072424E+03  0.25500000920E-02 0.  1.
       -2    1    3    3    0  502 -0.25744583037E+03 -0.27987006855E+02 -0.75840795215E+03  0.80140142876E+03  0.25500000920E-02 0. -1.
</event>
<event>
 5   0  0.7266519E-02  0.5873717E+03  0.7818609E-02  0.9931958E-01
       -1   -1    0    0    0  501  0.00000000000E+00  0.00000000000E+00  0.29663154049E+03  0.29663154053E+03  0.50400001928E-02 0. -1.
        1   -1    0    0  501    0  0.00000000000E+00  0.00000000000E+00 -0.29076943559E+03  0.29076943563E+03  0.50400001928E-02 0.  1.
    10030    2    1    2    0    0  0.00000000000E+00  0.00000000000E+00  0.58621049001E+01  0.58740097617E+03  0.58737172432E+03 0.  0.
        4    1    3    3  502    0  0.10465366337E+03  0.94579887306E+02  0.26053275544E+03  0.29627128430E+03  0.12699999809E+01 0. -1.
       -4    1    3    3    0  502 -0.10465366337E+03 -0.94579887306E+02 -0.25467065054E+03  0.29112969187E+03  0.12699999809E+01 0.  1.
</event>
<event>
 5   0  0.7221069E-02  0.6085589E+03  0.7818609E-02  0.9887806E-01
        1   -1    0    0  501    0  0.00000000000E+00  0.00000000000E+00  0.24878894287E+03  0.24878894293E+03  0.50400001928E-02 0. -1.
       -1   -1    0    0    0  501  0.00000000000E+00  0.00000000000E+00 -0.37214671611E+03  0.37214671615E+03  0.50400001928E-02 0.  1.
    10030    2    1    2    0    0  0.00000000000E+00  0.00000000000E+00 -0.12335777324E+03  0.62093565907E+03  0.60855891456E+03 0.  0.
        5    1    3    3  502    0 -0.27439229268E+03  0.11241378251E+02  0.71928490604E+02  0.28392480805E+03  0.46999998093E+01 0.  1.
       -5    1    3    3    0  502  0.27439229268E+03 -0.11241378251E+02 -0.19528626384E+03  0.33701085103E+03  0.46999998093E+01 0. -1.
</event>
<event>
 5   0  0.7263385E-02  0.5989224E+03  0.7818609E-02  0.9907644E-01
       -1   -1    0    0    0  501  0.00000000000E+00  0.00000000000E+00  0.38977469886E+03  0.38977469890E+03  0.50400001928E-02 0.  1.
        1   -1    0    0  501    0  0.00000000000E+00  0.00000000000E+00 -0.23007398588E+03  0.23007398593E+03  0.50400001928E-02 0. -1.
    10030    2    1    2    0    0  0.00000000000E+00  0.00000000000E+00  0.15970071299E+03  0.61984868483E+03  0.59892242766E+03 0.  0.
        1    1    3    3  502    0 -0.22686795466E+03 -0.19075408772E+03  0.12401243820E+03  0.32130246760E+03  0.50400001928E-02 0.  1.
       -1    1    3    3    0  502  0.22686795466E+03  0.19075408772E+03  0.35688274788E+02  0.29854621722E+03  0.50400001928E-02 0. -1.
</event>
<event>
 5   0  0.7123340E-02  0.6844945E+03  0.7818609E-02  0.9744122E-01
       -1   -1    0    0    0  501  0.00000000000E+00  0.00000000000E+00  0.16949886211E+03  0.16949886219E+03  0.50400001928E-02 0.  1.
        1   -1    0    0  501    0  0.00000000000E+00  0.00000000000E+00 -0.69105590881E+03  0.69105590883E+03  0.50400001928E-02 0. -1.
    10030    2    1    2    0    0  0.00000000000E+00  0.00000000000E+00 -0.52155704670E+03  0.86055477101E+03  0.68449452953E+03 0.  0.
        2    1    3    3  502    0  0.20934255375E+03 -0.27068500277E+03 -0.26858080769E+03  0.43500612157E+03  0.25500000920E-02 0.  1.
       -2    1    3    3    0  502 -0.20934255375E+03  0.27068500277E+03 -0.25297623901E+03  0.42554864944E+03  0.25500000920E-02 0. -1.
</event>
<event>
 5   0  0.1175861E-01  0.5951388E+03  0.7818609E-02  0.9915543E-01
       -2   -1    0    0    0  501  0.00000000000E+00  0.00000000000E+00  0.66030301415E+02  0.66030301464E+02  0.25500000920E-02 0. -1.
        2   -1    0    0  501    0  0.00000000000E+00  0.00000000000E+00 -0.13410139182E+04  0.13410139182E+04  0.25500000920E-02 0.  1.
    10030    2    1    2    0    0  0.00000000000E+00  0.00000000000E+00 -0.12749836168E+04  0.14070442196E+04  0.59513881827E+03 0.  0.
        3    1    3    3  502    0 -0.95302097360E+02 -0.12916823906E+03 -0.12298743706E+04  0.12403055677E+04  0.10100000352E+00 0.  1.
       -3    1    3    3    0  502  0.95302097360E+02  0.12916823906E+03 -0.45109246165E+02  0.16673865189E+03  0.10100000352E+00 0. -1.
</event>
<event>
 5   0  0.1166419E-01  0.6085003E+03  0.7818609E-02  0.9887926E-01
       -2   -1    0    0    0  501  0.00000000000E+00  0.00000000000E+00  0.32380742166E+03  0.32380742167E+03  0.25500000920E-02 0. -1.
        2   -1    0    0  501    0  0.00000000000E+00  0.00000000000E+00 -0.28587411960E+03  0.28587411961E+03  0.25500000920E-02 0.  1.
    10030    2    1    2    0    0  0.00000000000E+00  0.00000000000E+00  0.37933302055E+02  0.60968154128E+03  0.60850032569E+03 0.  0.
        1    1    3    3  502    0 -0.17078990710E+03 -0.17025041860E+03  0.20483623232E+03  0.31640524569E+03  0.50400001928E-02 0. -1.
       -1    1    3    3    0  502  0.17078990710E+03  0.17025041860E+03 -0.16690293027E+03  0.29327629559E+03  0.50400001928E-02 0.  1.
</event>
<event>
 5   0  0.7123340E-02  0.5999616E+03  0.7818609E-02  0.9905486E-01
        1   -1    0    0  501    0  0.00000000000E+00  0.00000000000E+00  0.11668130601E+04  0.11668130601E+04  0.50400001928E-02 0. -1.
       -1   -1    0    0    0  501  0.00000000000E+00  0.00000000000E+00 -0.77123312081E+02  0.77123312246E+02  0.50400001928E-02 0.  1.
    10030    2    1    2    0    0  0.00000000000E+00  0.00000000000E+00  0.10896897480E+04  0.12439363724E+04  0.59996162506E+03 0.  0.
        2    1    3    3  502    0  0.10569557532E+03  0.17404613209E+02  0.11258076152E+04  0.11308922414E+04  0.25500000920E-02 0. -1.
       -2    1    3    3    0  502 -0.10569557532E+03 -0.17404613209E+02 -0.36117867197E+02  0.11304413094E+03  0.25500000920E-02 0.  1.
</event>
<event>
 5   0  0.7123340E-02  0.5803808E+03  0.7818609E-02  0.9946967E-01
        1   -1    0    0  501    0  0.00000000000E+00  0.00000000000E+00  0.27370272346E+03  0.27370272351E+03  0.50400001928E-02 0. -1.
       -1   -1    0    0    0  501  0.00000000000E+00  0.00000000000E+00 -0.30767129561E+03  0.30767129565E+03  0.50400001928E-02 0.  1.
    10030    2    1    2    0    0  0.00000000000E+00  0.00000000000E+00 -0.33968572149E+02  0.58137401916E+03  0.58038081142E+03 0.  0.
        2    1    3    3  502    0  0.70573029168E+02 -0.19032047521E+03  0.19075439927E+03  0.27854923547E+03  0.25500000920E-02 0. -1.
       -2    1    3    3    0  502 -0.70573029168E+02  0.19032047521E+03 -0.22472297142E+03  0.30282478370E+03  0.25500000920E-02 0.  1.
</event>
<event>
 5   0  0.7424930E-02  0.6028390E+03  0.7818609E-02  0.9899533E-01
        1   -1    0    0  501    0  0.00000000000E+00  0.00000000000E+00  0.13589219775E+04  0.13589219775E+04  0.50400001928E-02 0. -1.
       -1   -1    0    0    0  501  0.00000000000E+00  0.00000000000E+00 -0.66857195750E+02  0.66857195940E+02  0.50400001928E-02 0.  1.
    10030    2    1    2    0    0  0.00000000000E+00  0.00000000000E+00  0.12920647818E+04  0.14257791735E+04  0.60283899277E+03 0.  0.
        3    1    3    3  502    0  0.12804550192E+03  0.26940995030E+03  0.74848089594E+03  0.80573012459E+03  0.10100000352E+00 0. -1.
       -3    1    3    3    0  502 -0.12804550192E+03 -0.26940995030E+03  0.54358388581E+03  0.62004904886E+03  0.10100000352E+00 0.  1.
</event>
<event>
 5   0  0.7266519E-02  0.6048329E+03  0.7818609E-02  0.9895430E-01
       -1   -1    0    0    0  501  0.00000000000E+00  0.00000000000E+00  0.27653155156E+03  0.27653155160E+03  0.50400001928E-02 0.  1.
        1   -1    0    0  501    0  0.00000000000E+00  0.00000000000E+00 -0.33072427193E+03  0.33072427197E+03  0.50400001928E-02 0. -1.
    10030    2    1    2    0    0  0.00000000000E+00  0.00000000000E+00 -0.54192720373E+02  0.60725582357E+03  0.60483285651E+03 0.  0.
        4    1    3    3  502    0  0.22622801382E+02  0.29334245452E+03  0.43130228192E+02  0.29736075103E+03  0.12699999809E+01 0. -1.
       -4    1    3    3    0  502 -0.22622801382E+02 -0.29334245452E+03 -0.97322948565E+02  0.30989507254E+03  0.12699999809E+01 0.  1.
</event>
<event>
 5   0  0.1219020E-01  0.6000146E+03  0.7818609E-02  0.9905376E-01
        2   -1    0    0  501    0  0.00000000000E+00  0.00000000000E+00  0.18853691061E+04  0.18853691061E+04  0.25500000920E-02 0.  1.
       -2   -1    0    0    0  501  0.00000000000E+00  0.00000000000E+00 -0.47738336061E+02  0.47738336129E+02  0.25500000920E-02 0. -1.
    10030    2    1    2    0    0  0.00000000000E+00  0.00000000000E+00  0.18376307700E+04  0.19331074422E+04  0.60001461334E+03 0.  0.
        2    1    3    3  502    0  0.26180520046E+03 -0.19422462308E+02  0.13866398336E+04  0.14112722003E+04  0.25500000920E-02 0. -1.
       -2    1    3    3    0  502 -0.26180520046E+03  0.19422462308E+02  0.45099093642E+03  0.52183524198E+03  0.25500000920E-02 0.  1.
</event>
<event>
 5   0  0.1166419E-01  0.6041430E+03  0.7818609E-02  0.9896848E-01
        2   -1    0    0  501    0  0.00000000000E+00  0.00000000000E+00  0.14512834152E+04  0.14512834152E+04  0.25500000920E-02 0.  1.
       -2   -1    0    0    0  501  0.00000000000E+00  0.00000000000E+00 -0.62873457461E+02  0.62873457513E+02  0.25500000920E-02 0. -1.
    10030    2    1    2    0    0  0.00000000000E+00  0.00000000000E+00  0.13884099577E+04  0.15141568727E+04  0.60414304965E+03 0.  0.
        1    1    3    3  502    0 -0.55553705769E+02  0.29339174126E+03  0.57983805340E+03  0.65220939602E+03  0.50400001928E-02 0. -1.
       -1    1    3    3    0  502  0.55553705769E+02 -0.29339174126E+03  0.80857190434E+03  0.86194747669E+03  0.50400001928E-02 0.  1.
</event>
<event>
 5   0  0.4695625E-02  0.6121517E+03  0.7818609E-02  0.9880511E-01
       -3   -1    0    0    0  501  0.00000000000E+00  0.00000000000E+00  0.19423350318E+03  0.19423352944E+03  0.10100000352E+00 0.  1.
        3   -1    0    0  501    0  0.00000000000E+00  0.00000000000E+00 -0.48231846441E+03  0.48231847498E+03  0.10100000352E+00 0. -1.
    10030    2    1    2    0    0  0.00000000000E+00  0.00000000000E+00 -0.28808496123E+03  0.67655200442E+03  0.61215167222E+03 0.  0.
        1    1    3    3  502    0 -0.15482784891E+03  0.10397756955E+03  0.12418153043E+03  0.22406260351E+03  0.50400001928E-02 0.  1.
       -1    1    3    3    0  502  0.15482784891E+03 -0.10397756955E+03 -0.41226649166E+03  0.45248940091E+03  0.50400001928E-02 0. -1.
</event>
<event>
 5   0  0.7263385E-02  0.5596181E+03  0.7818609E-02  0.9992919E-01
       -1   -1    0    0    0  501  0.00000000000E+00  0.00000000000E+00  0.10543638276E+03  0.10543638288E+03  0.50400001928E-02 0. -1.
        1   -1    0    0  501    0  0.00000000000E+00  0.00000000000E+00 -0.74256258174E+03  0.74256258176E+03  0.50400001928E-02 0.  1.
    10030    2    1    2    0    0  0.00000000000E+00  0.00000000000E+00 -0.63712619899E+03  0.84799896464E+03  0.55961812925E+03 0.  0.
        1    1    3    3  502    0 -0.51589134493E+01  0.25918072164E+03 -0.47815306288E+03  0.54390404708E+03  0.50400001928E-02 0.  1.
       -1    1    3    3    0  502  0.51589134493E+01 -0.25918072164E+03 -0.15897313611E+03  0.30409491756E+03  0.50400001928E-02 0. -1.
</event>
<event>
 5   0  0.1219020E-01  0.5739221E+03  0.7818609E-02  0.9961037E-01
       -2   -1    0    0    0  501  0.00000000000E+00  0.00000000000E+00  0.77520336639E+02  0.77520336681E+02  0.25500000920E-02 0. -1.
        2   -1    0    0  501    0  0.00000000000E+00  0.00000000000E+00 -0.10622587183E+04  0.10622587183E+04  0.25500000920E-02 0.  1.
    10030    2    1    2    0    0  0.00000000000E+00  0.00000000000E+00 -0.98473838170E+03  0.11397790550E+04  0.57392213224E+03 0.  0.
        2    1    3    3  502    0 -0.19447835565E+03 -0.11648348010E+03 -0.84178542187E+03  0.87177573288E+03  0.25500000920E-02 0.  1.
       -2    1    3    3    0  502  0.19447835565E+03  0.11648348010E+03 -0.14295295983E+03  0.26800332215E+03  0.25500000920E-02 0. -1.
</event>
<event>
 5   0  0.7263385E-02  0.6088794E+03  0.7818609E-02  0.9887153E-01
        1   -1    0    0  501    0  0.00000000000E+00  0.00000000000E+00  0.16343936118E+03  0.16343936126E+03  0.50400001928E-02 0. -1.
       -1   -1    0    0    0  501  0.00000000000E+00  0.00000000000E+00 -0.56708210753E+03  0.56708210756E+03  0.50400001928E-02 0.  1.
    10030    2    1    2    0    0  0.00000000000E+00  0.00000000000E+00 -0.40364274635E+03  0.73052146882E+03  0.60887942133E+03 0.  0.
        1    1    3    3  502    0  0.76992881678E+02 -0.69449138256E+02 -0.54524459665E+03  0.55501599692E+03  0.50400001928E-02 0.  1.
       -1    1    3    3    0  502 -0.76992881678E+02  0.69449138256E+02  0.14160185030E+03  0.17550547190E+03  0.50400001928E-02 0. -1.
</event>
<event>
 5   0  0.1166419E-01  0.5826840E+03  0.7818609E-02  0.9941997E-01
       -2   -1    0    0    0  501  0.00000000000E+00  0.00000000000E+00  0.10706932906E+03  0.10706932909E+03  0.25500000920E-02 0.  1.
        2   -1    0    0  501    0  0.00000000000E+00  0.00000000000E+00 -0.79275883248E+03  0.79275883248E+03  0.25500000920E-02 0. -1.
    10030    2    1    2    0    0  0.00000000000E+00  0.00000000000E+00 -0.68568950341E+03  0.89982816157E+03  0.58268398405E+03 0.  0.
        1    1    3    3  502    0  0.71175330399E+01 -0.13249671223E+03  0.57699503390E+02  0.14469025795E+03  0.50400001928E-02 0.  1.
       -1    1    3    3    0  502 -0.71175330399E+01  0.13249671223E+03 -0.74338900680E+03  0.75513790363E+03  0.50400001928E-02 0. -1.
</event>
<event>
 5   0  0.7424930E-02  0.6006570E+03  0.7818609E-02  0.9904044E-01
       -1   -1    0    0    0  501  0.00000000000E+00  0.00000000000E+00  0.88689737858E+02  0.88689738001E+02  0.50400001928E-02 0. -1.
        1   -1    0    0  501    0  0.00000000000E+00  0.00000000000E+00 -0.10169969565E+04  0.10169969565E+04  0.50400001928E-02 0.  1.
    10030    2    1    2    0    0  0.00000000000E+00  0.00000000000E+00 -0.92830721866E+03  0.11056866945E+04  0.60065695222E+03 0.  0.
        3    1    3    3  502    0  0.10264784507E+03 -0.28192401002E+03 -0.48881311520E+03  0.57354685887E+03  0.10100000352E+00 0. -1.
       -3    1    3    3    0  502 -0.10264784507E+03  0.28192401002E+03 -0.43949410347E+03  0.53213983567E+03  0.10100000352E+00 0.  1.
</event>
<event>
 5   0  0.1206238E-01  0.4583046E+03  0.7818609E-02  0.1025274E+00
       -2   -1    0    0    0  501  0.00000000000E+00  0.00000000000E+00  0.12718281741E+03  0.12718281744E+03  0.25500000920E-02 0.  1.
        2   -1    0    0  501    0  0.00000000000E+00  0.00000000000E+00 -0.41287633166E+03  0.41287633166E+03  0.25500000920E-02 0. -1.
    10030    2    1    2    0    0  0.00000000000E+00  0.00000000000E+00 -0.28569351424E+03  0.54005914910E+03  0.45830459353E+03 0.  0.
        5    1    3    3  502    0 -0.21312603987E+03 -0.83250149354E+02 -0.15655805642E+03  0.27728290835E+03  0.46999998093E+01 0.  1.
       -5    1    3    3    0  502  0.21312603987E+03  0.83250149354E+02 -0.12913545782E+03  0.26277624075E+03  0.46999998093E+01 0. -1.
</event>
<event>
 5   0  0.1166419E-01  0.6039499E+03  0.7818609E-02  0.9897245E-01
       -2   -1    0    0    0  501  0.00000000000E+00  0.00000000000E+00  0.11555816082E+03  0.11555816085E+03  0.25500000920E-02 0.  1.
        2   -1    0    0  501    0  0.00000000000E+00  0.00000000000E+00 -0.78911670031E+03  0.78911670031E+03  0.25500000920E-02 0. -1.
    10030    2    1    2    0    0  0.00000000000E+00  0.00000000000E+00 -0.67355853949E+03  0.90467486116E+03  0.60394991373E+03 0.  0.
        1    1    3    3  502    0 -0.26112964911E+03 -0.11430031399E+03 -0.18746921104E+03  0.34117145329E+03  0.50400001928E-02 0.  1.
       -1    1    3    3    0  502  0.26112964911E+03  0.11430031399E+03 -0.48608932845E+03  0.56350340787E+03  0.50400001928E-02 0. -1.
</event>
<event>
 5   0  0.7123340E-02  0.6679055E+03  0.7818609E-02  0.9773749E-01
        1   -1    0    0  501    0  0.00000000000E+00  0.00000000000E+00  0.98280847823E+03  0.98280847824E+03  0.50400001928E-02 0. -1.
       -1   -1    0    0    0  501  0.00000000000E+00  0.00000000000E+00 -0.11347525193E+03  0.11347525204E+03  0.50400001928E-02 0.  1.
    10030    2    1    2    0    0  0.00000000000E+00  0.00000000000E+00  0.86933322630E+03  0.10962837303E+04  0.66790550150E+03 0.  0.
        2    1    3    3  502    0  0.94851613810E+00  0.26551684543E+03  0.76711847934E+03  0.81177019916E+03  0.25500000920E-02 0. -1.
       -2    1    3    3    0  502 -0.94851613810E+00 -0.26551684543E+03  0.10221474695E+03  0.28451353112E+03  0.25500000920E-02 0.  1.
</event>
<event>
 5   0  0.1219020E-01  0.6109859E+03  0.7818609E-02  0.9882872E-01
       -2   -1    0    0    0  501  0.00000000000E+00  0.00000000000E+00  0.73201935709E+02  0.73201935753E+02  0.25500000920E-02 0. -1.
        2   -1    0    0  501    0  0.00000000000E+00  0.00000000000E+00 -0.12749109305E+04  0.12749109305E+04  0.25500000920E-02 0.  1.
    10030    2    1    2    0    0  0.00000000000E+00  0.00000000000E+00 -0.12017089948E+04  0.13481128662E+04  0.61098591800E+03 0.  0.
        2    1    3    3  502    0 -0.62248354459E+02  0.24350606714E+03 -0.98401531963E+03  0.10156063271E+04  0.25500000920E-02 0.  1.
       -2    1    3    3    0  502  0.62248354459E+02 -0.24350606714E+03 -0.21769367515E+03  0.33250653914E+03  0.25500000920E-02 0. -1.
</event>
<event>
 5   0  0.1166419E-01  0.5357123E+03  0.7818609E-02  0.1004856E+00
       -2   -1    0    0    0  501  0.00000000000E+00  0.00000000000E+00  0.46376110602E+02  0.46376110672E+02  0.25500000920E-02 0. -1.
        2   -1    0    0  501    0  0.00000000000E+00  0.00000000000E+00 -0.15470662368E+04  0.15470662368E+04  0.25500000920E-02 0.  1.
    10030    2    1    2    0    0  0.00000000000E+00  0.00000000000E+00 -0.15006901262E+04  0.15934423475E+04  0.53571229205E+03 0.  0.
        1    1    3    3  502    0 -0.13862534015E+03 -0.19320082945E+03 -0.11170989023E+04  0.11421267456E+04  0.50400001928E-02 0.  1.
       -1    1    3    3    0  502  0.13862534015E+03  0.19320082945E+03 -0.38359122392E+03  0.45131560191E+03  0.50400001928E-02 0. -1.
</event>
<event>
 5   0  0.7123340E-02  0.5982367E+03  0.7818609E-02  0.9909071E-01
       -1   -1    0    0    0  501  0.00000000000E+00  0.00000000000E+00  0.15773520992E+03  0.15773521000E+03  0.50400001928E-02 0.  1.
        1   -1    0    0  501    0  0.00000000000E+00  0.00000000000E+00 -0.56722768881E+03  0.56722768883E+03  0.50400001928E-02 0. -1.
    10030    2    1    2    0    0  0.00000000000E+00  0.00000000000E+00 -0.40949247889E+03  0.72496289883E+03  0.59823667091E+03 0.  0.
        2    1    3    3  502    0 -0.26543763864E+02  0.46564519375E+02  0.15186832024E+03  0.16104909986E+03  0.25500000920E-02 0.  1.
       -2    1    3    3    0  502  0.26543763864E+02 -0.46564519375E+02 -0.56136079913E+03  0.56391379898E+03  0.25500000920E-02 0. -1.
</event>
<event>
 5   0  0.7266519E-02  0.5972168E+03  0.7818609E-02  0.9911197E-01
        1   -1    0    0  501    0  0.00000000000E+00  0.00000000000E+00  0.99264399495E+02  0.99264399622E+02  0.50400001928E-02 0. -1.
       -1   -1    0    0    0  501  0.00000000000E+00  0.00000000000E+00 -0.89827763742E+03  0.89827763744E+03  0.50400001928E-02 0.  1.
    10030    2    1    2    0    0  0.00000000000E+00  0.00000000000E+00 -0.79901323793E+03  0.99754203706E+03  0.59721684614E+03 0.  0.
        4    1    3    3  502    0  0.14310669567E+03  0.20457297751E+02 -0.83592765810E+03  0.84833642492E+03  0.12699999809E+01 0.  1.
       -4    1    3    3    0  502 -0.14310669567E+03 -0.20457297751E+02  0.36914420171E+02  0.14920561214E+03  0.12699999809E+01 0. -1.
</event>
<event>
 5   0  0.1206238E-01  0.6094489E+03  0.7818609E-02  0.9885994E-01
        2   -1    0    0  501    0  0.00000000000E+00  0.00000000000E+00  0.12102170657E+04  0.12102170657E+04  0.25500000920E-02 0. -1.
       -2   -1    0    0    0  501  0.00000000000E+00  0.00000000000E+00 -0.76727542208E+02  0.76727542251E+02  0.25500000920E-02 0.  1.
    10030    2    1    2    0    0  0.00000000000E+00  0.00000000000E+00  0.11334895235E+04  0.12869446080E+04  0.60944886913E+03 0.  0.
        5    1    3    3  502    0 -0.30068576895E+03 -0.49155299600E+02  0.57221711953E+03  0.64829213863E+03  0.46999998093E+01 0. -1.
       -5    1    3    3    0  502  0.30068576895E+03  0.49155299600E+02  0.56127240398E+03  0.63865246934E+03  0.46999998093E+01 0.  1.
</event>
<event>
 5   0  0.7424930E-02  0.5858278E+03  0.7818609E-02  0.9935253E-01
        1   -1    0    0  501    0  0.00000000000E+00  0.00000000000E+00  0.10919646094E+04  0.10919646094E+04  0.50400001928E-02 0.  1.
       -1   -1    0    0    0  501  0.00000000000E+00  0.00000000000E+00 -0.78572643935E+02  0.78572644097E+02  0.50400001928E-02 0. -1.
    10030    2    1    2    0    0  0.00000000000E+00  0.00000000000E+00  0.10133919655E+04  0.11705372535E+04  0.58582777861E+03 0.  0.
        3    1    3    3  502    0  0.11469983120E+03 -0.22577935630E+03  0.80080363580E+03  0.83989216113E+03  0.10100000352E+00 0.  1.
       -3    1    3    3    0  502 -0.11469983120E+03  0.22577935630E+03  0.21258832967E+03  0.33064509239E+03  0.10100000352E+00 0. -1.
</event>
<event>
 5   0  0.7263385E-02  0.5818160E+03  0.7818609E-02  0.9943867E-01
       -1   -1    0    0    0  501  0.00000000000E+00  0.00000000000E+00  0.80598008362E+02  0.80598008520E+02  0.50400001928E-02 0.  1.
        1   -1    0    0  501    0  0.00000000000E+00  0.00000000000E+00 -0.10499943437E+04  0.10499943437E+04  0.50400001928E-02 0. -1.
    10030    2    1    2    0    0  0.00000000000E+00  0.00000000000E+00 -0.96939633535E+03  0.11305923522E+04  0.58181596056E+03 0.  0.
        1    1    3    3  502    0 -0.85854316063E+02 -0.20862844797E+01  0.55403680071E+02  0.10220021507E+03  0.50400001928E-02 0.  1.
       -1    1    3    3    0  502  0.85854316063E+02  0.20862844797E+01 -0.10248000154E+04  0.10283921372E+04  0.50400001928E-02 0. -1.
</event>
<event>
 5   0  0.1175861E-01  0.6708057E+03  0.7818609E-02  0.9768503E-01
        2   -1    0    0  501    0  0.00000000000E+00  0.00000000000E+00  0.10992931342E+04  0.10992931342E+04  0.25500000920E-02 0.  1.
       -2   -1    0    0    0  501  0.00000000000E+00  0.00000000000E+00 -0.10233400743E+03  0.10233400746E+03  0.25500000920E-02 0. -1.
    10030    2    1    2    0    0  0.00000000000E+00  0.00000000000E+00  0.99695912681E+03  0.12016271417E+04  0.67080570001E+03 0.  0.
        3    1    3    3  502    0  0.50867018309E+02 -0.56711011035E+02 -0.86630857561E+02  0.11536250694E+03  0.10100000352E+00 0. -1.
       -3    1    3    3    0  502 -0.50867018309E+02  0.56711011035E+02  0.10835899844E+04  0.10862646348E+04  0.10100000352E+00 0.  1.
</event>
<event>
 5   0  0.1206238E-01  0.6030825E+03  0.7818609E-02  0.9899031E-01
        2   -1    0    0  501    0  0.00000000000E+00  0.00000000000E+00  0.46549843895E+03  0.46549843896E+03  0.25500000920E-02 0. -1.
       -2   -1    0    0    0  501  0.00000000000E+00  0.00000000000E+00 -0.19533285474E+03  0.19533285476E+03  0.25500000920E-02 0.  1.
    10030    2    1    2    0    0  0.00000000000E+00  0.00000000000E+00  0.27016558421E+03  0.66083129371E+03  0.60308254481E+03 0.  0.
        5    1    3    3  502    0  0.40932487393E+02 -0.14317366995E+03 -0.15218689176E+03  0.21297208341E+03  0.46999998093E+01 0.  1.
       -5    1    3    3    0  502 -0.40932487393E+02  0.14317366995E+03  0.42235247597E+03  0.44785921030E+03  0.46999998093E+01 0. -1.
</event>
<event>
 5   0  0.7221069E-02  0.6004188E+03  0.7818609E-02  0.9904538E-01
       -1   -1    0    0    0  501  0.00000000000E+00  0.00000000000E+00  0.93632888194E+03  0.93632888196E+03  0.50400001928E-02 0. -1.
        1   -1    0    0  501    0  0.00000000000E+00  0.00000000000E+00 -0.96254291342E+02  0.96254291474E+02  0.50400001928E-02 0.  1.
    10030    2    1    2    0    0  0.00000000000E+00  0.00000000000E+00  0.84007459060E+03  0.10325831734E+04  0.60041876410E+03 0.  0.
        5    1    3    3  502    0 -0.14561835946E+03  0.60909042197E+02 -0.19057036100E+02  0.15905935576E+03  0.46999998093E+01 0.  1.
       -5    1    3    3    0  502  0.14561835946E+03 -0.60909042197E+02  0.85913162670E+03  0.87352381767E+03  0.46999998093E+01 0. -1.
</event>
<event>
 5   0  0.7123340E-02  0.6067388E+03  0.7818609E-02  0.9891523E-01
        1   -1    0    0  501    0  0.00000000000E+00  0.00000000000E+00  0.25191306276E+03  0.25191306281E+03  0.50400001928E-02 0.  1.
       -1   -1    0    0    0  501  0.00000000000E+00  0.00000000000E+00 -0.36533628188E+03  0.36533628191E+03  0.50400001928E-02 0. -1.
    10030    2    1    2    0    0  0.00000000000E+00  0.00000000000E+00 -0.11342321912E+03  0.61724934473E+03  0.60673876334E+03 0.  0.
        2    1    3    3  502    0  0.11828133842E+02  0.29913653852E+03 -0.67652082529E+01  0.29944672561E+03  0.25500000920E-02 0.  1.
       -2    1    3    3    0  502 -0.11828133842E+02 -0.29913653852E+03 -0.10665801086E+03  0.31780261912E+03  0.25500000920E-02 0. -1.
</event>
<event>
 5   0  0.1146468E-01  0.6048538E+03  0.7818609E-02  0.9895387E-01
        2   -1    0    0  501    0  0.00000000000E+00  0.00000000000E+00  0.44990136021E+03  0.44990136022E+03  0.25500000920E-02 0. -1.
       -2   -1    0    0    0  501  0.00000000000E+00  0.00000000000E+00 -0.20329351611E+03  0.20329351613E+03  0.25500000920E-02 0.  1.
    10030    2    1    2    0    0  0.00000000000E+00  0.00000000000E+00  0.24660784410E+03  0.65319487634E+03  0.60485379862E+03 0.  0.
        4    1    3    3  502    0 -0.46916815107E+02  0.13121039127E+03  0.41316402304E+03  0.43603150936E+03  0.12699999809E+01 0. -1.
       -4    1    3    3    0  502  0.46916815107E+02 -0.13121039127E+03 -0.16655617894E+03  0.21716336699E+03  0.12699999809E+01 0.  1.
</event>
<event>
 5   0  0.1206238E-01  0.6041409E+03  0.7818609E-02  0.9896852E-01
       -2   -1    0    0    0  501  0.00000000000E+00  0.00000000000E+00  0.10675160644E+03  0.10675160647E+03  0.25500000920E-02 0.  1.
        2   -1    0    0  501    0  0.00000000000E+00  0.00000000000E+00 -0.85475594654E+03  0.85475594655E+03  0.25500000920E-02 0. -1.
    10030    2    1    2    0    0  0.00000000000E+00  0.00000000000E+00 -0.74800434011E+03  0.96150755301E+03  0.60414094521E+03 0.  0.
        5    1    3    3  502    0 -0.91400110353E+02 -0.27512102509E+03 -0.50885002452E+03  0.58565860027E+03  0.46999998093E+01 0. -1.
       -5    1    3    3    0  502  0.91400110353E+02  0.27512102509E+03 -0.23915431558E+03  0.37584895274E+03  0.46999998093E+01 0.  1.
</event>
<event>
 5   0  0.7266519E-02  0.5997029E+03  0.7818609E-02  0.9906023E-01
       -1   -1    0    0    0  501  0.00000000000E+00  0.00000000000E+00  0.25028584082E+03  0.25028584087E+03  0.50400001928E-02 0. -1.
        1   -1    0    0  501    0  0.00000000000E+00  0.00000000000E+00 -0.35923281307E+03  0.35923281310E+03  0.50400001928E-02 0.  1.
    10030    2    1    2    0    0  0.00000000000E+00  0.00000000000E+00 -0.10894697225E+03  0.60951865397E+03  0.59970288208E+03 0.  0.
        4    1    3    3  502    0  0.11130879238E+03  0.96132799078E+02  0.21110422012E+03  0.25728926712E+03  0.12699999809E+01 0. -1.
       -4    1    3    3    0  502 -0.11130879238E+03 -0.96132799078E+02 -0.32005119238E+03  0.35222938685E+03  0.12699999809E+01 0.  1.
</event>
<event>
 5   0  0.1219020E-01  0.6044199E+03  0.7818609E-02  0.9896278E-01
        2   -1    0    0  501    0  0.00000000000E+00  0.00000000000E+00  0.13888615157E+04  0.13888615157E+04  0.25500000920E-02 0.  1.
       -2   -1    0    0    0  501  0.00000000000E+00  0.00000000000E+00 -0.65759510333E+02  0.65759510382E+02  0.25500000920E-02 0. -1.
    10030    2    1    2    0    0  0.00000000000E+00  0.00000000000E+00  0.13231020053E+04  0.14546210261E+04  0.60441989785E+03 0.  0.
        2    1    3    3  502    0  0.18669366334E+03 -0.19031600277E+03  0.10040738476E+04  0.10388642819E+04  0.25500000920E-02 0.  1.
       -2    1    3    3    0  502 -0.18669366334E+03  0.19031600277E+03  0.31902815773E+03  0.41575674411E+03  0.25500000920E-02 0. -1.
</event>
<event>
 5   0  0.4695625E-02  0.5950230E+03  0.7818609E-02  0.9915786E-01
       -3   -1    0    0    0  501  0.00000000000E+00  0.00000000000E+00  0.33703748940E+03  0.33703750453E+03  0.10100000352E+00 0. -1.
        3   -1    0    0  501    0  0.00000000000E+00  0.00000000000E+00 -0.26262087832E+03  0.26262089774E+03  0.10100000352E+00 0.  1.
    10030    2    1    2    0    0  0.00000000000E+00  0.00000000000E+00  0.74416611082E+02  0.59965840227E+03  0.59502299738E+03 0.  0.
        5    1    3    3  502    0  0.12569742593E+03 -0.11268673368E+03 -0.20963420314E+03  0.26919645606E+03  0.46999998093E+01 0.  1.
       -5    1    3    3    0  502 -0.12569742593E+03  0.11268673368E+03  0.28405081422E+03  0.33046194621E+03  0.46999998093E+01 0. -1.
</event>
<event>
 5   0  0.7123340E-02  0.6011641E+03  0.7818609E-02  0.9902994E-01
       -1   -1    0    0    0  501  0.00000000000E+00  0.00000000000E+00  0.69796268733E+02  0.69796268915E+02  0.50400001928E-02 0. -1.
        1   -1    0    0  501    0  0.00000000000E+00  0.00000000000E+00 -0.12944755804E+04  0.12944755804E+04  0.50400001928E-02 0.  1.
    10030    2    1    2    0    0  0.00000000000E+00  0.00000000000E+00 -0.12246793116E+04  0.13642718493E+04  0.60116408944E+03 0.  0.
        2    1    3    3  502    0  0.15871474530E+03  0.22958947001E+03 -0.86553482677E+03  0.90942412079E+03  0.25500000920E-02 0. -1.
       -2    1    3    3    0  502 -0.15871474530E+03 -0.22958947001E+03 -0.35914448488E+03  0.45484772852E+03  0.25500000920E-02 0.  1.
</event>
<event>
 5   0  0.1166419E-01  0.6015735E+03  0.7818609E-02  0.9902147E-01
        2   -1    0    0  501    0  0.00000000000E+00  0.00000000000E+00  0.19109349130E+04  0.19109349130E+04  0.25500000920E-02 0.  1.
       -2   -1    0    0    0  501  0.00000000000E+00  0.00000000000E+00 -0.47344721999E+02  0.47344722067E+02  0.25500000920E-02 0. -1.
    10030    2    1    2    0    0  0.00000000000E+00  0.00000000000E+00  0.18635901910E+04  0.19582796351E+04  0.60157354424E+03 0.  0.
        1    1    3    3  502    0  0.24812374367E+03  0.16811234539E+03  0.84908776660E+03  0.90043166774E+03  0.50400001928E-02 0. -1.
       -1    1    3    3    0  502 -0.24812374367E+03 -0.16811234539E+03  0.10145024244E+04  0.10578479673E+04  0.50400001928E-02 0.  1.
</event>
<event>
 5   0  0.7263385E-02  0.5948723E+03  0.7818609E-02  0.9916102E-01
        1   -1    0    0  501    0  0.00000000000E+00  0.00000000000E+00  0.88286060470E+03  0.88286060471E+03  0.50400001928E-02 0. -1.
       -1   -1    0    0    0  501  0.00000000000E+00  0.00000000000E+00 -0.10020638968E+03  0.10020638980E+03  0.50400001928E-02 0.  1.
    10030    2    1    2    0    0  0.00000000000E+00  0.00000000000E+00  0.78265421502E+03  0.98306699452E+03  0.59487233540E+03 0.  0.
        1    1    3    3  502    0 -0.23507516527E+03  0.77954958477E+01  0.90454551454E+02  0.25199827179E+03  0.50400001928E-02 0.  1.
       -1    1    3    3    0  502  0.23507516527E+03 -0.77954958477E+01  0.69219966357E+03  0.73106872273E+03  0.50400001928E-02 0. -1.
</event>
<event>
 5   0  0.7424930E-02  0.5989497E+03  0.7818609E-02  0.9907587E-01
        1   -1    0    0  501    0  0.00000000000E+00  0.00000000000E+00  0.19339921417E+03  0.19339921424E+03  0.50400001928E-02 0.  1.
       -1   -1    0    0    0  501  0.00000000000E+00  0.00000000000E+00 -0.46373090671E+03  0.46373090674E+03  0.50400001928E-02 0. -1.
    10030    2    1    2    0    0  0.00000000000E+00  0.00000000000E+00 -0.27033169254E+03  0.65713012097E+03  0.59894972402E+03 0.  0.
        3    1    3    3  502    0 -0.10573841081E+03  0.25368847923E+03 -0.46723137134E+01  0.27488233252E+03  0.10100000352E+00 0.  1.
       -3    1    3    3    0  502  0.10573841081E+03 -0.25368847923E+03 -0.26565937883E+03  0.38224778845E+03  0.10100000352E+00 0. -1.
</event>
<event>
 5   0  0.1146468E-01  0.6063461E+03  0.7818609E-02  0.9892327E-01
        2   -1    0    0  501    0  0.00000000000E+00  0.00000000000E+00  0.54368797258E+03  0.54368797258E+03  0.25500000920E-02 0.  1.
       -2   -1    0    0    0  501  0.00000000000E+00  0.00000000000E+00 -0.16905631555E+03  0.16905631557E+03  0.25500000920E-02 0. -1.
    10030    2    1    2    0    0  0.00000000000E+00  0.00000000000E+00  0.37463165703E+03  0.71274428815E+03  0.60634605783E+03 0.  0.
        4    1    3    3  502    0 -0.25805520665E+02  0.29328974812E+03  0.10232755315E+03  0.31170072551E+03  0.12699999809E+01 0. -1.
       -4    1    3    3    0  502  0.25805520665E+02 -0.29328974812E+03  0.27230410387E+03  0.40104356264E+03  0.12699999809E+01 0.  1.
</event>
<event>
 5   0  0.1166419E-01  0.5978606E+03  0.7818609E-02  0.9909855E-01
        2   -1    0    0  501    0  0.00000000000E+00  0.00000000000E+00  0.24068957214E+03  0.24068957215E+03  0.25500000920E-02 0.  1.
       -2   -1    0    0    0  501  0.00000000000E+00  0.00000000000E+00 -0.37126375449E+03  0.37126375450E+03  0.25500000920E-02 0. -1.
    10030    2    1    2    0    0  0.00000000000E+00  0.00000000000E+00 -0.13057418235E+03  0.61195332665E+03  0.59786056643E+03 0.  0.
        1    1    3    3  502    0 -0.57299221725E+02  0.80290047796E+02 -0.35412601404E+03  0.36760702718E+03  0.50400001928E-02 0. -1.
       -1    1    3    3    0  502  0.57299221725E+02 -0.80290047796E+02  0.22355183169E+03  0.24434629947E+03  0.50400001928E-02 0.  1.
</event>
<event>
 5   0  0.4695625E-02  0.6072741E+03  0.7818609E-02  0.9890429E-01
        4   -1    0    0  501    0  0.00000000000E+00  0.00000000000E+00  0.51276691541E+03  0.51276848815E+03  0.12699999809E+01 0.  1.
       -4   -1    0    0    0  501  0.00000000000E+00  0.00000000000E+00 -0.17979583674E+03  0.17980032205E+03  0.12699999809E+01 0. -1.
    10030    2    1    2    0    0  0.00000000000E+00  0.00000000000E+00  0.33297107867E+03  0.69256881020E+03  0.60727408773E+03 0.  0.
        4    1    3    3  502    0 -0.12022119169E+03  0.13036618691E+03  0.44756864797E+03  0.48142266790E+03  0.12699999809E+01 0.  1.
       -4    1    3    3    0  502  0.12022119169E+03 -0.13036618691E+03 -0.11459756930E+03  0.21114614230E+03  0.12699999809E+01 0. -1.
</event>
<event>
 5   0  0.7266519E-02  0.5964347E+03  0.7818609E-02  0.9912831E-01
       -1   -1    0    0    0  501  0.00000000000E+00  0.00000000000E+00  0.15681401192E+03  0.15681401200E+03  0.50400001928E-02 0.  1.
        1   -1    0    0  501    0  0.00000000000E+00  0.00000000000E+00 -0.56712774532E+03  0.56712774535E+03  0.50400001928E-02 0. -1.
    10030    2    1    2    0    0  0.00000000000E+00  0.00000000000E+00 -0.41031373341E+03  0.72394175735E+03  0.59643466382E+03 0.  0.
        4    1    3    3  502    0  0.23792031503E+03 -0.77557853940E+01  0.12870764969E+02  0.23839777265E+03  0.12699999809E+01 0.  1.
       -4    1    3    3    0  502 -0.23792031503E+03  0.77557853940E+01 -0.42318449838E+03  0.48554398470E+03  0.12699999809E+01 0. -1.
</event>
<event>
 5   0  0.7221069E-02  0.5937874E+03  0.7818609E-02  0.9918380E-01
       -1   -1    0    0    0  501  0.00000000000E+00  0.00000000000E+00  0.54130423747E+03  0.54130423750E+03  0.50400001928E-02 0. -1.
        1   -1    0    0  501    0  0.00000000000E+00  0.00000000000E+00 -0.16283977290E+03  0.16283977298E+03  0.50400001928E-02 0.  1.
    10030    2    1    2    0    0  0.00000000000E+00  0.00000000000E+00  0.37846446458E+03  0.70414401047E+03  0.59378736643E+03 0.  0.
        5    1    3    3  502    0  0.19826918828E+03  0.22054179790E+03  0.17357119303E+03  0.34365448446E+03  0.46999998093E+01 0. -1.
       -5    1    3    3    0  502 -0.19826918828E+03 -0.22054179790E+03  0.20489327154E+03  0.36048952601E+03  0.46999998093E+01 0.  1.
</event>
<event>
 5   0  0.1219020E-01  0.5678561E+03  0.7818609E-02  0.9974434E-01
       -2   -1    0    0    0  501  0.00000000000E+00  0.00000000000E+00  0.10192150909E+03  0.10192150913E+03  0.25500000920E-02 0. -1.
        2   -1    0    0  501    0  0.00000000000E+00  0.00000000000E+00 -0.79095303265E+03  0.79095303265E+03  0.25500000920E-02 0.  1.
    10030    2    1    2    0    0  0.00000000000E+00  0.00000000000E+00 -0.68903152356E+03  0.89287454178E+03  0.56785606178E+03 0.  0.
        2    1    3    3  502    0  0.96036440333E+02 -0.87322048385E+02 -0.74157026723E+03  0.75284433933E+03  0.25500000920E-02 0.  1.
       -2    1    3    3    0  502 -0.96036440333E+02  0.87322048385E+02  0.52538743675E+02  0.14003020245E+03  0.25500000920E-02 0. -1.
</event>
<event>
 5   0  0.7266519E-02  0.5099907E+03  0.7818609E-02  0.1011204E+00
       -1   -1    0    0    0  501  0.00000000000E+00  0.00000000000E+00  0.13485223855E+03  0.13485223865E+03  0.50400001928E-02 0. -1.
        1   -1    0    0  501    0  0.00000000000E+00  0.00000000000E+00 -0.48217688294E+03  0.48217688297E+03  0.50400001928E-02 0.  1.
    10030    2    1    2    0    0  0.00000000000E+00  0.00000000000E+00 -0.34732464439E+03  0.61702912162E+03  0.50999071395E+03 0.  0.
        4    1    3    3  502    0  0.17239341288E+03 -0.16508526687E+03 -0.65120335653E+02  0.24741646097E+03  0.12699999809E+01 0. -1.
       -4    1    3    3    0  502 -0.17239341288E+03  0.16508526687E+03 -0.28220430874E+03  0.36961266065E+03  0.12699999809E+01 0.  1.
</event>
<event>
 5   0  0.1206238E-01  0.5938979E+03  0.7818609E-02  0.9918147E-01
       -2   -1    0    0    0  501  0.00000000000E+00  0.00000000000E+00  0.10620124558E+03  0.10620124561E+03  0.25500000920E-02 0. -1.
        2   -1    0    0  501    0  0.00000000000E+00  0.00000000000E+00 -0.83029804172E+03  0.83029804173E+03  0.25500000920E-02 0.  1.
    10030    2    1    2    0    0  0.00000000000E+00  0.00000000000E+00 -0.72409679614E+03  0.93649928734E+03  0.59389792474E+03 0.  0.
        5    1    3    3  502    0  0.22021572445E+02  0.15615632626E+03 -0.75873942585E+03  0.77496926018E+03  0.46999998093E+01 0.  1.
       -5    1    3    3    0  502 -0.22021572445E+02 -0.15615632626E+03  0.34642629708E+02  0.16153002717E+03  0.46999998093E+01 0. -1.
</event>
<event>
 5   0  0.7221069E-02  0.6270634E+03  0.7818609E-02  0.9850796E-01
       -1   -1    0    0    0  501  0.00000000000E+00  0.00000000000E+00  0.54398317228E+03  0.54398317230E+03  0.50400001928E-02 0. -1.
        1   -1    0    0  501    0  0.00000000000E+00  0.00000000000E+00 -0.18070803696E+03  0.18070803703E+03  0.50400001928E-02 0.  1.
    10030    2    1    2    0    0  0.00000000000E+00  0.00000000000E+00  0.36327513532E+03  0.72469120933E+03  0.62706341381E+03 0.  0.
        5    1    3    3  502    0  0.44985293519E+01 -0.14489464738E+03 -0.13960560513E+03  0.20131197329E+03  0.46999998093E+01 0.  1.
       -5    1    3    3    0  502 -0.44985293519E+01  0.14489464738E+03  0.50288074045E+03  0.52337923605E+03  0.46999998093E+01 0. -1.
</event>
<event>
 5   0  0.7263385E-02  0.6050392E+03  0.7818609E-02  0.9895006E-01
       -1   -1    0    0    0  501  0.00000000000E+00  0.00000000000E+00  0.60766620457E+02  0.60766620666E+02  0.50400001928E-02 0. -1.
        1   -1    0    0  501    0  0.00000000000E+00  0.00000000000E+00 -0.15060587550E+04  0.15060587550E+04  0.50400001928E-02 0.  1.
    10030    2    1    2    0    0  0.00000000000E+00  0.00000000000E+00 -0.14452921345E+04  0.15668253756E+04  0.60503917533E+03 0.  0.
        1    1    3    3  502    0 -0.15999081270E+03  0.23003938256E+03 -0.42735004279E+03  0.51102175763E+03  0.50400001928E-02 0. -1.
       -1    1    3    3    0  502  0.15999081270E+03 -0.23003938256E+03 -0.10179420917E+04  0.10558036180E+04  0.50400001928E-02 0.  1.
</event>
<event>
 5   0  0.1219020E-01  0.5998324E+03  0.7818609E-02  0.9905754E-01
       -2   -1    0    0    0  501  0.00000000000E+00  0.00000000000E+00  0.17452856802E+03  0.17452856804E+03  0.25500000920E-02 0. -1.
        2   -1    0    0  501    0  0.00000000000E+00  0.00000000000E+00 -0.51538687581E+03  0.51538687581E+03  0.25500000920E-02 0.  1.
    10030    2    1    2    0    0  0.00000000000E+00  0.00000000000E+00 -0.34085830778E+03  0.68991544386E+03  0.59983242134E+03 0.  0.
        2    1    3    3  502    0 -0.14282878700E+03 -0.14966148818E+03  0.79324523345E+02  0.22156489670E+03  0.25500000920E-02 0. -1.
       -2    1    3    3    0  502  0.14282878700E+03  0.14966148818E+03 -0.42018283113E+03  0.46835054715E+03  0.25500000920E-02 0.  1.
</event>
<event>
 5   0  0.7221069E-02  0.5988659E+03  0.7818609E-02  0.9907762E-01
       -1   -1    0    0    0  501  0.00000000000E+00  0.00000000000E+00  0.24170379574E+03  0.24170379580E+03  0.50400001928E-02 0.  1.
        1   -1    0    0  501    0  0.00000000000E+00  0.00000000000E+00 -0.37095024930E+03  0.37095024933E+03  0.50400001928E-02 0. -1.
    10030    2    1    2    0    0  0.00000000000E+00  0.00000000000E+00 -0.12924645355E+03  0.61265404513E+03  0.59886587251E+03 0.  0.
        5    1    3    3  502    0  0.69290688785E+01 -0.14571908756E+03 -0.33209246151E+03  0.36275274977E+03  0.46999998093E+01 0. -1.
       -5    1    3    3    0  502 -0.69290688785E+01  0.14571908756E+03  0.20284600796E+03  0.24990129535E+03  0.46999998093E+01 0.  1.
</event>
<event>
 5   0  0.1166419E-01  0.5945302E+03  0.7818609E-02  0.9916820E-01
       -2   -1    0    0    0  501  0.00000000000E+00  0.00000000000E+00  0.10274256155E+03  0.10274256158E+03  0.25500000920E-02 0.  1.
        2   -1    0    0  501    0  0.00000000000E+00  0.00000000000E+00 -0.86007734153E+03  0.86007734153E+03  0.25500000920E-02 0. -1.
    10030    2    1    2    0    0  0.00000000000E+00  0.00000000000E+00 -0.75733477998E+03  0.96281990312E+03  0.59453023209E+03 0.  0.
        1    1    3    3  502    0 -0.28330296735E+03 -0.88332565594E+02 -0.35046194824E+03  0.45922411810E+03  0.50400001928E-02 0. -1.
       -1    1    3    3    0  502  0.28330296735E+03  0.88332565594E+02 -0.40687283174E+03  0.50359578502E+03  0.50400001928E-02 0.  1.
</event>
<event>
 5   0  0.7263385E-02  0.6083213E+03  0.7818609E-02  0.9888291E-01
        1   -1    0    0  501    0  0.00000000000E+00  0.00000000000E+00  0.65752053693E+03  0.65752053695E+03  0.50400001928E-02 0.  1.
       -1   -1    0    0    0  501  0.00000000000E+00  0.00000000000E+00 -0.14070083274E+03  0.14070083283E+03  0.50400001928E-02 0. -1.
    10030    2    1    2    0    0  0.00000000000E+00  0.00000000000E+00  0.51681970418E+03  0.79822136978E+03  0.60832125439E+03 0.  0.
        1    1    3    3  502    0 -0.11245364225E+03  0.74307981357E+02  0.61619286459E+03  0.63076235156E+03  0.50400001928E-02 0.  1.
       -1    1    3    3    0  502  0.11245364225E+03 -0.74307981357E+02 -0.99373160405E+02  0.16745901822E+03  0.50400001928E-02 0. -1.
</event>
<event>
 5   0  0.7123340E-02  0.5921783E+03  0.7818609E-02  0.9921768E-01
        1   -1    0    0  501    0  0.00000000000E+00  0.00000000000E+00  0.15323256146E+04  0.15323256146E+04  0.50400001928E-02 0. -1.
       -1   -1    0    0    0  501  0.00000000000E+00  0.00000000000E+00 -0.57212902926E+02  0.57212903148E+02  0.50400001928E-02 0.  1.
    10030    2    1    2    0    0  0.00000000000E+00  0.00000000000E+00  0.14751127117E+04  0.15895385178E+04  0.59217834079E+03 0.  0.
        2    1    3    3  502    0  0.95692612016E+02  0.17541408493E+03  0.13240551339E+04  0.13390478612E+04  0.25500000920E-02 0. -1.
       -2    1    3    3    0  502 -0.95692612016E+02 -0.17541408493E+03  0.15105757784E+03  0.25049065655E+03  0.25500000920E-02 0.  1.
</event>
<event>
 5   0  0.1146468E-01  0.6054002E+03  0.7818609E-02  0.9894265E-01
       -2   -1    0    0    0  501  0.00000000000E+00  0.00000000000E+00  0.25717685387E+03  0.25717685388E+03  0.25500000920E-02 0. -1.
        2   -1    0    0  501    0  0.00000000000E+00  0.00000000000E+00 -0.35628144815E+03  0.35628144816E+03  0.25500000920E-02 0.  1.
    10030    2    1    2    0    0  0.00000000000E+00  0.00000000000E+00 -0.99104594289E+02  0.61345830204E+03  0.60540017157E+03 0.  0.
        4    1    3    3  502    0  0.13363645918E+03 -0.18488547941E+03 -0.25115876518E+03  0.33929880923E+03  0.12699999809E+01 0. -1.
       -4    1    3    3    0  502 -0.13363645918E+03  0.18488547941E+03  0.15205417089E+03  0.27415949282E+03  0.12699999809E+01 0.  1.
</event>
<event>
 5   0  0.1219020E-01  0.6077558E+03  0.7818609E-02  0.9889445E-01
       -2   -1    0    0    0  501  0.00000000000E+00  0.00000000000E+00  0.22880440205E+03  0.22880440207E+03  0.25500000920E-02 0.  1.
        2   -1    0    0  501    0  0.00000000000E+00  0.00000000000E+00 -0.40358388638E+03  0.40358388639E+03  0.25500000920E-02 0. -1.
    10030    2    1    2    0    0  0.00000000000E+00  0.00000000000E+00 -0.17477948432E+03  0.63238828846E+03  0.60775577269E+03 0.  0.
        2    1    3    3  502    0  0.23140501910E+03 -0.83772939985E+02 -0.27287161783E+03  0.36745762771E+03  0.25500000920E-02 0. -1.
       -2    1    3    3    0  502 -0.23140501910E+03  0.83772939985E+02  0.98092133505E+02  0.26493066074E+03  0.25500000920E-02 0.  1.
</event>
<event>
 5   0  0.1146468E-01  0.6019250E+03  0.7818609E-02  0.9901420E-01
       -2   -1    0    0    0  501  0.00000000000E+00  0.00000000000E+00  0.23763925993E+03  0.23763925995E+03  0.25500000920E-02 0. -1.
        2   -1    0    0  501    0  0.00000000000E+00  0.00000000000E+00 -0.38115936587E+03  0.38115936587E+03  0.25500000920E-02 0.  1.
    10030    2    1    2    0    0  0.00000000000E+00  0.00000000000E+00 -0.14352010593E+03  0.61879862582E+03  0.60192501070E+03 0.  0.
        4    1    3    3  502    0 -0.10220735084E+03 -0.91832027017E+02 -0.34702981819E+03  0.37324358182E+03  0.12699999809E+01 0.  1.
       -4    1    3    3    0  502  0.10220735084E+03  0.91832027017E+02  0.20350971226E+03  0.24555504400E+03  0.12699999809E+01 0. -1.
</event>
<event>
 5   0  0.7123340E-02  0.5977568E+03  0.7818609E-02  0.9910071E-01
        1   -1    0    0  501    0  0.00000000000E+00  0.00000000000E+00  0.90123011866E+03  0.90123011867E+03  0.50400001928E-02 0. -1.
       -1   -1    0    0    0  501  0.00000000000E+00  0.00000000000E+00 -0.99118196696E+02  0.99118196824E+02  0.50400001928E-02 0.  1.
    10030    2    1    2    0    0  0.00000000000E+00  0.00000000000E+00  0.80211192196E+03  0.10003483155E+04  0.59775682093E+03 0.  0.
        2    1    3    3  502    0  0.43101754250E+02 -0.10037524794E+03  0.86662505882E+03  0.87348265249E+03  0.25500000920E-02 0. -1.
       -2    1    3    3    0  502 -0.43101754250E+02  0.10037524794E+03 -0.64513136853E+02  0.12686566301E+03  0.25500000920E-02 0.  1.
</event>
<event>
 5   0  0.1166419E-01  0.6025736E+03  0.7818609E-02  0.9900081E-01
       -2   -1    0    0    0  501  0.00000000000E+00  0.00000000000E+00  0.24802780468E+03  0.24802780469E+03  0.25500000920E-02 0. -1.
        2   -1    0    0  501    0  0.00000000000E+00  0.00000000000E+00 -0.36598211991E+03  0.36598211992E+03  0.25500000920E-02 0.  1.
    10030    2    1    2    0    0  0.00000000000E+00  0.00000000000E+00 -0.11795431523E+03  0.61400992461E+03  0.60257361960E+03 0.  0.
        1    1    3    3  502    0 -0.14038856532E+03 -0.25360300251E+03 -0.14269675321E+03  0.32308790686E+03  0.50400001928E-02 0.  1.
       -1    1    3    3    0  502  0.14038856532E+03  0.25360300251E+03  0.24742437974E+02  0.29092201776E+03  0.50400001928E-02 0. -1.
</event>
<event>
 5   0  0.7266519E-02  0.6009818E+03  0.7818609E-02  0.9903371E-01
        1   -1    0    0  501    0  0.00000000000E+00  0.00000000000E+00  0.97302773003E+03  0.97302773004E+03  0.50400001928E-02 0. -1.
       -1   -1    0    0    0  501  0.00000000000E+00  0.00000000000E+00 -0.92797741968E+02  0.92797742105E+02  0.50400001928E-02 0.  1.
    10030    2    1    2    0    0  0.00000000000E+00  0.00000000000E+00  0.88022998806E+03  0.10658254721E+04  0.60098178441E+03 0.  0.
        4    1    3    3  502    0 -0.85701927947E+02  0.53470648072E+02  0.94200881962E+03  0.94741023838E+03  0.12699999809E+01 0. -1.
       -4    1    3    3    0  502  0.85701927947E+02 -0.53470648072E+02 -0.61778831556E+02  0.11841523376E+03  0.12699999809E+01 0.  1.
</event>
<event>
 5   0  0.7123340E-02  0.6139284E+03  0.7818609E-02  0.9876923E-01
       -1   -1    0    0    0  501  0.00000000000E+00  0.00000000000E+00  0.69142464985E+02  0.69142465168E+02  0.50400001928E-02 0.  1.
        1   -1    0    0  501    0  0.00000000000E+00  0.00000000000E+00 -0.13627951619E+04  0.13627951619E+04  0.50400001928E-02 0. -1.
    10030    2    1    2    0    0  0.00000000000E+00  0.00000000000E+00 -0.12936526969E+04  0.14319376271E+04  0.61392838964E+03 0.  0.
        2    1    3    3  502    0 -0.28344745887E+03  0.56601066057E+02 -0.88787781939E+03  0.93374148713E+03  0.25500000920E-02 0. -1.
       -2    1    3    3    0  502  0.28344745887E+03 -0.56601066057E+02 -0.40577487751E+03  0.49819613993E+03  0.25500000920E-02 0.  1.
</event>
<event>
 5   0  0.7263385E-02  0.6022729E+03  0.7818609E-02  0.9900702E-01
       -1   -1    0    0    0  501  0.00000000000E+00  0.00000000000E+00  0.20368927297E+03  0.20368927303E+03  0.50400001928E-02 0.  1.
        1   -1    0    0  501    0  0.00000000000E+00  0.00000000000E+00 -0.44520342755E+03  0.44520342758E+03  0.50400001928E-02 0. -1.
    10030    2    1    2    0    0  0.00000000000E+00  0.00000000000E+00 -0.24151415459E+03  0.64889270061E+03  0.60227290329E+03 0.  0.
        1    1    3    3  502    0  0.29793528676E+03  0.26929114787E+02 -0.15796349803E+03  0.33829436746E+03  0.50400001928E-02 0.  1.
       -1    1    3    3    0  502 -0.29793528676E+03 -0.26929114787E+02 -0.83550656562E+02  0.31059833315E+03  0.50400001928E-02 0. -1.
</event>
<event>
 5   0  0.1166419E-01  0.5138658E+03  0.7818609E-02  0.1010222E+00
        2   -1    0    0  501    0  0.00000000000E+00  0.00000000000E+00  0.26509072823E+03  0.26509072824E+03  0.25500000920E-02 0.  1.
       -2   -1    0    0    0  501  0.00000000000E+00  0.00000000000E+00 -0.24902613029E+03  0.24902613030E+03  0.25500000920E-02 0. -1.
    10030    2    1    2    0    0  0.00000000000E+00  0.00000000000E+00  0.16064597939E+02  0.51411685854E+03  0.51386581218E+03 0.  0.
        1    1    3    3  502    0 -0.15861803247E+03 -0.71161434397E+02  0.19730952335E+03  0.26297277045E+03  0.50400001928E-02 0.  1.
       -1    1    3    3    0  502  0.15861803247E+03  0.71161434397E+02 -0.18124492541E+03  0.25114408809E+03  0.50400001928E-02 0. -1.
</event>
<event>
 5   0  0.7263385E-02  0.5775773E+03  0.7818609E-02  0.9953050E-01
        1   -1    0    0  501    0  0.00000000000E+00  0.00000000000E+00  0.60916295391E+03  0.60916295393E+03  0.50400001928E-02 0. -1.
       -1   -1    0    0    0  501  0.00000000000E+00  0.00000000000E+00 -0.13690736629E+03  0.13690736638E+03  0.50400001928E-02 0.  1.
    10030    2    1    2    0    0  0.00000000000E+00  0.00000000000E+00  0.47225558762E+03  0.74607032031E+03  0.57757733924E+03 0.  0.
        1    1    3    3  502    0 -0.29528813266E+02 -0.15824441188E+03  0.54583359808E+03  0.56907605952E+03  0.50400001928E-02 0. -1.
       -1    1    3    3    0  502  0.29528813266E+02  0.15824441188E+03 -0.73578010459E+02  0.17699426079E+03  0.50400001928E-02 0.  1.
</event>
<event>
 5   0  0.7221069E-02  0.5881502E+03  0.7818609E-02  0.9930300E-01
       -1   -1    0    0    0  501  0.00000000000E+00  0.00000000000E+00  0.21407307958E+03  0.21407307964E+03  0.50400001928E-02 0. -1.
        1   -1    0    0  501    0  0.00000000000E+00  0.00000000000E+00 -0.40397496712E+03  0.40397496715E+03  0.50400001928E-02 0.  1.
    10030    2    1    2    0    0  0.00000000000E+00  0.00000000000E+00 -0.18990188753E+03  0.61804804679E+03  0.58815020297E+03 0.  0.
        5    1    3    3  502    0 -0.20361928400E+03  0.10119123586E+03 -0.29086195859E+03  0.36921978277E+03  0.46999998093E+01 0.  1.
       -5    1    3    3    0  502  0.20361928400E+03 -0.10119123586E+03  0.10096007106E+03  0.24882826403E+03  0.46999998093E+01 0. -1.
</event>
<event>
 5   0  0.7424930E-02  0.5878297E+03  0.7818609E-02  0.9930982E-01
        1   -1    0    0  501    0  0.00000000000E+00  0.00000000000E+00  0.64012659092E+03  0.64012659094E+03  0.50400001928E-02 0.  1.
       -1   -1    0    0    0  501  0.00000000000E+00  0.00000000000E+00 -0.13495133162E+03  0.13495133171E+03  0.50400001928E-02 0. -1.
    10030    2    1    2    0    0  0.00000000000E+00  0.00000000000E+00  0.50517525930E+03  0.77507792266E+03  0.58782968926E+03 0.  0.
        3    1    3    3  502    0  0.28282098028E+03  0.21951975021E+02  0.15116846484E+03  0.32143663615E+03  0.10100000352E+00 0.  1.
       -3    1    3    3    0  502 -0.28282098028E+03 -0.21951975021E+02  0.35400679447E+03  0.45364128651E+03  0.10100000352E+00 0. -1.
</event>
<event>
 5   0  0.1219020E-01  0.6697467E+03  0.7818609E-02  0.9770416E-01
       -2   -1    0    0    0  501  0.00000000000E+00  0.00000000000E+00  0.16365987282E+03  0.16365987284E+03  0.25500000920E-02 0.  1.
        2   -1    0    0  501    0  0.00000000000E+00  0.00000000000E+00 -0.68520249905E+03  0.68520249906E+03  0.25500000920E-02 0. -1.
    10030    2    1    2    0    0  0.00000000000E+00  0.00000000000E+00 -0.52154262623E+03  0.84886237189E+03  0.66974668005E+03 0.  0.
        2    1    3    3  502    0 -0.16089250804E+03 -0.21847742159E+03 -0.50952961349E+03  0.57726875016E+03  0.25500000920E-02 0. -1.
       -2    1    3    3    0  502  0.16089250804E+03  0.21847742159E+03 -0.12013012747E+02  0.27159362173E+03  0.25500000920E-02 0.  1.
</event>
<event>
 5   0  0.1146468E-01  0.5994909E+03  0.7818609E-02  0.9906463E-01
       -2   -1    0    0    0  501  0.00000000000E+00  0.00000000000E+00  0.10552923536E+04  0.10552923536E+04  0.25500000920E-02 0. -1.
        2   -1    0    0  501    0  0.00000000000E+00  0.00000000000E+00 -0.85139754684E+02  0.85139754722E+02  0.25500000920E-02 0.  1.
    10030    2    1    2    0    0  0.00000000000E+00  0.00000000000E+00  0.97015259891E+03  0.11404321083E+04  0.59949089110E+03 0.  0.
        4    1    3    3  502    0  0.18377128641E+03 -0.53442181830E+02  0.46227241672E+02  0.19689216155E+03  0.12699999809E+01 0.  1.
       -4    1    3    3    0  502 -0.18377128641E+03  0.53442181830E+02  0.92392535724E+03  0.94353994677E+03  0.12699999809E+01 0. -1.
</event>
<event>
 5   0  0.4695625E-02  0.6009995E+03  0.7818609E-02  0.9903335E-01
       -3   -1    0    0    0  501  0.00000000000E+00  0.00000000000E+00  0.44819745549E+02  0.44819859349E+02  0.10100000352E+00 0. -1.
        3   -1    0    0  501    0  0.00000000000E+00  0.00000000000E+00 -0.20147365872E+04  0.20147365897E+04  0.10100000352E+00 0.  1.
    10030    2    1    2    0    0  0.00000000000E+00  0.00000000000E+00 -0.19699168417E+04  0.20595564491E+04  0.60099950410E+03 0.  0.
        5    1    3    3  502    0 -0.96911893287E+02  0.17635262166E+03 -0.22032628973E+03  0.29842574649E+03  0.46999998093E+01 0. -1.
       -5    1    3    3    0  502  0.96911893287E+02 -0.17635262166E+03 -0.17495905519E+04  0.17611307026E+04  0.46999998093E+01 0.  1.
</event>
<event>
 5   0  0.1146468E-01  0.6094281E+03  0.7818609E-02  0.9886036E-01
       -2   -1    0    0    0  501  0.00000000000E+00  0.00000000000E+00  0.11873830123E+03  0.11873830126E+03  0.25500000920E-02 0.  1.
        2   -1    0    0  501    0  0.00000000000E+00  0.00000000000E+00 -0.78197731664E+03  0.78197731665E+03  0.25500000920E-02 0. -1.
    10030    2    1    2    0    0  0.00000000000E+00  0.00000000000E+00 -0.66323901541E+03  0.90071561791E+03  0.60942811945E+03 0.  0.
        4    1    3    3  502    0  0.56112501041E+01 -0.20064887963E+03 -0.67045033030E+03  0.69985478303E+03  0.12699999809E+01 0. -1.
       -4    1    3    3    0  502 -0.56112501041E+01  0.20064887963E+03  0.72113148887E+01  0.20086083488E+03  0.12699999809E+01 0.  1.
</event>
<event>
 5   0  0.4695625E-02  0.5953593E+03  0.7818609E-02  0.9915081E-01
       -3   -1    0    0    0  501  0.00000000000E+00  0.00000000000E+00  0.10335518647E+04  0.10335518696E+04  0.10100000352E+00 0.  1.
        3   -1    0    0  501    0  0.00000000000E+00  0.00000000000E+00 -0.85736518526E+02  0.85736578016E+02  0.10100000352E+00 0. -1.
    10030    2    1    2    0    0  0.00000000000E+00  0.00000000000E+00  0.94781534615E+03  0.11192884476E+04  0.59535930210E+03 0.  0.
        5    1    3    3  502    0  0.19481975128E+03 -0.22280029362E+03  0.53325142676E+03  0.60989661457E+03  0.46999998093E+01 0.  1.
       -5    1    3    3    0  502 -0.19481975128E+03  0.22280029362E+03  0.41456391939E+03  0.50939183305E+03  0.46999998093E+01 0. -1.
</event>
<event>
 5   0  0.4695625E-02  0.5994299E+03  0.7818609E-02  0.9906589E-01
        3   -1    0    0  501    0  0.00000000000E+00  0.00000000000E+00  0.50247720874E+03  0.50247721889E+03  0.10100000352E+00 0.  1.
       -3   -1    0    0    0  501  0.00000000000E+00  0.00000000000E+00 -0.17877238960E+03  0.17877241814E+03  0.10100000352E+00 0. -1.
    10030    2    1    2    0    0  0.00000000000E+00  0.00000000000E+00  0.32370481913E+03  0.68124963702E+03  0.59942994421E+03 0.  0.
        2    1    3    3  502    0  0.93592589512E+02  0.24174134125E+03 -0.91160638431E+01  0.25938687613E+03  0.25500000920E-02 0. -1.
       -2    1    3    3    0  502 -0.93592589512E+02 -0.24174134125E+03  0.33282088298E+03  0.42186276090E+03  0.25500000920E-02 0.  1.
</event>
<event>
 5   0  0.7424930E-02  0.5819238E+03  0.7818609E-02  0.9943635E-01
        1   -1    0    0  501    0  0.00000000000E+00  0.00000000000E+00  0.12381299159E+03  0.12381299169E+03  0.50400001928E-02 0. -1.
       -1   -1    0    0    0  501  0.00000000000E+00  0.00000000000E+00 -0.68376373981E+03  0.68376373983E+03  0.50400001928E-02 0.  1.
    10030    2    1    2    0    0  0.00000000000E+00  0.00000000000E+00 -0.55995074822E+03  0.80757673152E+03  0.58192382393E+03 0.  0.
        3    1    3    3  502    0  0.19042588503E+03  0.20476639637E+03 -0.16836954962E+03  0.32640405974E+03  0.10100000352E+00 0. -1.
       -3    1    3    3    0  502 -0.19042588503E+03 -0.20476639637E+03 -0.39158119860E+03  0.48117267178E+03  0.10100000352E+00 0.  1.
</event>
<event>
 5   0  0.7123340E-02  0.5951993E+03  0.7818609E-02  0.9915416E-01
        1   -1    0    0  501    0  0.00000000000E+00  0.00000000000E+00  0.32516465714E+03  0.32516465718E+03  0.50400001928E-02 0.  1.
       -1   -1    0    0    0  501  0.00000000000E+00  0.00000000000E+00 -0.27237143614E+03  0.27237143618E+03  0.50400001928E-02 0. -1.
    10030    2    1    2    0    0  0.00000000000E+00  0.00000000000E+00  0.52793220999E+02  0.59753609336E+03  0.59519934365E+03 0.  0.
        2    1    3    3  502    0  0.11744237648E+03 -0.27313244663E+03  0.13248649409E+02  0.29760640436E+03  0.25500000920E-02 0. -1.
       -2    1    3    3    0  502 -0.11744237648E+03  0.27313244663E+03  0.39544571590E+02  0.29992968900E+03  0.25500000920E-02 0.  1.
</event>
<event>
 5   0  0.1206238E-01  0.5745936E+03  0.7818609E-02  0.9959565E-01
       -2   -1    0    0    0  501  0.00000000000E+00  0.00000000000E+00  0.62258264515E+02  0.62258264567E+02  0.25500000920E-02 0.  1.
        2   -1    0    0  501    0  0.00000000000E+00  0.00000000000E+00 -0.13257589781E+04  0.13257589781E+04  0.25500000920E-02 0. -1.
    10030    2    1    2    0    0  0.00000000000E+00  0.00000000000E+00 -0.12635007136E+04  0.13880172427E+04  0.57459360658E+03 0.  0.
        5    1    3    3  502    0  0.25564584986E+03  0.51959898148E+02 -0.92225911862E+03  0.95845636491E+03  0.46999998093E+01 0. -1.
       -5    1    3    3    0  502 -0.25564584986E+03 -0.51959898148E+02 -0.34124159496E+03  0.42956087775E+03  0.46999998093E+01 0.  1.
</event>
<event>
 5   0  0.7424930E-02  0.6057845E+03  0.7818609E-02  0.9893477E-01
       -1   -1    0    0    0  501  0.00000000000E+00  0.00000000000E+00  0.63680390422E+02  0.63680390622E+02  0.50400001928E-02 0. -1.
        1   -1    0    0  501    0  0.00000000000E+00  0.00000000000E+00 -0.14406902503E+04  0.14406902503E+04  0.50400001928E-02 0.  1.
    10030    2    1    2    0    0  0.00000000000E+00  0.00000000000E+00 -0.13770098599E+04  0.15043706409E+04  0.60578450880E+03 0.  0.
        3    1    3    3  502    0 -0.15954808367E+03  0.12174788732E+03 -0.12513317030E+03  0.23650889958E+03  0.10100000352E+00 0. -1.
       -3    1    3    3    0  502  0.15954808367E+03 -0.12174788732E+03 -0.12518766896E+04  0.12678617414E+04  0.10100000352E+00 0.  1.
</event>
<event>
 5   0  0.7123340E-02  0.6655511E+03  0.7818609E-02  0.9778028E-01
       -1   -1    0    0    0  501  0.00000000000E+00  0.00000000000E+00  0.12109899492E+03  0.12109899503E+03  0.50400001928E-02 0. -1.
        1   -1    0    0  501    0  0.00000000000E+00  0.00000000000E+00 -0.91445493665E+03  0.91445493666E+03  0.50400001928E-02 0.  1.
    10030    2    1    2    0    0  0.00000000000E+00  0.00000000000E+00 -0.79335594172E+03  0.10355539317E+04  0.66555112138E+03 0.  0.
        2    1    3    3  502    0 -0.53271978302E+02  0.25920127778E+03 -0.71063905227E+03  0.75830803022E+03  0.25500000920E-02 0.  1.
       -2    1    3    3    0  502  0.53271978302E+02 -0.25920127778E+03 -0.82716889446E+02  0.27724590147E+03  0.25500000920E-02 0. -1.
</event>
<event>
 5   0  0.1175861E-01  0.6119387E+03  0.7818609E-02  0.9880942E-01
        2   -1    0    0  501    0  0.00000000000E+00  0.00000000000E+00  0.75072040205E+03  0.75072040205E+03  0.25500000920E-02 0. -1.
       -2   -1    0    0    0  501  0.00000000000E+00  0.00000000000E+00 -0.12470320591E+03  0.12470320594E+03  0.25500000920E-02 0.  1.
    10030    2    1    2    0    0  0.00000000000E+00  0.00000000000E+00  0.62601719614E+03  0.87542360799E+03  0.61193869266E+03 0.  0.
        3    1    3    3  502    0 -0.15854118385E+03 -0.84464573490E+01  0.68718119623E+03  0.70528338721E+03  0.10100000352E+00 0. -1.
       -3    1    3    3    0  502  0.15854118385E+03  0.84464573490E+01 -0.61164000093E+02  0.17014022078E+03  0.10100000352E+00 0.  1.
</event>
<event>
 5   0  0.7424930E-02  0.6705548E+03  0.7818609E-02  0.9768956E-01
        1   -1    0    0  501    0  0.00000000000E+00  0.00000000000E+00  0.20243936133E+04  0.20243936133E+04  0.50400001928E-02 0.  1.
       -1   -1    0    0    0  501  0.00000000000E+00  0.00000000000E+00 -0.55528192747E+02  0.55528192976E+02  0.50400001928E-02 0. -1.
    10030    2    1    2    0    0  0.00000000000E+00  0.00000000000E+00  0.19688654206E+04  0.20799218063E+04  0.67055475243E+03 0.  0.
        3    1    3    3  502    0 -0.19776906634E+03  0.50437494060E+02  0.18095000203E+04  0.18209741564E+04  0.10100000352E+00 0.  1.
       -3    1    3    3    0  502  0.19776906634E+03 -0.50437494060E+02  0.15936540024E+03  0.25894764992E+03  0.10100000352E+00 0. -1.
</event>
<event>
 5   0  0.7424930E-02  0.6049540E+03  0.7818609E-02  0.9895181E-01
        1   -1    0    0  501    0  0.00000000000E+00  0.00000000000E+00  0.26719268525E+03  0.26719268530E+03  0.50400001928E-02 0. -1.
       -1   -1    0    0    0  501  0.00000000000E+00  0.00000000000E+00 -0.34242082673E+03  0.34242082677E+03  0.50400001928E-02 0.  1.
    10030    2    1    2    0    0  0.00000000000E+00  0.00000000000E+00 -0.75228141477E+02  0.60961351207E+03  0.60495401547E+03 0.  0.
        3    1    3    3  502    0 -0.10110053482E+03 -0.91907928270E+02 -0.30955170837E+03  0.33836467867E+03  0.10100000352E+00 0.  1.
       -3    1    3    3    0  502  0.10110053482E+03  0.91907928270E+02  0.23432356689E+03  0.27124883340E+03  0.10100000352E+00 0. -1.
</event>
<event>
 5   0  0.7424930E-02  0.6051680E+03  0.7818609E-02  0.9894742E-01
       -1   -1    0    0    0  501  0.00000000000E+00  0.00000000000E+00  0.13910365494E+03  0.13910365503E+03  0.50400001928E-02 0.  1.
        1   -1    0    0  501    0  0.00000000000E+00  0.00000000000E+00 -0.65819326184E+03  0.65819326186E+03  0.50400001928E-02 0. -1.
    10030    2    1    2    0    0  0.00000000000E+00  0.00000000000E+00 -0.51908960690E+03  0.79729691688E+03  0.60516803756E+03 0.  0.
        3    1    3    3  502    0  0.22948782979E+03  0.82179158826E+01 -0.51914150124E+03  0.56766196515E+03  0.10100000352E+00 0. -1.
       -3    1    3    3    0  502 -0.22948782979E+03 -0.82179158826E+01  0.51894340680E-01  0.22963495174E+03  0.10100000352E+00 0.  1.
</event>
<event>
 5   0  0.4695625E-02  0.6007447E+03  0.7818609E-02  0.9903862E-01
       -4   -1    0    0    0  501  0.00000000000E+00  0.00000000000E+00  0.42468005447E+03  0.42468195343E+03  0.12699999809E+01 0. -1.
        4   -1    0    0  501    0  0.00000000000E+00  0.00000000000E+00 -0.21244638459E+03  0.21245018057E+03  0.12699999809E+01 0.  1.
    10030    2    1    2    0    0  0.00000000000E+00  0.00000000000E+00  0.21223366989E+03  0.63713213400E+03  0.60074472577E+03 0.  0.
        4    1    3    3  502    0  0.25395842542E+02  0.10440494186E+03 -0.19136629507E+03  0.21947212236E+03  0.12699999809E+01 0.  1.
       -4    1    3    3    0  502 -0.25395842542E+02 -0.10440494186E+03  0.40359996496E+03  0.41766001164E+03  0.12699999809E+01 0. -1.
</event>
<event>
 5   0  0.7266519E-02  0.5882162E+03  0.7818609E-02  0.9930160E-01
        1   -1    0    0  501    0  0.00000000000E+00  0.00000000000E+00  0.41800375752E+03  0.41800375755E+03  0.50400001928E-02 0.  1.
       -1   -1    0    0    0  501  0.00000000000E+00  0.00000000000E+00 -0.20693494026E+03  0.20693494032E+03  0.50400001928E-02 0. -1.
    10030    2    1    2    0    0  0.00000000000E+00  0.00000000000E+00  0.21106881726E+03  0.62493869787E+03  0.58821622766E+03 0.  0.
        4    1    3    3  502    0 -0.35574877677E+01 -0.87603683021E+02  0.40379342696E+03  0.41320431454E+03  0.12699999809E+01 0.  1.
       -4    1    3    3    0  502  0.35574877677E+01  0.87603683021E+02 -0.19272460970E+03  0.21173438333E+03  0.12699999809E+01 0. -1.
</event>
<event>
 5   0  0.7123340E-02  0.5982255E+03  0.7818609E-02  0.9909094E-01
        1   -1    0    0  501    0  0.00000000000E+00  0.00000000000E+00  0.25259635164E+03  0.25259635169E+03  0.50400001928E-02 0.  1.
       -1   -1    0    0    0  501  0.00000000000E+00  0.00000000000E+00 -0.35419526583E+03  0.35419526587E+03  0.50400001928E-02 0. -1.
    10030    2    1    2    0    0  0.00000000000E+00  0.00000000000E+00 -0.10159891420E+03  0.60679161756E+03  0.59822548238E+03 0.  0.
        2    1    3    3  502    0  0.25200567598E+03 -0.30553756065E+02  0.10966840898E+03  0.27652767071E+03  0.25500000920E-02 0.  1.
       -2    1    3    3    0  502 -0.25200567598E+03  0.30553756065E+02 -0.21126732318E+03  0.33026394684E+03  0.25500000920E-02 0. -1.
</event>
<event>
 5   0  0.1175861E-01  0.6450915E+03  0.7818609E-02  0.9816033E-01
        2   -1    0    0  501    0  0.00000000000E+00  0.00000000000E+00  0.44778237180E+03  0.44778237181E+03  0.25500000920E-02 0. -1.
       -2   -1    0    0    0  501  0.00000000000E+00  0.00000000000E+00 -0.23233556313E+03  0.23233556314E+03  0.25500000920E-02 0.  1.
    10030    2    1    2    0    0  0.00000000000E+00  0.00000000000E+00  0.21544680867E+03  0.68011793494E+03  0.64509152689E+03 0.  0.
        3    1    3    3  502    0 -0.75722049674E+02  0.12875643423E+03  0.40911901968E+03  0.43553464917E+03  0.10100000352E+00 0. -1.
       -3    1    3    3    0  502  0.75722049674E+02 -0.12875643423E+03 -0.19367221101E+03  0.24458328577E+03  0.10100000352E+00 0.  1.
</event>
<event>
 5   0  0.1146468E-01  0.5715303E+03  0.7818609E-02  0.9966298E-01
       -2   -1    0    0    0  501  0.00000000000E+00  0.00000000000E+00  0.27078426492E+03  0.27078426493E+03  0.25500000920E-02 0.  1.
        2   -1    0    0  501    0  0.00000000000E+00  0.00000000000E+00 -0.30157480471E+03  0.30157480472E+03  0.25500000920E-02 0. -1.
    10030    2    1    2    0    0  0.00000000000E+00  0.00000000000E+00 -0.30790539794E+02  0.57235906966E+03  0.57153026803E+03 0.  0.
        4    1    3    3  502    0 -0.22364729564E+03 -0.16696633338E+03  0.46047018984E+02  0.28287419498E+03  0.12699999809E+01 0.  1.
       -4    1    3    3    0  502  0.22364729564E+03  0.16696633338E+03 -0.76837558778E+02  0.28948487468E+03  0.12699999809E+01 0. -1.
</event>
<event>
 5   0  0.1146468E-01  0.5840553E+03  0.7818609E-02  0.9939050E-01
        2   -1    0    0  501    0  0.00000000000E+00  0.00000000000E+00  0.55168932226E+03  0.55168932227E+03  0.25500000920E-02 0.  1.
       -2   -1    0    0    0  501  0.00000000000E+00  0.00000000000E+00 -0.15458003582E+03  0.15458003584E+03  0.25500000920E-02 0. -1.
    10030    2    1    2    0    0  0.00000000000E+00  0.00000000000E+00  0.39710928644E+03  0.70626935811E+03  0.58405532342E+03 0.  0.
        4    1    3    3  502    0 -0.12377516540E+03 -0.50189763494E+02 -0.11547648994E+03  0.17656652162E+03  0.12699999809E+01 0. -1.
       -4    1    3    3    0  502  0.12377516540E+03  0.50189763494E+02  0.51258577639E+03  0.52970283649E+03  0.12699999809E+01 0.  1.
</event>
<event>
 5   0  0.7221069E-02  0.5959876E+03  0.7818609E-02  0.9913766E-01
        1   -1    0    0  501    0  0.00000000000E+00  0.00000000000E+00  0.50790548403E+03  0.50790548405E+03  0.50400001928E-02 0. -1.
       -1   -1    0    0    0  501  0.00000000000E+00  0.00000000000E+00 -0.17483628113E+03  0.17483628120E+03  0.50400001928E-02 0.  1.
    10030    2    1    2    0    0  0.00000000000E+00  0.00000000000E+00  0.33306920290E+03  0.68274176525E+03  0.59598760398E+03 0.  0.
        5    1    3    3  502    0 -0.60939368836E+02 -0.27264944627E+03  0.28518142977E+03  0.39925163132E+03  0.46999998093E+01 0. -1.
       -5    1    3    3    0  502  0.60939368836E+02  0.27264944627E+03  0.47887773132E+02  0.28349013394E+03  0.46999998093E+01 0.  1.
</event>
<event>
 5   0  0.7424930E-02  0.6104874E+03  0.7818609E-02  0.9883884E-01
       -1   -1    0    0    0  501  0.00000000000E+00  0.00000000000E+00  0.51026379045E+03  0.51026379048E+03  0.50400001928E-02 0.  1.
        1   -1    0    0  501    0  0.00000000000E+00  0.00000000000E+00 -0.18259912235E+03  0.18259912242E+03  0.50400001928E-02 0. -1.
    10030    2    1    2    0    0  0.00000000000E+00  0.00000000000E+00  0.32766466810E+03  0.69286291290E+03  0.61048741293E+03 0.  0.
        3    1    3    3  502    0 -0.30994470220E+02  0.84936231153E+02 -0.16705277842E+03  0.18995120828E+03  0.10100000352E+00 0. -1.
       -3    1    3    3    0  502  0.30994470220E+02 -0.84936231153E+02  0.49471744652E+03  0.50291170462E+03  0.10100000352E+00 0.  1.
</event>
<event>
 5   0  0.1146468E-01  0.5972603E+03  0.7818609E-02  0.9911106E-01
        2   -1    0    0  501    0  0.00000000000E+00  0.00000000000E+00  0.16918877605E+04  0.16918877605E+04  0.25500000920E-02 0.  1.
       -2   -1    0    0    0  501  0.00000000000E+00  0.00000000000E+00 -0.52710331326E+02  0.52710331388E+02  0.25500000920E-02 0. -1.
    10030    2    1    2    0    0  0.00000000000E+00  0.00000000000E+00  0.16391774292E+04  0.17445980919E+04  0.59726029326E+03 0.  0.
        4    1    3    3  502    0 -0.17557915845E+03 -0.58693697860E+02  0.15040346106E+04  0.15153859950E+04  0.12699999809E+01 0.  1.
       -4    1    3    3    0  502  0.17557915845E+03  0.58693697860E+02  0.13514281858E+03  0.22921209690E+03  0.12699999809E+01 0. -1.
</event>
<event>
 5   0  0.4695625E-02  0.6038895E+03  0.7818609E-02  0.9897369E-01
       -3   -1    0    0    0  501  0.00000000000E+00  0.00000000000E+00  0.80700611334E+02  0.80700674537E+02  0.10100000352E+00 0. -1.
        3   -1    0    0  501    0  0.00000000000E+00  0.00000000000E+00 -0.11297386918E+04  0.11297386963E+04  0.10100000352E+00 0.  1.
    10030    2    1    2    0    0  0.00000000000E+00  0.00000000000E+00 -0.10490380805E+04  0.12104393709E+04  0.60388953977E+03 0.  0.
        5    1    3    3  502    0  0.30298932157E+02 -0.18189203640E+03 -0.10036759472E+04  0.10204852940E+04  0.46999998093E+01 0.  1.
       -5    1    3    3    0  502 -0.30298932157E+02  0.18189203640E+03 -0.45362133265E+02  0.18995407689E+03  0.46999998093E+01 0. -1.
</event>
<event>
 5   0  0.1206238E-01  0.6064783E+03  0.7818609E-02  0.9892056E-01
        2   -1    0    0  501    0  0.00000000000E+00  0.00000000000E+00  0.11892661376E+04  0.11892661376E+04  0.25500000920E-02 0.  1.
       -2   -1    0    0    0  501  0.00000000000E+00  0.00000000000E+00 -0.77319925294E+02  0.77319925336E+02  0.25500000920E-02 0. -1.
    10030    2    1    2    0    0  0.00000000000E+00  0.00000000000E+00  0.11119462123E+04  0.12665860630E+04  0.60647825665E+03 0.  0.
        5    1    3    3  502    0 -0.21324860006E+03  0.21314247365E+03  0.48903909401E+03  0.57453111750E+03  0.46999998093E+01 0. -1.
       -5    1    3    3    0  502  0.21324860006E+03 -0.21314247365E+03  0.62290711834E+03  0.69205494549E+03  0.46999998093E+01 0.  1.
</event>
<event>
 5   0  0.7221069E-02  0.6229845E+03  0.7818609E-02  0.9858835E-01
        1   -1    0    0  501    0  0.00000000000E+00  0.00000000000E+00  0.14431642975E+03  0.14431642984E+03  0.50400001928E-02 0.  1.
       -1   -1    0    0    0  501  0.00000000000E+00  0.00000000000E+00 -0.67232426084E+03  0.67232426086E+03  0.50400001928E-02 0. -1.
    10030    2    1    2    0    0  0.00000000000E+00  0.00000000000E+00 -0.52800783109E+03  0.81664069070E+03  0.62298454878E+03 0.  0.
        5    1    3    3  502    0  0.30408620222E+03  0.21922602009E+01 -0.35225185345E+03  0.46537799974E+03  0.46999998093E+01 0. -1.
       -5    1    3    3    0  502 -0.30408620222E+03 -0.21922602009E+01 -0.17575597764E+03  0.35126269096E+03  0.46999998093E+01 0.  1.
</event>
<event>
 5   0  0.7424930E-02  0.5979011E+03  0.7818609E-02  0.9909770E-01
       -1   -1    0    0    0  501  0.00000000000E+00  0.00000000000E+00  0.10043545640E+03  0.10043545652E+03  0.50400001928E-02 0. -1.
        1   -1    0    0  501    0  0.00000000000E+00  0.00000000000E+00 -0.88983958477E+03  0.88983958479E+03  0.50400001928E-02 0.  1.
    10030    2    1    2    0    0  0.00000000000E+00  0.00000000000E+00 -0.78940412837E+03  0.99027504131E+03  0.59790114530E+03 0.  0.
        3    1    3    3  502    0 -0.23067736743E+03  0.13497808681E+03 -0.61654281884E+03  0.67197930729E+03  0.10100000352E+00 0.  1.
       -3    1    3    3    0  502  0.23067736743E+03 -0.13497808681E+03 -0.17286130953E+03  0.31829573402E+03  0.10100000352E+00 0. -1.
</event>
<event>
 5   0  0.1219020E-01  0.6083414E+03  0.7818609E-02  0.9888250E-01
       -2   -1    0    0    0  501  0.00000000000E+00  0.00000000000E+00  0.61481560013E+02  0.61481560066E+02  0.25500000920E-02 0.  1.
        2   -1    0    0  501    0  0.00000000000E+00  0.00000000000E+00 -0.15048381985E+04  0.15048381985E+04  0.25500000920E-02 0. -1.
    10030    2    1    2    0    0  0.00000000000E+00  0.00000000000E+00 -0.14433566385E+04  0.15663197586E+04  0.60834135173E+03 0.  0.
        2    1    3    3  502    0  0.28036163086E+03 -0.67382194471E+02 -0.97100015655E+03  0.10129088351E+04  0.25500000920E-02 0. -1.
       -2    1    3    3    0  502 -0.28036163086E+03  0.67382194471E+02 -0.47235648198E+03  0.55341092351E+03  0.25500000920E-02 0.  1.
</event>
<event>
 5   0  0.1206238E-01  0.6040928E+03  0.7818609E-02  0.9896951E-01
        2   -1    0    0  501    0  0.00000000000E+00  0.00000000000E+00  0.10502950877E+04  0.10502950877E+04  0.25500000920E-02 0.  1.
       -2   -1    0    0    0  501  0.00000000000E+00  0.00000000000E+00 -0.86863246925E+02  0.86863246962E+02  0.25500000920E-02 0. -1.
    10030    2    1    2    0    0  0.00000000000E+00  0.00000000000E+00  0.96343184078E+03  0.11371583347E+04  0.60409284575E+03 0.  0.
        5    1    3    3  502    0  0.22640196488E+03  0.16656215109E+03  0.27371752181E+03  0.39235719902E+03  0.46999998093E+01 0. -1.
       -5    1    3    3    0  502 -0.22640196488E+03 -0.16656215109E+03  0.68971431897E+03  0.74480113565E+03  0.46999998093E+01 0.  1.
</event>
<event>
 5   0  0.1166419E-01  0.6103249E+03  0.7818609E-02  0.9884214E-01
        2   -1    0    0  501    0  0.00000000000E+00  0.00000000000E+00  0.34688175743E+03  0.34688175744E+03  0.25500000920E-02 0.  1.
       -2   -1    0    0    0  501  0.00000000000E+00  0.00000000000E+00 -0.26846066884E+03  0.26846066885E+03  0.25500000920E-02 0. -1.
    10030    2    1    2    0    0  0.00000000000E+00  0.00000000000E+00  0.78421088589E+02  0.61534242629E+03  0.61032485978E+03 0.  0.
        1    1    3    3  502    0  0.41268243782E+02  0.28688010684E+03 -0.57077715087E+02  0.29539994792E+03  0.50400001928E-02 0.  1.
       -1    1    3    3    0  502 -0.41268243782E+02 -0.28688010684E+03  0.13549880368E+03  0.31994247837E+03  0.50400001928E-02 0. -1.
</event>
<event>
 5   0  0.1146468E-01  0.5468818E+03  0.7818609E-02  0.1002218E+00
       -2   -1    0    0    0  501  0.00000000000E+00  0.00000000000E+00  0.53511636076E+02  0.53511636137E+02  0.25500000920E-02 0.  1.
        2   -1    0    0  501    0  0.00000000000E+00  0.00000000000E+00 -0.13972648088E+04  0.13972648088E+04  0.25500000920E-02 0. -1.
    10030    2    1    2    0    0  0.00000000000E+00  0.00000000000E+00 -0.13437531727E+04  0.14507764449E+04  0.54688180074E+03 0.  0.
        4    1    3    3  502    0 -0.24828917335E+02 -0.24446360679E+03 -0.99009705392E+03  0.10201336772E+04  0.12699999809E+01 0. -1.
       -4    1    3    3    0  502  0.24828917335E+02  0.24446360679E+03 -0.35365611881E+03  0.43064276779E+03  0.12699999809E+01 0.  1.
</event>
<event>
 5   0  0.1206238E-01  0.6018165E+03  0.7818609E-02  0.9901645E-01
        2   -1    0    0  501    0  0.00000000000E+00  0.00000000000E+00  0.82411664511E+03  0.82411664512E+03  0.25500000920E-02 0.  1.
       -2   -1    0    0    0  501  0.00000000000E+00  0.00000000000E+00 -0.10987010097E+03  0.10987010100E+03  0.25500000920E-02 0. -1.
    10030    2    1    2    0    0  0.00000000000E+00  0.00000000000E+00  0.71424654414E+03  0.93398674612E+03  0.60181651366E+03 0.  0.
        5    1    3    3  502    0  0.13003446800E+03  0.10553218088E+03 -0.30793964502E+02  0.17034189831E+03  0.46999998093E+01 0. -1.
       -5    1    3    3    0  502 -0.13003446800E+03 -0.10553218088E+03  0.74504050864E+03  0.76364484781E+03  0.46999998093E+01 0.  1.
</event>
<event>
 5   0  0.1175861E-01  0.5557847E+03  0.7818609E-02  0.1000164E+00
        2   -1    0    0  501    0  0.00000000000E+00  0.00000000000E+00  0.82910803291E+03  0.82910803291E+03  0.25500000920E-02 0.  1.
       -2   -1    0    0    0  501  0.00000000000E+00  0.00000000000E+00 -0.93141233221E+02  0.93141233256E+02  0.25500000920E-02 0. -1.
    10030    2    1    2    0    0  0.00000000000E+00  0.00000000000E+00  0.73596679969E+03  0.92224926617E+03  0.55578465138E+03 0.  0.
        3    1    3    3  502    0  0.23024847436E+03  0.14529242322E+03  0.27559559451E+03  0.38739797380E+03  0.10100000352E+00 0.  1.
       -3    1    3    3    0  502 -0.23024847436E+03 -0.14529242322E+03  0.46037120518E+03  0.53485129237E+03  0.10100000352E+00 0. -1.
</event>
<event>
 5   0  0.7123340E-02  0.6110508E+03  0.7818609E-02  0.9882741E-01
       -1   -1    0    0    0  501  0.00000000000E+00  0.00000000000E+00  0.35028019490E+03  0.35028019493E+03  0.50400001928E-02 0. -1.
        1   -1    0    0  501    0  0.00000000000E+00  0.00000000000E+00 -0.26648888658E+03  0.26648888663E+03  0.50400001928E-02 0.  1.
    10030    2    1    2    0    0  0.00000000000E+00  0.00000000000E+00  0.83791308312E+02  0.61676908157E+03  0.61105082982E+03 0.  0.
        2    1    3    3  502    0 -0.16167230501E+03 -0.14001916857E+02  0.30318449960E+03  0.34388199820E+03  0.25500000920E-02 0. -1.
       -2    1    3    3    0  502  0.16167230501E+03  0.14001916857E+02 -0.21939319128E+03  0.27288708337E+03  0.25500000920E-02 0.  1.
</event>
<event>
 5   0  0.1206238E-01  0.5960475E+03  0.7818609E-02  0.9913640E-01
       -2   -1    0    0    0  501  0.00000000000E+00  0.00000000000E+00  0.15833344981E+03  0.15833344983E+03  0.25500000920E-02 0. -1.
        2   -1    0    0  501    0  0.00000000000E+00  0.00000000000E+00 -0.56095639309E+03  0.56095639310E+03  0.25500000920E-02 0.  1.
    10030    2    1    2    0    0  0.00000000000E+00  0.00000000000E+00 -0.40262294328E+03  0.71928984292E+03  0.59604751797E+03 0.  0.
        5    1    3    3  502    0 -0.21016298890E+03  0.23008663105E+02  0.52104176243E+02  0.21779535271E+03  0.46999998093E+01 0. -1.
       -5    1    3    3    0  502  0.21016298890E+03 -0.23008663105E+02 -0.45472711952E+03  0.50149449021E+03  0.46999998093E+01 0.  1.
</event>
<event>
 5   0  0.7221069E-02  0.6030145E+03  0.7818609E-02  0.9899172E-01
       -1   -1    0    0    0  501  0.00000000000E+00  0.00000000000E+00  0.65728061974E+02  0.65728062167E+02  0.50400001928E-02 0.  1.
        1   -1    0    0  501    0  0.00000000000E+00  0.00000000000E+00 -0.13830718966E+04  0.13830718966E+04  0.50400001928E-02 0. -1.
    10030    2    1    2    0    0  0.00000000000E+00  0.00000000000E+00 -0.13173438347E+04  0.14487999588E+04  0.60301454537E+03 0.  0.
        5    1    3    3  502    0 -0.18414907788E+03 -0.78840357085E+02 -0.11999647689E+04  0.12165789006E+04  0.46999998093E+01 0. -1.
       -5    1    3    3    0  502  0.18414907788E+03  0.78840357085E+02 -0.11737906573E+03  0.23222105818E+03  0.46999998093E+01 0.  1.
</event>
<event>
 5   0  0.7221069E-02  0.5970268E+03  0.7818609E-02  0.9911594E-01
        1   -1    0    0  501    0  0.00000000000E+00  0.00000000000E+00  0.59717481592E+03  0.59717481595E+03  0.50400001928E-02 0. -1.
       -1   -1    0    0    0  501  0.00000000000E+00  0.00000000000E+00 -0.14921972864E+03  0.14921972873E+03  0.50400001928E-02 0.  1.
    10030    2    1    2    0    0  0.00000000000E+00  0.00000000000E+00  0.44795508728E+03  0.74639454467E+03  0.59702684704E+03 0.  0.
        5    1    3    3  502    0 -0.25917813372E+02  0.27933005682E+03  0.35141779475E+03  0.44968163201E+03  0.46999998093E+01 0. -1.
       -5    1    3    3    0  502  0.25917813372E+02 -0.27933005682E+03  0.96537292529E+02  0.29671291266E+03  0.46999998093E+01 0.  1.
</event>
<event>
 5   0  0.7221069E-02  0.5994614E+03  0.7818609E-02  0.9906524E-01
       -1   -1    0    0    0  501  0.00000000000E+00  0.00000000000E+00  0.44332923774E+03  0.44332923777E+03  0.50400001928E-02 0.  1.
        1   -1    0    0  501    0  0.00000000000E+00  0.00000000000E+00 -0.20264508371E+03  0.20264508378E+03  0.50400001928E-02 0. -1.
    10030    2    1    2    0    0  0.00000000000E+00  0.00000000000E+00  0.24068415403E+03  0.64597432155E+03  0.59946139333E+03 0.  0.
        5    1    3    3  502    0 -0.12343701948E+03  0.42669824470E+02  0.41101017119E+03  0.43128744767E+03  0.46999998093E+01 0.  1.
       -5    1    3    3    0  502  0.12343701948E+03 -0.42669824470E+02 -0.17032601715E+03  0.21468687388E+03  0.46999998093E+01 0. -1.
</event>
<event>
 5   0  0.7266519E-02  0.5882699E+03  0.7818609E-02  0.9930046E-01
        1   -1    0    0  501    0  0.00000000000E+00  0.00000000000E+00  0.13251174922E+04  0.13251174922E+04  0.50400001928E-02 0.  1.
       -1   -1    0    0    0  501  0.00000000000E+00  0.00000000000E+00 -0.65288817822E+02  0.65288818017E+02  0.50400001928E-02 0. -1.
    10030    2    1    2    0    0  0.00000000000E+00  0.00000000000E+00  0.12598286744E+04  0.13904063103E+04  0.58826985197E+03 0.  0.
        4    1    3    3  502    0 -0.53002924097E+02  0.18553469105E+03  0.10522014010E+03  0.21978471814E+03  0.12699999809E+01 0. -1.
       -4    1    3    3    0  502  0.53002924097E+02 -0.18553469105E+03  0.11546085343E+04  0.11706215921E+04  0.12699999809E+01 0.  1.
</event>
<event>
 5   0  0.1175861E-01  0.5978280E+03  0.7818609E-02  0.9909922E-01
       -2   -1    0    0    0  501  0.00000000000E+00  0.00000000000E+00  0.32182018379E+03  0.32182018380E+03  0.25500000920E-02 0.  1.
        2   -1    0    0  501    0  0.00000000000E+00  0.00000000000E+00 -0.27763824733E+03  0.27763824734E+03  0.25500000920E-02 0. -1.
    10030    2    1    2    0    0  0.00000000000E+00  0.00000000000E+00  0.44181936458E+02  0.59945843114E+03  0.59782804146E+03 0.  0.
        3    1    3    3  502    0 -0.10215687750E+03 -0.15272310699E+03  0.25850760149E+03  0.31715385108E+03  0.10100000352E+00 0.  1.
       -3    1    3    3    0  502  0.10215687750E+03  0.15272310699E+03 -0.21432566503E+03  0.28230458006E+03  0.10100000352E+00 0. -1.
</event>
<event>
 5   0  0.4695625E-02  0.6002170E+03  0.7818609E-02  0.9904956E-01
       -4   -1    0    0    0  501  0.00000000000E+00  0.00000000000E+00  0.31814395350E+03  0.31814648835E+03  0.12699999809E+01 0. -1.
        4   -1    0    0  501    0  0.00000000000E+00  0.00000000000E+00 -0.28309038886E+03  0.28309323758E+03  0.12699999809E+01 0.  1.
    10030    2    1    2    0    0  0.00000000000E+00  0.00000000000E+00  0.35053564639E+02  0.60123972593E+03  0.60021700712E+03 0.  0.
        4    1    3    3  502    0  0.24337488144E+03 -0.11146803963E+03  0.15343051942E+03  0.30854334212E+03  0.12699999809E+01 0. -1.
       -4    1    3    3    0  502 -0.24337488144E+03  0.11146803963E+03 -0.11837695478E+03  0.29269638381E+03  0.12699999809E+01 0.  1.
</event>
<event>
 5   0  0.7266519E-02  0.6044392E+03  0.7818609E-02  0.9896239E-01
        1   -1    0    0  501    0  0.00000000000E+00  0.00000000000E+00  0.79984066696E+03  0.79984066698E+03  0.50400001928E-02 0. -1.
       -1   -1    0    0    0  501  0.00000000000E+00  0.00000000000E+00 -0.11419361661E+03  0.11419361672E+03  0.50400001928E-02 0.  1.
    10030    2    1    2    0    0  0.00000000000E+00  0.00000000000E+00  0.68564705035E+03  0.91403428370E+03  0.60443923939E+03 0.  0.
        4    1    3    3  502    0  0.15731121985E+03 -0.24958793901E+03  0.44191750004E+03  0.53135077767E+03  0.12699999809E+01 0. -1.
       -4    1    3    3    0  502 -0.15731121985E+03  0.24958793901E+03  0.24372955032E+03  0.38268350603E+03  0.12699999809E+01 0.  1.
</event>
<event>
 5   0  0.1146468E-01  0.6033168E+03  0.7818609E-02  0.9898549E-01
        2   -1    0    0  501    0  0.00000000000E+00  0.00000000000E+00  0.84901241060E+03  0.84901241060E+03  0.25500000920E-02 0.  1.
       -2   -1    0    0    0  501  0.00000000000E+00  0.00000000000E+00 -0.10718074632E+03  0.10718074635E+03  0.25500000920E-02 0. -1.
    10030    2    1    2    0    0  0.00000000000E+00  0.00000000000E+00  0.74183166428E+03  0.95619315695E+03  0.60331677854E+03 0.  0.
        4    1    3    3  502    0 -0.25947723472E+03  0.14705431344E+03  0.44254821142E+03  0.53367025284E+03  0.12699999809E+01 0.  1.
       -4    1    3    3    0  502  0.25947723472E+03 -0.14705431344E+03  0.29928345286E+03  0.42252290411E+03  0.12699999809E+01 0. -1.
</event>
<event>
 5   0  0.1219020E-01  0.6598330E+03  0.7818609E-02  0.9788501E-01
       -2   -1    0    0    0  501  0.00000000000E+00  0.00000000000E+00  0.15025156461E+03  0.15025156463E+03  0.25500000920E-02 0. -1.
        2   -1    0    0  501    0  0.00000000000E+00  0.00000000000E+00 -0.72441767677E+03  0.72441767678E+03  0.25500000920E-02 0.  1.
    10030    2    1    2    0    0  0.00000000000E+00  0.00000000000E+00 -0.57416611217E+03  0.87466924141E+03  0.65983297697E+03 0.  0.
        2    1    3    3  502    0 -0.21530563342E+03 -0.19371936454E+03 -0.49651475015E+03  0.57481353943E+03  0.25500000920E-02 0.  1.
       -2    1    3    3    0  502  0.21530563342E+03  0.19371936454E+03 -0.77651362016E+02  0.29985570198E+03  0.25500000920E-02 0. -1.
</event>
<event>
 5   0  0.7266519E-02  0.6112909E+03  0.7818609E-02  0.9882254E-01
       -1   -1    0    0    0  501  0.00000000000E+00  0.00000000000E+00  0.56133833207E+03  0.56133833209E+03  0.50400001928E-02 0. -1.
        1   -1    0    0  501    0  0.00000000000E+00  0.00000000000E+00 -0.16642214244E+03  0.16642214252E+03  0.50400001928E-02 0.  1.
    10030    2    1    2    0    0  0.00000000000E+00  0.00000000000E+00  0.39491618963E+03  0.72776047461E+03  0.61129085677E+03 0.  0.
        4    1    3    3  502    0  0.34802987212E+02  0.29679080678E+03  0.12102747553E+03  0.32240548017E+03  0.12699999809E+01 0. -1.
       -4    1    3    3    0  502 -0.34802987212E+02 -0.29679080678E+03  0.27388871410E+03  0.40535499444E+03  0.12699999809E+01 0.  1.
</event>
<event>
 5   0  0.1206238E-01  0.6061135E+03  0.7818609E-02  0.9892803E-01
       -2   -1    0    0    0  501  0.00000000000E+00  0.00000000000E+00  0.87756787266E+02  0.87756787303E+02  0.25500000920E-02 0. -1.
        2   -1    0    0  501    0  0.00000000000E+00  0.00000000000E+00 -0.10465672837E+04  0.10465672837E+04  0.25500000920E-02 0.  1.
    10030    2    1    2    0    0  0.00000000000E+00  0.00000000000E+00 -0.95881049640E+03  0.11343240710E+04  0.60611346296E+03 0.  0.
        5    1    3    3  502    0 -0.11972499693E+03  0.26206688786E+03 -0.65504625219E+03  0.71562616715E+03  0.46999998093E+01 0.  1.
       -5    1    3    3    0  502  0.11972499693E+03 -0.26206688786E+03 -0.30376424421E+03  0.41869790382E+03  0.46999998093E+01 0. -1.
</event>
<event>
 5   0  0.4695625E-02  0.5914606E+03  0.7818609E-02  0.9923283E-01
        3   -1    0    0  501    0  0.00000000000E+00  0.00000000000E+00  0.87589286060E+02  0.87589344292E+02  0.10100000352E+00 0.  1.
       -3   -1    0    0    0  501  0.00000000000E+00  0.00000000000E+00 -0.99848265089E+03  0.99848265600E+03  0.10100000352E+00 0. -1.
    10030    2    1    2    0    0  0.00000000000E+00  0.00000000000E+00 -0.91089336483E+03  0.10860720003E+04  0.59146062229E+03 0.  0.
        5    1    3    3  502    0  0.25024279614E+03 -0.15642930006E+03 -0.42145147383E+03  0.51452406915E+03  0.46999998093E+01 0. -1.
       -5    1    3    3    0  502 -0.25024279614E+03  0.15642930006E+03 -0.48944189100E+03  0.57154793115E+03  0.46999998093E+01 0.  1.
</event>
<event>
 5   0  0.7424930E-02  0.6097051E+03  0.7818609E-02  0.9885473E-01
       -1   -1    0    0    0  501  0.00000000000E+00  0.00000000000E+00  0.27199922727E+03  0.27199922731E+03  0.50400001928E-02 0. -1.
        1   -1    0    0  501    0  0.00000000000E+00  0.00000000000E+00 -0.34167409492E+03  0.34167409495E+03  0.50400001928E-02 0.  1.
    10030    2    1    2    0    0  0.00000000000E+00  0.00000000000E+00 -0.69674867648E+02  0.61367332227E+03  0.60970514126E+03 0.  0.
        3    1    3    3  502    0 -0.24300332858E+03  0.15776633475E+03 -0.13029267001E+03  0.31767439956E+03  0.10100000352E+00 0.  1.
       -3    1    3    3    0  502  0.24300332858E+03 -0.15776633475E+03  0.60617802360E+02  0.29599892270E+03  0.10100000352E+00 0. -1.
</event>
<event>
 5   0  0.1146468E-01  0.6035389E+03  0.7818609E-02  0.9898091E-01
        2   -1    0    0  501    0  0.00000000000E+00  0.00000000000E+00  0.20932490467E+03  0.20932490469E+03  0.25500000920E-02 0. -1.
       -2   -1    0    0    0  501  0.00000000000E+00  0.00000000000E+00 -0.43504048473E+03  0.43504048474E+03  0.25500000920E-02 0.  1.
    10030    2    1    2    0    0  0.00000000000E+00  0.00000000000E+00 -0.22571558006E+03  0.64436538942E+03  0.60353892336E+03 0.  0.
        4    1    3    3  502    0  0.18264236533E+02  0.28741064062E+03 -0.20909246014E+03  0.35589286094E+03  0.12699999809E+01 0.  1.
       -4    1    3    3    0  502 -0.18264236533E+02 -0.28741064062E+03 -0.16623119911E+02  0.28847252849E+03  0.12699999809E+01 0. -1.
</event>
<event>
 5   0  0.4695625E-02  0.6011191E+03  0.7818609E-02  0.9903087E-01
       -3   -1    0    0    0  501  0.00000000000E+00  0.00000000000E+00  0.10506515737E+03  0.10506520591E+03  0.10100000352E+00 0. -1.
        3   -1    0    0  501    0  0.00000000000E+00  0.00000000000E+00 -0.85980945713E+03  0.85980946306E+03  0.10100000352E+00 0.  1.
    10030    2    1    2    0    0  0.00000000000E+00  0.00000000000E+00 -0.75474429977E+03  0.96487466897E+03  0.60111909702E+03 0.  0.
        4    1    3    3  502    0  0.12576259997E+03  0.77792476902E+02  0.42628084729E+02  0.15390473521E+03  0.12699999809E+01 0. -1.
       -4    1    3    3    0  502 -0.12576259997E+03 -0.77792476902E+02 -0.79737238449E+03  0.81096993376E+03  0.12699999809E+01 0.  1.
</event>
<event>
 5   0  0.4695625E-02  0.5563002E+03  0.7818609E-02  0.1000046E+00
       -4   -1    0    0    0  501  0.00000000000E+00  0.00000000000E+00  0.11192804416E+04  0.11192811621E+04  0.12699999809E+01 0. -1.
        4   -1    0    0  501    0  0.00000000000E+00  0.00000000000E+00 -0.69115945737E+02  0.69127612826E+02  0.12699999809E+01 0.  1.
    10030    2    1    2    0    0  0.00000000000E+00  0.00000000000E+00  0.10501644959E+04  0.11884087750E+04  0.55630023187E+03 0.  0.
        4    1    3    3  502    0  0.23697663097E+03  0.98429225149E+02  0.75436745014E+03  0.79681748144E+03  0.12699999809E+01 0. -1.
       -4    1    3    3    0  502 -0.23697663097E+03 -0.98429225149E+02  0.29579704576E+03  0.39159129353E+03  0.12699999809E+01 0.  1.
</event>
<event>
 5   0  0.7263385E-02  0.6037471E+03  0.7818609E-02  0.9897662E-01
       -1   -1    0    0    0  501  0.00000000000E+00  0.00000000000E+00  0.30819724864E+03  0.30819724868E+03  0.50400001928E-02 0. -1.
        1   -1    0    0  501    0  0.00000000000E+00  0.00000000000E+00 -0.29567962603E+03  0.29567962607E+03  0.50400001928E-02 0.  1.
    10030    2    1    2    0    0  0.00000000000E+00  0.00000000000E+00  0.12517622611E+02  0.60387687476E+03  0.60374712338E+03 0.  0.
        1    1    3    3  502    0  0.71013393989E+02  0.66918150683E+02 -0.27947145694E+03  0.29601560142E+03  0.50400001928E-02 0.  1.
       -1    1    3    3    0  502 -0.71013393989E+02 -0.66918150683E+02  0.29198907955E+03  0.30786127333E+03  0.50400001928E-02 0. -1.
</event>
<event>
 5   0  0.7263385E-02  0.6024642E+03  0.7818609E-02  0.9900307E-01
       -1   -1    0    0    0  501  0.00000000000E+00  0.00000000000E+00  0.28002683889E+03  0.28002683893E+03  0.50400001928E-02 0.  1.
        1   -1    0    0  501    0  0.00000000000E+00  0.00000000000E+00 -0.32404315378E+03  0.32404315382E+03  0.50400001928E-02 0. -1.
    10030    2    1    2    0    0  0.00000000000E+00  0.00000000000E+00 -0.44016314896E+02  0.60406999275E+03  0.60246420654E+03 0.  0.
        1    1    3    3  502    0 -0.20454623795E+02  0.13687987179E+03  0.24626111890E+03  0.28248722031E+03  0.50400001928E-02 0.  1.
       -1    1    3    3    0  502  0.20454623795E+02 -0.13687987179E+03 -0.29027743379E+03  0.32158277244E+03  0.50400001928E-02 0. -1.
</event>
<event>
 5   0  0.7424930E-02  0.6103204E+03  0.7818609E-02  0.9884223E-01
       -1   -1    0    0    0  501  0.00000000000E+00  0.00000000000E+00  0.41247046762E+03  0.41247046765E+03  0.50400001928E-02 0.  1.
        1   -1    0    0  501    0  0.00000000000E+00  0.00000000000E+00 -0.22576825121E+03  0.22576825126E+03  0.50400001928E-02 0. -1.
    10030    2    1    2    0    0  0.00000000000E+00  0.00000000000E+00  0.18670221642E+03  0.63823871891E+03  0.61032036236E+03 0.  0.
        3    1    3    3  502    0  0.43949016069E+02  0.16915751232E+03  0.35494793371E+03  0.39564355907E+03  0.10100000352E+00 0.  1.
       -3    1    3    3    0  502 -0.43949016069E+02 -0.16915751232E+03 -0.16824571730E+03  0.24259515984E+03  0.10100000352E+00 0. -1.
</event>
<event>
 5   0  0.1146468E-01  0.6042809E+03  0.7818609E-02  0.9896564E-01
       -2   -1    0    0    0  501  0.00000000000E+00  0.00000000000E+00  0.91495278227E+02  0.91495278263E+02  0.25500000920E-02 0.  1.
        2   -1    0    0  501    0  0.00000000000E+00  0.00000000000E+00 -0.99774379706E+03  0.99774379706E+03  0.25500000920E-02 0. -1.
    10030    2    1    2    0    0  0.00000000000E+00  0.00000000000E+00 -0.90624851883E+03  0.10892390753E+04  0.60428088281E+03 0.  0.
        4    1    3    3  502    0  0.29181954441E+03  0.58858903774E+02 -0.36008438730E+03  0.46721022669E+03  0.12699999809E+01 0.  1.
       -4    1    3    3    0  502 -0.29181954441E+03 -0.58858903774E+02 -0.54616413153E+03  0.62202884863E+03  0.12699999809E+01 0. -1.
</event>
<event>
 5   0  0.1166419E-01  0.4795888E+03  0.7818609E-02  0.1019248E+00
        2   -1    0    0  501    0  0.00000000000E+00  0.00000000000E+00  0.49677394880E+03  0.49677394881E+03  0.25500000920E-02 0.  1.
       -2   -1    0    0    0  501  0.00000000000E+00  0.00000000000E+00 -0.11574953742E+03  0.11574953745E+03  0.25500000920E-02 0. -1.
    10030    2    1    2    0    0  0.00000000000E+00  0.00000000000E+00  0.38102441138E+03  0.61252348626E+03  0.47958880215E+03 0.  0.
        1    1    3    3  502    0  0.17316350075E+03 -0.15818144690E+03  0.12672470348E+03  0.26658229242E+03  0.50400001928E-02 0. -1.
       -1    1    3    3    0  502 -0.17316350075E+03  0.15818144690E+03  0.25429970789E+03  0.34594119384E+03  0.50400001928E-02 0.  1.
</event>
<event>
 5   0  0.4695625E-02  0.6086876E+03  0.7818609E-02  0.9887544E-01
        4   -1    0    0  501    0  0.00000000000E+00  0.00000000000E+00  0.96314701508E+03  0.96314785239E+03  0.12699999809E+01 0.  1.
       -4   -1    0    0    0  501  0.00000000000E+00  0.00000000000E+00 -0.96164197952E+02  0.96172583763E+02  0.12699999809E+01 0. -1.
    10030    2    1    2    0    0  0.00000000000E+00  0.00000000000E+00  0.86698281713E+03  0.10593204362E+04  0.60868758920E+03 0.  0.
        4    1    3    3  502    0  0.83175955508E+01 -0.12722942052E+03 -0.47442987687E+02  0.13604763072E+03  0.12699999809E+01 0. -1.
       -4    1    3    3    0  502 -0.83175955508E+01  0.12722942052E+03  0.91442580482E+03  0.92327280544E+03  0.12699999809E+01 0.  1.
</event>
<event>
 5   0  0.7123340E-02  0.5900737E+03  0.7818609E-02  0.9926217E-01
       -1   -1    0    0    0  501  0.00000000000E+00  0.00000000000E+00  0.31268944367E+03  0.31268944371E+03  0.50400001928E-02 0.  1.
        1   -1    0    0  501    0  0.00000000000E+00  0.00000000000E+00 -0.27838082141E+03  0.27838082146E+03  0.50400001928E-02 0. -1.
    10030    2    1    2    0    0  0.00000000000E+00  0.00000000000E+00  0.34308622264E+02  0.59107026517E+03  0.59007370455E+03 0.  0.
        2    1    3    3  502    0  0.27872773731E+02  0.20849787977E+03 -0.19007303131E+03  0.28350663947E+03  0.25500000920E-02 0. -1.
       -2    1    3    3    0  502 -0.27872773731E+02 -0.20849787977E+03  0.22438165358E+03  0.30756362570E+03  0.25500000920E-02 0.  1.
</event>
<event>
 5   0  0.4695625E-02  0.5934635E+03  0.7818609E-02  0.9919061E-01
        3   -1    0    0  501    0  0.00000000000E+00  0.00000000000E+00  0.14042384367E+03  0.14042387999E+03  0.10100000352E+00 0. -1.
       -3   -1    0    0    0  501  0.00000000000E+00  0.00000000000E+00 -0.62702830907E+03  0.62702831720E+03  0.10100000352E+00 0.  1.
    10030    2    1    2    0    0  0.00000000000E+00  0.00000000000E+00 -0.48660446540E+03  0.76745219719E+03  0.59346353656E+03 0.  0.
        5    1    3    3  502    0  0.74237340127E+02  0.25043819930E+03 -0.42525511396E+03  0.49909365483E+03  0.46999998093E+01 0.  1.
       -5    1    3    3    0  502 -0.74237340127E+02 -0.25043819930E+03 -0.61349351438E+02  0.26835854236E+03  0.46999998093E+01 0. -1.
</event>
<event>
 5   0  0.7221069E-02  0.6142872E+03  0.7818609E-02  0.9876200E-01
        1   -1    0    0  501    0  0.00000000000E+00  0.00000000000E+00  0.13980347445E+03  0.13980347454E+03  0.50400001928E-02 0.  1.
       -1   -1    0    0    0  501  0.00000000000E+00  0.00000000000E+00 -0.67478424547E+03  0.67478424549E+03  0.50400001928E-02 0. -1.
    10030    2    1    2    0    0  0.00000000000E+00  0.00000000000E+00 -0.53498077102E+03  0.81458772004E+03  0.61428717085E+03 0.  0.
        5    1    3    3  502    0 -0.30566781028E+03  0.10601410404E+02 -0.23069602190E+03  0.38312914880E+03  0.46999998093E+01 0. -1.
       -5    1    3    3    0  502  0.30566781028E+03 -0.10601410404E+02 -0.30428474912E+03  0.43145857123E+03  0.46999998093E+01 0.  1.
</event>
<event>
 5   0  0.1146468E-01  0.5771473E+03  0.7818609E-02  0.9953986E-01
       -2   -1    0    0    0  501  0.00000000000E+00  0.00000000000E+00  0.57180973384E+02  0.57180973441E+02  0.25500000920E-02 0. -1.
        2   -1    0    0  501    0  0.00000000000E+00  0.00000000000E+00 -0.14563369437E+04  0.14563369438E+04  0.25500000920E-02 0.  1.
    10030    2    1    2    0    0  0.00000000000E+00  0.00000000000E+00 -0.13991559704E+04  0.15135179172E+04  0.57714734362E+03 0.  0.
        4    1    3    3  502    0  0.21713204886E+03  0.14539899523E+03 -0.10206061249E+04  0.10535300991E+04  0.12699999809E+01 0.  1.
       -4    1    3    3    0  502 -0.21713204886E+03 -0.14539899523E+03 -0.37854984543E+03  0.45998781814E+03  0.12699999809E+01 0. -1.
</event>
<event>
 5   0  0.7424930E-02  0.5887913E+03  0.7818609E-02  0.9928937E-01
       -1   -1    0    0    0  501  0.00000000000E+00  0.00000000000E+00  0.64247924016E+02  0.64247924214E+02  0.50400001928E-02 0.  1.
        1   -1    0    0  501    0  0.00000000000E+00  0.00000000000E+00 -0.13489741093E+04  0.13489741093E+04  0.50400001928E-02 0. -1.
    10030    2    1    2    0    0  0.00000000000E+00  0.00000000000E+00 -0.12847261853E+04  0.14132220335E+04  0.58879125748E+03 0.  0.
        3    1    3    3  502    0  0.22359745262E+03 -0.78766009146E+02 -0.10613275951E+04  0.10874815765E+04  0.10100000352E+00 0. -1.
       -3    1    3    3    0  502 -0.22359745262E+03  0.78766009146E+02 -0.22339859020E+03  0.32574045698E+03  0.10100000352E+00 0.  1.
</event>
<event>
 5   0  0.1146468E-01  0.5722465E+03  0.7818609E-02  0.9964720E-01
       -2   -1    0    0    0  501  0.00000000000E+00  0.00000000000E+00  0.19777233693E+03  0.19777233694E+03  0.25500000920E-02 0.  1.
        2   -1    0    0  501    0  0.00000000000E+00  0.00000000000E+00 -0.41394323592E+03  0.41394323592E+03  0.25500000920E-02 0. -1.
    10030    2    1    2    0    0  0.00000000000E+00  0.00000000000E+00 -0.21617089899E+03  0.61171557287E+03  0.57224652425E+03 0.  0.
        4    1    3    3  502    0  0.11604887152E+03 -0.23772173044E+03 -0.22462766215E+03  0.34704201649E+03  0.12699999809E+01 0.  1.
       -4    1    3    3    0  502 -0.11604887152E+03  0.23772173044E+03  0.84567631602E+01  0.26467355638E+03  0.12699999809E+01 0. -1.
</event>
<event>
 5   0  0.7263385E-02  0.5991874E+03  0.7818609E-02  0.9907093E-01
        1   -1    0    0  501    0  0.00000000000E+00  0.00000000000E+00  0.14409161395E+04  0.14409161395E+04  0.50400001928E-02 0. -1.
       -1   -1    0    0    0  501  0.00000000000E+00  0.00000000000E+00 -0.62291191090E+02  0.62291191294E+02  0.50400001928E-02 0.  1.
    10030    2    1    2    0    0  0.00000000000E+00  0.00000000000E+00  0.13786249484E+04  0.15032073308E+04  0.59918739222E+03 0.  0.
        1    1    3    3  502    0 -0.48843535161E+02 -0.21040941318E+03  0.16849247566E+03  0.27394803606E+03  0.50400001928E-02 0.  1.
       -1    1    3    3    0  502  0.48843535161E+02  0.21040941318E+03  0.12101324727E+04  0.12292592947E+04  0.50400001928E-02 0. -1.
</event>
<event>
 5   0  0.7263385E-02  0.5839183E+03  0.7818609E-02  0.9939344E-01
        1   -1    0    0  501    0  0.00000000000E+00  0.00000000000E+00  0.41977925217E+03  0.41977925220E+03  0.50400001928E-02 0.  1.
       -1   -1    0    0    0  501  0.00000000000E+00  0.00000000000E+00 -0.20305945239E+03  0.20305945245E+03  0.50400001928E-02 0. -1.
    10030    2    1    2    0    0  0.00000000000E+00  0.00000000000E+00  0.21671979979E+03  0.62283870466E+03  0.58391829942E+03 0.  0.
        1    1    3    3  502    0  0.11672717437E+03  0.19159860139E+03 -0.90921437925E+02  0.24207842777E+03  0.50400001928E-02 0. -1.
       -1    1    3    3    0  502 -0.11672717437E+03 -0.19159860139E+03  0.30764123771E+03  0.38076027689E+03  0.50400001928E-02 0.  1.
</event>
<event>
 5   0  0.1146468E-01  0.6010194E+03  0.7818609E-02  0.9903293E-01
       -2   -1    0    0    0  501  0.00000000000E+00  0.00000000000E+00  0.14718814303E+03  0.14718814305E+03  0.25500000920E-02 0. -1.
        2   -1    0    0  501    0  0.00000000000E+00  0.00000000000E+00 -0.61354180238E+03  0.61354180238E+03  0.25500000920E-02 0.  1.
    10030    2    1    2    0    0  0.00000000000E+00  0.00000000000E+00 -0.46635365935E+03  0.76072994543E+03  0.60101939593E+03 0.  0.
        4    1    3    3  502    0  0.24999992576E+03  0.84472561307E+02 -0.51206495397E+02  0.26881088996E+03  0.12699999809E+01 0. -1.
       -4    1    3    3    0  502 -0.24999992576E+03 -0.84472561307E+02 -0.41514716395E+03  0.49191905547E+03  0.12699999809E+01 0.  1.
</event>
<event>
 5   0  0.1166419E-01  0.5618486E+03  0.7818609E-02  0.9987880E-01
        2   -1    0    0  501    0  0.00000000000E+00  0.00000000000E+00  0.97567451145E+03  0.97567451146E+03  0.25500000920E-02 0. -1.
       -2   -1    0    0    0  501  0.00000000000E+00  0.00000000000E+00 -0.80886069160E+02  0.80886069200E+02  0.25500000920E-02 0.  1.
    10030    2    1    2    0    0  0.00000000000E+00  0.00000000000E+00  0.89478844229E+03  0.10565605807E+04  0.56184864878E+03 0.  0.
        1    1    3    3  502    0 -0.25800955546E+03 -0.13008503742E+02  0.23985294371E+03  0.35251607979E+03  0.50400001928E-02 0.  1.
       -1    1    3    3    0  502  0.25800955546E+03  0.13008503742E+02  0.65493549858E+03  0.70404450087E+03  0.50400001928E-02 0. -1.
</event>
<event>
 5   0  0.1146468E-01  0.6021699E+03  0.7818609E-02  0.9900914E-01
       -2   -1    0    0    0  501  0.00000000000E+00  0.00000000000E+00  0.17949207159E+03  0.17949207161E+03  0.25500000920E-02 0. -1.
        2   -1    0    0  501    0  0.00000000000E+00  0.00000000000E+00 -0.50504823994E+03  0.50504823994E+03  0.25500000920E-02 0.  1.
    10030    2    1    2    0    0  0.00000000000E+00  0.00000000000E+00 -0.32555616834E+03  0.68454031155E+03  0.60216992568E+03 0.  0.
        4    1    3    3  502    0  0.26025516443E+03 -0.11427223612E+03 -0.49899732665E+02  0.28858705927E+03  0.12699999809E+01 0. -1.
       -4    1    3    3    0  502 -0.26025516443E+03  0.11427223612E+03 -0.27565643568E+03  0.39595325228E+03  0.12699999809E+01 0.  1.
</event>
<event>
 5   0  0.1146468E-01  0.6009353E+03  0.7818609E-02  0.9903467E-01
       -2   -1    0    0    0  501  0.00000000000E+00  0.00000000000E+00  0.43439449067E+02  0.43439449142E+02  0.25500000920E-02 0. -1.
        2   -1    0    0  501    0  0.00000000000E+00  0.00000000000E+00 -0.20783141226E+04  0.20783141226E+04  0.25500000920E-02 0.  1.
    10030    2    1    2    0    0  0.00000000000E+00  0.00000000000E+00 -0.20348746736E+04  0.21217535718E+04  0.60093533948E+03 0.  0.
        4    1    3    3  502    0  0.28308740133E+03  0.48426277853E+02 -0.70569720942E+03  0.76190140140E+03  0.12699999809E+01 0.  1.
       -4    1    3    3    0  502 -0.28308740133E+03 -0.48426277853E+02 -0.13291774642E+04  0.13598521704E+04  0.12699999809E+01 0. -1.
</event>
<event>
 5   0  0.7263385E-02  0.5859949E+03  0.7818609E-02  0.9934896E-01
       -1   -1    0    0    0  501  0.00000000000E+00  0.00000000000E+00  0.85582598463E+02  0.85582598611E+02  0.50400001928E-02 0. -1.
        1   -1    0    0  501    0  0.00000000000E+00  0.00000000000E+00 -0.10030954878E+04  0.10030954878E+04  0.50400001928E-02 0.  1.
    10030    2    1    2    0    0  0.00000000000E+00  0.00000000000E+00 -0.91751288929E+03  0.10886780864E+04  0.58599494345E+03 0.  0.
        1    1    3    3  502    0  0.23380233505E+03 -0.16561514367E+03 -0.34490307258E+03  0.44838603590E+03  0.50400001928E-02 0. -1.
       -1    1    3    3    0  502 -0.23380233505E+03  0.16561514367E+03 -0.57260981671E+03  0.64029205048E+03  0.50400001928E-02 0.  1.
</event>
<event>
 5   0  0.7424930E-02  0.5992367E+03  0.7818609E-02  0.9906991E-01
       -1   -1    0    0    0  501  0.00000000000E+00  0.00000000000E+00  0.15913676984E+03  0.15913676992E+03  0.50400001928E-02 0.  1.
        1   -1    0    0  501    0  0.00000000000E+00  0.00000000000E+00 -0.56411321153E+03  0.56411321155E+03  0.50400001928E-02 0. -1.
    10030    2    1    2    0    0  0.00000000000E+00  0.00000000000E+00 -0.40497644169E+03  0.72324998147E+03  0.59923669562E+03 0.  0.
        3    1    3    3  502    0  0.59199132177E+02  0.11416119314E+03  0.12413413062E+03  0.17873614032E+03  0.10100000352E+00 0.  1.
       -3    1    3    3    0  502 -0.59199132177E+02 -0.11416119314E+03 -0.52911057231E+03  0.54451384115E+03  0.10100000352E+00 0. -1.
</event>
<event>
 5   0  0.1219020E-01  0.6009391E+03  0.7818609E-02  0.9903460E-01
        2   -1    0    0  501    0  0.00000000000E+00  0.00000000000E+00  0.11335682609E+04  0.11335682609E+04  0.25500000920E-02 0.  1.
       -2   -1    0    0    0  501  0.00000000000E+00  0.00000000000E+00 -0.79644042224E+02  0.79644042265E+02  0.25500000920E-02 0. -1.
    10030    2    1    2    0    0  0.00000000000E+00  0.00000000000E+00  0.10539242187E+04  0.12132123032E+04  0.60093912657E+03 0.  0.
        2    1    3    3  502    0  0.16601310005E+02  0.25693198631E+03  0.21425169078E+03  0.33495288638E+03  0.25500000920E-02 0. -1.
       -2    1    3    3    0  502 -0.16601310005E+02 -0.25693198631E+03  0.83967252788E+03  0.87825941678E+03  0.25500000920E-02 0.  1.
</event>
<event>
 5   0  0.4695625E-02  0.5997710E+03  0.7818609E-02  0.9905881E-01
        3   -1    0    0  501    0  0.00000000000E+00  0.00000000000E+00  0.83610622626E+02  0.83610683629E+02  0.10100000352E+00 0. -1.
       -3   -1    0    0    0  501  0.00000000000E+00  0.00000000000E+00 -0.10755961252E+04  0.10755961300E+04  0.10100000352E+00 0.  1.
    10030    2    1    2    0    0  0.00000000000E+00  0.00000000000E+00 -0.99198550262E+03  0.11592068136E+04  0.59977095572E+03 0.  0.
        3    1    3    3  502    0 -0.14553829092E+03 -0.97581038403E+02 -0.96636146639E+03  0.98211911045E+03  0.10100000352E+00 0.  1.
       -3    1    3    3    0  502  0.14553829092E+03  0.97581038403E+02 -0.25624036231E+02  0.17708770317E+03  0.10100000352E+00 0. -1.
</event>
<event>
 5   0  0.7123340E-02  0.5669090E+03  0.7818609E-02  0.9976542E-01
       -1   -1    0    0    0  501  0.00000000000E+00  0.00000000000E+00  0.15306635403E+03  0.15306635412E+03  0.50400001928E-02 0. -1.
        1   -1    0    0  501    0  0.00000000000E+00  0.00000000000E+00 -0.52491261535E+03  0.52491261537E+03  0.50400001928E-02 0.  1.
    10030    2    1    2    0    0  0.00000000000E+00  0.00000000000E+00 -0.37184626131E+03  0.67797896949E+03  0.56690902358E+03 0.  0.
        2    1    3    3  502    0 -0.22320895944E+03 -0.14897227637E+03 -0.76763019033E+02  0.27911922148E+03  0.25500000920E-02 0. -1.
       -2    1    3    3    0  502  0.22320895944E+03  0.14897227637E+03 -0.29508324228E+03  0.39885974801E+03  0.25500000920E-02 0.  1.
</event>
<event>
 5   0  0.7123340E-02  0.5855478E+03  0.7818609E-02  0.9935852E-01
        1   -1    0    0  501    0  0.00000000000E+00  0.00000000000E+00  0.30505911751E+03  0.30505911755E+03  0.50400001928E-02 0.  1.
       -1   -1    0    0    0  501  0.00000000000E+00  0.00000000000E+00 -0.28098342659E+03  0.28098342664E+03  0.50400001928E-02 0. -1.
    10030    2    1    2    0    0  0.00000000000E+00  0.00000000000E+00  0.24075690922E+02  0.58604254419E+03  0.58554779882E+03 0.  0.
        2    1    3    3  502    0  0.16692295301E+03  0.19583897627E+03 -0.12772390192E+03  0.28727960596E+03  0.25500000920E-02 0.  1.
       -2    1    3    3    0  502 -0.16692295301E+03 -0.19583897627E+03  0.15179959284E+03  0.29876293824E+03  0.25500000920E-02 0. -1.
</event>
<event>
 5   0  0.7266519E-02  0.5941349E+03  0.7818609E-02  0.9917649E-01
        1   -1    0    0  501    0  0.00000000000E+00  0.00000000000E+00  0.24298806428E+03  0.24298806434E+03  0.50400001928E-02 0.  1.
       -1   -1    0    0    0  501  0.00000000000E+00  0.00000000000E+00 -0.36318278261E+03  0.36318278264E+03  0.50400001928E-02 0. -1.
    10030    2    1    2    0    0  0.00000000000E+00  0.00000000000E+00 -0.12019471832E+03  0.60617084698E+03  0.59413493872E+03 0.  0.
        4    1    3    3  502    0 -0.62429888299E+01 -0.16748188427E+03  0.19014324174E+03  0.25346641148E+03  0.12699999809E+01 0.  1.
       -4    1    3    3    0  502  0.62429888299E+01  0.16748188427E+03 -0.31033796006E+03  0.35270443550E+03  0.12699999809E+01 0. -1.
</event>
<event>
 5   0  0.1219020E-01  0.5966960E+03  0.7818609E-02  0.9912285E-01
       -2   -1    0    0    0  501  0.00000000000E+00  0.00000000000E+00  0.10143861015E+03  0.10143861018E+03  0.25500000920E-02 0. -1.
        2   -1    0    0  501    0  0.00000000000E+00  0.00000000000E+00 -0.87749152696E+03  0.87749152697E+03  0.25500000920E-02 0.  1.
    10030    2    1    2    0    0  0.00000000000E+00  0.00000000000E+00 -0.77605291682E+03  0.97893013715E+03  0.59669597261E+03 0.  0.
        2    1    3    3  502    0 -0.59662922224E+02  0.12242792838E+03 -0.82351823151E+03  0.83470386340E+03  0.25500000920E-02 0.  1.
       -2    1    3    3    0  502  0.59662922224E+02 -0.12242792838E+03  0.47465314696E+02  0.14422627375E+03  0.25500000920E-02 0. -1.
</event>
<event>
 5   0  0.7263385E-02  0.6016673E+03  0.7818609E-02  0.9901953E-01
       -1   -1    0    0    0  501  0.00000000000E+00  0.00000000000E+00  0.10043037176E+03  0.10043037188E+03  0.50400001928E-02 0. -1.
        1   -1    0    0  501    0  0.00000000000E+00  0.00000000000E+00 -0.90113056489E+03  0.90113056490E+03  0.50400001928E-02 0.  1.
    10030    2    1    2    0    0  0.00000000000E+00  0.00000000000E+00 -0.80070019313E+03  0.10015609368E+04  0.60166727584E+03 0.  0.
        1    1    3    3  502    0 -0.25325659272E+03  0.33433722767E+02 -0.13586484069E+03  0.28933712263E+03  0.50400001928E-02 0. -1.
       -1    1    3    3    0  502  0.25325659272E+03 -0.33433722767E+02 -0.66483535244E+03  0.71222381416E+03  0.50400001928E-02 0.  1.
</event>
<event>
 5   0  0.1219020E-01  0.5914452E+03  0.7818609E-02  0.9923315E-01
        2   -1    0    0  501    0  0.00000000000E+00  0.00000000000E+00  0.45497845476E+03  0.45497845476E+03  0.25500000920E-02 0.  1.
       -2   -1    0    0    0  501  0.00000000000E+00  0.00000000000E+00 -0.19221097633E+03  0.19221097634E+03  0.25500000920E-02 0. -1.
    10030    2    1    2    0    0  0.00000000000E+00  0.00000000000E+00  0.26276747843E+03  0.64718943111E+03  0.59144518936E+03 0.  0.
        2    1    3    3  502    0  0.15690235160E+03 -0.24849516751E+03  0.95362156637E+02  0.30896947607E+03  0.25500000920E-02 0. -1.
       -2    1    3    3    0  502 -0.15690235160E+03  0.24849516751E+03  0.16740532179E+03  0.33821995504E+03  0.25500000920E-02 0.  1.
</event>
<event>
 5   0  0.1219020E-01  0.5878402E+03  0.7818609E-02  0.9930960E-01
       -2   -1    0    0    0  501  0.00000000000E+00  0.00000000000E+00  0.33662344247E+03  0.33662344248E+03  0.25500000920E-02 0. -1.
        2   -1    0    0  501    0  0.00000000000E+00  0.00000000000E+00 -0.25663403468E+03  0.25663403469E+03  0.25500000920E-02 0.  1.
    10030    2    1    2    0    0  0.00000000000E+00  0.00000000000E+00  0.79989407787E+02  0.59325747717E+03  0.58784022392E+03 0.  0.
        2    1    3    3  502    0 -0.19696669734E+03 -0.21025536716E+03  0.98718846244E+02  0.30454656440E+03  0.25500000920E-02 0. -1.
       -2    1    3    3    0  502  0.19696669734E+03  0.21025536716E+03 -0.18729438457E+02  0.28871091277E+03  0.25500000920E-02 0.  1.
</event>
<event>
 5   0  0.1219020E-01  0.5684660E+03  0.7818609E-02  0.9973079E-01
        2   -1    0    0  501    0  0.00000000000E+00  0.00000000000E+00  0.16533746092E+03  0.16533746094E+03  0.25500000920E-02 0. -1.
       -2   -1    0    0    0  501  0.00000000000E+00  0.00000000000E+00 -0.48862732294E+03  0.48862732295E+03  0.25500000920E-02 0.  1.
    10030    2    1    2    0    0  0.00000000000E+00  0.00000000000E+00 -0.32328986202E+03  0.65396478389E+03  0.56846600925E+03 0.  0.
        2    1    3    3  502    0 -0.45786645997E+02  0.21965459751E+03  0.39079200903E+02  0.22775368956E+03  0.25500000920E-02 0. -1.
       -2    1    3    3    0  502  0.45786645997E+02 -0.21965459751E+03 -0.36236906292E+03  0.42621109433E+03  0.25500000920E-02 0.  1.
</event>
<event>
 5   0  0.1166419E-01  0.5985747E+03  0.7818609E-02  0.9908368E-01
        2   -1    0    0  501    0  0.00000000000E+00  0.00000000000E+00  0.75974252208E+03  0.75974252208E+03  0.25500000920E-02 0. -1.
       -2   -1    0    0    0  501  0.00000000000E+00  0.00000000000E+00 -0.11789903954E+03  0.11789903957E+03  0.25500000920E-02 0.  1.
    10030    2    1    2    0    0  0.00000000000E+00  0.00000000000E+00  0.64184348254E+03  0.87764156165E+03  0.59857468595E+03 0.  0.
        1    1    3    3  502    0  0.21521476435E+03  0.20617421989E+03  0.36101445013E+03  0.46814168471E+03  0.50400001928E-02 0. -1.
       -1    1    3    3    0  502 -0.21521476435E+03 -0.20617421989E+03  0.28082903241E+03  0.40949987694E+03  0.50400001928E-02 0.  1.
</event>
<event>
 5   0  0.7123340E-02  0.6031474E+03  0.7818609E-02  0.9898898E-01
        1   -1    0    0  501    0  0.00000000000E+00  0.00000000000E+00  0.88233869087E+03  0.88233869088E+03  0.50400001928E-02 0. -1.
       -1   -1    0    0    0  501  0.00000000000E+00  0.00000000000E+00 -0.10307459340E+03  0.10307459353E+03  0.50400001928E-02 0.  1.
    10030    2    1    2    0    0  0.00000000000E+00  0.00000000000E+00  0.77926409746E+03  0.98541328441E+03  0.60314741771E+03 0.  0.
        2    1    3    3  502    0  0.45102483439E+02 -0.27317014561E+02 -0.95484534733E+02  0.10907680632E+03  0.25500000920E-02 0.  1.
       -2    1    3    3    0  502 -0.45102483439E+02  0.27317014561E+02  0.87474863219E+03  0.87633647809E+03  0.25500000920E-02 0. -1.
</event>
<event>
 5   0  0.1146468E-01  0.5993563E+03  0.7818609E-02  0.9906742E-01
        2   -1    0    0  501    0  0.00000000000E+00  0.00000000000E+00  0.34560348371E+03  0.34560348371E+03  0.25500000920E-02 0.  1.
       -2   -1    0    0    0  501  0.00000000000E+00  0.00000000000E+00 -0.25985559212E+03  0.25985559213E+03  0.25500000920E-02 0. -1.
    10030    2    1    2    0    0  0.00000000000E+00  0.00000000000E+00  0.85747891585E+02  0.60545907585E+03  0.59935631440E+03 0.  0.
        4    1    3    3  502    0  0.12910278293E+03  0.10956884630E+03  0.29264141501E+03  0.33810275261E+03  0.12699999809E+01 0.  1.
       -4    1    3    3    0  502 -0.12910278293E+03 -0.10956884630E+03 -0.20689352343E+03  0.26735632324E+03  0.12699999809E+01 0. -1.
</event>
<event>
 5   0  0.1206238E-01  0.6046155E+03  0.7818609E-02  0.9895876E-01
        2   -1    0    0  501    0  0.00000000000E+00  0.00000000000E+00  0.49055087216E+03  0.49055087217E+03  0.25500000920E-02 0. -1.
       -2   -1    0    0    0  501  0.00000000000E+00  0.00000000000E+00 -0.18630068202E+03  0.18630068204E+03  0.25500000920E-02 0.  1.
    10030    2    1    2    0    0  0.00000000000E+00  0.00000000000E+00  0.30425019014E+03  0.67685155421E+03  0.60461545485E+03 0.  0.
        5    1    3    3  502    0  0.35384985674E+02 -0.75105822345E+02 -0.17324527746E+03  0.19216919087E+03  0.46999998093E+01 0.  1.
       -5    1    3    3    0  502 -0.35384985674E+02  0.75105822345E+02  0.47749546760E+03  0.48468236334E+03  0.46999998093E+01 0. -1.
</event>
<event>
 5   0  0.7424930E-02  0.6010673E+03  0.7818609E-02  0.9903194E-01
        1   -1    0    0  501    0  0.00000000000E+00  0.00000000000E+00  0.20139551243E+03  0.20139551249E+03  0.50400001928E-02 0. -1.
       -1   -1    0    0    0  501  0.00000000000E+00  0.00000000000E+00 -0.44847316931E+03  0.44847316933E+03  0.50400001928E-02 0.  1.
    10030    2    1    2    0    0  0.00000000000E+00  0.00000000000E+00 -0.24707765688E+03  0.64986868183E+03  0.60106732992E+03 0.  0.
        3    1    3    3  502    0  0.15160439892E+03  0.24895885553E+03 -0.20266597926E+03  0.35501818949E+03  0.10100000352E+00 0.  1.
       -3    1    3    3    0  502 -0.15160439892E+03 -0.24895885553E+03 -0.44411677617E+02  0.29485049233E+03  0.10100000352E+00 0. -1.
</event>
<event>
 5   0  0.1206238E-01  0.6088748E+03  0.7818609E-02  0.9887163E-01
        2   -1    0    0  501    0  0.00000000000E+00  0.00000000000E+00  0.18172298530E+03  0.18172298532E+03  0.25500000920E-02 0.  1.
       -2   -1    0    0    0  501  0.00000000000E+00  0.00000000000E+00 -0.51001882610E+03  0.51001882611E+03  0.25500000920E-02 0. -1.
    10030    2    1    2    0    0  0.00000000000E+00  0.00000000000E+00 -0.32829584080E+03  0.69174181143E+03  0.60887484312E+03 0.  0.
        5    1    3    3  502    0  0.94488992262E+02 -0.27756813384E+03 -0.25705699274E+03  0.38996490367E+03  0.46999998093E+01 0. -1.
       -5    1    3    3    0  502 -0.94488992262E+02  0.27756813384E+03 -0.71238848062E+02  0.30177690775E+03  0.46999998093E+01 0.  1.
</event>
<event>
 5   0  0.7221069E-02  0.6104217E+03  0.7818609E-02  0.9884017E-01
        1   -1    0    0  501    0  0.00000000000E+00  0.00000000000E+00  0.96931075164E+03  0.96931075166E+03  0.50400001928E-02 0. -1.
       -1   -1    0    0    0  501  0.00000000000E+00  0.00000000000E+00 -0.96102994549E+02  0.96102994681E+02  0.50400001928E-02 0.  1.
    10030    2    1    2    0    0  0.00000000000E+00  0.00000000000E+00  0.87320775710E+03  0.10654137463E+04  0.61042170983E+03 0.  0.
        5    1    3    3  502    0  0.14596192880E+03 -0.23435351483E+03  0.20967097407E+03  0.34671380408E+03  0.46999998093E+01 0.  1.
       -5    1    3    3    0  502 -0.14596192880E+03  0.23435351483E+03  0.66353678302E+03  0.71869994226E+03  0.46999998093E+01 0. -1.
</event>
<event>
 5   0  0.1206238E-01  0.6161643E+03  0.7818609E-02  0.9872426E-01
       -2   -1    0    0    0  501  0.00000000000E+00  0.00000000000E+00  0.81735409775E+02  0.81735409815E+02  0.25500000920E-02 0. -1.
        2   -1    0    0  501    0  0.00000000000E+00  0.00000000000E+00 -0.11612422890E+04  0.11612422890E+04  0.25500000920E-02 0.  1.
    10030    2    1    2    0    0  0.00000000000E+00  0.00000000000E+00 -0.10795068792E+04  0.12429776988E+04  0.61616431044E+03 0.  0.
        5    1    3    3  502    0 -0.30581547540E+03 -0.35316358624E+02 -0.51745592160E+03  0.60212380037E+03  0.46999998093E+01 0.  1.
       -5    1    3    3    0  502  0.30581547540E+03  0.35316358624E+02 -0.56205095762E+03  0.64085389843E+03  0.46999998093E+01 0. -1.
</event>
<event>
 5   0  0.1219020E-01  0.6265030E+03  0.7818609E-02  0.9851897E-01
        2   -1    0    0  501    0  0.00000000000E+00  0.00000000000E+00  0.16575956196E+04  0.16575956196E+04  0.25500000920E-02 0.  1.
       -2   -1    0    0    0  501  0.00000000000E+00  0.00000000000E+00 -0.59198090262E+02  0.59198090317E+02  0.25500000920E-02 0. -1.
    10030    2    1    2    0    0  0.00000000000E+00  0.00000000000E+00  0.15983975294E+04  0.17167937099E+04  0.62650297735E+03 0.  0.
        2    1    3    3  502    0  0.23252984624E+03 -0.17044391749E+03  0.11348717571E+04  0.11709206478E+04  0.25500000920E-02 0.  1.
       -2    1    3    3    0  502 -0.23252984624E+03  0.17044391749E+03  0.46352577224E+03  0.54587306211E+03  0.25500000920E-02 0. -1.
</event>
<event>
 5   0  0.7263385E-02  0.5964869E+03  0.7818609E-02  0.9912722E-01
       -1   -1    0    0    0  501  0.00000000000E+00  0.00000000000E+00  0.12193198976E+03  0.12193198987E+03  0.50400001928E-02 0.  1.
        1   -1    0    0  501    0  0.00000000000E+00  0.00000000000E+00 -0.72949811971E+03  0.72949811973E+03  0.50400001928E-02 0. -1.
    10030    2    1    2    0    0  0.00000000000E+00  0.00000000000E+00 -0.60756612995E+03  0.85143010959E+03  0.59648690619E+03 0.  0.
        1    1    3    3  502    0 -0.23582826477E+03  0.15610889856E+03 -0.16863686934E+03  0.32927701468E+03  0.50400001928E-02 0.  1.
       -1    1    3    3    0  502  0.23582826477E+03 -0.15610889856E+03 -0.43892926061E+03  0.52215309491E+03  0.50400001928E-02 0. -1.
</event>
<event>
 5   0  0.7263385E-02  0.6167650E+03  0.7818609E-02  0.9871222E-01
        1   -1    0    0  501    0  0.00000000000E+00  0.00000000000E+00  0.40247027314E+03  0.40247027317E+03  0.50400001928E-02 0. -1.
       -1   -1    0    0    0  501  0.00000000000E+00  0.00000000000E+00 -0.23629019981E+03  0.23629019987E+03  0.50400001928E-02 0.  1.
    10030    2    1    2    0    0  0.00000000000E+00  0.00000000000E+00  0.16618007333E+03  0.63876047304E+03  0.61676504858E+03 0.  0.
        1    1    3    3  502    0 -0.22011263795E+03  0.21503746549E+03  0.62142591598E+02  0.31393054434E+03  0.50400001928E-02 0. -1.
       -1    1    3    3    0  502  0.22011263795E+03 -0.21503746549E+03  0.10403748173E+03  0.32482992870E+03  0.50400001928E-02 0.  1.
</event>
<event>
 5   0  0.1146468E-01  0.5956665E+03  0.7818609E-02  0.9914438E-01
       -2   -1    0    0    0  501  0.00000000000E+00  0.00000000000E+00  0.12706972478E+03  0.12706972480E+03  0.25500000920E-02 0. -1.
        2   -1    0    0  501    0  0.00000000000E+00  0.00000000000E+00 -0.69807844771E+03  0.69807844772E+03  0.25500000920E-02 0.  1.
    10030    2    1    2    0    0  0.00000000000E+00  0.00000000000E+00 -0.57100872294E+03  0.82514817252E+03  0.59566647123E+03 0.  0.
        4    1    3    3  502    0  0.13998430738E+03  0.32017415757E+02  0.75943702669E+02  0.16244931548E+03  0.12699999809E+01 0. -1.
       -4    1    3    3    0  502 -0.13998430738E+03 -0.32017415757E+02 -0.64695242561E+03  0.66269885704E+03  0.12699999809E+01 0.  1.
</event>
<event>
 5   0  0.1146468E-01  0.5663347E+03  0.7818609E-02  0.9977822E-01
        2   -1    0    0  501    0  0.00000000000E+00  0.00000000000E+00  0.28228291679E+03  0.28228291680E+03  0.25500000920E-02 0.  1.
       -2   -1    0    0    0  501  0.00000000000E+00  0.00000000000E+00 -0.28405451886E+03  0.28405451888E+03  0.25500000920E-02 0. -1.
    10030    2    1    2    0    0  0.00000000000E+00  0.00000000000E+00 -0.17716020776E+01  0.56633743567E+03  0.56633466473E+03 0.  0.
        4    1    3    3  502    0  0.17991121032E+03  0.10394006504E+02 -0.21930400788E+03  0.28385196801E+03  0.12699999809E+01 0. -1.
       -4    1    3    3    0  502 -0.17991121032E+03 -0.10394006504E+02  0.21753240580E+03  0.28248546767E+03  0.12699999809E+01 0.  1.
</event>
<event>
 5   0  0.1166419E-01  0.5988066E+03  0.7818609E-02  0.9907885E-01
        2   -1    0    0  501    0  0.00000000000E+00  0.00000000000E+00  0.16754698070E+03  0.16754698072E+03  0.25500000920E-02 0. -1.
       -2   -1    0    0    0  501  0.00000000000E+00  0.00000000000E+00 -0.53502799018E+03  0.53502799019E+03  0.25500000920E-02 0.  1.
    10030    2    1    2    0    0  0.00000000000E+00  0.00000000000E+00 -0.36748100948E+03  0.70257497091E+03  0.59880656094E+03 0.  0.
        1    1    3    3  502    0 -0.56329158466E+02 -0.48239850883E+02  0.15659967855E+03  0.17327295419E+03  0.50400001928E-02 0. -1.
       -1    1    3    3    0  502  0.56329158466E+02  0.48239850883E+02 -0.52408068803E+03  0.52930201672E+03  0.50400001928E-02 0.  1.
</event>
<event>
 5   0  0.4695625E-02  0.5968231E+03  0.7818609E-02  0.9912019E-01
       -4   -1    0    0    0  501  0.00000000000E+00  0.00000000000E+00  0.77826554657E+03  0.77826658278E+03  0.12699999809E+01 0.  1.
        4   -1    0    0  501    0  0.00000000000E+00  0.00000000000E+00 -0.11441575440E+03  0.11442280260E+03  0.12699999809E+01 0. -1.
    10030    2    1    2    0    0  0.00000000000E+00  0.00000000000E+00  0.66384979217E+03  0.89268938538E+03  0.59682308283E+03 0.  0.
        2    1    3    3  502    0  0.19043569639E+03 -0.16338828505E+03  0.90337187369E+02  0.26668763297E+03  0.25500000920E-02 0. -1.
       -2    1    3    3    0  502 -0.19043569639E+03  0.16338828505E+03  0.57351260480E+03  0.62600175241E+03  0.25500000920E-02 0.  1.
</event>
<event>
 5   0  0.7424930E-02  0.5994836E+03  0.7818609E-02  0.9906478E-01
        1   -1    0    0  501    0  0.00000000000E+00  0.00000000000E+00  0.21471931151E+03  0.21471931157E+03  0.50400001928E-02 0.  1.
       -1   -1    0    0    0  501  0.00000000000E+00  0.00000000000E+00 -0.41843070132E+03  0.41843070135E+03  0.50400001928E-02 0. -1.
    10030    2    1    2    0    0  0.00000000000E+00  0.00000000000E+00 -0.20371138981E+03  0.63315001292E+03  0.59948361823E+03 0.  0.
        3    1    3    3  502    0  0.14591583882E+03 -0.19208428728E+03 -0.28977287487E+03  0.37703598588E+03  0.10100000352E+00 0. -1.
       -3    1    3    3    0  502 -0.14591583882E+03  0.19208428728E+03  0.86061485058E+02  0.25611402704E+03  0.10100000352E+00 0.  1.
</event>
<event>
 5   0  0.7263385E-02  0.6259604E+03  0.7818609E-02  0.9852964E-01
       -1   -1    0    0    0  501  0.00000000000E+00  0.00000000000E+00  0.13691481990E+03  0.13691481999E+03  0.50400001928E-02 0.  1.
        1   -1    0    0  501    0  0.00000000000E+00  0.00000000000E+00 -0.71545658733E+03  0.71545658735E+03  0.50400001928E-02 0. -1.
    10030    2    1    2    0    0  0.00000000000E+00  0.00000000000E+00 -0.57854176743E+03  0.85237140734E+03  0.62596041360E+03 0.  0.
        1    1    3    3  502    0 -0.15042970465E+02  0.10461320119E+03 -0.69042184150E+03  0.69846441002E+03  0.50400001928E-02 0. -1.
       -1    1    3    3    0  502  0.15042970465E+02 -0.10461320119E+03  0.11188007407E+03  0.15390699732E+03  0.50400001928E-02 0.  1.
</event>
<event>
 5   0  0.1219020E-01  0.6325441E+03  0.7818609E-02  0.9840097E-01
        2   -1    0    0  501    0  0.00000000000E+00  0.00000000000E+00  0.41740073607E+03  0.41740073607E+03  0.25500000920E-02 0. -1.
       -2   -1    0    0    0  501  0.00000000000E+00  0.00000000000E+00 -0.23964505338E+03  0.23964505340E+03  0.25500000920E-02 0.  1.
    10030    2    1    2    0    0  0.00000000000E+00  0.00000000000E+00  0.17775568268E+03  0.65704578947E+03  0.63254413817E+03 0.  0.
        2    1    3    3  502    0  0.23896054893E+03 -0.26134689658E+02 -0.12461407527E+03  0.27076527420E+03  0.25500000920E-02 0.  1.
       -2    1    3    3    0  502 -0.23896054893E+03  0.26134689658E+02  0.30236975795E+03  0.38628051527E+03  0.25500000920E-02 0. -1.
</event>
<event>
 5   0  0.7221069E-02  0.5960598E+03  0.7818609E-02  0.9913615E-01
       -1   -1    0    0    0  501  0.00000000000E+00  0.00000000000E+00  0.70143344085E+02  0.70143344266E+02  0.50400001928E-02 0. -1.
        1   -1    0    0  501    0  0.00000000000E+00  0.00000000000E+00 -0.12662902007E+04  0.12662902007E+04  0.50400001928E-02 0.  1.
    10030    2    1    2    0    0  0.00000000000E+00  0.00000000000E+00 -0.11961468566E+04  0.13364335450E+04  0.59605982715E+03 0.  0.
        5    1    3    3  502    0  0.16883195104E+03  0.86808314392E+02 -0.83071088613E+02  0.20727471361E+03  0.46999998093E+01 0. -1.
       -5    1    3    3    0  502 -0.16883195104E+03 -0.86808314392E+02 -0.11130757680E+04  0.11291588314E+04  0.46999998093E+01 0.  1.
</event>
<event>
 5   0  0.7263385E-02  0.5991331E+03  0.7818609E-02  0.9907206E-01
        1   -1    0    0  501    0  0.00000000000E+00  0.00000000000E+00  0.41893479620E+03  0.41893479623E+03  0.50400001928E-02 0.  1.
       -1   -1    0    0    0  501  0.00000000000E+00  0.00000000000E+00 -0.21421025720E+03  0.21421025726E+03  0.50400001928E-02 0. -1.
    10030    2    1    2    0    0  0.00000000000E+00  0.00000000000E+00  0.20472453899E+03  0.63314505349E+03  0.59913314204E+03 0.  0.
        1    1    3    3  502    0 -0.15348817342E+03 -0.21458631261E+03 -0.47588030351E+02  0.26808678743E+03  0.50400001928E-02 0. -1.
       -1    1    3    3    0  502  0.15348817342E+03  0.21458631261E+03  0.25231256934E+03  0.36505826605E+03  0.50400001928E-02 0.  1.
</event>
<event>
 5   0  0.7123340E-02  0.6043959E+03  0.7818609E-02  0.9896328E-01
        1   -1    0    0  501    0  0.00000000000E+00  0.00000000000E+00  0.18592910564E+03  0.18592910571E+03  0.50400001928E-02 0.  1.
       -1   -1    0    0    0  501  0.00000000000E+00  0.00000000000E+00 -0.49117433728E+03  0.49117433730E+03  0.50400001928E-02 0. -1.
    10030    2    1    2    0    0  0.00000000000E+00  0.00000000000E+00 -0.30524523163E+03  0.67710344302E+03  0.60439591421E+03 0.  0.
        2    1    3    3  502    0 -0.81555114029E+02 -0.20396053175E+03 -0.38512820196E+03  0.44336764326E+03  0.25500000920E-02 0. -1.
       -2    1    3    3    0  502  0.81555114029E+02  0.20396053175E+03  0.79882970328E+02  0.23373579976E+03  0.25500000920E-02 0.  1.
</event>
<event>
 5   0  0.1219020E-01  0.6640136E+03  0.7818609E-02  0.9780833E-01
       -2   -1    0    0    0  501  0.00000000000E+00  0.00000000000E+00  0.18417558529E+03  0.18417558531E+03  0.25500000920E-02 0.  1.
        2   -1    0    0  501    0  0.00000000000E+00  0.00000000000E+00 -0.59849683372E+03  0.59849683372E+03  0.25500000920E-02 0. -1.
    10030    2    1    2    0    0  0.00000000000E+00  0.00000000000E+00 -0.41432124842E+03  0.78267241903E+03  0.66401356810E+03 0.  0.
        2    1    3    3  502    0  0.10084857224E+03  0.15972864473E+03 -0.52897974279E+03  0.56169675338E+03  0.25500000920E-02 0. -1.
       -2    1    3    3    0  502 -0.10084857224E+03 -0.15972864473E+03  0.11465849437E+03  0.22097566565E+03  0.25500000920E-02 0.  1.
</event>
<event>
 5   0  0.1175861E-01  0.6615967E+03  0.7818609E-02  0.9785259E-01
       -2   -1    0    0    0  501  0.00000000000E+00  0.00000000000E+00  0.30395637966E+03  0.30395637967E+03  0.25500000920E-02 0. -1.
        2   -1    0    0  501    0  0.00000000000E+00  0.00000000000E+00 -0.36001073387E+03  0.36001073387E+03  0.25500000920E-02 0.  1.
    10030    2    1    2    0    0  0.00000000000E+00  0.00000000000E+00 -0.56054354206E+02  0.66396711354E+03  0.66159673309E+03 0.  0.
        3    1    3    3  502    0  0.12265046469E+03  0.14384063356E+03  0.24441235217E+03  0.30898328829E+03  0.10100000352E+00 0. -1.
       -3    1    3    3    0  502 -0.12265046469E+03 -0.14384063356E+03 -0.30046670637E+03  0.35498382525E+03  0.10100000352E+00 0.  1.
</event>
<event>
 5   0  0.7221069E-02  0.6985468E+03  0.7818609E-02  0.9719721E-01
       -1   -1    0    0    0  501  0.00000000000E+00  0.00000000000E+00  0.13614670478E+03  0.13614670487E+03  0.50400001928E-02 0. -1.
        1   -1    0    0  501    0  0.00000000000E+00  0.00000000000E+00 -0.89603278495E+03  0.89603278496E+03  0.50400001928E-02 0.  1.
    10030    2    1    2    0    0  0.00000000000E+00  0.00000000000E+00 -0.75988608017E+03  0.10321794898E+04  0.69854680902E+03 0.  0.
        5    1    3    3  502    0  0.11315069717E+03 -0.32689625118E+03 -0.30899343558E+03  0.46385695267E+03  0.46999998093E+01 0. -1.
       -5    1    3    3    0  502 -0.11315069717E+03  0.32689625118E+03 -0.45089264458E+03  0.56832253716E+03  0.46999998093E+01 0.  1.
</event>
<event>
 5   0  0.7263385E-02  0.6018070E+03  0.7818609E-02  0.9901664E-01
        1   -1    0    0  501    0  0.00000000000E+00  0.00000000000E+00  0.17332172600E+04  0.17332172600E+04  0.50400001928E-02 0. -1.
       -1   -1    0    0    0  501  0.00000000000E+00  0.00000000000E+00 -0.52239789143E+02  0.52239789386E+02  0.50400001928E-02 0.  1.
    10030    2    1    2    0    0  0.00000000000E+00  0.00000000000E+00  0.16809774709E+04  0.17854570494E+04  0.60180696050E+03 0.  0.
        1    1    3    3  502    0 -0.20546160076E+02 -0.26277416684E+03  0.40983363992E+03  0.48727407061E+03  0.50400001928E-02 0.  1.
       -1    1    3    3    0  502  0.20546160076E+02  0.26277416684E+03  0.12711438310E+04  0.12981829788E+04  0.50400001928E-02 0. -1.
</event>
<event>
 5   0  0.7424930E-02  0.6040327E+03  0.7818609E-02  0.9897075E-01
        1   -1    0    0  501    0  0.00000000000E+00  0.00000000000E+00  0.31550044923E+03  0.31550044927E+03  0.50400001928E-02 0. -1.
       -1   -1    0    0    0  501  0.00000000000E+00  0.00000000000E+00 -0.28910858988E+03  0.28910858992E+03  0.50400001928E-02 0.  1.
    10030    2    1    2    0    0  0.00000000000E+00  0.00000000000E+00  0.26391859354E+02  0.60460903920E+03  0.60403274749E+03 0.  0.
        3    1    3    3  502    0 -0.13979283329E+03  0.22144855564E+03  0.16378008319E+03  0.30887768596E+03  0.10100000352E+00 0. -1.
       -3    1    3    3    0  502  0.13979283329E+03 -0.22144855564E+03 -0.13738822384E+03  0.29573135323E+03  0.10100000352E+00 0.  1.
</event>
<event>
 5   0  0.1206238E-01  0.5704042E+03  0.7818609E-02  0.9968785E-01
        2   -1    0    0  501    0  0.00000000000E+00  0.00000000000E+00  0.10279066042E+04  0.10279066042E+04  0.25500000920E-02 0. -1.
       -2   -1    0    0    0  501  0.00000000000E+00  0.00000000000E+00 -0.79131934744E+02  0.79131934785E+02  0.25500000920E-02 0.  1.
    10030    2    1    2    0    0  0.00000000000E+00  0.00000000000E+00  0.94877466945E+03  0.11070385390E+04  0.57040420177E+03 0.  0.
        5    1    3    3  502    0 -0.11006772559E+03 -0.12586760776E+03  0.92270962611E+03  0.93774874194E+03  0.46999998093E+01 0. -1.
       -5    1    3    3    0  502  0.11006772559E+03  0.12586760776E+03  0.26065043339E+02  0.16928979704E+03  0.46999998093E+01 0.  1.
</event>
<event>
 5   0  0.4695625E-02  0.6066652E+03  0.7818609E-02  0.9891674E-01
       -3   -1    0    0    0  501  0.00000000000E+00  0.00000000000E+00  0.24370718383E+03  0.24370720476E+03  0.10100000352E+00 0. -1.
        3   -1    0    0  501    0  0.00000000000E+00  0.00000000000E+00 -0.37754591818E+03  0.37754593169E+03  0.10100000352E+00 0.  1.
    10030    2    1    2    0    0  0.00000000000E+00  0.00000000000E+00 -0.13383873436E+03  0.62125313645E+03  0.60666518998E+03 0.  0.
        2    1    3    3  502    0  0.11021514796E+03 -0.10271957786E+03 -0.33652170129E+03  0.36870794128E+03  0.25500000920E-02 0.  1.
       -2    1    3    3    0  502 -0.11021514796E+03  0.10271957786E+03  0.20268296693E+03  0.25254519517E+03  0.25500000920E-02 0. -1.
</event>
<event>
 5   0  0.1219020E-01  0.6046844E+03  0.7818609E-02  0.9895735E-01
       -2   -1    0    0    0  501  0.00000000000E+00  0.00000000000E+00  0.77213904014E+03  0.77213904014E+03  0.25500000920E-02 0.  1.
        2   -1    0    0  501    0  0.00000000000E+00  0.00000000000E+00 -0.11838646952E+03  0.11838646955E+03  0.25500000920E-02 0. -1.
    10030    2    1    2    0    0  0.00000000000E+00  0.00000000000E+00  0.65375257062E+03  0.89052550969E+03  0.60468442995E+03 0.  0.
        2    1    3    3  502    0  0.11582229936E+03  0.87973881585E+02  0.71723255728E+03  0.73183109397E+03  0.25500000920E-02 0.  1.
       -2    1    3    3    0  502 -0.11582229936E+03 -0.87973881585E+02 -0.63479986663E+02  0.15869441573E+03  0.25500000920E-02 0. -1.
</event>
<event>
 5   0  0.1219020E-01  0.6171214E+03  0.7818609E-02  0.9870508E-01
        2   -1    0    0  501    0  0.00000000000E+00  0.00000000000E+00  0.14413300882E+04  0.14413300882E+04  0.25500000920E-02 0. -1.
       -2   -1    0    0    0  501  0.00000000000E+00  0.00000000000E+00 -0.66056826258E+02  0.66056826307E+02  0.25500000920E-02 0.  1.
    10030    2    1    2    0    0  0.00000000000E+00  0.00000000000E+00  0.13752732619E+04  0.15073869145E+04  0.61712135356E+03 0.  0.
        2    1    3    3  502    0  0.11087896428E+03  0.12500844368E+03  0.54023188746E+02  0.17561252985E+03  0.25500000920E-02 0.  1.
       -2    1    3    3    0  502 -0.11087896428E+03 -0.12500844368E+03  0.13212500732E+04  0.13317743847E+04  0.25500000920E-02 0. -1.
</event>
<event>
 5   0  0.1206238E-01  0.5361230E+03  0.7818609E-02  0.1004758E+00
       -2   -1    0    0    0  501  0.00000000000E+00  0.00000000000E+00  0.25123770016E+03  0.25123770017E+03  0.25500000920E-02 0.  1.
        2   -1    0    0  501    0  0.00000000000E+00  0.00000000000E+00 -0.28601187790E+03  0.28601187791E+03  0.25500000920E-02 0. -1.
    10030    2    1    2    0    0  0.00000000000E+00  0.00000000000E+00 -0.34774177738E+02  0.53724957808E+03  0.53612299495E+03 0.  0.
        5    1    3    3  502    0  0.19000677760E+03  0.62587553017E+02  0.16135560058E+03  0.25705543598E+03  0.46999998093E+01 0.  1.
       -5    1    3    3    0  502 -0.19000677760E+03 -0.62587553017E+02 -0.19612977832E+03  0.28019414211E+03  0.46999998093E+01 0. -1.
</event>
<event>
 5   0  0.1166419E-01  0.5754058E+03  0.7818609E-02  0.9957787E-01
       -2   -1    0    0    0  501  0.00000000000E+00  0.00000000000E+00  0.57990710813E+02  0.57990710869E+02  0.25500000920E-02 0.  1.
        2   -1    0    0  501    0  0.00000000000E+00  0.00000000000E+00 -0.14273486271E+04  0.14273486271E+04  0.25500000920E-02 0. -1.
    10030    2    1    2    0    0  0.00000000000E+00  0.00000000000E+00 -0.13693579163E+04  0.14853393380E+04  0.57540580987E+03 0.  0.
        1    1    3    3  502    0 -0.13081333756E+03  0.50381353371E+02 -0.36128585931E+02  0.14476078473E+03  0.50400001928E-02 0.  1.
       -1    1    3    3    0  502  0.13081333756E+03 -0.50381353371E+02 -0.13332293304E+04  0.13405785533E+04  0.50400001928E-02 0. -1.
</event>
<event>
 5   0  0.1219020E-01  0.6034377E+03  0.7818609E-02  0.9898300E-01
       -2   -1    0    0    0  501  0.00000000000E+00  0.00000000000E+00  0.20170984547E+03  0.20170984548E+03  0.25500000920E-02 0. -1.
        2   -1    0    0  501    0  0.00000000000E+00  0.00000000000E+00 -0.45131287819E+03  0.45131287820E+03  0.25500000920E-02 0.  1.
    10030    2    1    2    0    0  0.00000000000E+00  0.00000000000E+00 -0.24960303272E+03  0.65302272368E+03  0.60343765519E+03 0.  0.
        2    1    3    3  502    0 -0.22712792307E+03  0.19861203427E+03 -0.12550060688E+03  0.32677857324E+03  0.25500000920E-02 0. -1.
       -2    1    3    3    0  502  0.22712792307E+03 -0.19861203427E+03 -0.12410242584E+03  0.32624415044E+03  0.25500000920E-02 0.  1.
</event>
<event>
 5   0  0.1166419E-01  0.6015473E+03  0.7818609E-02  0.9902201E-01
        2   -1    0    0  501    0  0.00000000000E+00  0.00000000000E+00  0.12467060086E+04  0.12467060086E+04  0.25500000920E-02 0. -1.
       -2   -1    0    0    0  501  0.00000000000E+00  0.00000000000E+00 -0.72563058719E+02  0.72563058764E+02  0.25500000920E-02 0.  1.
    10030    2    1    2    0    0  0.00000000000E+00  0.00000000000E+00  0.11741429499E+04  0.13192690674E+04  0.60154734258E+03 0.  0.
        1    1    3    3  502    0 -0.27845495676E+03 -0.11362530871E+03  0.59609468668E+03  0.66766514754E+03  0.50400001928E-02 0. -1.
       -1    1    3    3    0  502  0.27845495676E+03  0.11362530871E+03  0.57804826322E+03  0.65160391985E+03  0.50400001928E-02 0.  1.
</event>
<event>
 5   0  0.7123340E-02  0.5921196E+03  0.7818609E-02  0.9921892E-01
        1   -1    0    0  501    0  0.00000000000E+00  0.00000000000E+00  0.90787750182E+03  0.90787750184E+03  0.50400001928E-02 0. -1.
       -1   -1    0    0    0  501  0.00000000000E+00  0.00000000000E+00 -0.96545421244E+02  0.96545421375E+02  0.50400001928E-02 0.  1.
    10030    2    1    2    0    0  0.00000000000E+00  0.00000000000E+00  0.81133208058E+03  0.10044229232E+04  0.59211963630E+03 0.  0.
        2    1    3    3  502    0  0.27551864884E+03 -0.24503218828E+02  0.58470978352E+03  0.64683573227E+03  0.25500000920E-02 0. -1.
       -2    1    3    3    0  502 -0.27551864884E+03  0.24503218828E+02  0.22662229706E+03  0.35758719094E+03  0.25500000920E-02 0.  1.
</event>
<event>
 5   0  0.7266519E-02  0.6074251E+03  0.7818609E-02  0.9890120E-01
       -1   -1    0    0    0  501  0.00000000000E+00  0.00000000000E+00  0.17667997502E+03  0.17667997509E+03  0.50400001928E-02 0. -1.
        1   -1    0    0  501    0  0.00000000000E+00  0.00000000000E+00 -0.52208134405E+03  0.52208134407E+03  0.50400001928E-02 0.  1.
    10030    2    1    2    0    0  0.00000000000E+00  0.00000000000E+00 -0.34540136903E+03  0.69876131917E+03  0.60742511920E+03 0.  0.
        4    1    3    3  502    0 -0.22912017483E+03  0.16277658774E+03 -0.40296415032E+02  0.28393253776E+03  0.12699999809E+01 0. -1.
       -4    1    3    3    0  502  0.22912017483E+03 -0.16277658774E+03 -0.30510495400E+03  0.41482878141E+03  0.12699999809E+01 0.  1.
</event>
<event>
 5   0  0.7266519E-02  0.5907656E+03  0.7818609E-02  0.9924752E-01
       -1   -1    0    0    0  501  0.00000000000E+00  0.00000000000E+00  0.66593531402E+02  0.66593531592E+02  0.50400001928E-02 0. -1.
        1   -1    0    0  501    0  0.00000000000E+00  0.00000000000E+00 -0.13102022089E+04  0.13102022089E+04  0.50400001928E-02 0.  1.
    10030    2    1    2    0    0  0.00000000000E+00  0.00000000000E+00 -0.12436086775E+04  0.13767957405E+04  0.59076557815E+03 0.  0.
        4    1    3    3  502    0 -0.18237059197E+03 -0.80337150028E+02 -0.11368354581E+03  0.22943114867E+03  0.12699999809E+01 0. -1.
       -4    1    3    3    0  502  0.18237059197E+03  0.80337150028E+02 -0.11299251317E+04  0.11473645919E+04  0.12699999809E+01 0.  1.
</event>
<event>
 5   0  0.1146468E-01  0.6000581E+03  0.7818609E-02  0.9905285E-01
       -2   -1    0    0    0  501  0.00000000000E+00  0.00000000000E+00  0.69924824897E+03  0.69924824897E+03  0.25500000920E-02 0.  1.
        2   -1    0    0  501    0  0.00000000000E+00  0.00000000000E+00 -0.12873459646E+03  0.12873459648E+03  0.25500000920E-02 0. -1.
    10030    2    1    2    0    0  0.00000000000E+00  0.00000000000E+00  0.57051365251E+03  0.82798284545E+03  0.60005813440E+03 0.  0.
        4    1    3    3  502    0 -0.28709153141E+03  0.27626835721E+02  0.17121310296E+03  0.33541068705E+03  0.12699999809E+01 0. -1.
       -4    1    3    3    0  502  0.28709153141E+03 -0.27626835721E+02  0.39930054955E+03  0.49257215840E+03  0.12699999809E+01 0.  1.
</event>
<event>
 5   0  0.7221069E-02  0.4322985E+03  0.7818609E-02  0.1033136E+00
        1   -1    0    0  501    0  0.00000000000E+00  0.00000000000E+00  0.86151214677E+03  0.86151214678E+03  0.50400001928E-02 0. -1.
       -1   -1    0    0    0  501  0.00000000000E+00  0.00000000000E+00 -0.54230799034E+02  0.54230799268E+02  0.50400001928E-02 0.  1.
    10030    2    1    2    0    0  0.00000000000E+00  0.00000000000E+00  0.80728134773E+03  0.91574294605E+03  0.43229847194E+03 0.  0.
        5    1    3    3  502    0  0.28948164406E+02  0.73751431887E+02 -0.22246066626E+02  0.82427224910E+02  0.46999998093E+01 0.  1.
       -5    1    3    3    0  502 -0.28948164406E+02 -0.73751431887E+02  0.82952741436E+03  0.83331572114E+03  0.46999998093E+01 0. -1.
</event>
<event>
 5   0  0.7123340E-02  0.5939005E+03  0.7818609E-02  0.9918142E-01
       -1   -1    0    0    0  501  0.00000000000E+00  0.00000000000E+00  0.10835624185E+03  0.10835624197E+03  0.50400001928E-02 0.  1.
        1   -1    0    0  501    0  0.00000000000E+00  0.00000000000E+00 -0.81379220910E+03  0.81379220911E+03  0.50400001928E-02 0. -1.
    10030    2    1    2    0    0  0.00000000000E+00  0.00000000000E+00 -0.70543596724E+03  0.92214845108E+03  0.59390054888E+03 0.  0.
        2    1    3    3  502    0  0.54287220362E+02  0.26524683192E+03 -0.54209934121E+03  0.60594940373E+03  0.25500000920E-02 0. -1.
       -2    1    3    3    0  502 -0.54287220362E+02 -0.26524683192E+03 -0.16333662604E+03  0.31619904735E+03  0.25500000920E-02 0.  1.
</event>
<event>
 5   0  0.7266519E-02  0.5979200E+03  0.7818609E-02  0.9909731E-01
       -1   -1    0    0    0  501  0.00000000000E+00  0.00000000000E+00  0.44438411760E+03  0.44438411762E+03  0.50400001928E-02 0.  1.
        1   -1    0    0  501    0  0.00000000000E+00  0.00000000000E+00 -0.20112574167E+03  0.20112574174E+03  0.50400001928E-02 0. -1.
    10030    2    1    2    0    0  0.00000000000E+00  0.00000000000E+00  0.24325837592E+03  0.64550985936E+03  0.59792001227E+03 0.  0.
        4    1    3    3  502    0  0.78376819228E+01 -0.29168579850E+03  0.19187272887E+03  0.34922598885E+03  0.12699999809E+01 0. -1.
       -4    1    3    3    0  502 -0.78376819228E+01  0.29168579850E+03  0.51385647056E+02  0.29628387051E+03  0.12699999809E+01 0.  1.
</event>
<event>
 5   0  0.7266519E-02  0.5932828E+03  0.7818609E-02  0.9919441E-01
       -1   -1    0    0    0  501  0.00000000000E+00  0.00000000000E+00  0.24159512852E+03  0.24159512857E+03  0.50400001928E-02 0.  1.
        1   -1    0    0  501    0  0.00000000000E+00  0.00000000000E+00 -0.36422970299E+03  0.36422970303E+03  0.50400001928E-02 0. -1.
    10030    2    1    2    0    0  0.00000000000E+00  0.00000000000E+00 -0.12263457447E+03  0.60582483160E+03  0.59328280585E+03 0.  0.
        4    1    3    3  502    0  0.52130258331E+02 -0.29153993550E+03 -0.44187340977E+02  0.29944487277E+03  0.12699999809E+01 0. -1.
       -4    1    3    3    0  502 -0.52130258331E+02  0.29153993550E+03 -0.78447233496E+02  0.30637995882E+03  0.12699999809E+01 0.  1.
</event>
<event>
 5   0  0.1175861E-01  0.5974614E+03  0.7818609E-02  0.9910687E-01
        2   -1    0    0  501    0  0.00000000000E+00  0.00000000000E+00  0.44621691535E+03  0.44621691536E+03  0.25500000920E-02 0. -1.
       -2   -1    0    0    0  501  0.00000000000E+00  0.00000000000E+00 -0.19999246200E+03  0.19999246202E+03  0.25500000920E-02 0.  1.
    10030    2    1    2    0    0  0.00000000000E+00  0.00000000000E+00  0.24622445335E+03  0.64620937738E+03  0.59746136108E+03 0.  0.
        3    1    3    3  502    0  0.24801108696E+02 -0.25146202004E+01  0.44508997010E+03  0.44578751664E+03  0.10100000352E+00 0. -1.
       -3    1    3    3    0  502 -0.24801108696E+02  0.25146202004E+01 -0.19886551675E+03  0.20042186074E+03  0.10100000352E+00 0.  1.
</event>
<event>
 5   0  0.7123340E-02  0.6076940E+03  0.7818609E-02  0.9889571E-01
       -1   -1    0    0    0  501  0.00000000000E+00  0.00000000000E+00  0.57496688414E+02  0.57496688635E+02  0.50400001928E-02 0.  1.
        1   -1    0    0  501    0  0.00000000000E+00  0.00000000000E+00 -0.16057098098E+04  0.16057098098E+04  0.50400001928E-02 0. -1.
    10030    2    1    2    0    0  0.00000000000E+00  0.00000000000E+00 -0.15482131214E+04  0.16632064984E+04  0.60769399144E+03 0.  0.
        2    1    3    3  502    0  0.27904798564E+03  0.66750970831E+02 -0.50042159147E+03  0.57684074025E+03  0.25500000920E-02 0.  1.
       -2    1    3    3    0  502 -0.27904798564E+03 -0.66750970831E+02 -0.10477915299E+04  0.10863657582E+04  0.25500000920E-02 0. -1.
</event>
<event>
 5   0  0.1175861E-01  0.6395985E+03  0.7818609E-02  0.9826495E-01
        2   -1    0    0  501    0  0.00000000000E+00  0.00000000000E+00  0.22944591091E+03  0.22944591093E+03  0.25500000920E-02 0.  1.
       -2   -1    0    0    0  501  0.00000000000E+00  0.00000000000E+00 -0.44573274060E+03  0.44573274061E+03  0.25500000920E-02 0. -1.
    10030    2    1    2    0    0  0.00000000000E+00  0.00000000000E+00 -0.21628682969E+03  0.67517865154E+03  0.63959848248E+03 0.  0.
        3    1    3    3  502    0  0.53520338706E+02 -0.41198455460E+00  0.22468442599E+03  0.23097120572E+03  0.10100000352E+00 0.  1.
       -3    1    3    3    0  502 -0.53520338706E+02  0.41198455460E+00 -0.44097125568E+03  0.44420744582E+03  0.10100000352E+00 0. -1.
</event>
<event>
 5   0  0.7221069E-02  0.5822986E+03  0.7818609E-02  0.9942827E-01
        1   -1    0    0  501    0  0.00000000000E+00  0.00000000000E+00  0.12535596649E+03  0.12535596659E+03  0.50400001928E-02 0. -1.
       -1   -1    0    0    0  501  0.00000000000E+00  0.00000000000E+00 -0.67621766691E+03  0.67621766693E+03  0.50400001928E-02 0.  1.
    10030    2    1    2    0    0  0.00000000000E+00  0.00000000000E+00 -0.55086170043E+03  0.80157363352E+03  0.58229861493E+03 0.  0.
        5    1    3    3  502    0  0.18071580121E+03 -0.55354761948E+02  0.29358458755E+02  0.19132788499E+03  0.46999998093E+01 0. -1.
       -5    1    3    3    0  502 -0.18071580121E+03  0.55354761948E+02 -0.58022015918E+03  0.61024574853E+03  0.46999998093E+01 0.  1.
</event>
<event>
 5   0  0.1175861E-01  0.6158006E+03  0.7818609E-02  0.9873156E-01
        2   -1    0    0  501    0  0.00000000000E+00  0.00000000000E+00  0.13382368603E+04  0.13382368603E+04  0.25500000920E-02 0. -1.
       -2   -1    0    0    0  501  0.00000000000E+00  0.00000000000E+00 -0.70841424697E+02  0.70841424743E+02  0.25500000920E-02 0.  1.
    10030    2    1    2    0    0  0.00000000000E+00  0.00000000000E+00  0.12673954356E+04  0.14090782851E+04  0.61580063593E+03 0.  0.
        3    1    3    3  502    0 -0.16327784302E+03 -0.18059451731E+03  0.10650020332E+04  0.10924758005E+04  0.10100000352E+00 0. -1.
       -3    1    3    3    0  502  0.16327784302E+03  0.18059451731E+03  0.20239340241E+03  0.31660248458E+03  0.10100000352E+00 0.  1.
</event>
<event>
 5   0  0.7263385E-02  0.5898285E+03  0.7818609E-02  0.9926736E-01
       -1   -1    0    0    0  501  0.00000000000E+00  0.00000000000E+00  0.55269974280E+02  0.55269974510E+02  0.50400001928E-02 0.  1.
        1   -1    0    0  501    0  0.00000000000E+00  0.00000000000E+00 -0.15736284744E+04  0.15736284744E+04  0.50400001928E-02 0. -1.
    10030    2    1    2    0    0  0.00000000000E+00  0.00000000000E+00 -0.15183585001E+04  0.16288984489E+04  0.58982846829E+03 0.  0.
        1    1    3    3  502    0  0.12535949607E+03  0.22548999555E+03 -0.36460497966E+03  0.44665146655E+03  0.50400001928E-02 0.  1.
       -1    1    3    3    0  502 -0.12535949607E+03 -0.22548999555E+03 -0.11537535205E+04  0.11822469824E+04  0.50400001928E-02 0. -1.
</event>
<event>
 5   0  0.7221069E-02  0.5956477E+03  0.7818609E-02  0.9914477E-01
        1   -1    0    0  501    0  0.00000000000E+00  0.00000000000E+00  0.50360581511E+03  0.50360581514E+03  0.50400001928E-02 0.  1.
       -1   -1    0    0    0  501  0.00000000000E+00  0.00000000000E+00 -0.17612793903E+03  0.17612793910E+03  0.50400001928E-02 0. -1.
    10030    2    1    2    0    0  0.00000000000E+00  0.00000000000E+00  0.32747787608E+03  0.67973375424E+03  0.59564772923E+03 0.  0.
        5    1    3    3  502    0 -0.15897978278E+03  0.29660011895E+02  0.44908253234E+03  0.47733792903E+03  0.46999998093E+01 0.  1.
       -5    1    3    3    0  502  0.15897978278E+03 -0.29660011895E+02 -0.12160465627E+03  0.20239582521E+03  0.46999998093E+01 0. -1.
</event>
<event>
 5   0  0.1206238E-01  0.6011430E+03  0.7818609E-02  0.9903037E-01
       -2   -1    0    0    0  501  0.00000000000E+00  0.00000000000E+00  0.45874309987E+03  0.45874309987E+03  0.25500000920E-02 0. -1.
        2   -1    0    0  501    0  0.00000000000E+00  0.00000000000E+00 -0.19693644242E+03  0.19693644244E+03  0.25500000920E-02 0.  1.
    10030    2    1    2    0    0  0.00000000000E+00  0.00000000000E+00  0.26180665745E+03  0.65567954231E+03  0.60114302484E+03 0.  0.
        5    1    3    3  502    0 -0.13642384668E+03 -0.14596674899E+02 -0.16074303252E+03  0.21138812966E+03  0.46999998093E+01 0.  1.
       -5    1    3    3    0  502  0.13642384668E+03  0.14596674899E+02  0.42254968996E+03  0.44429141264E+03  0.46999998093E+01 0. -1.
</event>
<event>
 5   0  0.7263385E-02  0.7130962E+03  0.7818609E-02  0.9695094E-01
        1   -1    0    0  501    0  0.00000000000E+00  0.00000000000E+00  0.72259652676E+03  0.72259652678E+03  0.50400001928E-02 0. -1.
       -1   -1    0    0    0  501  0.00000000000E+00  0.00000000000E+00 -0.17593020301E+03  0.17593020308E+03  0.50400001928E-02 0.  1.
    10030    2    1    2    0    0  0.00000000000E+00  0.00000000000E+00  0.54666632375E+03  0.89852672986E+03  0.71309621703E+03 0.  0.
        1    1    3    3  502    0 -0.64631772777E+02 -0.23824458161E+02 -0.16746632375E+03  0.18107965229E+03  0.50400001928E-02 0.  1.
       -1    1    3    3    0  502  0.64631772777E+02  0.23824458161E+02  0.71413264750E+03  0.71744707757E+03  0.50400001928E-02 0. -1.
</event>
<event>
 5   0  0.7123340E-02  0.5617452E+03  0.7818609E-02  0.9988114E-01
        1   -1    0    0  501    0  0.00000000000E+00  0.00000000000E+00  0.39546254911E+03  0.39546254914E+03  0.50400001928E-02 0.  1.
       -1   -1    0    0    0  501  0.00000000000E+00  0.00000000000E+00 -0.19948643021E+03  0.19948643027E+03  0.50400001928E-02 0. -1.
    10030    2    1    2    0    0  0.00000000000E+00  0.00000000000E+00  0.19597611890E+03  0.59494897941E+03  0.56174518148E+03 0.  0.
        2    1    3    3  502    0  0.21777985076E+02 -0.10762596085E+03 -0.17581096451E+03  0.20728512569E+03  0.25500000920E-02 0. -1.
       -2    1    3    3    0  502 -0.21777985076E+02  0.10762596085E+03  0.37178708341E+03  0.38766385372E+03  0.25500000920E-02 0.  1.
</event>
<event>
 5   0  0.1219020E-01  0.5969963E+03  0.7818609E-02  0.9911658E-01
        2   -1    0    0  501    0  0.00000000000E+00  0.00000000000E+00  0.14201350494E+04  0.14201350494E+04  0.25500000920E-02 0.  1.
       -2   -1    0    0    0  501  0.00000000000E+00  0.00000000000E+00 -0.62741308383E+02  0.62741308435E+02  0.25500000920E-02 0. -1.
    10030    2    1    2    0    0  0.00000000000E+00  0.00000000000E+00  0.13573937410E+04  0.14828763578E+04  0.59699625165E+03 0.  0.
        2    1    3    3  502    0  0.20103318755E+03 -0.21720005429E+03  0.77524743014E+03  0.82981852476E+03  0.25500000920E-02 0.  1.
       -2    1    3    3    0  502 -0.20103318755E+03  0.21720005429E+03  0.58214631086E+03  0.65305783307E+03  0.25500000920E-02 0. -1.
</event>
<event>
 5   0  0.1219020E-01  0.5927742E+03  0.7818609E-02  0.9920512E-01
        2   -1    0    0  501    0  0.00000000000E+00  0.00000000000E+00  0.25158515780E+03  0.25158515781E+03  0.25500000920E-02 0. -1.
       -2   -1    0    0    0  501  0.00000000000E+00  0.00000000000E+00 -0.34916731705E+03  0.34916731706E+03  0.25500000920E-02 0.  1.
    10030    2    1    2    0    0  0.00000000000E+00  0.00000000000E+00 -0.97582159251E+02  0.60075247487E+03  0.59277420512E+03 0.  0.
        2    1    3    3  502    0 -0.29275483830E+03  0.22326015231E+02 -0.77307420422E+01  0.29370667456E+03  0.25500000920E-02 0. -1.
       -2    1    3    3    0  502  0.29275483830E+03 -0.22326015231E+02 -0.89851417209E+02  0.30704580031E+03  0.25500000920E-02 0.  1.
</event>
<event>
 5   0  0.1146468E-01  0.6029163E+03  0.7818609E-02  0.9899374E-01
        2   -1    0    0  501    0  0.00000000000E+00  0.00000000000E+00  0.99492054770E+03  0.99492054770E+03  0.25500000920E-02 0. -1.
       -2   -1    0    0    0  501  0.00000000000E+00  0.00000000000E+00 -0.91340968392E+02  0.91340968428E+02  0.25500000920E-02 0.  1.
    10030    2    1    2    0    0  0.00000000000E+00  0.00000000000E+00  0.90357957931E+03  0.10862615161E+04  0.60291626723E+03 0.  0.
        4    1    3    3  502    0  0.26768569822E+03 -0.12495732423E+03  0.34360759789E+03  0.45314209708E+03  0.12699999809E+01 0.  1.
       -4    1    3    3    0  502 -0.26768569822E+03  0.12495732423E+03  0.55997198141E+03  0.63311941905E+03  0.12699999809E+01 0. -1.
</event>
<event>
 5   0  0.1166419E-01  0.5904438E+03  0.7818609E-02  0.9925433E-01
       -2   -1    0    0    0  501  0.00000000000E+00  0.00000000000E+00  0.60614141356E+02  0.60614141410E+02  0.25500000920E-02 0. -1.
        2   -1    0    0  501    0  0.00000000000E+00  0.00000000000E+00 -0.14378816852E+04  0.14378816852E+04  0.25500000920E-02 0.  1.
    10030    2    1    2    0    0  0.00000000000E+00  0.00000000000E+00 -0.13772675438E+04  0.14984958266E+04  0.59044377805E+03 0.  0.
        1    1    3    3  502    0 -0.25641947133E+03  0.14508271676E+03 -0.73652064443E+03  0.79326073877E+03  0.50400001928E-02 0.  1.
       -1    1    3    3    0  502  0.25641947133E+03 -0.14508271676E+03 -0.64074689938E+03  0.70523508780E+03  0.50400001928E-02 0. -1.
</event>
<event>
 5   0  0.4695625E-02  0.5953503E+03  0.7818609E-02  0.9915100E-01
       -4   -1    0    0    0  501  0.00000000000E+00  0.00000000000E+00  0.38701471617E+03  0.38701679993E+03  0.12699999809E+01 0.  1.
        4   -1    0    0  501    0  0.00000000000E+00  0.00000000000E+00 -0.22895451094E+03  0.22895803323E+03  0.12699999809E+01 0. -1.
    10030    2    1    2    0    0  0.00000000000E+00  0.00000000000E+00  0.15806020522E+03  0.61597483316E+03  0.59535028900E+03 0.  0.
        4    1    3    3  502    0  0.48106915736E+02 -0.28730785405E+02  0.38150899949E+03  0.38560402353E+03  0.12699999809E+01 0.  1.
       -4    1    3    3    0  502 -0.48106915736E+02  0.28730785405E+02 -0.22344879427E+03  0.23037080963E+03  0.12699999809E+01 0. -1.
</event>
<event>
 5   0  0.1146468E-01  0.6154305E+03  0.7818609E-02  0.9873900E-01
       -2   -1    0    0    0  501  0.00000000000E+00  0.00000000000E+00  0.22021419704E+03  0.22021419705E+03  0.25500000920E-02 0. -1.
        2   -1    0    0  501    0  0.00000000000E+00  0.00000000000E+00 -0.42998446120E+03  0.42998446121E+03  0.25500000920E-02 0.  1.
    10030    2    1    2    0    0  0.00000000000E+00  0.00000000000E+00 -0.20977026416E+03  0.65019865826E+03  0.61543052530E+03 0.  0.
        4    1    3    3  502    0  0.11127253759E+02  0.30334673565E+03 -0.15817278934E+03  0.34229125316E+03  0.12699999809E+01 0. -1.
       -4    1    3    3    0  502 -0.11127253759E+02 -0.30334673565E+03 -0.51597474815E+02  0.30790740509E+03  0.12699999809E+01 0.  1.
</event>
<event>
 5   0  0.1175861E-01  0.6746532E+03  0.7818609E-02  0.9761588E-01
       -2   -1    0    0    0  501  0.00000000000E+00  0.00000000000E+00  0.42567000706E+02  0.42567000782E+02  0.25500000920E-02 0.  1.
        2   -1    0    0  501    0  0.00000000000E+00  0.00000000000E+00 -0.26731791482E+04  0.26731791483E+04  0.25500000920E-02 0. -1.
    10030    2    1    2    0    0  0.00000000000E+00  0.00000000000E+00 -0.26306121475E+04  0.27157461490E+04  0.67465315176E+03 0.  0.
        3    1    3    3  502    0 -0.31393562365E+03  0.94770008924E+02 -0.99701257651E+03  0.10495575345E+04  0.10100000352E+00 0. -1.
       -3    1    3    3    0  502  0.31393562365E+03 -0.94770008924E+02 -0.16335995710E+04  0.16661886145E+04  0.10100000352E+00 0.  1.
</event>
<event>
 5   0  0.4695625E-02  0.5783525E+03  0.7818609E-02  0.9951364E-01
        3   -1    0    0  501    0  0.00000000000E+00  0.00000000000E+00  0.69923635087E+02  0.69923708031E+02  0.10100000352E+00 0.  1.
       -3   -1    0    0    0  501  0.00000000000E+00  0.00000000000E+00 -0.11959169801E+04  0.11959169843E+04  0.10100000352E+00 0. -1.
    10030    2    1    2    0    0  0.00000000000E+00  0.00000000000E+00 -0.11259933450E+04  0.12658406924E+04  0.57835252701E+03 0.  0.
        2    1    3    3  502    0 -0.24336564037E+03 -0.12315445599E+03 -0.77326074204E+03  0.81995489518E+03  0.25500000920E-02 0. -1.
       -2    1    3    3    0  502  0.24336564037E+03  0.12315445599E+03 -0.35273260293E+03  0.44588579718E+03  0.25500000920E-02 0.  1.
</event>
<event>
 5   0  0.4695625E-02  0.5836675E+03  0.7818609E-02  0.9939882E-01
       -3   -1    0    0    0  501  0.00000000000E+00  0.00000000000E+00  0.47835576501E+02  0.47835683127E+02  0.10100000352E+00 0. -1.
        3   -1    0    0  501    0  0.00000000000E+00  0.00000000000E+00 -0.17804076654E+04  0.17804076683E+04  0.10100000352E+00 0.  1.
    10030    2    1    2    0    0  0.00000000000E+00  0.00000000000E+00 -0.17325720889E+04  0.18282433514E+04  0.58366746412E+03 0.  0.
        2    1    3    3  502    0  0.21369672001E+03 -0.19849784930E+03 -0.89749060838E+03  0.94369331695E+03  0.25500000920E-02 0. -1.
       -2    1    3    3    0  502 -0.21369672001E+03  0.19849784930E+03 -0.83508148052E+03  0.88455003444E+03  0.25500000920E-02 0.  1.
</event>
<event>
 5   0  0.7424930E-02  0.5529846E+03  0.7818609E-02  0.1000805E+00
        1   -1    0    0  501    0  0.00000000000E+00  0.00000000000E+00  0.19746791685E+03  0.19746791692E+03  0.50400001928E-02 0.  1.
       -1   -1    0    0    0  501  0.00000000000E+00  0.00000000000E+00 -0.38714134633E+03  0.38714134637E+03  0.50400001928E-02 0. -1.
    10030    2    1    2    0    0  0.00000000000E+00  0.00000000000E+00 -0.18967342948E+03  0.58460926328E+03  0.55298461178E+03 0.  0.
        3    1    3    3  502    0 -0.89168224927E+02  0.16957690150E+03  0.11591461941E+03  0.22392745935E+03  0.10100000352E+00 0.  1.
       -3    1    3    3    0  502  0.89168224927E+02 -0.16957690150E+03 -0.30558804889E+03  0.36068180393E+03  0.10100000352E+00 0. -1.
</event>
<event>
 5   0  0.1206238E-01  0.6077591E+03  0.7818609E-02  0.9889438E-01
        2   -1    0    0  501    0  0.00000000000E+00  0.00000000000E+00  0.34462144595E+03  0.34462144596E+03  0.25500000920E-02 0. -1.
       -2   -1    0    0    0  501  0.00000000000E+00  0.00000000000E+00 -0.26795428201E+03  0.26795428202E+03  0.25500000920E-02 0.  1.
    10030    2    1    2    0    0  0.00000000000E+00  0.00000000000E+00  0.76667163935E+02  0.61257572798E+03  0.60775913690E+03 0.  0.
        5    1    3    3  502    0  0.75186461414E+02 -0.29120520013E+03 -0.52203275786E+01  0.30083685676E+03  0.46999998093E+01 0. -1.
       -5    1    3    3    0  502 -0.75186461414E+02  0.29120520013E+03  0.81887491514E+02  0.31173887122E+03  0.46999998093E+01 0.  1.
</event>
<event>
 5   0  0.7266519E-02  0.5917942E+03  0.7818609E-02  0.9922578E-01
       -1   -1    0    0    0  501  0.00000000000E+00  0.00000000000E+00  0.10097974763E+03  0.10097974776E+03  0.50400001928E-02 0. -1.
        1   -1    0    0  501    0  0.00000000000E+00  0.00000000000E+00 -0.86705609665E+03  0.86705609667E+03  0.50400001928E-02 0.  1.
    10030    2    1    2    0    0  0.00000000000E+00  0.00000000000E+00 -0.76607634902E+03  0.96803584442E+03  0.59179424090E+03 0.  0.
        4    1    3    3  502    0 -0.62570229153E+02  0.11146670317E+03 -0.81955629516E+03  0.82946608932E+03  0.12699999809E+01 0.  1.
       -4    1    3    3    0  502  0.62570229153E+02 -0.11146670317E+03  0.53479946137E+02  0.13856975511E+03  0.12699999809E+01 0. -1.
</event>
<event>
 5   0  0.1166419E-01  0.5462255E+03  0.7818609E-02  0.1002371E+00
       -2   -1    0    0    0  501  0.00000000000E+00  0.00000000000E+00  0.29623383367E+03  0.29623383368E+03  0.25500000920E-02 0. -1.
        2   -1    0    0  501    0  0.00000000000E+00  0.00000000000E+00 -0.25179629330E+03  0.25179629331E+03  0.25500000920E-02 0.  1.
    10030    2    1    2    0    0  0.00000000000E+00  0.00000000000E+00  0.44437540366E+02  0.54803012699E+03  0.54622552585E+03 0.  0.
        1    1    3    3  502    0 -0.24069585897E+03  0.10056077579E+02 -0.10687239195E+03  0.26354758471E+03  0.50400001928E-02 0. -1.
       -1    1    3    3    0  502  0.24069585897E+03 -0.10056077579E+02  0.15130993232E+03  0.28448254228E+03  0.50400001928E-02 0.  1.
</event>
<event>
 5   0  0.4695625E-02  0.5826450E+03  0.7818609E-02  0.9942081E-01
        3   -1    0    0  501    0  0.00000000000E+00  0.00000000000E+00  0.21806729411E+03  0.21806731750E+03  0.10100000352E+00 0.  1.
       -3   -1    0    0    0  501  0.00000000000E+00  0.00000000000E+00 -0.38918619233E+03  0.38918620543E+03  0.10100000352E+00 0. -1.
    10030    2    1    2    0    0  0.00000000000E+00  0.00000000000E+00 -0.17111889822E+03  0.60725352293E+03  0.58264497233E+03 0.  0.
        1    1    3    3  502    0  0.13125837330E+03  0.64562798460E+02  0.17701715109E+03  0.22963490003E+03  0.50400001928E-02 0.  1.
       -1    1    3    3    0  502 -0.13125837330E+03 -0.64562798460E+02 -0.34813604931E+03  0.37761862290E+03  0.50400001928E-02 0. -1.
</event>
<event>
 5   0  0.1219020E-01  0.6201503E+03  0.7818609E-02  0.9864460E-01
       -2   -1    0    0    0  501  0.00000000000E+00  0.00000000000E+00  0.21296123673E+03  0.21296123675E+03  0.25500000920E-02 0. -1.
        2   -1    0    0  501    0  0.00000000000E+00  0.00000000000E+00 -0.45147470758E+03  0.45147470759E+03  0.25500000920E-02 0.  1.
    10030    2    1    2    0    0  0.00000000000E+00  0.00000000000E+00 -0.23851347085E+03  0.66443594433E+03  0.62015034334E+03 0.  0.
        2    1    3    3  502    0 -0.22700069561E+03 -0.90257551054E+02 -0.32386783833E+03  0.40566749690E+03  0.25500000920E-02 0.  1.
       -2    1    3    3    0  502  0.22700069561E+03  0.90257551054E+02  0.85354367482E+02  0.25876844743E+03  0.25500000920E-02 0. -1.
</event>
<event>
 5   0  0.7221069E-02  0.5992415E+03  0.7818609E-02  0.9906981E-01
        1   -1    0    0  501    0  0.00000000000E+00  0.00000000000E+00  0.14545314449E+04  0.14545314449E+04  0.50400001928E-02 0. -1.
       -1   -1    0    0    0  501  0.00000000000E+00  0.00000000000E+00 -0.61719262069E+02  0.61719262274E+02  0.50400001928E-02 0.  1.
    10030    2    1    2    0    0  0.00000000000E+00  0.00000000000E+00  0.13928121828E+04  0.15162507072E+04  0.59924154595E+03 0.  0.
        5    1    3    3  502    0 -0.17776411604E+03 -0.13643169030E+03  0.11995242894E+04  0.12202845152E+04  0.46999998093E+01 0. -1.
       -5    1    3    3    0  502  0.17776411604E+03  0.13643169030E+03  0.19328789338E+03  0.29596619198E+03  0.46999998093E+01 0.  1.
</event>
<event>
 5   0  0.1146468E-01  0.6069370E+03  0.7818609E-02  0.9891118E-01
       -2   -1    0    0    0  501  0.00000000000E+00  0.00000000000E+00  0.64240680067E+02  0.64240680118E+02  0.25500000920E-02 0.  1.
        2   -1    0    0  501    0  0.00000000000E+00  0.00000000000E+00 -0.14335642412E+04  0.14335642412E+04  0.25500000920E-02 0. -1.
    10030    2    1    2    0    0  0.00000000000E+00  0.00000000000E+00 -0.13693235611E+04  0.14978049213E+04  0.60693703731E+03 0.  0.
        4    1    3    3  502    0 -0.69421157484E+02 -0.13056488199E+03 -0.13386314716E+04  0.13467747827E+04  0.12699999809E+01 0. -1.
       -4    1    3    3    0  502  0.69421157484E+02  0.13056488199E+03 -0.30692089483E+02  0.15103013862E+03  0.12699999809E+01 0.  1.
</event>
<event>
 5   0  0.1206238E-01  0.6030842E+03  0.7818609E-02  0.9899028E-01
       -2   -1    0    0    0  501  0.00000000000E+00  0.00000000000E+00  0.11161263991E+03  0.11161263994E+03  0.25500000920E-02 0.  1.
        2   -1    0    0  501    0  0.00000000000E+00  0.00000000000E+00 -0.81467154461E+03  0.81467154461E+03  0.25500000920E-02 0. -1.
    10030    2    1    2    0    0  0.00000000000E+00  0.00000000000E+00 -0.70305890470E+03  0.92628418455E+03  0.60308421225E+03 0.  0.
        5    1    3    3  502    0  0.21253955991E+03  0.11735893281E+02 -0.67949161203E+03  0.71206863189E+03  0.46999998093E+01 0. -1.
       -5    1    3    3    0  502 -0.21253955991E+03 -0.11735893281E+02 -0.23567292675E+02  0.21421555265E+03  0.46999998093E+01 0.  1.
</event>
<event>
 5   0  0.7266519E-02  0.5946389E+03  0.7818609E-02  0.9916591E-01
        1   -1    0    0  501    0  0.00000000000E+00  0.00000000000E+00  0.17322385882E+03  0.17322385889E+03  0.50400001928E-02 0. -1.
       -1   -1    0    0    0  501  0.00000000000E+00  0.00000000000E+00 -0.51031577002E+03  0.51031577004E+03  0.50400001928E-02 0.  1.
    10030    2    1    2    0    0  0.00000000000E+00  0.00000000000E+00 -0.33709191120E+03  0.68353962893E+03  0.59463893896E+03 0.  0.
        4    1    3    3  502    0 -0.18566157553E+03  0.16990026177E+03 -0.35051980571E+03  0.43151137490E+03  0.12699999809E+01 0.  1.
       -4    1    3    3    0  502  0.18566157553E+03 -0.16990026177E+03  0.13427894507E+02  0.25202825403E+03  0.12699999809E+01 0. -1.
</event>
<event>
 5   0  0.1175861E-01  0.6199780E+03  0.7818609E-02  0.9864803E-01
        2   -1    0    0  501    0  0.00000000000E+00  0.00000000000E+00  0.97859404397E+03  0.97859404398E+03  0.25500000920E-02 0. -1.
       -2   -1    0    0    0  501  0.00000000000E+00  0.00000000000E+00 -0.98195150882E+02  0.98195150916E+02  0.25500000920E-02 0.  1.
    10030    2    1    2    0    0  0.00000000000E+00  0.00000000000E+00  0.88039889309E+03  0.10767891949E+04  0.61997803129E+03 0.  0.
        3    1    3    3  502    0 -0.21482128425E+03 -0.90919582682E+02  0.85622023490E+02  0.24848681210E+03  0.10100000352E+00 0. -1.
       -3    1    3    3    0  502  0.21482128425E+03  0.90919582682E+02  0.79477686960E+03  0.82830238279E+03  0.10100000352E+00 0.  1.
</event>
<event>
 5   0  0.7221069E-02  0.6039709E+03  0.7818609E-02  0.9897202E-01
       -1   -1    0    0    0  501  0.00000000000E+00  0.00000000000E+00  0.12852141794E+03  0.12852141803E+03  0.50400001928E-02 0. -1.
        1   -1    0    0  501    0  0.00000000000E+00  0.00000000000E+00 -0.70957207208E+03  0.70957207210E+03  0.50400001928E-02 0.  1.
    10030    2    1    2    0    0  0.00000000000E+00  0.00000000000E+00 -0.58105065414E+03  0.83809349013E+03  0.60397088963E+03 0.  0.
        5    1    3    3  502    0  0.26491358961E+03 -0.57339834756E+02 -0.10588042081E+03  0.29103233518E+03  0.46999998093E+01 0. -1.
       -5    1    3    3    0  502 -0.26491358961E+03  0.57339834756E+02 -0.47517023334E+03  0.54706115495E+03  0.46999998093E+01 0.  1.
</event>
<event>
 5   0  0.7424930E-02  0.6172970E+03  0.7818609E-02  0.9870156E-01
        1   -1    0    0  501    0  0.00000000000E+00  0.00000000000E+00  0.36798987117E+03  0.36798987121E+03  0.50400001928E-02 0. -1.
       -1   -1    0    0    0  501  0.00000000000E+00  0.00000000000E+00 -0.25887643250E+03  0.25887643255E+03  0.50400001928E-02 0.  1.
    10030    2    1    2    0    0  0.00000000000E+00  0.00000000000E+00  0.10911343867E+03  0.62686630376E+03  0.61729702761E+03 0.  0.
        3    1    3    3  502    0 -0.67017833685E+01 -0.27945258690E+03 -0.78335324228E+02  0.29030173174E+03  0.10100000352E+00 0.  1.
       -3    1    3    3    0  502  0.67017833685E+01  0.27945258690E+03  0.18744876290E+03  0.33656457202E+03  0.10100000352E+00 0. -1.
</event>
<event>
 5   0  0.7424930E-02  0.5993207E+03  0.7818609E-02  0.9906816E-01
       -1   -1    0    0    0  501  0.00000000000E+00  0.00000000000E+00  0.19726929197E+03  0.19726929204E+03  0.50400001928E-02 0. -1.
        1   -1    0    0  501    0  0.00000000000E+00  0.00000000000E+00 -0.45519673441E+03  0.45519673444E+03  0.50400001928E-02 0.  1.
    10030    2    1    2    0    0  0.00000000000E+00  0.00000000000E+00 -0.25792744244E+03  0.65246602647E+03  0.59932074062E+03 0.  0.
        3    1    3    3  502    0 -0.12183630814E+03  0.52557940916E+02 -0.42147110154E+03  0.44186459778E+03  0.10100000352E+00 0.  1.
       -3    1    3    3    0  502  0.12183630814E+03 -0.52557940916E+02  0.16354365910E+03  0.21060142870E+03  0.10100000352E+00 0. -1.
</event>
<event>
 5   0  0.7266519E-02  0.5987422E+03  0.7818609E-02  0.9908019E-01
        1   -1    0    0  501    0  0.00000000000E+00  0.00000000000E+00  0.56761058095E+03  0.56761058098E+03  0.50400001928E-02 0. -1.
       -1   -1    0    0    0  501  0.00000000000E+00  0.00000000000E+00 -0.15789533826E+03  0.15789533834E+03  0.50400001928E-02 0.  1.
    10030    2    1    2    0    0  0.00000000000E+00  0.00000000000E+00  0.40971524270E+03  0.72550591931E+03  0.59874223073E+03 0.  0.
        4    1    3    3  502    0  0.18418490469E+03  0.20756946645E+03  0.68776452482E+02  0.28590378773E+03  0.12699999809E+01 0.  1.
       -4    1    3    3    0  502 -0.18418490469E+03 -0.20756946645E+03  0.34093879021E+03  0.43960213159E+03  0.12699999809E+01 0. -1.
</event>
<event>
 5   0  0.1175861E-01  0.6042619E+03  0.7818609E-02  0.9896603E-01
        2   -1    0    0  501    0  0.00000000000E+00  0.00000000000E+00  0.40613463545E+03  0.40613463545E+03  0.25500000920E-02 0. -1.
       -2   -1    0    0    0  501  0.00000000000E+00  0.00000000000E+00 -0.22476073070E+03  0.22476073072E+03  0.25500000920E-02 0.  1.
    10030    2    1    2    0    0  0.00000000000E+00  0.00000000000E+00  0.18137390474E+03  0.63089536617E+03  0.60426192147E+03 0.  0.
        3    1    3    3  502    0  0.19652825901E+02 -0.22949442626E+03  0.29482765858E+03  0.37413538153E+03  0.10100000352E+00 0. -1.
       -3    1    3    3    0  502 -0.19652825901E+02  0.22949442626E+03 -0.11345375383E+03  0.25675998464E+03  0.10100000352E+00 0.  1.
</event>
<event>
 5   0  0.7221069E-02  0.6117664E+03  0.7818609E-02  0.9881291E-01
       -1   -1    0    0    0  501  0.00000000000E+00  0.00000000000E+00  0.16163889668E+03  0.16163889676E+03  0.50400001928E-02 0. -1.
        1   -1    0    0  501    0  0.00000000000E+00  0.00000000000E+00 -0.57884906808E+03  0.57884906810E+03  0.50400001928E-02 0.  1.
    10030    2    1    2    0    0  0.00000000000E+00  0.00000000000E+00 -0.41721017140E+03  0.74048796485E+03  0.61176637614E+03 0.  0.
        5    1    3    3  502    0  0.15272816974E+03 -0.24361381757E+03 -0.33479486314E+03  0.44134258385E+03  0.46999998093E+01 0.  1.
       -5    1    3    3    0  502 -0.15272816974E+03  0.24361381757E+03 -0.82415308261E+02  0.29914538100E+03  0.46999998093E+01 0. -1.
</event>
<event>
 5   0  0.1175861E-01  0.6267071E+03  0.7818609E-02  0.9851496E-01
       -2   -1    0    0    0  501  0.00000000000E+00  0.00000000000E+00  0.17103842052E+03  0.17103842054E+03  0.25500000920E-02 0. -1.
        2   -1    0    0  501    0  0.00000000000E+00  0.00000000000E+00 -0.57408414653E+03  0.57408414654E+03  0.25500000920E-02 0.  1.
    10030    2    1    2    0    0  0.00000000000E+00  0.00000000000E+00 -0.40304572601E+03  0.74512256708E+03  0.62670709483E+03 0.  0.
        3    1    3    3  502    0 -0.21054824719E+03 -0.15145893621E+03  0.75430751574E+01  0.25947501216E+03  0.10100000352E+00 0. -1.
       -3    1    3    3    0  502  0.21054824719E+03  0.15145893621E+03 -0.41058880116E+03  0.48564755492E+03  0.10100000352E+00 0.  1.
</event>
<event>
 5   0  0.1206238E-01  0.5714312E+03  0.7818609E-02  0.9966516E-01
       -2   -1    0    0    0  501  0.00000000000E+00  0.00000000000E+00  0.72420851173E+02  0.72420851218E+02  0.25500000920E-02 0. -1.
        2   -1    0    0  501    0  0.00000000000E+00  0.00000000000E+00 -0.11272087114E+04  0.11272087114E+04  0.25500000920E-02 0.  1.
    10030    2    1    2    0    0  0.00000000000E+00  0.00000000000E+00 -0.10547878602E+04  0.11996295626E+04  0.57143123596E+03 0.  0.
        5    1    3    3  502    0 -0.10396936380E+02  0.21690648672E+03 -0.13771396683E+03  0.25718426648E+03  0.46999998093E+01 0. -1.
       -5    1    3    3    0  502  0.10396936380E+02 -0.21690648672E+03 -0.91707389339E+03  0.94244529613E+03  0.46999998093E+01 0.  1.
</event>
<event>
 5   0  0.7123340E-02  0.5741172E+03  0.7818609E-02  0.9960609E-01
        1   -1    0    0  501    0  0.00000000000E+00  0.00000000000E+00  0.52449315027E+03  0.52449315029E+03  0.50400001928E-02 0.  1.
       -1   -1    0    0    0  501  0.00000000000E+00  0.00000000000E+00 -0.15710909224E+03  0.15710909232E+03  0.50400001928E-02 0. -1.
    10030    2    1    2    0    0  0.00000000000E+00  0.00000000000E+00  0.36738405802E+03  0.68160224262E+03  0.57411721020E+03 0.  0.
        2    1    3    3  502    0  0.74299757706E+02 -0.13899640427E+03 -0.10114673527E+03  0.18727283962E+03  0.25500000920E-02 0. -1.
       -2    1    3    3    0  502 -0.74299757706E+02  0.13899640427E+03  0.46853079330E+03  0.49432940300E+03  0.25500000920E-02 0.  1.
</event>
<event>
 5   0  0.7266519E-02  0.5989633E+03  0.7818609E-02  0.9907559E-01
       -1   -1    0    0    0  501  0.00000000000E+00  0.00000000000E+00  0.12116282690E+03  0.12116282701E+03  0.50400001928E-02 0. -1.
        1   -1    0    0  501    0  0.00000000000E+00  0.00000000000E+00 -0.74023751841E+03  0.74023751843E+03  0.50400001928E-02 0.  1.
    10030    2    1    2    0    0  0.00000000000E+00  0.00000000000E+00 -0.61907469151E+03  0.86140034543E+03  0.59896333898E+03 0.  0.
        4    1    3    3  502    0  0.22637626752E+03  0.13373455795E+03 -0.10334169400E+03  0.28251064600E+03  0.12699999809E+01 0. -1.
       -4    1    3    3    0  502 -0.22637626752E+03 -0.13373455795E+03 -0.51573299751E+03  0.57888969943E+03  0.12699999809E+01 0.  1.
</event>
<event>
 5   0  0.1219020E-01  0.6043331E+03  0.7818609E-02  0.9896457E-01
        2   -1    0    0  501    0  0.00000000000E+00  0.00000000000E+00  0.13185134352E+04  0.13185134352E+04  0.25500000920E-02 0.  1.
       -2   -1    0    0    0  501  0.00000000000E+00  0.00000000000E+00 -0.69248158002E+02  0.69248158049E+02  0.25500000920E-02 0. -1.
    10030    2    1    2    0    0  0.00000000000E+00  0.00000000000E+00  0.12492652772E+04  0.13877615932E+04  0.60433310921E+03 0.  0.
        2    1    3    3  502    0 -0.21582018680E+03 -0.77716645130E+02  0.10762988643E+04  0.11004714786E+04  0.25500000920E-02 0.  1.
       -2    1    3    3    0  502  0.21582018680E+03  0.77716645130E+02  0.17296641287E+03  0.28729011460E+03  0.25500000920E-02 0. -1.
</event>
<event>
 5   0  0.1175861E-01  0.6081870E+03  0.7818609E-02  0.9888565E-01
       -2   -1    0    0    0  501  0.00000000000E+00  0.00000000000E+00  0.11287800595E+03  0.11287800598E+03  0.25500000920E-02 0.  1.
        2   -1    0    0  501    0  0.00000000000E+00  0.00000000000E+00 -0.81922821409E+03  0.81922821409E+03  0.25500000920E-02 0. -1.
    10030    2    1    2    0    0  0.00000000000E+00  0.00000000000E+00 -0.70635020814E+03  0.93210622007E+03  0.60818696875E+03 0.  0.
        3    1    3    3  502    0  0.25456420102E+03 -0.15150269123E+03 -0.24791741552E+03  0.38628882072E+03  0.10100000352E+00 0.  1.
       -3    1    3    3    0  502 -0.25456420102E+03  0.15150269123E+03 -0.45843279261E+03  0.54581739935E+03  0.10100000352E+00 0. -1.
</event>
<event>
 5   0  0.7263385E-02  0.5579932E+03  0.7818609E-02  0.9996606E-01
        1   -1    0    0  501    0  0.00000000000E+00  0.00000000000E+00  0.37525472423E+03  0.37525472426E+03  0.50400001928E-02 0.  1.
       -1   -1    0    0    0  501  0.00000000000E+00  0.00000000000E+00 -0.20743005097E+03  0.20743005103E+03  0.50400001928E-02 0. -1.
    10030    2    1    2    0    0  0.00000000000E+00  0.00000000000E+00  0.16782467326E+03  0.58268477529E+03  0.55799321358E+03 0.  0.
        1    1    3    3  502    0 -0.67385032717E+02 -0.85521521630E+02 -0.18432887325E+03  0.21408364448E+03  0.50400001928E-02 0. -1.
       -1    1    3    3    0  502  0.67385032717E+02  0.85521521630E+02  0.35215354650E+03  0.36860113081E+03  0.50400001928E-02 0.  1.
</event>
<event>
 5   0  0.1206238E-01  0.6194203E+03  0.7818609E-02  0.9865914E-01
        2   -1    0    0  501    0  0.00000000000E+00  0.00000000000E+00  0.36199280440E+03  0.36199280441E+03  0.25500000920E-02 0.  1.
       -2   -1    0    0    0  501  0.00000000000E+00  0.00000000000E+00 -0.26497872015E+03  0.26497872017E+03  0.25500000920E-02 0. -1.
    10030    2    1    2    0    0  0.00000000000E+00  0.00000000000E+00  0.97014084242E+02  0.62697152457E+03  0.61942034200E+03 0.  0.
        5    1    3    3  502    0  0.76914758918E+02 -0.12289034395E+03 -0.22847166412E+03  0.27062761884E+03  0.46999998093E+01 0. -1.
       -5    1    3    3    0  502 -0.76914758918E+02  0.12289034395E+03  0.32548574836E+03  0.35634390574E+03  0.46999998093E+01 0.  1.
</event>
<event>
 5   0  0.7266519E-02  0.5931213E+03  0.7818609E-02  0.9919781E-01
       -1   -1    0    0    0  501  0.00000000000E+00  0.00000000000E+00  0.48016138861E+02  0.48016139125E+02  0.50400001928E-02 0.  1.
        1   -1    0    0  501    0  0.00000000000E+00  0.00000000000E+00 -0.18316390022E+04  0.18316390022E+04  0.50400001928E-02 0. -1.
    10030    2    1    2    0    0  0.00000000000E+00  0.00000000000E+00 -0.17836228634E+04  0.18796551414E+04  0.59312134654E+03 0.  0.
        4    1    3    3  502    0  0.83264975764E+02  0.29766211723E+02  0.52568837122E+01  0.88590808077E+02  0.12699999809E+01 0.  1.
       -4    1    3    3    0  502 -0.83264975764E+02 -0.29766211723E+02 -0.17888797471E+04  0.17910643333E+04  0.12699999809E+01 0. -1.
</event>
<event>
 5   0  0.7221069E-02  0.6141008E+03  0.7818609E-02  0.9876576E-01
       -1   -1    0    0    0  501  0.00000000000E+00  0.00000000000E+00  0.12768048454E+03  0.12768048464E+03  0.50400001928E-02 0. -1.
        1   -1    0    0  501    0  0.00000000000E+00  0.00000000000E+00 -0.73840535503E+03  0.73840535505E+03  0.50400001928E-02 0.  1.
    10030    2    1    2    0    0  0.00000000000E+00  0.00000000000E+00 -0.61072487049E+03  0.86608583969E+03  0.61410081768E+03 0.  0.
        5    1    3    3  502    0 -0.11748464530E+03  0.19473314489E+03 -0.14498068967E+02  0.22793842063E+03  0.46999998093E+01 0. -1.
       -5    1    3    3    0  502  0.11748464530E+03 -0.19473314489E+03 -0.59622680152E+03  0.63814741906E+03  0.46999998093E+01 0.  1.
</event>
<event>
 5   0  0.1219020E-01  0.6454687E+03  0.7818609E-02  0.9815319E-01
        2   -1    0    0  501    0  0.00000000000E+00  0.00000000000E+00  0.19027210770E+04  0.19027210770E+04  0.25500000920E-02 0. -1.
       -2   -1    0    0    0  501  0.00000000000E+00  0.00000000000E+00 -0.54741317947E+02  0.54741318006E+02  0.25500000920E-02 0.  1.
    10030    2    1    2    0    0  0.00000000000E+00  0.00000000000E+00  0.18479797591E+04  0.19574623950E+04  0.64546869638E+03 0.  0.
        2    1    3    3  502    0  0.21409319008E+03  0.18737179627E+03  0.13860381939E+04  0.14149367332E+04  0.25500000920E-02 0.  1.
       -2    1    3    3    0  502 -0.21409319008E+03 -0.18737179627E+03  0.46194156519E+03  0.54252566182E+03  0.25500000920E-02 0. -1.
</event>
<event>
 5   0  0.7263385E-02  0.5809917E+03  0.7818609E-02  0.9945646E-01
        1   -1    0    0  501    0  0.00000000000E+00  0.00000000000E+00  0.43605484967E+03  0.43605484970E+03  0.50400001928E-02 0.  1.
       -1   -1    0    0    0  501  0.00000000000E+00  0.00000000000E+00 -0.19352575095E+03  0.19352575101E+03  0.50400001928E-02 0. -1.
    10030    2    1    2    0    0  0.00000000000E+00  0.00000000000E+00  0.24252909873E+03  0.62958060071E+03  0.58099171170E+03 0.  0.
        1    1    3    3  502    0  0.10828847980E+03  0.19928762126E+03  0.31795443689E+03  0.39055982232E+03  0.50400001928E-02 0.  1.
       -1    1    3    3    0  502 -0.10828847980E+03 -0.19928762126E+03 -0.75425338160E+02  0.23902077840E+03  0.50400001928E-02 0. -1.
</event>
<event>
 5   0  0.7123340E-02  0.5757467E+03  0.7818609E-02  0.9957042E-01
        1   -1    0    0  501    0  0.00000000000E+00  0.00000000000E+00  0.12379380859E+03  0.12379380869E+03  0.50400001928E-02 0.  1.
       -1   -1    0    0    0  501  0.00000000000E+00  0.00000000000E+00 -0.66942810392E+03  0.66942810394E+03  0.50400001928E-02 0. -1.
    10030    2    1    2    0    0  0.00000000000E+00  0.00000000000E+00 -0.54563429533E+03  0.79322191263E+03  0.57574666169E+03 0.  0.
        2    1    3    3  502    0 -0.25571325746E+02 -0.12464666831E+03  0.82947078052E+02  0.15189108725E+03  0.25500000920E-02 0.  1.
       -2    1    3    3    0  502  0.25571325746E+02  0.12464666831E+03 -0.62858137338E+03  0.64133082539E+03  0.25500000920E-02 0. -1.
</event>
<event>
 5   0  0.1206238E-01  0.6003406E+03  0.7818609E-02  0.9904700E-01
       -2   -1    0    0    0  501  0.00000000000E+00  0.00000000000E+00  0.55416714388E+02  0.55416714446E+02  0.25500000920E-02 0. -1.
        2   -1    0    0  501    0  0.00000000000E+00  0.00000000000E+00 -0.16259032643E+04  0.16259032643E+04  0.25500000920E-02 0.  1.
    10030    2    1    2    0    0  0.00000000000E+00  0.00000000000E+00 -0.15704865499E+04  0.16813199788E+04  0.60034062622E+03 0.  0.
        5    1    3    3  502    0  0.46138221957E+01  0.59607305925E+02 -0.16089550508E+04  0.16100722853E+04  0.46999998093E+01 0.  1.
       -5    1    3    3    0  502 -0.46138221957E+01 -0.59607305925E+02  0.38468500858E+02  0.71247693516E+02  0.46999998093E+01 0. -1.
</event>
<event>
 5   0  0.1146468E-01  0.6022516E+03  0.7818609E-02  0.9900746E-01
        2   -1    0    0  501    0  0.00000000000E+00  0.00000000000E+00  0.40250264068E+03  0.40250264069E+03  0.25500000920E-02 0. -1.
       -2   -1    0    0    0  501  0.00000000000E+00  0.00000000000E+00 -0.22528239668E+03  0.22528239669E+03  0.25500000920E-02 0.  1.
    10030    2    1    2    0    0  0.00000000000E+00  0.00000000000E+00  0.17722024400E+03  0.62778503738E+03  0.60225164033E+03 0.  0.
        4    1    3    3  502    0 -0.15439215710E+02  0.23004435927E+02  0.40116847278E+03  0.40212601247E+03  0.12699999809E+01 0. -1.
       -4    1    3    3    0  502  0.15439215710E+02 -0.23004435927E+02 -0.22394822877E+03  0.22565902491E+03  0.12699999809E+01 0.  1.
</event>
<event>
 5   0  0.7123340E-02  0.5917207E+03  0.7818609E-02  0.9922733E-01
       -1   -1    0    0    0  501  0.00000000000E+00  0.00000000000E+00  0.12357574852E+03  0.12357574862E+03  0.50400001928E-02 0.  1.
        1   -1    0    0  501    0  0.00000000000E+00  0.00000000000E+00 -0.70833758293E+03  0.70833758295E+03  0.50400001928E-02 0. -1.
    10030    2    1    2    0    0  0.00000000000E+00  0.00000000000E+00 -0.58476183441E+03  0.83191333157E+03  0.59172070123E+03 0.  0.
        2    1    3    3  502    0 -0.35767588209E+02 -0.16683201360E+03  0.47436948426E+02  0.17709462219E+03  0.25500000920E-02 0.  1.
       -2    1    3    3    0  502  0.35767588209E+02  0.16683201360E+03 -0.63219878284E+03  0.65481870938E+03  0.25500000920E-02 0. -1.
</event>
<event>
 5   0  0.7424930E-02  0.5974138E+03  0.7818609E-02  0.9910786E-01
       -1   -1    0    0    0  501  0.00000000000E+00  0.00000000000E+00  0.11745041832E+03  0.11745041843E+03  0.50400001928E-02 0.  1.
        1   -1    0    0  501    0  0.00000000000E+00  0.00000000000E+00 -0.75968918397E+03  0.75968918399E+03  0.50400001928E-02 0. -1.
    10030    2    1    2    0    0  0.00000000000E+00  0.00000000000E+00 -0.64223876565E+03  0.87713960242E+03  0.59741380133E+03 0.  0.
        3    1    3    3  502    0 -0.95769660473E+01  0.24509449718E+03 -0.57142003533E+03  0.62183912534E+03  0.10100000352E+00 0. -1.
       -3    1    3    3    0  502  0.95769660473E+01 -0.24509449718E+03 -0.70818730321E+02  0.25530047707E+03  0.10100000352E+00 0.  1.
</event>
<event>
 5   0  0.7123340E-02  0.5901974E+03  0.7818609E-02  0.9925955E-01
       -1   -1    0    0    0  501  0.00000000000E+00  0.00000000000E+00  0.13354584794E+03  0.13354584803E+03  0.50400001928E-02 0.  1.
        1   -1    0    0  501    0  0.00000000000E+00  0.00000000000E+00 -0.65208502275E+03  0.65208502277E+03  0.50400001928E-02 0. -1.
    10030    2    1    2    0    0  0.00000000000E+00  0.00000000000E+00 -0.51853917481E+03  0.78563087080E+03  0.59019741557E+03 0.  0.
        2    1    3    3  502    0  0.18943857461E+03  0.47605308982E+02  0.35178597740E+02  0.19847108792E+03  0.25500000920E-02 0.  1.
       -2    1    3    3    0  502 -0.18943857461E+03 -0.47605308982E+02 -0.55371777255E+03  0.58715978289E+03  0.25500000920E-02 0. -1.
</event>
<event>
 5   0  0.1175861E-01  0.6061679E+03  0.7818609E-02  0.9892692E-01
       -2   -1    0    0    0  501  0.00000000000E+00  0.00000000000E+00  0.47210409336E+02  0.47210409405E+02  0.25500000920E-02 0. -1.
        2   -1    0    0  501    0  0.00000000000E+00  0.00000000000E+00 -0.19457548598E+04  0.19457548598E+04  0.25500000920E-02 0.  1.
    10030    2    1    2    0    0  0.00000000000E+00  0.00000000000E+00 -0.18985444505E+04  0.19929652692E+04  0.60616790898E+03 0.  0.
        3    1    3    3  502    0 -0.76754631316E+02 -0.94985441162E+01 -0.19127655387E+04  0.19143284755E+04  0.10100000352E+00 0.  1.
       -3    1    3    3    0  502  0.76754631316E+02  0.94985441162E+01  0.14221088280E+02  0.78636793689E+02  0.10100000352E+00 0. -1.
</event>
<event>
 5   0  0.7221069E-02  0.6071484E+03  0.7818609E-02  0.9890685E-01
        1   -1    0    0  501    0  0.00000000000E+00  0.00000000000E+00  0.77394125670E+02  0.77394125834E+02  0.50400001928E-02 0.  1.
       -1   -1    0    0    0  501  0.00000000000E+00  0.00000000000E+00 -0.11907532102E+04  0.11907532103E+04  0.50400001928E-02 0. -1.
    10030    2    1    2    0    0  0.00000000000E+00  0.00000000000E+00 -0.11133590846E+04  0.12681473361E+04  0.60714842899E+03 0.  0.
        5    1    3    3  502    0 -0.28779602367E+02 -0.18471429705E+03 -0.57190822321E+02  0.19555182741E+03  0.46999998093E+01 0.  1.
       -5    1    3    3    0  502  0.28779602367E+02  0.18471429705E+03 -0.10561682622E+04  0.10725955087E+04  0.46999998093E+01 0. -1.
</event>
<event>
 5   0  0.7266519E-02  0.5412696E+03  0.7818609E-02  0.1003535E+00
       -1   -1    0    0    0  501  0.00000000000E+00  0.00000000000E+00  0.71949197101E+02  0.71949197278E+02  0.50400001928E-02 0. -1.
        1   -1    0    0  501    0  0.00000000000E+00  0.00000000000E+00 -0.10179847911E+04  0.10179847911E+04  0.50400001928E-02 0.  1.
    10030    2    1    2    0    0  0.00000000000E+00  0.00000000000E+00 -0.94603559399E+03  0.10899339884E+04  0.54126957603E+03 0.  0.
        4    1    3    3  502    0 -0.96051582797E+02  0.50326231162E+02 -0.97232046935E+03  0.97834929555E+03  0.12699999809E+01 0.  1.
       -4    1    3    3    0  502  0.96051582797E+02 -0.50326231162E+02  0.26284875358E+02  0.11158469283E+03  0.12699999809E+01 0. -1.
</event>
<event>
 5   0  0.7263385E-02  0.5880501E+03  0.7818609E-02  0.9930513E-01
       -1   -1    0    0    0  501  0.00000000000E+00  0.00000000000E+00  0.17200451010E+03  0.17200451017E+03  0.50400001928E-02 0. -1.
        1   -1    0    0  501    0  0.00000000000E+00  0.00000000000E+00 -0.50260732243E+03  0.50260732245E+03  0.50400001928E-02 0.  1.
    10030    2    1    2    0    0  0.00000000000E+00  0.00000000000E+00 -0.33060281233E+03  0.67461183262E+03  0.58805008731E+03 0.  0.
        1    1    3    3  502    0  0.24917255757E+03  0.15414664608E+03 -0.13714060872E+03  0.32350532998E+03  0.50400001928E-02 0. -1.
       -1    1    3    3    0  502 -0.24917255757E+03 -0.15414664608E+03 -0.19346220361E+03  0.35110650264E+03  0.50400001928E-02 0.  1.
</event>
<event>
 5   0  0.1166419E-01  0.6008225E+03  0.7818609E-02  0.9903701E-01
       -2   -1    0    0    0  501  0.00000000000E+00  0.00000000000E+00  0.66005193273E+02  0.66005193322E+02  0.25500000920E-02 0. -1.
        2   -1    0    0  501    0  0.00000000000E+00  0.00000000000E+00 -0.13672699673E+04  0.13672699674E+04  0.25500000920E-02 0.  1.
    10030    2    1    2    0    0  0.00000000000E+00  0.00000000000E+00 -0.13012647741E+04  0.14332751607E+04  0.60082249787E+03 0.  0.
        1    1    3    3  502    0  0.17832138828E+03  0.15565960596E+03 -0.20935284295E+03  0.31600165083E+03  0.50400001928E-02 0. -1.
       -1    1    3    3    0  502 -0.17832138828E+03 -0.15565960596E+03 -0.10919119311E+04  0.11172735098E+04  0.50400001928E-02 0.  1.
</event>
<event>
 5   0  0.7263385E-02  0.5913886E+03  0.7818609E-02  0.9923435E-01
       -1   -1    0    0    0  501  0.00000000000E+00  0.00000000000E+00  0.10437555948E+03  0.10437555960E+03  0.50400001928E-02 0. -1.
        1   -1    0    0  501    0  0.00000000000E+00  0.00000000000E+00 -0.83769716925E+03  0.83769716927E+03  0.50400001928E-02 0.  1.
    10030    2    1    2    0    0  0.00000000000E+00  0.00000000000E+00 -0.73332160977E+03  0.94207272886E+03  0.59138857201E+03 0.  0.
        1    1    3    3  502    0 -0.21141417298E+03 -0.10027037427E+03 -0.78665228633E+02  0.24685687901E+03  0.50400001928E-02 0. -1.
       -1    1    3    3    0  502  0.21141417298E+03  0.10027037427E+03 -0.65465638114E+03  0.69521584985E+03  0.50400001928E-02 0.  1.
</event>
<event>
 5   0  0.1175861E-01  0.6229148E+03  0.7818609E-02  0.9858973E-01
        2   -1    0    0  501    0  0.00000000000E+00  0.00000000000E+00  0.95802178675E+03  0.95802178675E+03  0.25500000920E-02 0.  1.
       -2   -1    0    0    0  501  0.00000000000E+00  0.00000000000E+00 -0.10125626438E+03  0.10125626441E+03  0.25500000920E-02 0. -1.
    10030    2    1    2    0    0  0.00000000000E+00  0.00000000000E+00  0.85676552236E+03  0.10592780512E+04  0.62291478499E+03 0.  0.
        3    1    3    3  502    0 -0.98718477357E+02  0.63315094373E+02 -0.62273697400E+02  0.13278615340E+03  0.10100000352E+00 0. -1.
       -3    1    3    3    0  502  0.98718477357E+02 -0.63315094373E+02  0.91903921976E+03  0.92649189776E+03  0.10100000352E+00 0.  1.
</event>
<event>
 5   0  0.1175861E-01  0.5936458E+03  0.7818609E-02  0.9918677E-01
        2   -1    0    0  501    0  0.00000000000E+00  0.00000000000E+00  0.15183704949E+04  0.15183704949E+04  0.25500000920E-02 0.  1.
       -2   -1    0    0    0  501  0.00000000000E+00  0.00000000000E+00 -0.58025251282E+02  0.58025251338E+02  0.25500000920E-02 0. -1.
    10030    2    1    2    0    0  0.00000000000E+00  0.00000000000E+00  0.14603452436E+04  0.15763957463E+04  0.59364578514E+03 0.  0.
        3    1    3    3  502    0  0.31850464557E+02  0.12130743795E+03  0.15793469814E+02  0.12640961389E+03  0.10100000352E+00 0. -1.
       -3    1    3    3    0  502 -0.31850464557E+02 -0.12130743795E+03  0.14445517738E+04  0.14499861324E+04  0.10100000352E+00 0.  1.
</event>
<event>
 5   0  0.1146468E-01  0.5932998E+03  0.7818609E-02  0.9919405E-01
        2   -1    0    0  501    0  0.00000000000E+00  0.00000000000E+00  0.32672047348E+03  0.32672047349E+03  0.25500000920E-02 0. -1.
       -2   -1    0    0    0  501  0.00000000000E+00  0.00000000000E+00 -0.26934698393E+03  0.26934698395E+03  0.25500000920E-02 0.  1.
    10030    2    1    2    0    0  0.00000000000E+00  0.00000000000E+00  0.57373489542E+02  0.59606745743E+03  0.59329983693E+03 0.  0.
        4    1    3    3  502    0  0.16828063374E+03  0.10116871646E+03  0.25208877630E+03  0.31953692262E+03  0.12699999809E+01 0. -1.
       -4    1    3    3    0  502 -0.16828063374E+03 -0.10116871646E+03 -0.19471528676E+03  0.27653053481E+03  0.12699999809E+01 0.  1.
</event>
<event>
 5   0  0.7424930E-02  0.5890949E+03  0.7818609E-02  0.9928293E-01
       -1   -1    0    0    0  501  0.00000000000E+00  0.00000000000E+00  0.16937066652E+03  0.16937066660E+03  0.50400001928E-02 0.  1.
        1   -1    0    0  501    0  0.00000000000E+00  0.00000000000E+00 -0.51223866647E+03  0.51223866649E+03  0.50400001928E-02 0. -1.
    10030    2    1    2    0    0  0.00000000000E+00  0.00000000000E+00 -0.34286799995E+03  0.68160933309E+03  0.58909491388E+03 0.  0.
        3    1    3    3  502    0 -0.10264370022E+03 -0.27023040256E+03 -0.10600216296E+03  0.30789067608E+03  0.10100000352E+00 0.  1.
       -3    1    3    3    0  502  0.10264370022E+03  0.27023040256E+03 -0.23686583698E+03  0.37371865700E+03  0.10100000352E+00 0. -1.
</event>
<event>
 5   0  0.1146468E-01  0.5993514E+03  0.7818609E-02  0.9906753E-01
       -2   -1    0    0    0  501  0.00000000000E+00  0.00000000000E+00  0.42630809633E+02  0.42630809709E+02  0.25500000920E-02 0. -1.
        2   -1    0    0  501    0  0.00000000000E+00  0.00000000000E+00 -0.21065872972E+04  0.21065872972E+04  0.25500000920E-02 0.  1.
    10030    2    1    2    0    0  0.00000000000E+00  0.00000000000E+00 -0.20639564876E+04  0.21492181069E+04  0.59935138984E+03 0.  0.
        4    1    3    3  502    0  0.10251672608E+03  0.26785865926E+03 -0.13434771137E+04  0.13737504535E+04  0.12699999809E+01 0.  1.
       -4    1    3    3    0  502 -0.10251672608E+03 -0.26785865926E+03 -0.72047937388E+03  0.77546765345E+03  0.12699999809E+01 0. -1.
</event>
<event>
 5   0  0.7221069E-02  0.6048616E+03  0.7818609E-02  0.9895371E-01
       -1   -1    0    0    0  501  0.00000000000E+00  0.00000000000E+00  0.64334412286E+02  0.64334412483E+02  0.50400001928E-02 0.  1.
        1   -1    0    0  501    0  0.00000000000E+00  0.00000000000E+00 -0.14217026131E+04  0.14217026132E+04  0.50400001928E-02 0. -1.
    10030    2    1    2    0    0  0.00000000000E+00  0.00000000000E+00 -0.13573682009E+04  0.14860370256E+04  0.60486164439E+03 0.  0.
        5    1    3    3  502    0  0.28668269038E+02  0.23301916062E+03 -0.21045162656E+03  0.31532804503E+03  0.46999998093E+01 0. -1.
       -5    1    3    3    0  502 -0.28668269038E+02 -0.23301916062E+03 -0.11469165743E+04  0.11707089806E+04  0.46999998093E+01 0.  1.
</event>
<event>
 5   0  0.1166419E-01  0.6010014E+03  0.7818609E-02  0.9903331E-01
       -2   -1    0    0    0  501  0.00000000000E+00  0.00000000000E+00  0.74722225686E+02  0.74722225729E+02  0.25500000920E-02 0. -1.
        2   -1    0    0  501    0  0.00000000000E+00  0.00000000000E+00 -0.12084848110E+04  0.12084848110E+04  0.25500000920E-02 0.  1.
    10030    2    1    2    0    0  0.00000000000E+00  0.00000000000E+00 -0.11337625853E+04  0.12832070368E+04  0.60100141370E+03 0.  0.
        1    1    3    3  502    0 -0.90259441938E+02 -0.11700933535E+03 -0.11255422540E+04  0.11352018838E+04  0.50400001928E-02 0.  1.
       -1    1    3    3    0  502  0.90259441938E+02  0.11700933535E+03 -0.82203313028E+01  0.14800515292E+03  0.50400001928E-02 0. -1.
</event>
<event>
 5   0  0.7123340E-02  0.5920983E+03  0.7818609E-02  0.9921937E-01
        1   -1    0    0  501    0  0.00000000000E+00  0.00000000000E+00  0.46159165278E+03  0.46159165280E+03  0.50400001928E-02 0.  1.
       -1   -1    0    0    0  501  0.00000000000E+00  0.00000000000E+00 -0.18987581342E+03  0.18987581349E+03  0.50400001928E-02 0. -1.
    10030    2    1    2    0    0  0.00000000000E+00  0.00000000000E+00  0.27171583936E+03  0.65146746629E+03  0.59209827080E+03 0.  0.
        2    1    3    3  502    0 -0.20336946092E+03  0.34145864420E+00  0.37257140353E+03  0.42446284286E+03  0.25500000920E-02 0.  1.
       -2    1    3    3    0  502  0.20336946092E+03 -0.34145864420E+00 -0.10085556418E+03  0.22700462343E+03  0.25500000920E-02 0. -1.
</event>
<event>
 5   0  0.1206238E-01  0.5850041E+03  0.7818609E-02  0.9937016E-01
        2   -1    0    0  501    0  0.00000000000E+00  0.00000000000E+00  0.63852604454E+03  0.63852604455E+03  0.25500000920E-02 0.  1.
       -2   -1    0    0    0  501  0.00000000000E+00  0.00000000000E+00 -0.13399211026E+03  0.13399211029E+03  0.25500000920E-02 0. -1.
    10030    2    1    2    0    0  0.00000000000E+00  0.00000000000E+00  0.50453393428E+03  0.77251815483E+03  0.58500411000E+03 0.  0.
        5    1    3    3  502    0  0.23140008344E+03  0.12954833431E+03  0.41510870677E+03  0.49261150816E+03  0.46999998093E+01 0.  1.
       -5    1    3    3    0  502 -0.23140008344E+03 -0.12954833431E+03  0.89425227509E+02  0.27990664667E+03  0.46999998093E+01 0. -1.
</event>
<event>
 5   0  0.7424930E-02  0.5891274E+03  0.7818609E-02  0.9928224E-01
        1   -1    0    0  501    0  0.00000000000E+00  0.00000000000E+00  0.42232437718E+03  0.42232437721E+03  0.50400001928E-02 0.  1.
       -1   -1    0    0    0  501  0.00000000000E+00  0.00000000000E+00 -0.20545289656E+03  0.20545289662E+03  0.50400001928E-02 0. -1.
    10030    2    1    2    0    0  0.00000000000E+00  0.00000000000E+00  0.21687148061E+03  0.62777727383E+03  0.58912737709E+03 0.  0.
        3    1    3    3  502    0 -0.20971566369E+03  0.16432219718E+03 -0.25446500982E+02  0.26763777517E+03  0.10100000352E+00 0. -1.
       -3    1    3    3    0  502  0.20971566369E+03 -0.16432219718E+03  0.24231798160E+03  0.36013949866E+03  0.10100000352E+00 0.  1.
</event>
<event>
 5   0  0.7263385E-02  0.5980933E+03  0.7818609E-02  0.9909370E-01
        1   -1    0    0  501    0  0.00000000000E+00  0.00000000000E+00  0.56616174195E+03  0.56616174198E+03  0.50400001928E-02 0. -1.
       -1   -1    0    0    0  501  0.00000000000E+00  0.00000000000E+00 -0.15795643855E+03  0.15795643864E+03  0.50400001928E-02 0.  1.
    10030    2    1    2    0    0  0.00000000000E+00  0.00000000000E+00  0.40820530340E+03  0.72411818061E+03  0.59809327848E+03 0.  0.
        1    1    3    3  502    0 -0.13674810535E+03 -0.23035678340E+03  0.43189167301E+02  0.27134774031E+03  0.50400001928E-02 0.  1.
       -1    1    3    3    0  502  0.13674810535E+03  0.23035678340E+03  0.36501613610E+03  0.45277044030E+03  0.50400001928E-02 0. -1.
</event>
<event>
 5   0  0.4695625E-02  0.6334996E+03  0.7818609E-02  0.9838243E-01
       -3   -1    0    0    0  501  0.00000000000E+00  0.00000000000E+00  0.29699980153E+03  0.29699981871E+03  0.10100000352E+00 0. -1.
        3   -1    0    0  501    0  0.00000000000E+00  0.00000000000E+00 -0.33781306461E+03  0.33781307971E+03  0.10100000352E+00 0.  1.
    10030    2    1    2    0    0  0.00000000000E+00  0.00000000000E+00 -0.40813263076E+02  0.63481289841E+03  0.63349956081E+03 0.  0.
        5    1    3    3  502    0 -0.24444529090E+03 -0.19546326093E+03 -0.68973042654E+02  0.32052887113E+03  0.46999998093E+01 0.  1.
       -5    1    3    3    0  502  0.24444529090E+03  0.19546326093E+03  0.28159779579E+02  0.31428402728E+03  0.46999998093E+01 0. -1.
</event>
<event>
 5   0  0.4695625E-02  0.6220197E+03  0.7818609E-02  0.9860747E-01
        3   -1    0    0  501    0  0.00000000000E+00  0.00000000000E+00  0.11167978073E+03  0.11167982640E+03  0.10100000352E+00 0.  1.
       -3   -1    0    0    0  501  0.00000000000E+00  0.00000000000E+00 -0.86611120271E+03  0.86611120859E+03  0.10100000352E+00 0. -1.
    10030    2    1    2    0    0  0.00000000000E+00  0.00000000000E+00 -0.75443142198E+03  0.97779103499E+03  0.62201972448E+03 0.  0.
        2    1    3    3  502    0 -0.20683762093E+03 -0.21686209053E+03 -0.24648590413E+03  0.38802869570E+03  0.25500000920E-02 0.  1.
       -2    1    3    3    0  502  0.20683762093E+03  0.21686209053E+03 -0.50794551785E+03  0.58976233929E+03  0.25500000920E-02 0. -1.
</event>
<event>
 5   0  0.7263385E-02  0.5941249E+03  0.7818609E-02  0.9917671E-01
       -1   -1    0    0    0  501  0.00000000000E+00  0.00000000000E+00  0.25228355804E+03  0.25228355809E+03  0.50400001928E-02 0. -1.
        1   -1    0    0  501    0  0.00000000000E+00  0.00000000000E+00 -0.34978932674E+03  0.34978932678E+03  0.50400001928E-02 0.  1.
    10030    2    1    2    0    0  0.00000000000E+00  0.00000000000E+00 -0.97505768698E+02  0.60207288487E+03  0.59412488903E+03 0.  0.
        1    1    3    3  502    0 -0.93865431047E+02 -0.21350507102E+02  0.23603965115E+03  0.25491426057E+03  0.50400001928E-02 0. -1.
       -1    1    3    3    0  502  0.93865431047E+02  0.21350507102E+02 -0.33354541985E+03  0.34715862430E+03  0.50400001928E-02 0.  1.
</event>
<event>
 5   0  0.7123340E-02  0.6193133E+03  0.7818609E-02  0.9866128E-01
       -1   -1    0    0    0  501  0.00000000000E+00  0.00000000000E+00  0.46599022592E+03  0.46599022595E+03  0.50400001928E-02 0. -1.
        1   -1    0    0  501    0  0.00000000000E+00  0.00000000000E+00 -0.20577095083E+03  0.20577095089E+03  0.50400001928E-02 0.  1.
    10030    2    1    2    0    0  0.00000000000E+00  0.00000000000E+00  0.26021927509E+03  0.67176117684E+03  0.61931333554E+03 0.  0.
        2    1    3    3  502    0 -0.13245815885E+03 -0.68702787631E+02  0.42442187422E+03  0.44988794627E+03  0.25500000920E-02 0. -1.
       -2    1    3    3    0  502  0.13245815885E+03  0.68702787631E+02 -0.16420259913E+03  0.22187323057E+03  0.25500000920E-02 0.  1.
</event>
<event>
 5   0  0.7221069E-02  0.6132058E+03  0.7818609E-02  0.9878381E-01
       -1   -1    0    0    0  501  0.00000000000E+00  0.00000000000E+00  0.13750311882E+03  0.13750311892E+03  0.50400001928E-02 0. -1.
        1   -1    0    0  501    0  0.00000000000E+00  0.00000000000E+00 -0.68365973237E+03  0.68365973239E+03  0.50400001928E-02 0.  1.
    10030    2    1    2    0    0  0.00000000000E+00  0.00000000000E+00 -0.54615661354E+03  0.82116285130E+03  0.61320582339E+03 0.  0.
        5    1    3    3  502    0  0.12472259237E+03 -0.27439347691E+03 -0.19808996398E+03  0.36070656917E+03  0.46999998093E+01 0.  1.
       -5    1    3    3    0  502 -0.12472259237E+03  0.27439347691E+03 -0.34806664956E+03  0.46045628213E+03  0.46999998093E+01 0. -1.
</event>
<event>
 5   0  0.1206238E-01  0.6064867E+03  0.7818609E-02  0.9892039E-01
       -2   -1    0    0    0  501  0.00000000000E+00  0.00000000000E+00  0.57544983522E+02  0.57544983578E+02  0.25500000920E-02 0. -1.
        2   -1    0    0  501    0  0.00000000000E+00  0.00000000000E+00 -0.15979936896E+04  0.15979936896E+04  0.25500000920E-02 0.  1.
    10030    2    1    2    0    0  0.00000000000E+00  0.00000000000E+00 -0.15404487061E+04  0.16555386732E+04  0.60648667119E+03 0.  0.
        5    1    3    3  502    0 -0.11656923427E+03  0.80083990446E+02 -0.15023421169E+04  0.15089916362E+04  0.46999998093E+01 0.  1.
       -5    1    3    3    0  502  0.11656923427E+03 -0.80083990446E+02 -0.38106589140E+02  0.14654703694E+03  0.46999998093E+01 0. -1.
</event>
<event>
 5   0  0.7221069E-02  0.6365418E+03  0.7818609E-02  0.9832366E-01
        1   -1    0    0  501    0  0.00000000000E+00  0.00000000000E+00  0.85739029539E+03  0.85739029540E+03  0.50400001928E-02 0. -1.
       -1   -1    0    0    0  501  0.00000000000E+00  0.00000000000E+00 -0.11814497481E+03  0.11814497492E+03  0.50400001928E-02 0.  1.
    10030    2    1    2    0    0  0.00000000000E+00  0.00000000000E+00  0.73924532058E+03  0.97553527032E+03  0.63654176583E+03 0.  0.
        5    1    3    3  502    0 -0.27938829861E+03  0.12791656195E+03  0.49649930352E+03  0.58391276456E+03  0.46999998093E+01 0. -1.
       -5    1    3    3    0  502  0.27938829861E+03 -0.12791656195E+03  0.24274601705E+03  0.39162250576E+03  0.46999998093E+01 0.  1.
</event>
<event>
 5   0  0.1166419E-01  0.6039611E+03  0.7818609E-02  0.9897222E-01
       -2   -1    0    0    0  501  0.00000000000E+00  0.00000000000E+00  0.99082051691E+03  0.99082051691E+03  0.25500000920E-02 0. -1.
        2   -1    0    0  501    0  0.00000000000E+00  0.00000000000E+00 -0.92037098720E+02  0.92037098756E+02  0.25500000920E-02 0.  1.
    10030    2    1    2    0    0  0.00000000000E+00  0.00000000000E+00  0.89878341818E+03  0.10828576157E+04  0.60396107739E+03 0.  0.
        1    1    3    3  502    0  0.26740650632E+03  0.65633101438E+02  0.22705222271E+03  0.35688465292E+03  0.50400001928E-02 0. -1.
       -1    1    3    3    0  502 -0.26740650632E+03 -0.65633101438E+02  0.67173119548E+03  0.72597296274E+03  0.50400001928E-02 0.  1.
</event>
<event>
 5   0  0.7263385E-02  0.5869507E+03  0.7818609E-02  0.9932855E-01
       -1   -1    0    0    0  501  0.00000000000E+00  0.00000000000E+00  0.50794336351E+03  0.50794336353E+03  0.50400001928E-02 0.  1.
        1   -1    0    0  501    0  0.00000000000E+00  0.00000000000E+00 -0.16956176983E+03  0.16956176991E+03  0.50400001928E-02 0. -1.
    10030    2    1    2    0    0  0.00000000000E+00  0.00000000000E+00  0.33838159368E+03  0.67750513344E+03  0.58695068183E+03 0.  0.
        1    1    3    3  502    0  0.28095258096E+03 -0.62431741834E+02  0.23545589597E+03  0.37184883233E+03  0.50400001928E-02 0. -1.
       -1    1    3    3    0  502 -0.28095258096E+03  0.62431741834E+02  0.10292569771E+03  0.30565630111E+03  0.50400001928E-02 0.  1.
</event>
<event>
 5   0  0.1146468E-01  0.5977145E+03  0.7818609E-02  0.9910159E-01
       -2   -1    0    0    0  501  0.00000000000E+00  0.00000000000E+00  0.85336226767E+03  0.85336226768E+03  0.25500000920E-02 0. -1.
        2   -1    0    0  501    0  0.00000000000E+00  0.00000000000E+00 -0.10466322084E+03  0.10466322087E+03  0.25500000920E-02 0.  1.
    10030    2    1    2    0    0  0.00000000000E+00  0.00000000000E+00  0.74869904684E+03  0.95802548854E+03  0.59771445855E+03 0.  0.
        4    1    3    3  502    0 -0.47162651702E+02 -0.22470104943E+03  0.67716573363E+02  0.23937841285E+03  0.12699999809E+01 0.  1.
       -4    1    3    3    0  502  0.47162651702E+02  0.22470104943E+03  0.68098247347E+03  0.71864707570E+03  0.12699999809E+01 0. -1.
</event>
<event>
 5   0  0.1175861E-01  0.7744754E+03  0.7818609E-02  0.9597716E-01
       -2   -1    0    0    0  501  0.00000000000E+00  0.00000000000E+00  0.16798540549E+03  0.16798540551E+03  0.25500000920E-02 0.  1.
        2   -1    0    0  501    0  0.00000000000E+00  0.00000000000E+00 -0.89265521033E+03  0.89265521033E+03  0.25500000920E-02 0. -1.
    10030    2    1    2    0    0  0.00000000000E+00  0.00000000000E+00 -0.72466980483E+03  0.10606406158E+04  0.77447542888E+03 0.  0.
        3    1    3    3  502    0 -0.15645314429E+03 -0.31324690050E+03 -0.13584241245E+03  0.37557206799E+03  0.10100000352E+00 0. -1.
       -3    1    3    3    0  502  0.15645314429E+03  0.31324690050E+03 -0.58882739238E+03  0.68506854785E+03  0.10100000352E+00 0.  1.
</event>
<event>
 5   0  0.7424930E-02  0.6093007E+03  0.7818609E-02  0.9886296E-01
        1   -1    0    0  501    0  0.00000000000E+00  0.00000000000E+00  0.26574857899E+03  0.26574857904E+03  0.50400001928E-02 0. -1.
       -1   -1    0    0    0  501  0.00000000000E+00  0.00000000000E+00 -0.34924677429E+03  0.34924677433E+03  0.50400001928E-02 0.  1.
    10030    2    1    2    0    0  0.00000000000E+00  0.00000000000E+00 -0.83498195305E+02  0.61499535337E+03  0.60930069428E+03 0.  0.
        3    1    3    3  502    0 -0.12249847928E+02  0.88832972645E+02  0.25212577361E+03  0.26759815344E+03  0.10100000352E+00 0. -1.
       -3    1    3    3    0  502  0.12249847928E+02 -0.88832972645E+02 -0.33562396892E+03  0.34739719993E+03  0.10100000352E+00 0.  1.
</event>
<event>
 5   0  0.7221069E-02  0.5996665E+03  0.7818609E-02  0.9906098E-01
       -1   -1    0    0    0  501  0.00000000000E+00  0.00000000000E+00  0.94684447800E+02  0.94684447934E+02  0.50400001928E-02 0. -1.
        1   -1    0    0  501    0  0.00000000000E+00  0.00000000000E+00 -0.94946928160E+03  0.94946928161E+03  0.50400001928E-02 0.  1.
    10030    2    1    2    0    0  0.00000000000E+00  0.00000000000E+00 -0.85478483379E+03  0.10441537295E+04  0.59966648967E+03 0.  0.
        5    1    3    3  502    0 -0.20626670129E+03 -0.10332969519E+03 -0.76075797092E+03  0.79498286666E+03  0.46999998093E+01 0.  1.
       -5    1    3    3    0  502  0.20626670129E+03  0.10332969519E+03 -0.94026862874E+02  0.24917086288E+03  0.46999998093E+01 0. -1.
</event>
<event>
 5   0  0.4695625E-02  0.6041473E+03  0.7818609E-02  0.9896839E-01
       -3   -1    0    0    0  501  0.00000000000E+00  0.00000000000E+00  0.14717644001E+03  0.14717647467E+03  0.10100000352E+00 0.  1.
        3   -1    0    0  501    0  0.00000000000E+00  0.00000000000E+00 -0.61999372059E+03  0.61999372882E+03  0.10100000352E+00 0. -1.
    10030    2    1    2    0    0  0.00000000000E+00  0.00000000000E+00 -0.47281728058E+03  0.76717020349E+03  0.60414728362E+03 0.  0.
        4    1    3    3  502    0 -0.23386638359E+03  0.57212182807E+02 -0.47537054114E+01  0.24081305997E+03  0.12699999809E+01 0.  1.
       -4    1    3    3    0  502  0.23386638359E+03 -0.57212182807E+02 -0.46806357517E+03  0.52635714352E+03  0.12699999809E+01 0. -1.
</event>
<event>
 5   0  0.7123340E-02  0.5958757E+03  0.7818609E-02  0.9914000E-01
       -1   -1    0    0    0  501  0.00000000000E+00  0.00000000000E+00  0.28188427744E+03  0.28188427748E+03  0.50400001928E-02 0.  1.
        1   -1    0    0  501    0  0.00000000000E+00  0.00000000000E+00 -0.31490569214E+03  0.31490569218E+03  0.50400001928E-02 0. -1.
    10030    2    1    2    0    0  0.00000000000E+00  0.00000000000E+00 -0.33021414700E+02  0.59678996966E+03  0.59587570353E+03 0.  0.
        2    1    3    3  502    0  0.19505770740E+03 -0.21896973304E+03  0.36217105306E+02  0.29547746433E+03  0.25500000920E-02 0. -1.
       -2    1    3    3    0  502 -0.19505770740E+03  0.21896973304E+03 -0.69238520006E+02  0.30131250532E+03  0.25500000920E-02 0.  1.
</event>
<event>
 5   0  0.1206238E-01  0.6246959E+03  0.7818609E-02  0.9855454E-01
        2   -1    0    0  501    0  0.00000000000E+00  0.00000000000E+00  0.59607232396E+03  0.59607232397E+03  0.25500000920E-02 0. -1.
       -2   -1    0    0    0  501  0.00000000000E+00  0.00000000000E+00 -0.16367351721E+03  0.16367351723E+03  0.25500000920E-02 0.  1.
    10030    2    1    2    0    0  0.00000000000E+00  0.00000000000E+00  0.43239880675E+03  0.75974584119E+03  0.62469593814E+03 0.  0.
        5    1    3    3  502    0 -0.21575643034E+03 -0.50402120637E+01  0.49075279508E+03  0.53613117503E+03  0.46999998093E+01 0. -1.
       -5    1    3    3    0  502  0.21575643034E+03  0.50402120637E+01 -0.58353988322E+02  0.22361466616E+03  0.46999998093E+01 0.  1.
</event>
<event>
 5   0  0.1219020E-01  0.5958563E+03  0.7818609E-02  0.9914040E-01
       -2   -1    0    0    0  501  0.00000000000E+00  0.00000000000E+00  0.39239795824E+02  0.39239795907E+02  0.25500000920E-02 0. -1.
        2   -1    0    0  501    0  0.00000000000E+00  0.00000000000E+00 -0.22620193098E+04  0.22620193098E+04  0.25500000920E-02 0.  1.
    10030    2    1    2    0    0  0.00000000000E+00  0.00000000000E+00 -0.22227795140E+04  0.23012591058E+04  0.59585627786E+03 0.  0.
        2    1    3    3  502    0 -0.10658454300E+03 -0.26639222874E+03 -0.80155145110E+03  0.85135762938E+03  0.25500000920E-02 0. -1.
       -2    1    3    3    0  502  0.10658454300E+03  0.26639222874E+03 -0.14212280629E+04  0.14499014764E+04  0.25500000920E-02 0.  1.
</event>
<event>
 5   0  0.1175861E-01  0.5956610E+03  0.7818609E-02  0.9914449E-01
        2   -1    0    0  501    0  0.00000000000E+00  0.00000000000E+00  0.61655172070E+03  0.61655172071E+03  0.25500000920E-02 0.  1.
       -2   -1    0    0    0  501  0.00000000000E+00  0.00000000000E+00 -0.14386954453E+03  0.14386954455E+03  0.25500000920E-02 0. -1.
    10030    2    1    2    0    0  0.00000000000E+00  0.00000000000E+00  0.47268217617E+03  0.76042126526E+03  0.59566102859E+03 0.  0.
        3    1    3    3  502    0 -0.18277574398E+03  0.16025952500E+02 -0.63154981870E+02  0.19404217500E+03  0.10100000352E+00 0. -1.
       -3    1    3    3    0  502  0.18277574398E+03 -0.16025952500E+02  0.53583715804E+03  0.56637909026E+03  0.10100000352E+00 0.  1.
</event>
<event>
 5   0  0.1219020E-01  0.6057598E+03  0.7818609E-02  0.9893528E-01
       -2   -1    0    0    0  501  0.00000000000E+00  0.00000000000E+00  0.59499178125E+02  0.59499178180E+02  0.25500000920E-02 0. -1.
        2   -1    0    0  501    0  0.00000000000E+00  0.00000000000E+00 -0.15418069531E+04  0.15418069531E+04  0.25500000920E-02 0.  1.
    10030    2    1    2    0    0  0.00000000000E+00  0.00000000000E+00 -0.14823077750E+04  0.16013061313E+04  0.60575984213E+03 0.  0.
        2    1    3    3  502    0 -0.19862020173E+03  0.78539607014E+02 -0.17346794323E+03  0.27515374201E+03  0.25500000920E-02 0. -1.
       -2    1    3    3    0  502  0.19862020173E+03 -0.78539607014E+02 -0.13088398318E+04  0.13261523893E+04  0.25500000920E-02 0.  1.
</event>
<event>
 5   0  0.1175861E-01  0.6042379E+03  0.7818609E-02  0.9896653E-01
        2   -1    0    0  501    0  0.00000000000E+00  0.00000000000E+00  0.74592389813E+03  0.74592389814E+03  0.25500000920E-02 0.  1.
       -2   -1    0    0    0  501  0.00000000000E+00  0.00000000000E+00 -0.12236618401E+03  0.12236618404E+03  0.25500000920E-02 0. -1.
    10030    2    1    2    0    0  0.00000000000E+00  0.00000000000E+00  0.62355771412E+03  0.86829008217E+03  0.60423790344E+03 0.  0.
        3    1    3    3  502    0  0.79891230353E+02 -0.28454560821E+03  0.22172766213E+03  0.36947527413E+03  0.10100000352E+00 0. -1.
       -3    1    3    3    0  502 -0.79891230353E+02  0.28454560821E+03  0.40183005199E+03  0.49881480804E+03  0.10100000352E+00 0.  1.
</event>
<event>
 5   0  0.1206238E-01  0.5761313E+03  0.7818609E-02  0.9956202E-01
       -2   -1    0    0    0  501  0.00000000000E+00  0.00000000000E+00  0.81399912994E+02  0.81399913034E+02  0.25500000920E-02 0.  1.
        2   -1    0    0  501    0  0.00000000000E+00  0.00000000000E+00 -0.10194336473E+04  0.10194336473E+04  0.25500000920E-02 0. -1.
    10030    2    1    2    0    0  0.00000000000E+00  0.00000000000E+00 -0.93803373428E+03  0.11008335603E+04  0.57613127051E+03 0.  0.
        5    1    3    3  502    0  0.22861492520E+03  0.16652638300E+03 -0.36499324225E+03  0.46177697771E+03  0.46999998093E+01 0.  1.
       -5    1    3    3    0  502 -0.22861492520E+03 -0.16652638300E+03 -0.57304049203E+03  0.63905658260E+03  0.46999998093E+01 0. -1.
</event>
<event>
 5   0  0.1146468E-01  0.6207497E+03  0.7818609E-02  0.9863268E-01
        2   -1    0    0  501    0  0.00000000000E+00  0.00000000000E+00  0.35365451500E+03  0.35365451501E+03  0.25500000920E-02 0. -1.
       -2   -1    0    0    0  501  0.00000000000E+00  0.00000000000E+00 -0.27239169653E+03  0.27239169654E+03  0.25500000920E-02 0.  1.
    10030    2    1    2    0    0  0.00000000000E+00  0.00000000000E+00  0.81262818470E+02  0.62604621155E+03  0.62074971875E+03 0.  0.
        4    1    3    3  502    0 -0.11087950410E+01  0.10468620579E+03  0.33530675145E+03  0.35127291609E+03  0.12699999809E+01 0. -1.
       -4    1    3    3    0  502  0.11087950410E+01 -0.10468620579E+03 -0.25404393298E+03  0.27477329546E+03  0.12699999809E+01 0.  1.
</event>
<event>
 5   0  0.1146468E-01  0.6072032E+03  0.7818609E-02  0.9890573E-01
        2   -1    0    0  501    0  0.00000000000E+00  0.00000000000E+00  0.43410617515E+03  0.43410617516E+03  0.25500000920E-02 0.  1.
       -2   -1    0    0    0  501  0.00000000000E+00  0.00000000000E+00 -0.21233041625E+03  0.21233041627E+03  0.25500000920E-02 0. -1.
    10030    2    1    2    0    0  0.00000000000E+00  0.00000000000E+00  0.22177575890E+03  0.64643659142E+03  0.60720324398E+03 0.  0.
        4    1    3    3  502    0  0.47342189043E+02  0.23378067376E+03 -0.89071437957E+02  0.25461739973E+03  0.12699999809E+01 0. -1.
       -4    1    3    3    0  502 -0.47342189043E+02 -0.23378067376E+03  0.31084719686E+03  0.39181919169E+03  0.12699999809E+01 0.  1.
</event>
<event>
 5   0  0.7263385E-02  0.6004198E+03  0.7818609E-02  0.9904536E-01
       -1   -1    0    0    0  501  0.00000000000E+00  0.00000000000E+00  0.61267972721E+02  0.61267972928E+02  0.50400001928E-02 0.  1.
        1   -1    0    0  501    0  0.00000000000E+00  0.00000000000E+00 -0.14710128660E+04  0.14710128660E+04  0.50400001928E-02 0. -1.
    10030    2    1    2    0    0  0.00000000000E+00  0.00000000000E+00 -0.14097448932E+04  0.15322808389E+04  0.60041977419E+03 0.  0.
        1    1    3    3  502    0  0.12109744193E+03  0.21108239332E+03 -0.11535166257E+04  0.11789066854E+04  0.50400001928E-02 0. -1.
       -1    1    3    3    0  502 -0.12109744193E+03 -0.21108239332E+03 -0.25622826754E+03  0.35337415345E+03  0.50400001928E-02 0.  1.
</event>
<event>
 5   0  0.1219020E-01  0.6795444E+03  0.7818609E-02  0.9752868E-01
        2   -1    0    0  501    0  0.00000000000E+00  0.00000000000E+00  0.49786960065E+03  0.49786960066E+03  0.25500000920E-02 0.  1.
       -2   -1    0    0    0  501  0.00000000000E+00  0.00000000000E+00 -0.23187827476E+03  0.23187827477E+03  0.25500000920E-02 0. -1.
    10030    2    1    2    0    0  0.00000000000E+00  0.00000000000E+00  0.26599132590E+03  0.72974787543E+03  0.67954438872E+03 0.  0.
        2    1    3    3  502    0 -0.24540678242E+03  0.20266715485E+03  0.52687939088E+01  0.31831780457E+03  0.25500000920E-02 0.  1.
       -2    1    3    3    0  502  0.24540678242E+03 -0.20266715485E+03  0.26072253199E+03  0.41143007086E+03  0.25500000920E-02 0. -1.
</event>
<event>
 5   0  0.7221069E-02  0.7027840E+03  0.7818609E-02  0.9712483E-01
       -1   -1    0    0    0  501  0.00000000000E+00  0.00000000000E+00  0.40285093518E+03  0.40285093521E+03  0.50400001928E-02 0. -1.
        1   -1    0    0  501    0  0.00000000000E+00  0.00000000000E+00 -0.30650623606E+03  0.30650623610E+03  0.50400001928E-02 0.  1.
    10030    2    1    2    0    0  0.00000000000E+00  0.00000000000E+00  0.96344699121E+02  0.70935717131E+03  0.70278396071E+03 0.  0.
        5    1    3    3  502    0  0.13792411953E+03 -0.30016911943E+03 -0.72653881802E+02  0.33826799959E+03  0.46999998093E+01 0.  1.
       -5    1    3    3    0  502 -0.13792411953E+03  0.30016911943E+03  0.16899858092E+03  0.37108917171E+03  0.46999998093E+01 0. -1.
</event>
<event>
 5   0  0.7266519E-02  0.5910884E+03  0.7818609E-02  0.9924069E-01
       -1   -1    0    0    0  501  0.00000000000E+00  0.00000000000E+00  0.67490711931E+02  0.67490712119E+02  0.50400001928E-02 0.  1.
        1   -1    0    0  501    0  0.00000000000E+00  0.00000000000E+00 -0.12941986021E+04  0.12941986021E+04  0.50400001928E-02 0. -1.
    10030    2    1    2    0    0  0.00000000000E+00  0.00000000000E+00 -0.12267078902E+04  0.13616893143E+04  0.59108843728E+03 0.  0.
        4    1    3    3  502    0 -0.16851612165E+03  0.33631911881E+02 -0.11672771060E+04  0.11798585694E+04  0.12699999809E+01 0. -1.
       -4    1    3    3    0  502  0.16851612165E+03 -0.33631911881E+02 -0.59430784186E+02  0.18183074482E+03  0.12699999809E+01 0.  1.
</event>
<event>
 5   0  0.7221069E-02  0.5744754E+03  0.7818609E-02  0.9959824E-01
        1   -1    0    0  501    0  0.00000000000E+00  0.00000000000E+00  0.73942468083E+03  0.73942468085E+03  0.50400001928E-02 0.  1.
       -1   -1    0    0    0  501  0.00000000000E+00  0.00000000000E+00 -0.11158065377E+03  0.11158065389E+03  0.50400001928E-02 0. -1.
    10030    2    1    2    0    0  0.00000000000E+00  0.00000000000E+00  0.62784402706E+03  0.85100533473E+03  0.57447537583E+03 0.  0.
        5    1    3    3  502    0 -0.11733645703E+03  0.90651933588E+02 -0.50437900963E+02  0.15668978609E+03  0.46999998093E+01 0. -1.
       -5    1    3    3    0  502  0.11733645703E+03 -0.90651933588E+02  0.67828192802E+03  0.69431554865E+03  0.46999998093E+01 0.  1.
</event>
<event>
 5   0  0.1166419E-01  0.5936452E+03  0.7818609E-02  0.9918679E-01
        2   -1    0    0  501    0  0.00000000000E+00  0.00000000000E+00  0.72458986113E+03  0.72458986114E+03  0.25500000920E-02 0. -1.
       -2   -1    0    0    0  501  0.00000000000E+00  0.00000000000E+00 -0.12159106427E+03  0.12159106430E+03  0.25500000920E-02 0.  1.
    10030    2    1    2    0    0  0.00000000000E+00  0.00000000000E+00  0.60299879686E+03  0.84618092543E+03  0.59364518826E+03 0.  0.
        1    1    3    3  502    0 -0.19816981177E+03 -0.57306907704E+02 -0.27098045618E+01  0.20630729273E+03  0.50400001928E-02 0. -1.
       -1    1    3    3    0  502  0.19816981177E+03  0.57306907704E+02  0.60570860143E+03  0.63987363271E+03  0.50400001928E-02 0.  1.
</event>
<event>
 5   0  0.1175861E-01  0.6056100E+03  0.7818609E-02  0.9893835E-01
       -2   -1    0    0    0  501  0.00000000000E+00  0.00000000000E+00  0.49693061345E+02  0.49693061410E+02  0.25500000920E-02 0.  1.
        2   -1    0    0  501    0  0.00000000000E+00  0.00000000000E+00 -0.18451445071E+04  0.18451445071E+04  0.25500000920E-02 0. -1.
    10030    2    1    2    0    0  0.00000000000E+00  0.00000000000E+00 -0.17954514458E+04  0.18948375685E+04  0.60561003706E+03 0.  0.
        3    1    3    3  502    0  0.26296291730E+03  0.13492381123E+03 -0.11037747394E+04  0.11426603241E+04  0.10100000352E+00 0. -1.
       -3    1    3    3    0  502 -0.26296291730E+03 -0.13492381123E+03 -0.69167670635E+03  0.75217724442E+03  0.10100000352E+00 0.  1.
</event>
<event>
 5   0  0.1206238E-01  0.5825816E+03  0.7818609E-02  0.9942218E-01
        2   -1    0    0  501    0  0.00000000000E+00  0.00000000000E+00  0.19126949039E+03  0.19126949040E+03  0.25500000920E-02 0.  1.
       -2   -1    0    0    0  501  0.00000000000E+00  0.00000000000E+00 -0.44361659357E+03  0.44361659357E+03  0.25500000920E-02 0. -1.
    10030    2    1    2    0    0  0.00000000000E+00  0.00000000000E+00 -0.25234710318E+03  0.63488608398E+03  0.58258156437E+03 0.  0.
        5    1    3    3  502    0  0.72300774814E+02 -0.15748109435E+03  0.12893878499E+03  0.21604397096E+03  0.46999998093E+01 0.  1.
       -5    1    3    3    0  502 -0.72300774814E+02  0.15748109435E+03 -0.38128588817E+03  0.41884211301E+03  0.46999998093E+01 0. -1.
</event>
<event>
 5   0  0.7221069E-02  0.5983361E+03  0.7818609E-02  0.9908864E-01
        1   -1    0    0  501    0  0.00000000000E+00  0.00000000000E+00  0.40417199836E+03  0.40417199839E+03  0.50400001928E-02 0. -1.
       -1   -1    0    0    0  501  0.00000000000E+00  0.00000000000E+00 -0.22144417939E+03  0.22144417945E+03  0.50400001928E-02 0.  1.
    10030    2    1    2    0    0  0.00000000000E+00  0.00000000000E+00  0.18272781897E+03  0.62561617784E+03  0.59833614812E+03 0.  0.
        5    1    3    3  502    0 -0.25501862861E+03  0.15016952566E+03  0.45858869532E+02  0.29951713354E+03  0.46999998093E+01 0. -1.
       -5    1    3    3    0  502  0.25501862861E+03 -0.15016952566E+03  0.13686894944E+03  0.32609904430E+03  0.46999998093E+01 0.  1.
</event>
<event>
 5   0  0.1175861E-01  0.6016091E+03  0.7818609E-02  0.9902073E-01
       -2   -1    0    0    0  501  0.00000000000E+00  0.00000000000E+00  0.10489426437E+03  0.10489426440E+03  0.25500000920E-02 0.  1.
        2   -1    0    0  501    0  0.00000000000E+00  0.00000000000E+00 -0.86261505484E+03  0.86261505485E+03  0.25500000920E-02 0. -1.
    10030    2    1    2    0    0  0.00000000000E+00  0.00000000000E+00 -0.75772079047E+03  0.96750931924E+03  0.60160908114E+03 0.  0.
        3    1    3    3  502    0  0.93649096883E+02  0.19303415983E+03 -0.71792436714E+03  0.74929816985E+03  0.10100000352E+00 0. -1.
       -3    1    3    3    0  502 -0.93649096883E+02 -0.19303415983E+03 -0.39796423335E+02  0.21821114939E+03  0.10100000352E+00 0.  1.
</event>
<event>
 5   0  0.1146468E-01  0.6033692E+03  0.7818609E-02  0.9898441E-01
       -2   -1    0    0    0  501  0.00000000000E+00  0.00000000000E+00  0.42538582506E+03  0.42538582507E+03  0.25500000920E-02 0. -1.
        2   -1    0    0  501    0  0.00000000000E+00  0.00000000000E+00 -0.21395543537E+03  0.21395543539E+03  0.25500000920E-02 0.  1.
    10030    2    1    2    0    0  0.00000000000E+00  0.00000000000E+00  0.21143038969E+03  0.63934126046E+03  0.60336923823E+03 0.  0.
        4    1    3    3  502    0 -0.24377255969E+03  0.57874202904E+02 -0.72343335615E+02  0.26078660880E+03  0.12699999809E+01 0.  1.
       -4    1    3    3    0  502  0.24377255969E+03 -0.57874202904E+02  0.28377372531E+03  0.37855465166E+03  0.12699999809E+01 0. -1.
</event>
<event>
 5   0  0.1206238E-01  0.5962846E+03  0.7818609E-02  0.9913145E-01
        2   -1    0    0  501    0  0.00000000000E+00  0.00000000000E+00  0.10510985709E+03  0.10510985712E+03  0.25500000920E-02 0. -1.
       -2   -1    0    0    0  501  0.00000000000E+00  0.00000000000E+00 -0.84567537162E+03  0.84567537162E+03  0.25500000920E-02 0.  1.
    10030    2    1    2    0    0  0.00000000000E+00  0.00000000000E+00 -0.74056551453E+03  0.95078522874E+03  0.59628455446E+03 0.  0.
        5    1    3    3  502    0  0.15895642606E+03 -0.17915316843E+03 -0.65329799266E+03  0.69583285375E+03  0.46999998093E+01 0.  1.
       -5    1    3    3    0  502 -0.15895642606E+03  0.17915316843E+03 -0.87267521867E+02  0.25495237499E+03  0.46999998093E+01 0. -1.
</event>
<event>
 5   0  0.7221069E-02  0.6306068E+03  0.7818609E-02  0.9843865E-01
       -1   -1    0    0    0  501  0.00000000000E+00  0.00000000000E+00  0.16247935705E+03  0.16247935713E+03  0.50400001928E-02 0.  1.
        1   -1    0    0  501    0  0.00000000000E+00  0.00000000000E+00 -0.61186995291E+03  0.61186995293E+03  0.50400001928E-02 0. -1.
    10030    2    1    2    0    0  0.00000000000E+00  0.00000000000E+00 -0.44939059586E+03  0.77434931007E+03  0.63060680805E+03 0.  0.
        5    1    3    3  502    0  0.14730932560E+03  0.12782445998E+03  0.79465542591E+02  0.21065609993E+03  0.46999998093E+01 0.  1.
       -5    1    3    3    0  502 -0.14730932560E+03 -0.12782445998E+03 -0.52885613845E+03  0.56369321014E+03  0.46999998093E+01 0. -1.
</event>
<event>
 5   0  0.1175861E-01  0.5997325E+03  0.7818609E-02  0.9905961E-01
        2   -1    0    0  501    0  0.00000000000E+00  0.00000000000E+00  0.63704312787E+03  0.63704312788E+03  0.25500000920E-02 0.  1.
       -2   -1    0    0    0  501  0.00000000000E+00  0.00000000000E+00 -0.14115177085E+03  0.14115177087E+03  0.25500000920E-02 0. -1.
    10030    2    1    2    0    0  0.00000000000E+00  0.00000000000E+00  0.49589135702E+03  0.77819489875E+03  0.59973249243E+03 0.  0.
        3    1    3    3  502    0  0.80757913025E+02  0.16361143845E+03 -0.60835670647E+02  0.19233182870E+03  0.10100000352E+00 0. -1.
       -3    1    3    3    0  502 -0.80757913025E+02 -0.16361143845E+03  0.55672702767E+03  0.58586307005E+03  0.10100000352E+00 0.  1.
</event>
<event>
 5   0  0.1166419E-01  0.5893828E+03  0.7818609E-02  0.9927681E-01
       -2   -1    0    0    0  501  0.00000000000E+00  0.00000000000E+00  0.16913885247E+03  0.16913885249E+03  0.25500000920E-02 0.  1.
        2   -1    0    0  501    0  0.00000000000E+00  0.00000000000E+00 -0.51344222542E+03  0.51344222543E+03  0.25500000920E-02 0. -1.
    10030    2    1    2    0    0  0.00000000000E+00  0.00000000000E+00 -0.34430337295E+03  0.68258107791E+03  0.58938282576E+03 0.  0.
        1    1    3    3  502    0  0.17718043226E+03 -0.67515584591E+02 -0.43341627026E+03  0.47307602253E+03  0.50400001928E-02 0. -1.
       -1    1    3    3    0  502 -0.17718043226E+03  0.67515584591E+02  0.89112897309E+02  0.20950505538E+03  0.50400001928E-02 0.  1.
</event>
<event>
 5   0  0.1146468E-01  0.5911852E+03  0.7818609E-02  0.9923865E-01
        2   -1    0    0  501    0  0.00000000000E+00  0.00000000000E+00  0.13037763614E+04  0.13037763614E+04  0.25500000920E-02 0. -1.
       -2   -1    0    0    0  501  0.00000000000E+00  0.00000000000E+00 -0.67016846623E+02  0.67016846672E+02  0.25500000920E-02 0.  1.
    10030    2    1    2    0    0  0.00000000000E+00  0.00000000000E+00  0.12367595148E+04  0.13707932081E+04  0.59118518411E+03 0.  0.
        4    1    3    3  502    0 -0.24888746345E+03  0.97935974230E+02  0.32658056862E+03  0.42212901489E+03  0.12699999809E+01 0.  1.
       -4    1    3    3    0  502  0.24888746345E+03 -0.97935974230E+02  0.91017894615E+03  0.94866419318E+03  0.12699999809E+01 0. -1.
</event>
<event>
 5   0  0.1166419E-01  0.6043198E+03  0.7818609E-02  0.9896484E-01
        2   -1    0    0  501    0  0.00000000000E+00  0.00000000000E+00  0.41073566194E+03  0.41073566195E+03  0.25500000920E-02 0. -1.
       -2   -1    0    0    0  501  0.00000000000E+00  0.00000000000E+00 -0.22228555651E+03  0.22228555652E+03  0.25500000920E-02 0.  1.
    10030    2    1    2    0    0  0.00000000000E+00  0.00000000000E+00  0.18845010543E+03  0.63302121847E+03  0.60431980010E+03 0.  0.
        1    1    3    3  502    0 -0.21835672891E+03  0.17648158920E+03 -0.22772041758E+02  0.28168063175E+03  0.50400001928E-02 0. -1.
       -1    1    3    3    0  502  0.21835672891E+03 -0.17648158920E+03  0.21122214719E+03  0.35134058672E+03  0.50400001928E-02 0.  1.
</event>
<event>
 5   0  0.1175861E-01  0.5665276E+03  0.7818609E-02  0.9977392E-01
       -2   -1    0    0    0  501  0.00000000000E+00  0.00000000000E+00  0.74525049285E+02  0.74525049329E+02  0.25500000920E-02 0.  1.
        2   -1    0    0  501    0  0.00000000000E+00  0.00000000000E+00 -0.10766632389E+04  0.10766632389E+04  0.25500000920E-02 0. -1.
    10030    2    1    2    0    0  0.00000000000E+00  0.00000000000E+00 -0.10021381896E+04  0.11511882882E+04  0.56652760204E+03 0.  0.
        3    1    3    3  502    0  0.85905151194E+02  0.58449310853E+02 -0.10365420056E+04  0.10417367021E+04  0.10100000352E+00 0. -1.
       -3    1    3    3    0  502 -0.85905151194E+02 -0.58449310853E+02  0.34403816017E+02  0.10945158609E+03  0.10100000352E+00 0.  1.
</event>
<event>
 5   0  0.1219020E-01  0.5921056E+03  0.7818609E-02  0.9921921E-01
       -2   -1    0    0    0  501  0.00000000000E+00  0.00000000000E+00  0.35996717051E+02  0.35996717142E+02  0.25500000920E-02 0. -1.
        2   -1    0    0  501    0  0.00000000000E+00  0.00000000000E+00 -0.24348682095E+04  0.24348682095E+04  0.25500000920E-02 0.  1.
    10030    2    1    2    0    0  0.00000000000E+00  0.00000000000E+00 -0.23988714925E+04  0.24708649267E+04  0.59210560581E+03 0.  0.
        2    1    3    3  502    0 -0.18823151196E+03 -0.16548656058E+03 -0.54186675534E+03  0.59702301830E+03  0.25500000920E-02 0. -1.
       -2    1    3    3    0  502  0.18823151196E+03  0.16548656058E+03 -0.18570047371E+04  0.18738419084E+04  0.25500000920E-02 0.  1.
</event>
<event>
 5   0  0.1166419E-01  0.6055739E+03  0.7818609E-02  0.9893909E-01
        2   -1    0    0  501    0  0.00000000000E+00  0.00000000000E+00  0.49123067064E+03  0.49123067065E+03  0.25500000920E-02 0. -1.
       -2   -1    0    0    0  501  0.00000000000E+00  0.00000000000E+00 -0.18663316049E+03  0.18663316051E+03  0.25500000920E-02 0.  1.
    10030    2    1    2    0    0  0.00000000000E+00  0.00000000000E+00  0.30459751015E+03  0.67786383116E+03  0.60557388517E+03 0.  0.
        1    1    3    3  502    0  0.12149636083E+03  0.21384337824E+03  0.34998664331E+03  0.42776279249E+03  0.50400001928E-02 0. -1.
       -1    1    3    3    0  502 -0.12149636083E+03 -0.21384337824E+03 -0.45389133162E+02  0.25010103867E+03  0.50400001928E-02 0.  1.
</event>
<event>
 5   0  0.1219020E-01  0.5711332E+03  0.7818609E-02  0.9967174E-01
       -2   -1    0    0    0  501  0.00000000000E+00  0.00000000000E+00  0.21330554559E+03  0.21330554561E+03  0.25500000920E-02 0. -1.
        2   -1    0    0  501    0  0.00000000000E+00  0.00000000000E+00 -0.38230738146E+03  0.38230738147E+03  0.25500000920E-02 0.  1.
    10030    2    1    2    0    0  0.00000000000E+00  0.00000000000E+00 -0.16900183587E+03  0.59561292708E+03  0.57113320546E+03 0.  0.
        2    1    3    3  502    0  0.20368722676E+03  0.84790806763E+02  0.10457170664E+03  0.24415816409E+03  0.25500000920E-02 0. -1.
       -2    1    3    3    0  502 -0.20368722676E+03 -0.84790806763E+02 -0.27357354251E+03  0.35145476299E+03  0.25500000920E-02 0.  1.
</event>
<event>
 5   0  0.7263385E-02  0.6055074E+03  0.7818609E-02  0.9894045E-01
       -1   -1    0    0    0  501  0.00000000000E+00  0.00000000000E+00  0.19498771334E+03  0.19498771340E+03  0.50400001928E-02 0.  1.
        1   -1    0    0  501    0  0.00000000000E+00  0.00000000000E+00 -0.47007987004E+03  0.47007987007E+03  0.50400001928E-02 0. -1.
    10030    2    1    2    0    0  0.00000000000E+00  0.00000000000E+00 -0.27509215671E+03  0.66506758347E+03  0.60550738716E+03 0.  0.
        1    1    3    3  502    0 -0.10619494917E+03  0.85440666921E+02 -0.43447500567E+03  0.45535261652E+03  0.50400001928E-02 0. -1.
       -1    1    3    3    0  502  0.10619494917E+03 -0.85440666921E+02  0.15938284896E+03  0.20971496695E+03  0.50400001928E-02 0.  1.
</event>
<event>
 5   0  0.7123340E-02  0.6000619E+03  0.7818609E-02  0.9905278E-01
        1   -1    0    0  501    0  0.00000000000E+00  0.00000000000E+00  0.10934720028E+04  0.10934720028E+04  0.50400001928E-02 0.  1.
       -1   -1    0    0    0  501  0.00000000000E+00  0.00000000000E+00 -0.82323611148E+02  0.82323611302E+02  0.50400001928E-02 0. -1.
    10030    2    1    2    0    0  0.00000000000E+00  0.00000000000E+00  0.10111483917E+04  0.11757956141E+04  0.60006187700E+03 0.  0.
        2    1    3    3  502    0 -0.12155796501E+02 -0.20505140913E+03  0.93408523938E+03  0.95640424414E+03  0.25500000920E-02 0.  1.
       -2    1    3    3    0  502  0.12155796501E+02  0.20505140913E+03  0.77063152278E+02  0.21939136998E+03  0.25500000920E-02 0. -1.
</event>
<event>
 5   0  0.7266519E-02  0.5947279E+03  0.7818609E-02  0.9916405E-01
       -1   -1    0    0    0  501  0.00000000000E+00  0.00000000000E+00  0.12807100759E+03  0.12807100769E+03  0.50400001928E-02 0.  1.
        1   -1    0    0  501    0  0.00000000000E+00  0.00000000000E+00 -0.69043982155E+03  0.69043982157E+03  0.50400001928E-02 0. -1.
    10030    2    1    2    0    0  0.00000000000E+00  0.00000000000E+00 -0.56236881396E+03  0.81851082926E+03  0.59472791653E+03 0.  0.
        4    1    3    3  502    0 -0.21092196074E+03  0.18448073207E+03 -0.41813958575E+03  0.50335230217E+03  0.12699999809E+01 0. -1.
       -4    1    3    3    0  502  0.21092196074E+03 -0.18448073207E+03 -0.14422922820E+03  0.31515852709E+03  0.12699999809E+01 0.  1.
</event>
<event>
 5   0  0.7221069E-02  0.6032637E+03  0.7818609E-02  0.9898658E-01
        1   -1    0    0  501    0  0.00000000000E+00  0.00000000000E+00  0.52606523155E+02  0.52606523397E+02  0.50400001928E-02 0. -1.
       -1   -1    0    0    0  501  0.00000000000E+00  0.00000000000E+00 -0.17294767440E+04  0.17294767440E+04  0.50400001928E-02 0.  1.
    10030    2    1    2    0    0  0.00000000000E+00  0.00000000000E+00 -0.16768702208E+04  0.17820832674E+04  0.60326365248E+03 0.  0.
        5    1    3    3  502    0  0.41319650144E+02 -0.61474094989E+02  0.25211445882E+02  0.78384212980E+02  0.46999998093E+01 0. -1.
       -5    1    3    3    0  502 -0.41319650144E+02  0.61474094989E+02 -0.17020816667E+04  0.17036990544E+04  0.46999998093E+01 0.  1.
</event>
<event>
 5   0  0.1175861E-01  0.5779231E+03  0.7818609E-02  0.9952298E-01
        2   -1    0    0  501    0  0.00000000000E+00  0.00000000000E+00  0.64367917020E+03  0.64367917020E+03  0.25500000920E-02 0. -1.
       -2   -1    0    0    0  501  0.00000000000E+00  0.00000000000E+00 -0.12972110486E+03  0.12972110489E+03  0.25500000920E-02 0.  1.
    10030    2    1    2    0    0  0.00000000000E+00  0.00000000000E+00  0.51395806534E+03  0.77340027509E+03  0.57792308535E+03 0.  0.
        3    1    3    3  502    0 -0.36852243606E+02 -0.26624643782E+03  0.39894304623E+03  0.48104138891E+03  0.10100000352E+00 0.  1.
       -3    1    3    3    0  502  0.36852243606E+02  0.26624643782E+03  0.11501501911E+03  0.29235888618E+03  0.10100000352E+00 0. -1.
</event>
<event>
 5   0  0.4695625E-02  0.5880660E+03  0.7818609E-02  0.9930479E-01
       -3   -1    0    0    0  501  0.00000000000E+00  0.00000000000E+00  0.98552389572E+02  0.98552441326E+02  0.10100000352E+00 0.  1.
        3   -1    0    0  501    0  0.00000000000E+00  0.00000000000E+00 -0.87725299979E+03  0.87725300561E+03  0.10100000352E+00 0. -1.
    10030    2    1    2    0    0  0.00000000000E+00  0.00000000000E+00 -0.77870061022E+03  0.97580544693E+03  0.58806600812E+03 0.  0.
        4    1    3    3  502    0 -0.39447873846E+02 -0.35970512260E+02 -0.86913912482E+03  0.87077806800E+03  0.12699999809E+01 0. -1.
       -4    1    3    3    0  502  0.39447873846E+02  0.35970512260E+02  0.90438514602E+02  0.10502737894E+03  0.12699999809E+01 0.  1.
</event>
<event>
 5   0  0.1175861E-01  0.6041342E+03  0.7818609E-02  0.9896866E-01
       -2   -1    0    0    0  501  0.00000000000E+00  0.00000000000E+00  0.11470752752E+03  0.11470752755E+03  0.25500000920E-02 0.  1.
        2   -1    0    0  501    0  0.00000000000E+00  0.00000000000E+00 -0.79545385599E+03  0.79545385600E+03  0.25500000920E-02 0. -1.
    10030    2    1    2    0    0  0.00000000000E+00  0.00000000000E+00 -0.68074632847E+03  0.91016138355E+03  0.60413424037E+03 0.  0.
        3    1    3    3  502    0  0.19942590274E+03  0.61293389125E+02 -0.66946822130E+03  0.70122412948E+03  0.10100000352E+00 0. -1.
       -3    1    3    3    0  502 -0.19942590274E+03 -0.61293389125E+02 -0.11278107169E+02  0.20893725407E+03  0.10100000352E+00 0.  1.
</event>
<event>
 5   0  0.7424930E-02  0.5970455E+03  0.7818609E-02  0.9911555E-01
       -1   -1    0    0    0  501  0.00000000000E+00  0.00000000000E+00  0.79222614173E+02  0.79222614334E+02  0.50400001928E-02 0.  1.
        1   -1    0    0  501    0  0.00000000000E+00  0.00000000000E+00 -0.11248786691E+04  0.11248786691E+04  0.50400001928E-02 0. -1.
    10030    2    1    2    0    0  0.00000000000E+00  0.00000000000E+00 -0.10456560549E+04  0.12041012834E+04  0.59704548871E+03 0.  0.
        3    1    3    3  502    0 -0.17715204706E+03 -0.17517301142E+03 -0.85450724146E+03  0.89008486540E+03  0.10100000352E+00 0. -1.
       -3    1    3    3    0  502  0.17715204706E+03  0.17517301142E+03 -0.19114881345E+03  0.31401641803E+03  0.10100000352E+00 0.  1.
</event>
<event>
 5   0  0.7123340E-02  0.5875823E+03  0.7818609E-02  0.9931509E-01
       -1   -1    0    0    0  501  0.00000000000E+00  0.00000000000E+00  0.45246460181E+03  0.45246460184E+03  0.50400001928E-02 0. -1.
        1   -1    0    0  501    0  0.00000000000E+00  0.00000000000E+00 -0.19076244608E+03  0.19076244615E+03  0.50400001928E-02 0.  1.
    10030    2    1    2    0    0  0.00000000000E+00  0.00000000000E+00  0.26170215574E+03  0.64322704799E+03  0.58758234908E+03 0.  0.
        2    1    3    3  502    0  0.24746570371E+03 -0.87854860606E+02  0.27506731575E+03  0.38028907326E+03  0.25500000920E-02 0. -1.
       -2    1    3    3    0  502 -0.24746570371E+03  0.87854860606E+02 -0.13365160016E+02  0.26293797472E+03  0.25500000920E-02 0.  1.
</event>
<event>
 5   0  0.7221069E-02  0.5885702E+03  0.7818609E-02  0.9929407E-01
        1   -1    0    0  501    0  0.00000000000E+00  0.00000000000E+00  0.88055652105E+03  0.88055652107E+03  0.50400001928E-02 0. -1.
       -1   -1    0    0    0  501  0.00000000000E+00  0.00000000000E+00 -0.98351132693E+02  0.98351132822E+02  0.50400001928E-02 0.  1.
    10030    2    1    2    0    0  0.00000000000E+00  0.00000000000E+00  0.78220538836E+03  0.97890765389E+03  0.58857023817E+03 0.  0.
        5    1    3    3  502    0  0.48300625873E+02 -0.10154790343E+03 -0.61142020056E+02  0.12808342502E+03  0.46999998093E+01 0.  1.
       -5    1    3    3    0  502 -0.48300625873E+02  0.10154790343E+03  0.84334740841E+03  0.85082422887E+03  0.46999998093E+01 0. -1.
</event>
<event>
 5   0  0.1146468E-01  0.6038223E+03  0.7818609E-02  0.9897508E-01
       -2   -1    0    0    0  501  0.00000000000E+00  0.00000000000E+00  0.10693487872E+03  0.10693487875E+03  0.25500000920E-02 0. -1.
        2   -1    0    0  501    0  0.00000000000E+00  0.00000000000E+00 -0.85239099587E+03  0.85239099587E+03  0.25500000920E-02 0.  1.
    10030    2    1    2    0    0  0.00000000000E+00  0.00000000000E+00 -0.74545611715E+03  0.95932587462E+03  0.60382225127E+03 0.  0.
        4    1    3    3  502    0 -0.25376766263E+03 -0.82741429165E+01 -0.63224641453E+03  0.68132490753E+03  0.12699999809E+01 0.  1.
       -4    1    3    3    0  502  0.25376766263E+03  0.82741429165E+01 -0.11320970261E+03  0.27800096709E+03  0.12699999809E+01 0. -1.
</event>
<event>
 5   0  0.1146468E-01  0.6069922E+03  0.7818609E-02  0.9891005E-01
        2   -1    0    0  501    0  0.00000000000E+00  0.00000000000E+00  0.40379644321E+03  0.40379644322E+03  0.25500000920E-02 0.  1.
       -2   -1    0    0    0  501  0.00000000000E+00  0.00000000000E+00 -0.22810968219E+03  0.22810968220E+03  0.25500000920E-02 0. -1.
    10030    2    1    2    0    0  0.00000000000E+00  0.00000000000E+00  0.17568676102E+03  0.63190612542E+03  0.60699218557E+03 0.  0.
        4    1    3    3  502    0  0.29575811424E+03  0.65763388503E+02  0.10619000733E+03  0.32105391442E+03  0.12699999809E+01 0. -1.
       -4    1    3    3    0  502 -0.29575811424E+03 -0.65763388503E+02  0.69496753696E+02  0.31085221100E+03  0.12699999809E+01 0.  1.
</event>
<event>
 5   0  0.1175861E-01  0.5651504E+03  0.7818609E-02  0.9980468E-01
        2   -1    0    0  501    0  0.00000000000E+00  0.00000000000E+00  0.68954577275E+03  0.68954577275E+03  0.25500000920E-02 0.  1.
       -2   -1    0    0    0  501  0.00000000000E+00  0.00000000000E+00 -0.11579902856E+03  0.11579902859E+03  0.25500000920E-02 0. -1.
    10030    2    1    2    0    0  0.00000000000E+00  0.00000000000E+00  0.57374674419E+03  0.80534480134E+03  0.56515035396E+03 0.  0.
        3    1    3    3  502    0 -0.68216376130E+01 -0.17769760777E+03  0.59981067295E+03  0.62561635859E+03  0.10100000352E+00 0.  1.
       -3    1    3    3    0  502  0.68216376130E+01  0.17769760777E+03 -0.26063928765E+02  0.17972844275E+03  0.10100000352E+00 0. -1.
</event>
<event>
 5   0  0.7263385E-02  0.6065124E+03  0.7818609E-02  0.9891986E-01
       -1   -1    0    0    0  501  0.00000000000E+00  0.00000000000E+00  0.11760097483E+04  0.11760097483E+04  0.50400001928E-02 0.  1.
        1   -1    0    0  501    0  0.00000000000E+00  0.00000000000E+00 -0.78200297541E+02  0.78200297703E+02  0.50400001928E-02 0. -1.
    10030    2    1    2    0    0  0.00000000000E+00  0.00000000000E+00  0.10978094507E+04  0.12542100460E+04  0.60651236536E+03 0.  0.
        1    1    3    3  502    0  0.23602662198E+03  0.82412943811E+02  0.90386142933E+03  0.93779845545E+03  0.50400001928E-02 0.  1.
       -1    1    3    3    0  502 -0.23602662198E+03 -0.82412943811E+02  0.19394802139E+03  0.31641159053E+03  0.50400001928E-02 0. -1.
</event>
<event>
 5   0  0.1146468E-01  0.5968137E+03  0.7818609E-02  0.9912039E-01
       -2   -1    0    0    0  501  0.00000000000E+00  0.00000000000E+00  0.19539678781E+03  0.19539678783E+03  0.25500000920E-02 0.  1.
        2   -1    0    0  501    0  0.00000000000E+00  0.00000000000E+00 -0.45572215533E+03  0.45572215534E+03  0.25500000920E-02 0. -1.
    10030    2    1    2    0    0  0.00000000000E+00  0.00000000000E+00 -0.26032536752E+03  0.65111894316E+03  0.59681369051E+03 0.  0.
        4    1    3    3  502    0 -0.20796394326E+03 -0.21299920853E+03 -0.10760874048E+03  0.31654212746E+03  0.12699999809E+01 0. -1.
       -4    1    3    3    0  502  0.20796394326E+03  0.21299920853E+03 -0.15271662704E+03  0.33457681570E+03  0.12699999809E+01 0.  1.
</event>
<event>
 5   0  0.7266519E-02  0.6064925E+03  0.7818609E-02  0.9892027E-01
       -1   -1    0    0    0  501  0.00000000000E+00  0.00000000000E+00  0.89810506360E+02  0.89810506502E+02  0.50400001928E-02 0.  1.
        1   -1    0    0  501    0  0.00000000000E+00  0.00000000000E+00 -0.10239145555E+04  0.10239145555E+04  0.50400001928E-02 0. -1.
    10030    2    1    2    0    0  0.00000000000E+00  0.00000000000E+00 -0.93410404911E+03  0.11137250620E+04  0.60649248893E+03 0.  0.
        4    1    3    3  502    0  0.64328478971E+01  0.16130009787E+03 -0.93844951039E+03  0.95223326950E+03  0.12699999809E+01 0. -1.
       -4    1    3    3    0  502 -0.64328478971E+01 -0.16130009787E+03  0.43454612732E+01  0.16149179248E+03  0.12699999809E+01 0.  1.
</event>
<event>
 5   0  0.1166419E-01  0.6080912E+03  0.7818609E-02  0.9888760E-01
        2   -1    0    0  501    0  0.00000000000E+00  0.00000000000E+00  0.90388510574E+03  0.90388510575E+03  0.25500000920E-02 0. -1.
       -2   -1    0    0    0  501  0.00000000000E+00  0.00000000000E+00 -0.10227374715E+03  0.10227374718E+03  0.25500000920E-02 0.  1.
    10030    2    1    2    0    0  0.00000000000E+00  0.00000000000E+00  0.80161135859E+03  0.10061588529E+04  0.60809116677E+03 0.  0.
        1    1    3    3  502    0  0.16526006908E+03  0.16657321479E+02  0.82218264841E+03  0.83879238442E+03  0.50400001928E-02 0. -1.
       -1    1    3    3    0  502 -0.16526006908E+03 -0.16657321479E+02 -0.20571289824E+02  0.16736646851E+03  0.50400001928E-02 0.  1.
</event>
<event>
 5   0  0.1206238E-01  0.5932455E+03  0.7818609E-02  0.9919519E-01
       -2   -1    0    0    0  501  0.00000000000E+00  0.00000000000E+00  0.64251725588E+02  0.64251725639E+02  0.25500000920E-02 0. -1.
        2   -1    0    0  501    0  0.00000000000E+00  0.00000000000E+00 -0.13693803801E+04  0.13693803801E+04  0.25500000920E-02 0.  1.
    10030    2    1    2    0    0  0.00000000000E+00  0.00000000000E+00 -0.13051286546E+04  0.14336321058E+04  0.59324548864E+03 0.  0.
        5    1    3    3  502    0  0.27724463844E+03 -0.96073401954E+02 -0.54811068239E+03  0.62172509862E+03  0.46999998093E+01 0. -1.
       -5    1    3    3    0  502 -0.27724463844E+03  0.96073401954E+02 -0.75701797216E+03  0.81190700717E+03  0.46999998093E+01 0.  1.
</event>
<event>
 5   0  0.7266519E-02  0.5213201E+03  0.7818609E-02  0.1008359E+00
        1   -1    0    0  501    0  0.00000000000E+00  0.00000000000E+00  0.57668120467E+02  0.57668120687E+02  0.50400001928E-02 0. -1.
       -1   -1    0    0    0  501  0.00000000000E+00  0.00000000000E+00 -0.11781841773E+04  0.11781841773E+04  0.50400001928E-02 0.  1.
    10030    2    1    2    0    0  0.00000000000E+00  0.00000000000E+00 -0.11205160569E+04  0.12358522980E+04  0.52132012128E+03 0.  0.
        4    1    3    3  502    0  0.14276430693E+03 -0.21808112991E+03 -0.55785473365E+03  0.61574714235E+03  0.12699999809E+01 0.  1.
       -4    1    3    3    0  502 -0.14276430693E+03  0.21808112991E+03 -0.56266132322E+03  0.62010515569E+03  0.12699999809E+01 0. -1.
</event>
<event>
 5   0  0.7263385E-02  0.5839613E+03  0.7818609E-02  0.9939252E-01
       -1   -1    0    0    0  501  0.00000000000E+00  0.00000000000E+00  0.49426875178E+03  0.49426875180E+03  0.50400001928E-02 0. -1.
        1   -1    0    0  501    0  0.00000000000E+00  0.00000000000E+00 -0.17248247415E+03  0.17248247423E+03  0.50400001928E-02 0.  1.
    10030    2    1    2    0    0  0.00000000000E+00  0.00000000000E+00  0.32178627762E+03  0.66675122603E+03  0.58396129062E+03 0.  0.
        1    1    3    3  502    0  0.82522557671E+02 -0.25122554103E+03  0.30225391315E+03  0.40159889571E+03  0.50400001928E-02 0. -1.
       -1    1    3    3    0  502 -0.82522557671E+02  0.25122554103E+03  0.19532364470E+02  0.26515233032E+03  0.50400001928E-02 0.  1.
</event>
<event>
 5   0  0.7266519E-02  0.5863110E+03  0.7818609E-02  0.9934221E-01
        1   -1    0    0  501    0  0.00000000000E+00  0.00000000000E+00  0.10100850803E+04  0.10100850803E+04  0.50400001928E-02 0.  1.
       -1   -1    0    0    0  501  0.00000000000E+00  0.00000000000E+00 -0.85082085844E+02  0.85082085993E+02  0.50400001928E-02 0. -1.
    10030    2    1    2    0    0  0.00000000000E+00  0.00000000000E+00  0.92500299449E+03  0.10951671663E+04  0.58631099462E+03 0.  0.
        4    1    3    3  502    0 -0.79369241250E+02  0.12312122441E+03  0.93681515819E+03  0.94819964453E+03  0.12699999809E+01 0.  1.
       -4    1    3    3    0  502  0.79369241250E+02 -0.12312122441E+03 -0.11812163707E+02  0.14696752181E+03  0.12699999809E+01 0. -1.
</event>
<event>
 5   0  0.1146468E-01  0.5686202E+03  0.7818609E-02  0.9972737E-01
        2   -1    0    0  501    0  0.00000000000E+00  0.00000000000E+00  0.60257433527E+03  0.60257433527E+03  0.25500000920E-02 0. -1.
       -2   -1    0    0    0  501  0.00000000000E+00  0.00000000000E+00 -0.13414484160E+03  0.13414484163E+03  0.25500000920E-02 0.  1.
    10030    2    1    2    0    0  0.00000000000E+00  0.00000000000E+00  0.46842949367E+03  0.73671917690E+03  0.56862022042E+03 0.  0.
        4    1    3    3  502    0  0.49560912978E+02 -0.48114276642E+02 -0.12310416562E+03  0.14116485471E+03  0.12699999809E+01 0.  1.
       -4    1    3    3    0  502 -0.49560912978E+02  0.48114276642E+02  0.59153365929E+03  0.59555432219E+03  0.12699999809E+01 0. -1.
</event>
<event>
 5   0  0.7263385E-02  0.5911674E+03  0.7818609E-02  0.9923902E-01
        1   -1    0    0  501    0  0.00000000000E+00  0.00000000000E+00  0.96537328931E+03  0.96537328933E+03  0.50400001928E-02 0.  1.
       -1   -1    0    0    0  501  0.00000000000E+00  0.00000000000E+00 -0.90503578405E+02  0.90503578546E+02  0.50400001928E-02 0. -1.
    10030    2    1    2    0    0  0.00000000000E+00  0.00000000000E+00  0.87486971091E+03  0.10558768679E+04  0.59116744586E+03 0.  0.
        1    1    3    3  502    0  0.18264438910E+03  0.10646985532E+03  0.68466436372E+02  0.22222163688E+03  0.50400001928E-02 0. -1.
       -1    1    3    3    0  502 -0.18264438910E+03 -0.10646985532E+03  0.80640327454E+03  0.83365523100E+03  0.50400001928E-02 0.  1.
</event>
<event>
 5   0  0.1166419E-01  0.5908608E+03  0.7818609E-02  0.9924550E-01
       -2   -1    0    0    0  501  0.00000000000E+00  0.00000000000E+00  0.36658005043E+03  0.36658005044E+03  0.25500000920E-02 0. -1.
        2   -1    0    0  501    0  0.00000000000E+00  0.00000000000E+00 -0.23809023540E+03  0.23809023542E+03  0.25500000920E-02 0.  1.
    10030    2    1    2    0    0  0.00000000000E+00  0.00000000000E+00  0.12848981503E+03  0.60467028585E+03  0.59086083136E+03 0.  0.
        1    1    3    3  502    0  0.14399228622E+03 -0.18379022573E+02  0.32756695854E+03  0.35828993750E+03  0.50400001928E-02 0. -1.
       -1    1    3    3    0  502 -0.14399228622E+03  0.18379022573E+02 -0.19907714351E+03  0.24638034836E+03  0.50400001928E-02 0.  1.
</event>
<event>
 5   0  0.4695625E-02  0.4583153E+03  0.7818609E-02  0.1025271E+00
        3   -1    0    0  501    0  0.00000000000E+00  0.00000000000E+00  0.11181360973E+03  0.11181365534E+03  0.10100000352E+00 0.  1.
       -3   -1    0    0    0  501  0.00000000000E+00  0.00000000000E+00 -0.46964956257E+03  0.46964957343E+03  0.10100000352E+00 0. -1.
    10030    2    1    2    0    0  0.00000000000E+00  0.00000000000E+00 -0.35783595284E+03  0.58146322877E+03  0.45831530333E+03 0.  0.
        2    1    3    3  502    0  0.13022777902E+03 -0.71860225971E+02 -0.40008669188E+03  0.42684016626E+03  0.25500000920E-02 0. -1.
       -2    1    3    3    0  502 -0.13022777902E+03  0.71860225971E+02  0.42250739040E+02  0.15462306251E+03  0.25500000920E-02 0.  1.
</event>
<event>
 5   0  0.7221069E-02  0.6023586E+03  0.7818609E-02  0.9900525E-01
       -1   -1    0    0    0  501  0.00000000000E+00  0.00000000000E+00  0.77579935621E+02  0.77579935785E+02  0.50400001928E-02 0.  1.
        1   -1    0    0  501    0  0.00000000000E+00  0.00000000000E+00 -0.11692324199E+04  0.11692324199E+04  0.50400001928E-02 0. -1.
    10030    2    1    2    0    0  0.00000000000E+00  0.00000000000E+00 -0.10916524843E+04  0.12468123557E+04  0.60235861734E+03 0.  0.
        5    1    3    3  502    0 -0.42476789864E+02 -0.26378770248E+02  0.68851779333E+02  0.85221914509E+02  0.46999998093E+01 0.  1.
       -5    1    3    3    0  502  0.42476789864E+02  0.26378770248E+02 -0.11605042636E+04  0.11615904412E+04  0.46999998093E+01 0. -1.
</event>
<event>
 5   0  0.1175861E-01  0.5840207E+03  0.7818609E-02  0.9939124E-01
       -2   -1    0    0    0  501  0.00000000000E+00  0.00000000000E+00  0.58385750526E+02  0.58385750582E+02  0.25500000920E-02 0.  1.
        2   -1    0    0  501    0  0.00000000000E+00  0.00000000000E+00 -0.14604596630E+04  0.14604596630E+04  0.25500000920E-02 0. -1.
    10030    2    1    2    0    0  0.00000000000E+00  0.00000000000E+00 -0.14020739125E+04  0.15188454136E+04  0.58402066258E+03 0.  0.
        3    1    3    3  502    0 -0.68543423134E+02  0.33586140207E+02 -0.14340561540E+04  0.14360861021E+04  0.10100000352E+00 0. -1.
       -3    1    3    3    0  502  0.68543423134E+02 -0.33586140207E+02  0.31982241488E+02  0.82759311504E+02  0.10100000352E+00 0.  1.
</event>
<event>
 5   0  0.7263385E-02  0.6178448E+03  0.7818609E-02  0.9869060E-01
       -1   -1    0    0    0  501  0.00000000000E+00  0.00000000000E+00  0.14985780430E+04  0.14985780430E+04  0.50400001928E-02 0.  1.
        1   -1    0    0  501    0  0.00000000000E+00  0.00000000000E+00 -0.63682407234E+02  0.63682407433E+02  0.50400001928E-02 0. -1.
    10030    2    1    2    0    0  0.00000000000E+00  0.00000000000E+00  0.14348956357E+04  0.15622604504E+04  0.61784482636E+03 0.  0.
        1    1    3    3  502    0 -0.23185035772E+03 -0.30623365279E+02  0.20707427543E+03  0.31236538612E+03  0.50400001928E-02 0. -1.
       -1    1    3    3    0  502  0.23185035772E+03  0.30623365279E+02  0.12278213603E+04  0.12498950643E+04  0.50400001928E-02 0.  1.
</event>
<event>
 5   0  0.7221069E-02  0.5896653E+03  0.7818609E-02  0.9927082E-01
       -1   -1    0    0    0  501  0.00000000000E+00  0.00000000000E+00  0.37430726213E+03  0.37430726217E+03  0.50400001928E-02 0.  1.
        1   -1    0    0  501    0  0.00000000000E+00  0.00000000000E+00 -0.23223246749E+03  0.23223246754E+03  0.50400001928E-02 0. -1.
    10030    2    1    2    0    0  0.00000000000E+00  0.00000000000E+00  0.14207479465E+03  0.60653972971E+03  0.58966532579E+03 0.  0.
        5    1    3    3  502    0 -0.15429545361E+03  0.82716963073E+02  0.31500621872E+03  0.36041669053E+03  0.46999998093E+01 0.  1.
       -5    1    3    3    0  502  0.15429545361E+03 -0.82716963073E+02 -0.17293142407E+03  0.24612303918E+03  0.46999998093E+01 0. -1.
</event>
<event>
 5   0  0.4695625E-02  0.5959916E+03  0.7818609E-02  0.9913757E-01
       -3   -1    0    0    0  501  0.00000000000E+00  0.00000000000E+00  0.48746319819E+03  0.48746320865E+03  0.10100000352E+00 0. -1.
        3   -1    0    0  501    0  0.00000000000E+00  0.00000000000E+00 -0.18217062444E+03  0.18217065244E+03  0.10100000352E+00 0.  1.
    10030    2    1    2    0    0  0.00000000000E+00  0.00000000000E+00  0.30529257375E+03  0.66963386109E+03  0.59599157069E+03 0.  0.
        4    1    3    3  502    0 -0.19807406223E+03  0.13728811201E+03  0.34956972064E+03  0.42459623446E+03  0.12699999809E+01 0. -1.
       -4    1    3    3    0  502  0.19807406223E+03 -0.13728811201E+03 -0.44277146895E+02  0.24503762663E+03  0.12699999809E+01 0.  1.
</event>
<event>
 5   0  0.1206238E-01  0.6284704E+03  0.7818609E-02  0.9848038E-01
        2   -1    0    0  501    0  0.00000000000E+00  0.00000000000E+00  0.23642467468E+04  0.23642467468E+04  0.25500000920E-02 0. -1.
       -2   -1    0    0    0  501  0.00000000000E+00  0.00000000000E+00 -0.41765426917E+02  0.41765426994E+02  0.25500000920E-02 0.  1.
    10030    2    1    2    0    0  0.00000000000E+00  0.00000000000E+00  0.23224813198E+04  0.24060121738E+04  0.62847044420E+03 0.  0.
        5    1    3    3  502    0  0.51131153392E+02 -0.30851489399E+03  0.12777292297E+04  0.13154504586E+04  0.46999998093E+01 0.  1.
       -5    1    3    3    0  502 -0.51131153392E+02  0.30851489399E+03  0.10447520901E+04  0.10905617151E+04  0.46999998093E+01 0. -1.
</event>
<event>
 5   0  0.7263385E-02  0.5911718E+03  0.7818609E-02  0.9923893E-01
        1   -1    0    0  501    0  0.00000000000E+00  0.00000000000E+00  0.10378375042E+04  0.10378375042E+04  0.50400001928E-02 0. -1.
       -1   -1    0    0    0  501  0.00000000000E+00  0.00000000000E+00 -0.84185657146E+02  0.84185657297E+02  0.50400001928E-02 0.  1.
    10030    2    1    2    0    0  0.00000000000E+00  0.00000000000E+00  0.95365184703E+03  0.11220231615E+04  0.59117182744E+03 0.  0.
        1    1    3    3  502    0 -0.14154130034E+03  0.43409679889E+02 -0.87440805002E+01  0.14830643607E+03  0.50400001928E-02 0.  1.
       -1    1    3    3    0  502  0.14154130034E+03 -0.43409679889E+02  0.96239592753E+03  0.97371672542E+03  0.50400001928E-02 0. -1.
</event>
<event>
 5   0  0.7221069E-02  0.5545723E+03  0.7818609E-02  0.1000441E+00
       -1   -1    0    0    0  501  0.00000000000E+00  0.00000000000E+00  0.33943183150E+03  0.33943183154E+03  0.50400001928E-02 0.  1.
        1   -1    0    0  501    0  0.00000000000E+00  0.00000000000E+00 -0.22651856520E+03  0.22651856526E+03  0.50400001928E-02 0. -1.
    10030    2    1    2    0    0  0.00000000000E+00  0.00000000000E+00  0.11291326630E+03  0.56595039679E+03  0.55457230901E+03 0.  0.
        5    1    3    3  502    0  0.19297721649E+03 -0.96595666091E+01  0.25936251027E+03  0.32345713015E+03  0.46999998093E+01 0.  1.
       -5    1    3    3    0  502 -0.19297721649E+03  0.96595666091E+01 -0.14644924398E+03  0.24249326665E+03  0.46999998093E+01 0. -1.
</event>
<event>
 5   0  0.7424930E-02  0.5548693E+03  0.7818609E-02  0.1000373E+00
        1   -1    0    0  501    0  0.00000000000E+00  0.00000000000E+00  0.19460189640E+03  0.19460189646E+03  0.50400001928E-02 0.  1.
       -1   -1    0    0    0  501  0.00000000000E+00  0.00000000000E+00 -0.39552538127E+03  0.39552538131E+03  0.50400001928E-02 0. -1.
    10030    2    1    2    0    0  0.00000000000E+00  0.00000000000E+00 -0.20092348488E+03  0.59012727777E+03  0.55486931542E+03 0.  0.
        3    1    3    3  502    0 -0.16621803540E+03 -0.14107463106E+03  0.82020302394E+02  0.23293309560E+03  0.10100000352E+00 0.  1.
       -3    1    3    3    0  502  0.16621803540E+03  0.14107463106E+03 -0.28294378727E+03  0.35719418217E+03  0.10100000352E+00 0. -1.
</event>
<event>
 5   0  0.1146468E-01  0.5919531E+03  0.7818609E-02  0.9922243E-01
        2   -1    0    0  501    0  0.00000000000E+00  0.00000000000E+00  0.42942586554E+03  0.42942586555E+03  0.25500000920E-02 0.  1.
       -2   -1    0    0    0  501  0.00000000000E+00  0.00000000000E+00 -0.20399823560E+03  0.20399823562E+03  0.25500000920E-02 0. -1.
    10030    2    1    2    0    0  0.00000000000E+00  0.00000000000E+00  0.22542762994E+03  0.63342410117E+03  0.59195310254E+03 0.  0.
        4    1    3    3  502    0  0.88306261466E+02 -0.24132198173E+03 -0.44428885053E+02  0.26078695023E+03  0.12699999809E+01 0. -1.
       -4    1    3    3    0  502 -0.88306261466E+02  0.24132198173E+03  0.26985651499E+03  0.37263715095E+03  0.12699999809E+01 0.  1.
</event>
<event>
 5   0  0.7123340E-02  0.6012790E+03  0.7818609E-02  0.9902756E-01
       -1   -1    0    0    0  501  0.00000000000E+00  0.00000000000E+00  0.12581242644E+03  0.12581242654E+03  0.50400001928E-02 0.  1.
        1   -1    0    0  501    0  0.00000000000E+00  0.00000000000E+00 -0.71840376586E+03  0.71840376588E+03  0.50400001928E-02 0. -1.
    10030    2    1    2    0    0  0.00000000000E+00  0.00000000000E+00 -0.59259133942E+03  0.84421619242E+03  0.60127904004E+03 0.  0.
        2    1    3    3  502    0  0.71862897644E+02 -0.20158230600E+02  0.11259771251E+03  0.13508839768E+03  0.25500000920E-02 0.  1.
       -2    1    3    3    0  502 -0.71862897644E+02  0.20158230600E+02 -0.70518905192E+03  0.70912779474E+03  0.25500000920E-02 0. -1.
</event>
<event>
 5   0  0.4695625E-02  0.5942762E+03  0.7818609E-02  0.9917353E-01
       -3   -1    0    0    0  501  0.00000000000E+00  0.00000000000E+00  0.44123480112E+03  0.44123481268E+03  0.10100000352E+00 0.  1.
        3   -1    0    0  501    0  0.00000000000E+00  0.00000000000E+00 -0.20009986768E+03  0.20009989317E+03  0.10100000352E+00 0. -1.
    10030    2    1    2    0    0  0.00000000000E+00  0.00000000000E+00  0.24113493344E+03  0.64133470585E+03  0.59427615533E+03 0.  0.
        2    1    3    3  502    0 -0.14979319825E+03 -0.17392771874E+03  0.32419418177E+03  0.39722880193E+03  0.25500000920E-02 0.  1.
       -2    1    3    3    0  502  0.14979319825E+03  0.17392771874E+03 -0.83059248326E+02  0.24410590391E+03  0.25500000920E-02 0. -1.
</event>
<event>
 5   0  0.1166419E-01  0.6015233E+03  0.7818609E-02  0.9902251E-01
       -2   -1    0    0    0  501  0.00000000000E+00  0.00000000000E+00  0.58447446961E+02  0.58447447016E+02  0.25500000920E-02 0.  1.
        2   -1    0    0  501    0  0.00000000000E+00  0.00000000000E+00 -0.15476738279E+04  0.15476738279E+04  0.25500000920E-02 0. -1.
    10030    2    1    2    0    0  0.00000000000E+00  0.00000000000E+00 -0.14892263810E+04  0.16061212750E+04  0.60152334624E+03 0.  0.
        1    1    3    3  502    0  0.26888712289E+03  0.87796759763E+02 -0.10175510592E+04  0.10561338523E+04  0.50400001928E-02 0.  1.
       -1    1    3    3    0  502 -0.26888712289E+03 -0.87796759763E+02 -0.47167532180E+03  0.54998742268E+03  0.50400001928E-02 0. -1.
</event>
<event>
 5   0  0.1146468E-01  0.6098165E+03  0.7818609E-02  0.9885247E-01
        2   -1    0    0  501    0  0.00000000000E+00  0.00000000000E+00  0.73200954119E+03  0.73200954119E+03  0.25500000920E-02 0. -1.
       -2   -1    0    0    0  501  0.00000000000E+00  0.00000000000E+00 -0.12700524496E+03  0.12700524498E+03  0.25500000920E-02 0.  1.
    10030    2    1    2    0    0  0.00000000000E+00  0.00000000000E+00  0.60500429623E+03  0.85901478618E+03  0.60981653340E+03 0.  0.
        4    1    3    3  502    0  0.21573621030E+03  0.16789199347E+03  0.11226937503E+03  0.29552641062E+03  0.12699999809E+01 0.  1.
       -4    1    3    3    0  502 -0.21573621030E+03 -0.16789199347E+03  0.49273492121E+03  0.56348837555E+03  0.12699999809E+01 0. -1.
</event>
<event>
 5   0  0.1146468E-01  0.5729231E+03  0.7818609E-02  0.9963231E-01
       -2   -1    0    0    0  501  0.00000000000E+00  0.00000000000E+00  0.48963795561E+03  0.48963795561E+03  0.25500000920E-02 0.  1.
        2   -1    0    0  501    0  0.00000000000E+00  0.00000000000E+00 -0.16759364921E+03  0.16759364923E+03  0.25500000920E-02 0. -1.
    10030    2    1    2    0    0  0.00000000000E+00  0.00000000000E+00  0.32204430640E+03  0.65723160484E+03  0.57292307260E+03 0.  0.
        4    1    3    3  502    0  0.17183377975E+03 -0.79630813109E+02 -0.85524622216E+02  0.20780757485E+03  0.12699999809E+01 0. -1.
       -4    1    3    3    0  502 -0.17183377975E+03  0.79630813109E+02  0.40756892861E+03  0.44942402999E+03  0.12699999809E+01 0.  1.
</event>
<event>
 5   0  0.1146468E-01  0.6133284E+03  0.7818609E-02  0.9878133E-01
       -2   -1    0    0    0  501  0.00000000000E+00  0.00000000000E+00  0.48672274265E+02  0.48672274332E+02  0.25500000920E-02 0.  1.
        2   -1    0    0  501    0  0.00000000000E+00  0.00000000000E+00 -0.19321664188E+04  0.19321664188E+04  0.25500000920E-02 0. -1.
    10030    2    1    2    0    0  0.00000000000E+00  0.00000000000E+00 -0.18834941446E+04  0.19808386932E+04  0.61332840773E+03 0.  0.
        4    1    3    3  502    0 -0.12874289180E+03 -0.56395828548E+02 -0.18220047217E+04  0.18274184087E+04  0.12699999809E+01 0. -1.
       -4    1    3    3    0  502  0.12874289180E+03  0.56395828548E+02 -0.61489422894E+02  0.15342028449E+03  0.12699999809E+01 0.  1.
</event>
<event>
 5   0  0.1175861E-01  0.6053784E+03  0.7818609E-02  0.9894310E-01
       -2   -1    0    0    0  501  0.00000000000E+00  0.00000000000E+00  0.54304757294E+02  0.54304757353E+02  0.25500000920E-02 0.  1.
        2   -1    0    0  501    0  0.00000000000E+00  0.00000000000E+00 -0.16871589754E+04  0.16871589754E+04  0.25500000920E-02 0. -1.
    10030    2    1    2    0    0  0.00000000000E+00  0.00000000000E+00 -0.16328542181E+04  0.17414637328E+04  0.60537842291E+03 0.  0.
        3    1    3    3  502    0 -0.11470920849E+03  0.87271766703E+02 -0.50749881933E+02  0.15280747525E+03  0.10100000352E+00 0.  1.
       -3    1    3    3    0  502  0.11470920849E+03 -0.87271766703E+02 -0.15821043362E+04  0.15886562575E+04  0.10100000352E+00 0. -1.
</event>
<event>
 5   0  0.7424930E-02  0.6419841E+03  0.7818609E-02  0.9821938E-01
       -1   -1    0    0    0  501  0.00000000000E+00  0.00000000000E+00  0.28710883983E+03  0.28710883988E+03  0.50400001928E-02 0.  1.
        1   -1    0    0  501    0  0.00000000000E+00  0.00000000000E+00 -0.35887395341E+03  0.35887395345E+03  0.50400001928E-02 0. -1.
    10030    2    1    2    0    0  0.00000000000E+00  0.00000000000E+00 -0.71765113576E+02  0.64598279332E+03  0.64198406347E+03 0.  0.
        3    1    3    3  502    0 -0.19343333689E+03  0.20732235739E+03 -0.18727520338E+03  0.33981028192E+03  0.10100000352E+00 0. -1.
       -3    1    3    3    0  502  0.19343333689E+03 -0.20732235739E+03  0.11551008981E+03  0.30617251141E+03  0.10100000352E+00 0.  1.
</event>
<event>
 5   0  0.7266519E-02  0.6118514E+03  0.7818609E-02  0.9881119E-01
       -1   -1    0    0    0  501  0.00000000000E+00  0.00000000000E+00  0.12887622975E+03  0.12887622985E+03  0.50400001928E-02 0. -1.
        1   -1    0    0  501    0  0.00000000000E+00  0.00000000000E+00 -0.72620477030E+03  0.72620477031E+03  0.50400001928E-02 0.  1.
    10030    2    1    2    0    0  0.00000000000E+00  0.00000000000E+00 -0.59732854055E+03  0.85508100016E+03  0.61185139657E+03 0.  0.
        4    1    3    3  502    0  0.16656396322E+03  0.15984614175E+02  0.59250521395E+02  0.17751422174E+03  0.12699999809E+01 0. -1.
       -4    1    3    3    0  502 -0.16656396322E+03 -0.15984614175E+02 -0.65657906195E+03  0.67756677842E+03  0.12699999809E+01 0.  1.
</event>
<event>
 5   0  0.1175861E-01  0.5999680E+03  0.7818609E-02  0.9905473E-01
        2   -1    0    0  501    0  0.00000000000E+00  0.00000000000E+00  0.21449328927E+04  0.21449328927E+04  0.25500000920E-02 0.  1.
       -2   -1    0    0    0  501  0.00000000000E+00  0.00000000000E+00 -0.41954872732E+02  0.41954872810E+02  0.25500000920E-02 0. -1.
    10030    2    1    2    0    0  0.00000000000E+00  0.00000000000E+00  0.21029780199E+04  0.21868877655E+04  0.59996795454E+03 0.  0.
        3    1    3    3  502    0  0.28014988308E+03  0.36720485509E+02  0.68411951857E+03  0.74017016755E+03  0.10100000352E+00 0. -1.
       -3    1    3    3    0  502 -0.28014988308E+03 -0.36720485509E+02  0.14188585014E+04  0.14467175979E+04  0.10100000352E+00 0.  1.
</event>
<event>
 5   0  0.1219020E-01  0.6071946E+03  0.7818609E-02  0.9890591E-01
        2   -1    0    0  501    0  0.00000000000E+00  0.00000000000E+00  0.79723782931E+03  0.79723782932E+03  0.25500000920E-02 0.  1.
       -2   -1    0    0    0  501  0.00000000000E+00  0.00000000000E+00 -0.11561334039E+03  0.11561334042E+03  0.25500000920E-02 0. -1.
    10030    2    1    2    0    0  0.00000000000E+00  0.00000000000E+00  0.68162448892E+03  0.91285116974E+03  0.60719462629E+03 0.  0.
        2    1    3    3  502    0  0.27852574521E+02  0.26443626678E+03  0.56109383427E+03  0.62090949095E+03  0.25500000920E-02 0.  1.
       -2    1    3    3    0  502 -0.27852574521E+02 -0.26443626678E+03  0.12053065465E+03  0.29194167879E+03  0.25500000920E-02 0. -1.
</event>
<event>
 5   0  0.7263385E-02  0.6048251E+03  0.7818609E-02  0.9895446E-01
       -1   -1    0    0    0  501  0.00000000000E+00  0.00000000000E+00  0.40763740129E+02  0.40763740441E+02  0.50400001928E-02 0. -1.
        1   -1    0    0  501    0  0.00000000000E+00  0.00000000000E+00 -0.22434974625E+04  0.22434974625E+04  0.50400001928E-02 0.  1.
    10030    2    1    2    0    0  0.00000000000E+00  0.00000000000E+00 -0.22027337224E+04  0.22842612030E+04  0.60482509176E+03 0.  0.
        1    1    3    3  502    0  0.55884720792E+01 -0.28054713658E+03 -0.15272410662E+04  0.15528049462E+04  0.50400001928E-02 0. -1.
       -1    1    3    3    0  502 -0.55884720792E+01  0.28054713658E+03 -0.67549265624E+03  0.73145625674E+03  0.50400001928E-02 0.  1.
</event>
<event>
 5   0  0.1166419E-01  0.4559091E+03  0.7818609E-02  0.1025974E+00
       -2   -1    0    0    0  501  0.00000000000E+00  0.00000000000E+00  0.52733538469E+02  0.52733538531E+02  0.25500000920E-02 0. -1.
        2   -1    0    0  501    0  0.00000000000E+00  0.00000000000E+00 -0.98539341100E+03  0.98539341100E+03  0.25500000920E-02 0.  1.
    10030    2    1    2    0    0  0.00000000000E+00  0.00000000000E+00 -0.93265987253E+03  0.10381269495E+04  0.45590911980E+03 0.  0.
        1    1    3    3  502    0 -0.17902065439E+02 -0.18277675923E+03 -0.15884030753E+03  0.24281283118E+03  0.50400001928E-02 0. -1.
       -1    1    3    3    0  502  0.17902065439E+02  0.18277675923E+03 -0.77381956500E+03  0.79531411836E+03  0.50400001928E-02 0.  1.
</event>
<event>
 5   0  0.7123340E-02  0.6085437E+03  0.7818609E-02  0.9887838E-01
        1   -1    0    0  501    0  0.00000000000E+00  0.00000000000E+00  0.17929179441E+03  0.17929179448E+03  0.50400001928E-02 0.  1.
       -1   -1    0    0    0  501  0.00000000000E+00  0.00000000000E+00 -0.51637248727E+03  0.51637248729E+03  0.50400001928E-02 0. -1.
    10030    2    1    2    0    0  0.00000000000E+00  0.00000000000E+00 -0.33708069285E+03  0.69566428178E+03  0.60854367094E+03 0.  0.
        2    1    3    3  502    0  0.10326801295E+03 -0.25305634543E+03 -0.15683009612E+02  0.27376587308E+03  0.25500000920E-02 0.  1.
       -2    1    3    3    0  502 -0.10326801295E+03  0.25305634543E+03 -0.32139768324E+03  0.42189840870E+03  0.25500000920E-02 0. -1.
</event>
<event>
 5   0  0.1206238E-01  0.5941390E+03  0.7818609E-02  0.9917641E-01
        2   -1    0    0  501    0  0.00000000000E+00  0.00000000000E+00  0.59464591436E+03  0.59464591436E+03  0.25500000920E-02 0.  1.
       -2   -1    0    0    0  501  0.00000000000E+00  0.00000000000E+00 -0.14840811151E+03  0.14840811153E+03  0.25500000920E-02 0. -1.
    10030    2    1    2    0    0  0.00000000000E+00  0.00000000000E+00  0.44623780285E+03  0.74305402590E+03  0.59413896414E+03 0.  0.
        5    1    3    3  502    0  0.35807781432E+02 -0.19897736811E+03 -0.49032564370E+02  0.20808765604E+03  0.46999998093E+01 0. -1.
       -5    1    3    3    0  502 -0.35807781432E+02  0.19897736811E+03  0.49527036722E+03  0.53496636985E+03  0.46999998093E+01 0.  1.
</event>
<event>
 5   0  0.7123340E-02  0.6045304E+03  0.7818609E-02  0.9896051E-01
       -1   -1    0    0    0  501  0.00000000000E+00  0.00000000000E+00  0.60683458368E+02  0.60683458577E+02  0.50400001928E-02 0.  1.
        1   -1    0    0  501    0  0.00000000000E+00  0.00000000000E+00 -0.15055872984E+04  0.15055872984E+04  0.50400001928E-02 0. -1.
    10030    2    1    2    0    0  0.00000000000E+00  0.00000000000E+00 -0.14449038400E+04  0.15662707569E+04  0.60453037743E+03 0.  0.
        2    1    3    3  502    0  0.12226065634E+03  0.19310579262E+03 -0.12349420222E+04  0.12559137364E+04  0.25500000920E-02 0. -1.
       -2    1    3    3    0  502 -0.12226065634E+03 -0.19310579262E+03 -0.20996181783E+03  0.31035702052E+03  0.25500000920E-02 0.  1.
</event>
<event>
 5   0  0.7263385E-02  0.6051287E+03  0.7818609E-02  0.9894822E-01
        1   -1    0    0  501    0  0.00000000000E+00  0.00000000000E+00  0.27897858247E+03  0.27897858251E+03  0.50400001928E-02 0.  1.
       -1   -1    0    0    0  501  0.00000000000E+00  0.00000000000E+00 -0.32814409282E+03  0.32814409286E+03  0.50400001928E-02 0. -1.
    10030    2    1    2    0    0  0.00000000000E+00  0.00000000000E+00 -0.49165510357E+02  0.60712267537E+03  0.60512866032E+03 0.  0.
        1    1    3    3  502    0  0.13682756056E+03  0.26350086085E+03 -0.83004254854E+02  0.30829237964E+03  0.50400001928E-02 0.  1.
       -1    1    3    3    0  502 -0.13682756056E+03 -0.26350086085E+03  0.33838744497E+02  0.29883029573E+03  0.50400001928E-02 0. -1.
</event>
<event>
 5   0  0.7221069E-02  0.5871461E+03  0.7818609E-02  0.9932439E-01
        1   -1    0    0  501    0  0.00000000000E+00  0.00000000000E+00  0.72578422594E+03  0.72578422595E+03  0.50400001928E-02 0.  1.
       -1   -1    0    0    0  501  0.00000000000E+00  0.00000000000E+00 -0.11874758937E+03  0.11874758948E+03  0.50400001928E-02 0. -1.
    10030    2    1    2    0    0  0.00000000000E+00  0.00000000000E+00  0.60703663657E+03  0.84453181543E+03  0.58714607138E+03 0.  0.
        5    1    3    3  502    0 -0.85958521249E+02  0.20724702110E+03  0.31279609994E+02  0.22658486077E+03  0.46999998093E+01 0. -1.
       -5    1    3    3    0  502  0.85958521249E+02 -0.20724702110E+03  0.57575702657E+03  0.61794695466E+03  0.46999998093E+01 0.  1.
</event>
<event>
 5   0  0.1166419E-01  0.5953646E+03  0.7818609E-02  0.9915070E-01
       -2   -1    0    0    0  501  0.00000000000E+00  0.00000000000E+00  0.42683137169E+02  0.42683137245E+02  0.25500000920E-02 0.  1.
        2   -1    0    0  501    0  0.00000000000E+00  0.00000000000E+00 -0.20761067280E+04  0.20761067280E+04  0.25500000920E-02 0. -1.
    10030    2    1    2    0    0  0.00000000000E+00  0.00000000000E+00 -0.20334235908E+04  0.21187898652E+04  0.59536458857E+03 0.  0.
        1    1    3    3  502    0 -0.27909816534E+03 -0.63670801573E+02 -0.72617262985E+03  0.78056162168E+03  0.50400001928E-02 0.  1.
       -1    1    3    3    0  502  0.27909816534E+03  0.63670801573E+02 -0.13072509610E+04  0.13382282436E+04  0.50400001928E-02 0. -1.
</event>
<event>
 5   0  0.7424930E-02  0.6107808E+03  0.7818609E-02  0.9883288E-01
       -1   -1    0    0    0  501  0.00000000000E+00  0.00000000000E+00  0.26221765810E+03  0.26221765815E+03  0.50400001928E-02 0.  1.
        1   -1    0    0  501    0  0.00000000000E+00  0.00000000000E+00 -0.35567136144E+03  0.35567136147E+03  0.50400001928E-02 0. -1.
    10030    2    1    2    0    0  0.00000000000E+00  0.00000000000E+00 -0.93453703339E+02  0.61788901962E+03  0.61078084932E+03 0.  0.
        3    1    3    3  502    0  0.18990886102E+03  0.23659193680E+03 -0.11360287578E+02  0.30359543209E+03  0.10100000352E+00 0.  1.
       -3    1    3    3    0  502 -0.18990886102E+03 -0.23659193680E+03 -0.82093415761E+02  0.31429358753E+03  0.10100000352E+00 0. -1.
</event>
<event>
 5   0  0.1219020E-01  0.6020905E+03  0.7818609E-02  0.9901078E-01
        2   -1    0    0  501    0  0.00000000000E+00  0.00000000000E+00  0.11714930025E+04  0.11714930025E+04  0.25500000920E-02 0.  1.
       -2   -1    0    0    0  501  0.00000000000E+00  0.00000000000E+00 -0.77361319220E+02  0.77361319262E+02  0.25500000920E-02 0. -1.
    10030    2    1    2    0    0  0.00000000000E+00  0.00000000000E+00  0.10941316833E+04  0.12488543218E+04  0.60209050535E+03 0.  0.
        2    1    3    3  502    0 -0.22943243324E+03 -0.12671717600E+03  0.23989022048E+03  0.35530803819E+03  0.25500000920E-02 0. -1.
       -2    1    3    3    0  502  0.22943243324E+03  0.12671717600E+03  0.85424146280E+03  0.89354628358E+03  0.25500000920E-02 0.  1.
</event>
<event>
 5   0  0.7266519E-02  0.6105449E+03  0.7818609E-02  0.9883767E-01
        1   -1    0    0  501    0  0.00000000000E+00  0.00000000000E+00  0.68657737846E+03  0.68657737848E+03  0.50400001928E-02 0.  1.
       -1   -1    0    0    0  501  0.00000000000E+00  0.00000000000E+00 -0.13573308669E+03  0.13573308679E+03  0.50400001928E-02 0. -1.
    10030    2    1    2    0    0  0.00000000000E+00  0.00000000000E+00  0.55084429177E+03  0.82231046527E+03  0.61054489393E+03 0.  0.
        4    1    3    3  502    0  0.23303815597E+03 -0.96969910616E+02  0.44173177161E+02  0.25624759157E+03  0.12699999809E+01 0. -1.
       -4    1    3    3    0  502 -0.23303815597E+03  0.96969910616E+02  0.50667111461E+03  0.56606287370E+03  0.12699999809E+01 0.  1.
</event>
<event>
 5   0  0.7221069E-02  0.5207470E+03  0.7818609E-02  0.1008501E+00
       -1   -1    0    0    0  501  0.00000000000E+00  0.00000000000E+00  0.11411236850E+03  0.11411236861E+03  0.50400001928E-02 0. -1.
        1   -1    0    0  501    0  0.00000000000E+00  0.00000000000E+00 -0.59410173379E+03  0.59410173381E+03  0.50400001928E-02 0.  1.
    10030    2    1    2    0    0  0.00000000000E+00  0.00000000000E+00 -0.47998936528E+03  0.70821410242E+03  0.52074698663E+03 0.  0.
        5    1    3    3  502    0 -0.20900395602E+03 -0.15238851797E+03 -0.28004772337E+03  0.38125284445E+03  0.46999998093E+01 0.  1.
       -5    1    3    3    0  502  0.20900395602E+03  0.15238851797E+03 -0.19994164192E+03  0.32696125797E+03  0.46999998093E+01 0. -1.
</event>
<event>
 5   0  0.1206238E-01  0.6019525E+03  0.7818609E-02  0.9901364E-01
       -2   -1    0    0    0  501  0.00000000000E+00  0.00000000000E+00  0.10274226572E+03  0.10274226575E+03  0.25500000920E-02 0.  1.
        2   -1    0    0  501    0  0.00000000000E+00  0.00000000000E+00 -0.88168868217E+03  0.88168868217E+03  0.25500000920E-02 0. -1.
    10030    2    1    2    0    0  0.00000000000E+00  0.00000000000E+00 -0.77894641645E+03  0.98443094792E+03  0.60195246617E+03 0.  0.
        5    1    3    3  502    0  0.29527553866E+03 -0.43603528354E+02 -0.45229652240E+03  0.54192540593E+03  0.46999998093E+01 0. -1.
       -5    1    3    3    0  502 -0.29527553866E+03  0.43603528354E+02 -0.32664989405E+03  0.44250554200E+03  0.46999998093E+01 0.  1.
</event>
<event>
 5   0  0.7221069E-02  0.5867329E+03  0.7818609E-02  0.9933320E-01
        1   -1    0    0  501    0  0.00000000000E+00  0.00000000000E+00  0.38159541518E+03  0.38159541521E+03  0.50400001928E-02 0. -1.
       -1   -1    0    0    0  501  0.00000000000E+00  0.00000000000E+00 -0.22553700879E+03  0.22553700884E+03  0.50400001928E-02 0.  1.
    10030    2    1    2    0    0  0.00000000000E+00  0.00000000000E+00  0.15605840640E+03  0.60713242406E+03  0.58673294959E+03 0.  0.
        5    1    3    3  502    0 -0.27444169356E+03 -0.13225862218E+02  0.18430662709E+03  0.33088395154E+03  0.46999998093E+01 0. -1.
       -5    1    3    3    0  502  0.27444169356E+03  0.13225862218E+02 -0.28248220697E+02  0.27624847252E+03  0.46999998093E+01 0.  1.
</event>
<event>
 5   0  0.4695625E-02  0.5763231E+03  0.7818609E-02  0.9955783E-01
       -4   -1    0    0    0  501  0.00000000000E+00  0.00000000000E+00  0.68308113226E+03  0.68308231287E+03  0.12699999809E+01 0.  1.
        4   -1    0    0  501    0  0.00000000000E+00  0.00000000000E+00 -0.12155794724E+03  0.12156458134E+03  0.12699999809E+01 0. -1.
    10030    2    1    2    0    0  0.00000000000E+00  0.00000000000E+00  0.56152318502E+03  0.80464689421E+03  0.57632311861E+03 0.  0.
        5    1    3    3  502    0 -0.20959603451E+03  0.12208175477E+03  0.63655349849E+02  0.25081576126E+03  0.46999998093E+01 0. -1.
       -5    1    3    3    0  502  0.20959603451E+03 -0.12208175477E+03  0.49786783517E+03  0.55383113296E+03  0.46999998093E+01 0.  1.
</event>
<event>
 5   0  0.1166419E-01  0.5726692E+03  0.7818609E-02  0.9963790E-01
       -2   -1    0    0    0  501  0.00000000000E+00  0.00000000000E+00  0.14320958678E+03  0.14320958680E+03  0.25500000920E-02 0. -1.
        2   -1    0    0  501    0  0.00000000000E+00  0.00000000000E+00 -0.57250000444E+03  0.57250000445E+03  0.25500000920E-02 0.  1.
    10030    2    1    2    0    0  0.00000000000E+00  0.00000000000E+00 -0.42929041766E+03  0.71570959125E+03  0.57266915083E+03 0.  0.
        1    1    3    3  502    0  0.32445275558E+02  0.10806845798E+03  0.11425318728E+03  0.16057795099E+03  0.50400001928E-02 0. -1.
       -1    1    3    3    0  502 -0.32445275558E+02 -0.10806845798E+03 -0.54354360494E+03  0.55513164026E+03  0.50400001928E-02 0.  1.
</event>
<event>
 5   0  0.7266519E-02  0.5924844E+03  0.7818609E-02  0.9921122E-01
       -1   -1    0    0    0  501  0.00000000000E+00  0.00000000000E+00  0.15489972141E+03  0.15489972149E+03  0.50400001928E-02 0. -1.
        1   -1    0    0  501    0  0.00000000000E+00  0.00000000000E+00 -0.56655655196E+03  0.56655655198E+03  0.50400001928E-02 0.  1.
    10030    2    1    2    0    0  0.00000000000E+00  0.00000000000E+00 -0.41165683055E+03  0.72145627348E+03  0.59248443726E+03 0.  0.
        4    1    3    3  502    0  0.14019657994E+02 -0.22271360496E+03 -0.44307273189E+03  0.49609773159E+03  0.12699999809E+01 0.  1.
       -4    1    3    3    0  502 -0.14019657994E+02  0.22271360496E+03  0.31415901344E+02  0.22535854188E+03  0.12699999809E+01 0. -1.
</event>
<event>
 5   0  0.1166419E-01  0.5978885E+03  0.7818609E-02  0.9909796E-01
       -2   -1    0    0    0  501  0.00000000000E+00  0.00000000000E+00  0.30094676647E+03  0.30094676648E+03  0.25500000920E-02 0. -1.
        2   -1    0    0  501    0  0.00000000000E+00  0.00000000000E+00 -0.29695506137E+03  0.29695506138E+03  0.25500000920E-02 0.  1.
    10030    2    1    2    0    0  0.00000000000E+00  0.00000000000E+00  0.39917051045E+01  0.59790182786E+03  0.59788850303E+03 0.  0.
        1    1    3    3  502    0 -0.24049748485E+03  0.17756278907E+03  0.22808287723E+01  0.29895281649E+03  0.50400001928E-02 0. -1.
       -1    1    3    3    0  502  0.24049748485E+03 -0.17756278907E+03  0.17108763322E+01  0.29894901138E+03  0.50400001928E-02 0.  1.
</event>
<event>
 5   0  0.1166419E-01  0.5686049E+03  0.7818609E-02  0.9972771E-01
       -2   -1    0    0    0  501  0.00000000000E+00  0.00000000000E+00  0.62801135500E+02  0.62801135552E+02  0.25500000920E-02 0. -1.
        2   -1    0    0  501    0  0.00000000000E+00  0.00000000000E+00 -0.12870449687E+04  0.12870449687E+04  0.25500000920E-02 0.  1.
    10030    2    1    2    0    0  0.00000000000E+00  0.00000000000E+00 -0.12242438332E+04  0.13498461043E+04  0.56860490857E+03 0.  0.
        1    1    3    3  502    0 -0.25633767863E+03 -0.99710383489E+01 -0.90306014446E+03  0.93878967380E+03  0.50400001928E-02 0. -1.
       -1    1    3    3    0  502  0.25633767863E+03  0.99710383489E+01 -0.32118368877E+03  0.41105643049E+03  0.50400001928E-02 0.  1.
</event>
<event>
 5   0  0.7266519E-02  0.6278499E+03  0.7818609E-02  0.9849254E-01
       -1   -1    0    0    0  501  0.00000000000E+00  0.00000000000E+00  0.61333885038E+03  0.61333885040E+03  0.50400001928E-02 0. -1.
        1   -1    0    0  501    0  0.00000000000E+00  0.00000000000E+00 -0.16067606011E+03  0.16067606018E+03  0.50400001928E-02 0.  1.
    10030    2    1    2    0    0  0.00000000000E+00  0.00000000000E+00  0.45266279027E+03  0.77401491058E+03  0.62784988660E+03 0.  0.
        4    1    3    3  502    0 -0.18676084047E+03 -0.13926636970E+03  0.48572582573E+03  0.53870764236E+03  0.12699999809E+01 0. -1.
       -4    1    3    3    0  502  0.18676084047E+03  0.13926636970E+03 -0.33063035454E+02  0.23530726822E+03  0.12699999809E+01 0.  1.
</event>
<event>
 5   0  0.7424930E-02  0.5963604E+03  0.7818609E-02  0.9912986E-01
       -1   -1    0    0    0  501  0.00000000000E+00  0.00000000000E+00  0.19954992513E+03  0.19954992520E+03  0.50400001928E-02 0. -1.
        1   -1    0    0  501    0  0.00000000000E+00  0.00000000000E+00 -0.44555978039E+03  0.44555978041E+03  0.50400001928E-02 0.  1.
    10030    2    1    2    0    0  0.00000000000E+00  0.00000000000E+00 -0.24600985525E+03  0.64510970561E+03  0.59636036370E+03 0.  0.
        3    1    3    3  502    0 -0.30640829654E+02 -0.66969219242E+02  0.18955693438E+03  0.20336070992E+03  0.10100000352E+00 0. -1.
       -3    1    3    3    0  502  0.30640829654E+02  0.66969219242E+02 -0.43556678963E+03  0.44174899569E+03  0.10100000352E+00 0.  1.
</event>
<event>
 5   0  0.4695625E-02  0.6456171E+03  0.7818609E-02  0.9815038E-01
        3   -1    0    0  501    0  0.00000000000E+00  0.00000000000E+00  0.66706789841E+03  0.66706790606E+03  0.10100000352E+00 0. -1.
       -3   -1    0    0    0  501  0.00000000000E+00  0.00000000000E+00 -0.15621398329E+03  0.15621401594E+03  0.10100000352E+00 0.  1.
    10030    2    1    2    0    0  0.00000000000E+00  0.00000000000E+00  0.51085391512E+03  0.82328192200E+03  0.64561706955E+03 0.  0.
        3    1    3    3  502    0 -0.19405175853E+02  0.20895802732E+03 -0.57358603769E+02  0.21755467740E+03  0.10100000352E+00 0.  1.
       -3    1    3    3    0  502  0.19405175853E+02 -0.20895802732E+03  0.56821251889E+03  0.60572724460E+03  0.10100000352E+00 0. -1.
</event>
<event>
 5   0  0.1146468E-01  0.6049776E+03  0.7818609E-02  0.9895133E-01
        2   -1    0    0  501    0  0.00000000000E+00  0.00000000000E+00  0.22376177153E+03  0.22376177155E+03  0.25500000920E-02 0. -1.
       -2   -1    0    0    0  501  0.00000000000E+00  0.00000000000E+00 -0.40891462072E+03  0.40891462073E+03  0.25500000920E-02 0.  1.
    10030    2    1    2    0    0  0.00000000000E+00  0.00000000000E+00 -0.18515284918E+03  0.63267639227E+03  0.60497755312E+03 0.  0.
        4    1    3    3  502    0 -0.62682582093E+02  0.28858322183E+03 -0.24091764496E+02  0.29629614921E+03  0.12699999809E+01 0. -1.
       -4    1    3    3    0  502  0.62682582093E+02 -0.28858322183E+03 -0.16106108469E+03  0.33638024306E+03  0.12699999809E+01 0.  1.
</event>
<event>
 5   0  0.7266519E-02  0.6008973E+03  0.7818609E-02  0.9903546E-01
        1   -1    0    0  501    0  0.00000000000E+00  0.00000000000E+00  0.14821666306E+04  0.14821666306E+04  0.50400001928E-02 0. -1.
       -1   -1    0    0    0  501  0.00000000000E+00  0.00000000000E+00 -0.60903666643E+02  0.60903666852E+02  0.50400001928E-02 0.  1.
    10030    2    1    2    0    0  0.00000000000E+00  0.00000000000E+00  0.14212629640E+04  0.15430702975E+04  0.60089727092E+03 0.  0.
        4    1    3    3  502    0 -0.28334623275E+03 -0.95578151942E+02  0.63587393315E+03  0.70267883311E+03  0.12699999809E+01 0.  1.
       -4    1    3    3    0  502  0.28334623275E+03  0.95578151942E+02  0.78538903082E+03  0.84039146437E+03  0.12699999809E+01 0. -1.
</event>
<event>
 5   0  0.7263385E-02  0.6087800E+03  0.7818609E-02  0.9887356E-01
        1   -1    0    0  501    0  0.00000000000E+00  0.00000000000E+00  0.12486842650E+04  0.12486842650E+04  0.50400001928E-02 0. -1.
       -1   -1    0    0    0  501  0.00000000000E+00  0.00000000000E+00 -0.74200724116E+02  0.74200724287E+02  0.50400001928E-02 0.  1.
    10030    2    1    2    0    0  0.00000000000E+00  0.00000000000E+00  0.11744835409E+04  0.13228849893E+04  0.60878001535E+03 0.  0.
        1    1    3    3  502    0 -0.21698781570E+03 -0.19867845254E+03  0.75690969572E+03  0.81207704510E+03  0.50400001928E-02 0.  1.
       -1    1    3    3    0  502  0.21698781570E+03  0.19867845254E+03  0.41757384514E+03  0.51080794418E+03  0.50400001928E-02 0. -1.
</event>
<event>
 5   0  0.7221069E-02  0.5948935E+03  0.7818609E-02  0.9916057E-01
        1   -1    0    0  501    0  0.00000000000E+00  0.00000000000E+00  0.50054697148E+03  0.50054697151E+03  0.50400001928E-02 0. -1.
       -1   -1    0    0    0  501  0.00000000000E+00  0.00000000000E+00 -0.17675575654E+03  0.17675575661E+03  0.50400001928E-02 0.  1.
    10030    2    1    2    0    0  0.00000000000E+00  0.00000000000E+00  0.32379121494E+03  0.67730272812E+03  0.59489346495E+03 0.  0.
        5    1    3    3  502    0  0.91155216373E+02 -0.16267211700E+03  0.42568287833E+03  0.46475745720E+03  0.46999998093E+01 0. -1.
       -5    1    3    3    0  502 -0.91155216373E+02  0.16267211700E+03 -0.10189166339E+03  0.21254527091E+03  0.46999998093E+01 0.  1.
</event>
<event>
 5   0  0.1146468E-01  0.5976431E+03  0.7818609E-02  0.9910308E-01
       -2   -1    0    0    0  501  0.00000000000E+00  0.00000000000E+00  0.13414221880E+03  0.13414221882E+03  0.25500000920E-02 0. -1.
        2   -1    0    0  501    0  0.00000000000E+00  0.00000000000E+00 -0.66566906571E+03  0.66566906572E+03  0.25500000920E-02 0.  1.
    10030    2    1    2    0    0  0.00000000000E+00  0.00000000000E+00 -0.53152684692E+03  0.79981128454E+03  0.59764312251E+03 0.  0.
        4    1    3    3  502    0 -0.27509576161E+03 -0.11148304238E+03 -0.21966442285E+03  0.36926984491E+03  0.12699999809E+01 0. -1.
       -4    1    3    3    0  502  0.27509576161E+03  0.11148304238E+03 -0.31186242407E+03  0.43054143963E+03  0.12699999809E+01 0.  1.
</event>
<event>
 5   0  0.1219020E-01  0.5968091E+03  0.7818609E-02  0.9912048E-01
       -2   -1    0    0    0  501  0.00000000000E+00  0.00000000000E+00  0.23658199047E+03  0.23658199049E+03  0.25500000920E-02 0. -1.
        2   -1    0    0  501    0  0.00000000000E+00  0.00000000000E+00 -0.37638230426E+03  0.37638230427E+03  0.25500000920E-02 0.  1.
    10030    2    1    2    0    0  0.00000000000E+00  0.00000000000E+00 -0.13980031379E+03  0.61296429476E+03  0.59680909755E+03 0.  0.
        2    1    3    3  502    0  0.17476520140E+03  0.24009537840E+03 -0.99960290048E+02  0.31333803782E+03  0.25500000920E-02 0.  1.
       -2    1    3    3    0  502 -0.17476520140E+03 -0.24009537840E+03 -0.39840023740E+02  0.29962625694E+03  0.25500000920E-02 0. -1.
</event>
<event>
 5   0  0.7221069E-02  0.5929119E+03  0.7818609E-02  0.9920222E-01
        1   -1    0    0  501    0  0.00000000000E+00  0.00000000000E+00  0.16680559475E+04  0.16680559475E+04  0.50400001928E-02 0. -1.
       -1   -1    0    0    0  501  0.00000000000E+00  0.00000000000E+00 -0.52687763077E+02  0.52687763318E+02  0.50400001928E-02 0.  1.
    10030    2    1    2    0    0  0.00000000000E+00  0.00000000000E+00  0.16153681844E+04  0.17207437108E+04  0.59291192187E+03 0.  0.
        5    1    3    3  502    0  0.15013601595E+03  0.25482207186E+03  0.75044870525E+03  0.80664146981E+03  0.46999998093E+01 0.  1.
       -5    1    3    3    0  502 -0.15013601595E+03 -0.25482207186E+03  0.86491947916E+03  0.91410224101E+03  0.46999998093E+01 0. -1.
</event>
<event>
 5   0  0.7263385E-02  0.6023213E+03  0.7818609E-02  0.9900602E-01
       -1   -1    0    0    0  501  0.00000000000E+00  0.00000000000E+00  0.41602002253E+03  0.41602002256E+03  0.50400001928E-02 0.  1.
        1   -1    0    0  501    0  0.00000000000E+00  0.00000000000E+00 -0.21801290379E+03  0.21801290385E+03  0.50400001928E-02 0. -1.
    10030    2    1    2    0    0  0.00000000000E+00  0.00000000000E+00  0.19800711874E+03  0.63403292641E+03  0.60232128694E+03 0.  0.
        1    1    3    3  502    0 -0.44813919591E+02 -0.12022965577E+03 -0.18780085902E+03  0.22744806042E+03  0.50400001928E-02 0. -1.
       -1    1    3    3    0  502  0.44813919591E+02  0.12022965577E+03  0.38580797776E+03  0.40658486598E+03  0.50400001928E-02 0.  1.
</event>
<event>
 5   0  0.1175861E-01  0.6102603E+03  0.7818609E-02  0.9884345E-01
        2   -1    0    0  501    0  0.00000000000E+00  0.00000000000E+00  0.14711315872E+03  0.14711315874E+03  0.25500000920E-02 0.  1.
       -2   -1    0    0    0  501  0.00000000000E+00  0.00000000000E+00 -0.63287609822E+03  0.63287609823E+03  0.25500000920E-02 0. -1.
    10030    2    1    2    0    0  0.00000000000E+00  0.00000000000E+00 -0.48576293950E+03  0.77998925696E+03  0.61026027856E+03 0.  0.
        3    1    3    3  502    0  0.22630157863E+03  0.15389361730E+03 -0.70411500282E+02  0.28258350891E+03  0.10100000352E+00 0.  1.
       -3    1    3    3    0  502 -0.22630157863E+03 -0.15389361730E+03 -0.41535143922E+03  0.49740574806E+03  0.10100000352E+00 0. -1.
</event>
<event>
 5   0  0.1146468E-01  0.6014533E+03  0.7818609E-02  0.9902396E-01
       -2   -1    0    0    0  501  0.00000000000E+00  0.00000000000E+00  0.76100375558E+02  0.76100375601E+02  0.25500000920E-02 0. -1.
        2   -1    0    0  501    0  0.00000000000E+00  0.00000000000E+00 -0.11883846371E+04  0.11883846371E+04  0.25500000920E-02 0.  1.
    10030    2    1    2    0    0  0.00000000000E+00  0.00000000000E+00 -0.11122842615E+04  0.12644850127E+04  0.60145329732E+03 0.  0.
        4    1    3    3  502    0  0.77630438541E+02 -0.19480616273E+03 -0.10298731107E+03  0.23363202942E+03  0.12699999809E+01 0. -1.
       -4    1    3    3    0  502 -0.77630438541E+02  0.19480616273E+03 -0.10092969504E+04  0.10308529832E+04  0.12699999809E+01 0.  1.
</event>
<event>
 5   0  0.1146468E-01  0.6080344E+03  0.7818609E-02  0.9888876E-01
        2   -1    0    0  501    0  0.00000000000E+00  0.00000000000E+00  0.42098110838E+03  0.42098110839E+03  0.25500000920E-02 0. -1.
       -2   -1    0    0    0  501  0.00000000000E+00  0.00000000000E+00 -0.21955012404E+03  0.21955012405E+03  0.25500000920E-02 0.  1.
    10030    2    1    2    0    0  0.00000000000E+00  0.00000000000E+00  0.20143098434E+03  0.64053123244E+03  0.60803438906E+03 0.  0.
        4    1    3    3  502    0  0.29697994458E+03 -0.27476252641E+02  0.38635355727E+02  0.30074297258E+03  0.12699999809E+01 0.  1.
       -4    1    3    3    0  502 -0.29697994458E+03  0.27476252641E+02  0.16279562862E+03  0.33978825986E+03  0.12699999809E+01 0. -1.
</event>
<event>
 5   0  0.7424930E-02  0.6120338E+03  0.7818609E-02  0.9880750E-01
        1   -1    0    0  501    0  0.00000000000E+00  0.00000000000E+00  0.33929851508E+03  0.33929851512E+03  0.50400001928E-02 0.  1.
       -1   -1    0    0    0  501  0.00000000000E+00  0.00000000000E+00 -0.27599986574E+03  0.27599986579E+03  0.50400001928E-02 0. -1.
    10030    2    1    2    0    0  0.00000000000E+00  0.00000000000E+00  0.63298649340E+02  0.61529838091E+03  0.61203380506E+03 0.  0.
        3    1    3    3  502    0  0.88456062283E+01 -0.30586668942E+03  0.35364709012E+02  0.30803140958E+03  0.10100000352E+00 0.  1.
       -3    1    3    3    0  502 -0.88456062283E+01  0.30586668942E+03  0.27933940328E+02  0.30726697133E+03  0.10100000352E+00 0. -1.
</event>
<event>
 5   0  0.7424930E-02  0.6135879E+03  0.7818609E-02  0.9877610E-01
        1   -1    0    0  501    0  0.00000000000E+00  0.00000000000E+00  0.43309693843E+03  0.43309693846E+03  0.50400001928E-02 0. -1.
       -1   -1    0    0    0  501  0.00000000000E+00  0.00000000000E+00 -0.21732436561E+03  0.21732436567E+03  0.50400001928E-02 0.  1.
    10030    2    1    2    0    0  0.00000000000E+00  0.00000000000E+00  0.21577257281E+03  0.65042130413E+03  0.61358786631E+03 0.  0.
        3    1    3    3  502    0  0.15780666451E+03  0.13521192839E+03 -0.13135490036E+03  0.24584411523E+03  0.10100000352E+00 0.  1.
       -3    1    3    3    0  502 -0.15780666451E+03 -0.13521192839E+03  0.34712747317E+03  0.40457718890E+03  0.10100000352E+00 0. -1.
</event>
<event>
 5   0  0.7263385E-02  0.5643212E+03  0.7818609E-02  0.9982324E-01
        1   -1    0    0  501    0  0.00000000000E+00  0.00000000000E+00  0.38122782711E+03  0.38122782714E+03  0.50400001928E-02 0. -1.
       -1   -1    0    0    0  501  0.00000000000E+00  0.00000000000E+00 -0.20883732190E+03  0.20883732196E+03  0.50400001928E-02 0.  1.
    10030    2    1    2    0    0  0.00000000000E+00  0.00000000000E+00  0.17239050521E+03  0.59006514910E+03  0.56432117973E+03 0.  0.
        1    1    3    3  502    0  0.25981756649E+03 -0.17185676432E+02  0.19984634789E+03  0.32823631445E+03  0.50400001928E-02 0. -1.
       -1    1    3    3    0  502 -0.25981756649E+03  0.17185676432E+02 -0.27455842673E+02  0.26182883465E+03  0.50400001928E-02 0.  1.
</event>
<event>
 5   0  0.4695625E-02  0.5945975E+03  0.7818609E-02  0.9916678E-01
        4   -1    0    0  501    0  0.00000000000E+00  0.00000000000E+00  0.22202224451E+03  0.22202587677E+03  0.12699999809E+01 0. -1.
       -4   -1    0    0    0  501  0.00000000000E+00  0.00000000000E+00 -0.39808979103E+03  0.39809181683E+03  0.12699999809E+01 0.  1.
    10030    2    1    2    0    0  0.00000000000E+00  0.00000000000E+00 -0.17606754653E+03  0.62011769360E+03  0.59459748820E+03 0.  0.
        3    1    3    3  502    0  0.33208270876E+02  0.27536910427E+03  0.23590842528E+02  0.27836571429E+03  0.10100000352E+00 0. -1.
       -3    1    3    3    0  502 -0.33208270876E+02 -0.27536910427E+03 -0.19965838905E+03  0.34175197931E+03  0.10100000352E+00 0.  1.
</event>
<event>
 5   0  0.1175861E-01  0.6156772E+03  0.7818609E-02  0.9873404E-01
       -2   -1    0    0    0  501  0.00000000000E+00  0.00000000000E+00  0.73574463727E+02  0.73574463771E+02  0.25500000920E-02 0.  1.
        2   -1    0    0  501    0  0.00000000000E+00  0.00000000000E+00 -0.12880094699E+04  0.12880094699E+04  0.25500000920E-02 0. -1.
    10030    2    1    2    0    0  0.00000000000E+00  0.00000000000E+00 -0.12144350062E+04  0.13615839337E+04  0.61567720782E+03 0.  0.
        3    1    3    3  502    0  0.23307470950E+03 -0.16640950360E+03 -0.35751465962E+03  0.45807497764E+03  0.10100000352E+00 0.  1.
       -3    1    3    3    0  502 -0.23307470950E+03  0.16640950360E+03 -0.85692034658E+03  0.90350895606E+03  0.10100000352E+00 0. -1.
</event>
<event>
 5   0  0.1175861E-01  0.7290506E+03  0.7818609E-02  0.9668802E-01
        2   -1    0    0  501    0  0.00000000000E+00  0.00000000000E+00  0.12111251776E+03  0.12111251779E+03  0.25500000920E-02 0. -1.
       -2   -1    0    0    0  501  0.00000000000E+00  0.00000000000E+00 -0.10971509246E+04  0.10971509246E+04  0.25500000920E-02 0.  1.
    10030    2    1    2    0    0  0.00000000000E+00  0.00000000000E+00 -0.97603840684E+03  0.12182634424E+04  0.72905064532E+03 0.  0.
        3    1    3    3  502    0 -0.99306079991E+02 -0.27694463375E+03 -0.12838452095E+03  0.32100252819E+03  0.10100000352E+00 0. -1.
       -3    1    3    3    0  502  0.99306079991E+02  0.27694463375E+03 -0.84765388589E+03  0.89726091420E+03  0.10100000352E+00 0.  1.
</event>
<event>
 5   0  0.4695625E-02  0.6066296E+03  0.7818609E-02  0.9891746E-01
        3   -1    0    0  501    0  0.00000000000E+00  0.00000000000E+00  0.43059558948E+03  0.43059560133E+03  0.10100000352E+00 0.  1.
       -3   -1    0    0    0  501  0.00000000000E+00  0.00000000000E+00 -0.21365724451E+03  0.21365726838E+03  0.10100000352E+00 0. -1.
    10030    2    1    2    0    0  0.00000000000E+00  0.00000000000E+00  0.21693834497E+03  0.64425286971E+03  0.60662963545E+03 0.  0.
        3    1    3    3  502    0  0.10202781886E+03  0.26218899039E+03 -0.11905669410E+02  0.28159278696E+03  0.10100000352E+00 0. -1.
       -3    1    3    3    0  502 -0.10202781886E+03 -0.26218899039E+03  0.22884401438E+03  0.36266008275E+03  0.10100000352E+00 0.  1.
</event>
<event>
 5   0  0.7424930E-02  0.5969957E+03  0.7818609E-02  0.9911659E-01
        1   -1    0    0  501    0  0.00000000000E+00  0.00000000000E+00  0.16436460857E+04  0.16436460857E+04  0.50400001928E-02 0. -1.
       -1   -1    0    0    0  501  0.00000000000E+00  0.00000000000E+00 -0.54209337047E+02  0.54209337282E+02  0.50400001928E-02 0.  1.
    10030    2    1    2    0    0  0.00000000000E+00  0.00000000000E+00  0.15894367486E+04  0.16978554230E+04  0.59699569462E+03 0.  0.
        3    1    3    3  502    0 -0.14683691902E+02  0.14545674511E+03  0.54580542007E+02  0.15605230301E+03  0.10100000352E+00 0.  1.
       -3    1    3    3    0  502  0.14683691902E+02 -0.14545674511E+03  0.15348562066E+04  0.15418031199E+04  0.10100000352E+00 0. -1.
</event>
<event>
 5   0  0.1146468E-01  0.6042703E+03  0.7818609E-02  0.9896586E-01
        2   -1    0    0  501    0  0.00000000000E+00  0.00000000000E+00  0.61879026071E+03  0.61879026072E+03  0.25500000920E-02 0.  1.
       -2   -1    0    0    0  501  0.00000000000E+00  0.00000000000E+00 -0.14752278706E+03  0.14752278709E+03  0.25500000920E-02 0. -1.
    10030    2    1    2    0    0  0.00000000000E+00  0.00000000000E+00  0.47126747365E+03  0.76631304780E+03  0.60427034969E+03 0.  0.
        4    1    3    3  502    0 -0.51265866430E+02 -0.24354265281E+03  0.45286683428E+03  0.51675061228E+03  0.12699999809E+01 0.  1.
       -4    1    3    3    0  502  0.51265866430E+02  0.24354265281E+03  0.18400639365E+02  0.24956243553E+03  0.12699999809E+01 0. -1.
</event>
<event>
 5   0  0.1166419E-01  0.5866498E+03  0.7818609E-02  0.9933497E-01
        2   -1    0    0  501    0  0.00000000000E+00  0.00000000000E+00  0.33792987828E+03  0.33792987829E+03  0.25500000920E-02 0. -1.
       -2   -1    0    0    0  501  0.00000000000E+00  0.00000000000E+00 -0.25460755378E+03  0.25460755379E+03  0.25500000920E-02 0.  1.
    10030    2    1    2    0    0  0.00000000000E+00  0.00000000000E+00  0.83322324498E+02  0.59253743208E+03  0.58664980922E+03 0.  0.
        1    1    3    3  502    0  0.13626853985E+03  0.97985189747E+01 -0.22050958254E+03  0.25940239387E+03  0.50400001928E-02 0.  1.
       -1    1    3    3    0  502 -0.13626853985E+03 -0.97985189747E+01  0.30383190704E+03  0.33313503822E+03  0.50400001928E-02 0. -1.
</event>
<event>
 5   0  0.1146468E-01  0.5943549E+03  0.7818609E-02  0.9917188E-01
        2   -1    0    0  501    0  0.00000000000E+00  0.00000000000E+00  0.89770638510E+03  0.89770638510E+03  0.25500000920E-02 0. -1.
       -2   -1    0    0    0  501  0.00000000000E+00  0.00000000000E+00 -0.98377850106E+02  0.98377850139E+02  0.25500000920E-02 0.  1.
    10030    2    1    2    0    0  0.00000000000E+00  0.00000000000E+00  0.79932853499E+03  0.99608423524E+03  0.59435485767E+03 0.  0.
        4    1    3    3  502    0  0.14517362548E+03  0.34677975574E+02  0.83032661806E+03  0.84363608806E+03  0.12699999809E+01 0. -1.
       -4    1    3    3    0  502 -0.14517362548E+03 -0.34677975574E+02 -0.30998083065E+02  0.15244814718E+03  0.12699999809E+01 0.  1.
</event>
<event>
 5   0  0.4695625E-02  0.5527060E+03  0.7818609E-02  0.1000870E+00
       -3   -1    0    0    0  501  0.00000000000E+00  0.00000000000E+00  0.31014571134E+03  0.31014572778E+03  0.10100000352E+00 0. -1.
        3   -1    0    0  501    0  0.00000000000E+00  0.00000000000E+00 -0.24624226712E+03  0.24624228783E+03  0.10100000352E+00 0.  1.
    10030    2    1    2    0    0  0.00000000000E+00  0.00000000000E+00  0.63903444221E+02  0.55638801561E+03  0.55270604641E+03 0.  0.
        5    1    3    3  502    0  0.22189171149E+03  0.13936921492E+03  0.12022392261E+03  0.28833243186E+03  0.46999998093E+01 0.  1.
       -5    1    3    3    0  502 -0.22189171149E+03 -0.13936921492E+03 -0.56320478393E+02  0.26805558375E+03  0.46999998093E+01 0. -1.
</event>
<event>
 5   0  0.7221069E-02  0.5893849E+03  0.7818609E-02  0.9927677E-01
        1   -1    0    0  501    0  0.00000000000E+00  0.00000000000E+00  0.11381805821E+03  0.11381805833E+03  0.50400001928E-02 0.  1.
       -1   -1    0    0    0  501  0.00000000000E+00  0.00000000000E+00 -0.76300393006E+03  0.76300393007E+03  0.50400001928E-02 0. -1.
    10030    2    1    2    0    0  0.00000000000E+00  0.00000000000E+00 -0.64918587184E+03  0.87682198840E+03  0.58938485147E+03 0.  0.
        5    1    3    3  502    0 -0.15000252088E+03  0.25261025290E+03 -0.29103440561E+03  0.41356476082E+03  0.46999998093E+01 0.  1.
       -5    1    3    3    0  502  0.15000252088E+03 -0.25261025290E+03 -0.35815146623E+03  0.46325722758E+03  0.46999998093E+01 0. -1.
</event>
<event>
 5   0  0.1166419E-01  0.6549878E+03  0.7818609E-02  0.9797465E-01
        2   -1    0    0  501    0  0.00000000000E+00  0.00000000000E+00  0.94041833277E+03  0.94041833277E+03  0.25500000920E-02 0. -1.
       -2   -1    0    0    0  501  0.00000000000E+00  0.00000000000E+00 -0.11404737703E+03  0.11404737705E+03  0.25500000920E-02 0.  1.
    10030    2    1    2    0    0  0.00000000000E+00  0.00000000000E+00  0.82637095574E+03  0.10544657098E+04  0.65498776836E+03 0.  0.
        1    1    3    3  502    0  0.17207538530E+03 -0.39820755288E+02  0.85716993157E+03  0.87517765190E+03  0.50400001928E-02 0. -1.
       -1    1    3    3    0  502 -0.17207538530E+03  0.39820755288E+02 -0.30798975828E+02  0.17928805792E+03  0.50400001928E-02 0.  1.
</event>
<event>
 5   0  0.1175861E-01  0.5848425E+03  0.7818609E-02  0.9937362E-01
        2   -1    0    0  501    0  0.00000000000E+00  0.00000000000E+00  0.29019921103E+03  0.29019921104E+03  0.25500000920E-02 0.  1.
       -2   -1    0    0    0  501  0.00000000000E+00  0.00000000000E+00 -0.29466031817E+03  0.29466031818E+03  0.25500000920E-02 0. -1.
    10030    2    1    2    0    0  0.00000000000E+00  0.00000000000E+00 -0.44611071354E+01  0.58485952922E+03  0.58484251508E+03 0.  0.
        3    1    3    3  502    0 -0.13855806279E+03 -0.25511902593E+03  0.32786568614E+02  0.29216266606E+03  0.10100000352E+00 0. -1.
       -3    1    3    3    0  502  0.13855806279E+03  0.25511902593E+03 -0.37247675750E+02  0.29269686316E+03  0.10100000352E+00 0.  1.
</event>
<event>
 5   0  0.7266519E-02  0.5987939E+03  0.7818609E-02  0.9907911E-01
       -1   -1    0    0    0  501  0.00000000000E+00  0.00000000000E+00  0.45007551188E+02  0.45007551470E+02  0.50400001928E-02 0.  1.
        1   -1    0    0  501    0  0.00000000000E+00  0.00000000000E+00 -0.19916333624E+04  0.19916333624E+04  0.50400001928E-02 0. -1.
    10030    2    1    2    0    0  0.00000000000E+00  0.00000000000E+00 -0.19466258112E+04  0.20366409139E+04  0.59879392382E+03 0.  0.
        4    1    3    3  502    0  0.30194314174E+02 -0.29399085657E+02  0.34859868387E+02  0.54706728743E+02  0.12699999809E+01 0.  1.
       -4    1    3    3    0  502 -0.30194314174E+02  0.29399085657E+02 -0.19814856796E+04  0.19819341851E+04  0.12699999809E+01 0. -1.
</event>
<event>
 5   0  0.1206238E-01  0.5931388E+03  0.7818609E-02  0.9919744E-01
        2   -1    0    0  501    0  0.00000000000E+00  0.00000000000E+00  0.12742439219E+04  0.12742439219E+04  0.25500000920E-02 0.  1.
       -2   -1    0    0    0  501  0.00000000000E+00  0.00000000000E+00 -0.69023991463E+02  0.69023991510E+02  0.25500000920E-02 0. -1.
    10030    2    1    2    0    0  0.00000000000E+00  0.00000000000E+00  0.12052199304E+04  0.13432679134E+04  0.59313877506E+03 0.  0.
        5    1    3    3  502    0  0.28465949677E+03 -0.99829730828E+01  0.41585134033E+03  0.50406856290E+03  0.46999998093E+01 0.  1.
       -5    1    3    3    0  502 -0.28465949677E+03  0.99829730828E+01  0.78936859012E+03  0.83919935052E+03  0.46999998093E+01 0. -1.
</event>
<event>
 5   0  0.1219020E-01  0.5989841E+03  0.7818609E-02  0.9907516E-01
       -2   -1    0    0    0  501  0.00000000000E+00  0.00000000000E+00  0.14583086627E+03  0.14583086630E+03  0.25500000920E-02 0. -1.
        2   -1    0    0  501    0  0.00000000000E+00  0.00000000000E+00 -0.61506510345E+03  0.61506510346E+03  0.25500000920E-02 0.  1.
    10030    2    1    2    0    0  0.00000000000E+00  0.00000000000E+00 -0.46923423718E+03  0.76089596975E+03  0.59898406277E+03 0.  0.
        2    1    3    3  502    0  0.91502880159E+02  0.12465151289E+03 -0.56043316254E+03  0.58137432556E+03  0.25500000920E-02 0.  1.
       -2    1    3    3    0  502 -0.91502880159E+02 -0.12465151289E+03  0.91198925358E+02  0.17952164420E+03  0.25500000920E-02 0. -1.
</event>
<event>
 5   0  0.1219020E-01  0.6143323E+03  0.7818609E-02  0.9876109E-01
        2   -1    0    0  501    0  0.00000000000E+00  0.00000000000E+00  0.96397792239E+02  0.96397792273E+02  0.25500000920E-02 0.  1.
       -2   -1    0    0    0  501  0.00000000000E+00  0.00000000000E+00 -0.97876758511E+03  0.97876758511E+03  0.25500000920E-02 0. -1.
    10030    2    1    2    0    0  0.00000000000E+00  0.00000000000E+00 -0.88236979287E+03  0.10751653774E+04  0.61433226951E+03 0.  0.
        2    1    3    3  502    0 -0.77359223431E+02 -0.29484754525E+03 -0.37496795345E+03  0.48323957879E+03  0.25500000920E-02 0. -1.
       -2    1    3    3    0  502  0.77359223431E+02  0.29484754525E+03 -0.50740183942E+03  0.59192579859E+03  0.25500000920E-02 0.  1.
</event>
<event>
 5   0  0.7424930E-02  0.6062612E+03  0.7818609E-02  0.9892500E-01
        1   -1    0    0  501    0  0.00000000000E+00  0.00000000000E+00  0.12431026831E+04  0.12431026831E+04  0.50400001928E-02 0. -1.
       -1   -1    0    0    0  501  0.00000000000E+00  0.00000000000E+00 -0.73918410738E+02  0.73918410909E+02  0.50400001928E-02 0.  1.
    10030    2    1    2    0    0  0.00000000000E+00  0.00000000000E+00  0.11691842723E+04  0.13170210940E+04  0.60626124677E+03 0.  0.
        3    1    3    3  502    0 -0.19669558538E+03  0.13930042600E+02  0.84452585508E+02  0.21451211806E+03  0.10100000352E+00 0.  1.
       -3    1    3    3    0  502  0.19669558538E+03 -0.13930042600E+02  0.10847316868E+04  0.11025089759E+04  0.10100000352E+00 0. -1.
</event>
<event>
 5   0  0.7123340E-02  0.5996653E+03  0.7818609E-02  0.9906101E-01
       -1   -1    0    0    0  501  0.00000000000E+00  0.00000000000E+00  0.36970865107E+03  0.36970865111E+03  0.50400001928E-02 0. -1.
        1   -1    0    0  501    0  0.00000000000E+00  0.00000000000E+00 -0.24316340556E+03  0.24316340561E+03  0.50400001928E-02 0.  1.
    10030    2    1    2    0    0  0.00000000000E+00  0.00000000000E+00  0.12654524551E+03  0.61287205672E+03  0.59966528893E+03 0.  0.
        2    1    3    3  502    0 -0.15170484148E+03 -0.18756206608E+03 -0.11870993658E+03  0.26886044077E+03  0.25500000920E-02 0.  1.
       -2    1    3    3    0  502  0.15170484148E+03  0.18756206608E+03  0.24525518209E+03  0.34401161595E+03  0.25500000920E-02 0. -1.
</event>
<event>
 5   0  0.1166419E-01  0.6100919E+03  0.7818609E-02  0.9884687E-01
        2   -1    0    0  501    0  0.00000000000E+00  0.00000000000E+00  0.75134047337E+03  0.75134047338E+03  0.25500000920E-02 0.  1.
       -2   -1    0    0    0  501  0.00000000000E+00  0.00000000000E+00 -0.12384937174E+03  0.12384937177E+03  0.25500000920E-02 0. -1.
    10030    2    1    2    0    0  0.00000000000E+00  0.00000000000E+00  0.62749110163E+03  0.87518984514E+03  0.61009194587E+03 0.  0.
        1    1    3    3  502    0 -0.82436102138E+02  0.27376681460E+03  0.46629840762E+03  0.54697183171E+03  0.50400001928E-02 0.  1.
       -1    1    3    3    0  502  0.82436102138E+02 -0.27376681460E+03  0.16119269402E+03  0.32821801343E+03  0.50400001928E-02 0. -1.
</event>
<event>
 5   0  0.4695625E-02  0.5936922E+03  0.7818609E-02  0.9918580E-01
       -4   -1    0    0    0  501  0.00000000000E+00  0.00000000000E+00  0.33129273581E+03  0.33129517005E+03  0.12699999809E+01 0.  1.
        4   -1    0    0  501    0  0.00000000000E+00  0.00000000000E+00 -0.26597618576E+03  0.26597921778E+03  0.12699999809E+01 0. -1.
    10030    2    1    2    0    0  0.00000000000E+00  0.00000000000E+00  0.65316550048E+02  0.59727438783E+03  0.59369221205E+03 0.  0.
        1    1    3    3  502    0  0.13207276135E+03 -0.17211057692E+02 -0.23423125866E+03  0.26945076982E+03  0.50400001928E-02 0. -1.
       -1    1    3    3    0  502 -0.13207276135E+03  0.17211057692E+02  0.29954780871E+03  0.32782361801E+03  0.50400001928E-02 0.  1.
</event>
<event>
 5   0  0.7221069E-02  0.6231078E+03  0.7818609E-02  0.9858592E-01
       -1   -1    0    0    0  501  0.00000000000E+00  0.00000000000E+00  0.12038368075E+03  0.12038368085E+03  0.50400001928E-02 0.  1.
        1   -1    0    0  501    0  0.00000000000E+00  0.00000000000E+00 -0.80630384856E+03  0.80630384857E+03  0.50400001928E-02 0. -1.
    10030    2    1    2    0    0  0.00000000000E+00  0.00000000000E+00 -0.68592016781E+03  0.92668752943E+03  0.62310777606E+03 0.  0.
        5    1    3    3  502    0  0.14847780482E+03  0.82055349426E+02  0.45609840638E+02  0.17573015238E+03  0.46999998093E+01 0.  1.
       -5    1    3    3    0  502 -0.14847780482E+03 -0.82055349426E+02 -0.73153000844E+03  0.75095737705E+03  0.46999998093E+01 0. -1.
</event>
<event>
 5   0  0.1206238E-01  0.5705112E+03  0.7818609E-02  0.9968548E-01
        2   -1    0    0  501    0  0.00000000000E+00  0.00000000000E+00  0.27979348475E+03  0.27979348476E+03  0.25500000920E-02 0. -1.
       -2   -1    0    0    0  501  0.00000000000E+00  0.00000000000E+00 -0.29082434348E+03  0.29082434349E+03  0.25500000920E-02 0.  1.
    10030    2    1    2    0    0  0.00000000000E+00  0.00000000000E+00 -0.11030858732E+02  0.57061782826E+03  0.57051119716E+03 0.  0.
        5    1    3    3  502    0 -0.26610652794E+03  0.51755790407E+02  0.83142666035E+02  0.28359502634E+03  0.46999998093E+01 0. -1.
       -5    1    3    3    0  502  0.26610652794E+03 -0.51755790407E+02 -0.94173524767E+02  0.28702280191E+03  0.46999998093E+01 0.  1.
</event>
<event>
 5   0  0.4695625E-02  0.6077373E+03  0.7818609E-02  0.9889482E-01
       -4   -1    0    0    0  501  0.00000000000E+00  0.00000000000E+00  0.89527252252E+02  0.89536259670E+02  0.12699999809E+01 0. -1.
        4   -1    0    0  501    0  0.00000000000E+00  0.00000000000E+00 -0.10313134562E+04  0.10313142381E+04  0.12699999809E+01 0.  1.
    10030    2    1    2    0    0  0.00000000000E+00  0.00000000000E+00 -0.94178620393E+03  0.11208504978E+04  0.60773726605E+03 0.  0.
        3    1    3    3  502    0  0.15536122196E+03  0.24747443589E+03 -0.31707982658E+03  0.43118480068E+03  0.10100000352E+00 0. -1.
       -3    1    3    3    0  502 -0.15536122196E+03 -0.24747443589E+03 -0.62470637735E+03  0.68966569714E+03  0.10100000352E+00 0.  1.
</event>
<event>
 5   0  0.7424930E-02  0.6247488E+03  0.7818609E-02  0.9855350E-01
       -1   -1    0    0    0  501  0.00000000000E+00  0.00000000000E+00  0.42119444477E+03  0.42119444480E+03  0.50400001928E-02 0.  1.
        1   -1    0    0  501    0  0.00000000000E+00  0.00000000000E+00 -0.23166918167E+03  0.23166918173E+03  0.50400001928E-02 0. -1.
    10030    2    1    2    0    0  0.00000000000E+00  0.00000000000E+00  0.18952526310E+03  0.65286362653E+03  0.62474882112E+03 0.  0.
        3    1    3    3  502    0  0.13637356015E+03  0.47684225674E+02  0.38418516702E+03  0.41045071086E+03  0.10100000352E+00 0.  1.
       -3    1    3    3    0  502 -0.13637356015E+03 -0.47684225674E+02 -0.19465990392E+03  0.24241291567E+03  0.10100000352E+00 0. -1.
</event>
<event>
 5   0  0.7424930E-02  0.5954204E+03  0.7818609E-02  0.9914953E-01
        1   -1    0    0  501    0  0.00000000000E+00  0.00000000000E+00  0.37162651830E+03  0.37162651834E+03  0.50400001928E-02 0. -1.
       -1   -1    0    0    0  501  0.00000000000E+00  0.00000000000E+00 -0.23849583225E+03  0.23849583231E+03  0.50400001928E-02 0.  1.
    10030    2    1    2    0    0  0.00000000000E+00  0.00000000000E+00  0.13313068605E+03  0.61012235065E+03  0.59542044237E+03 0.  0.
        3    1    3    3  502    0 -0.55863586419E+02 -0.27288958994E+03 -0.41109696493E+02  0.28156613066E+03  0.10100000352E+00 0.  1.
       -3    1    3    3    0  502  0.55863586419E+02  0.27288958994E+03  0.17424038254E+03  0.32855621999E+03  0.10100000352E+00 0. -1.
</event>
<event>
 5   0  0.1219020E-01  0.5553886E+03  0.7818609E-02  0.1000254E+00
       -2   -1    0    0    0  501  0.00000000000E+00  0.00000000000E+00  0.65197165915E+02  0.65197165964E+02  0.25500000920E-02 0.  1.
        2   -1    0    0  501    0  0.00000000000E+00  0.00000000000E+00 -0.11827835768E+04  0.11827835768E+04  0.25500000920E-02 0. -1.
    10030    2    1    2    0    0  0.00000000000E+00  0.00000000000E+00 -0.11175864109E+04  0.12479807428E+04  0.55538864638E+03 0.  0.
        2    1    3    3  502    0  0.13464580642E+03  0.18534116161E+02 -0.11029349612E+04  0.11112778839E+04  0.25500000920E-02 0. -1.
       -2    1    3    3    0  502 -0.13464580642E+03 -0.18534116161E+02 -0.14651449749E+02  0.13670285891E+03  0.25500000920E-02 0.  1.
</event>
<event>
 5   0  0.1166419E-01  0.6000909E+03  0.7818609E-02  0.9905218E-01
        2   -1    0    0  501    0  0.00000000000E+00  0.00000000000E+00  0.84202994152E+03  0.84202994153E+03  0.25500000920E-02 0. -1.
       -2   -1    0    0    0  501  0.00000000000E+00  0.00000000000E+00 -0.10691694300E+03  0.10691694303E+03  0.25500000920E-02 0.  1.
    10030    2    1    2    0    0  0.00000000000E+00  0.00000000000E+00  0.73511299853E+03  0.94894688456E+03  0.60009088404E+03 0.  0.
        1    1    3    3  502    0  0.15547954557E+03  0.10439868205E+03 -0.31461490859E+01  0.18730422362E+03  0.50400001928E-02 0.  1.
       -1    1    3    3    0  502 -0.15547954557E+03 -0.10439868205E+03  0.73825914761E+03  0.76164266094E+03  0.50400001928E-02 0. -1.
</event>
<event>
 5   0  0.7263385E-02  0.5946982E+03  0.7818609E-02  0.9916467E-01
        1   -1    0    0  501    0  0.00000000000E+00  0.00000000000E+00  0.72152037938E+03  0.72152037940E+03  0.50400001928E-02 0.  1.
       -1   -1    0    0    0  501  0.00000000000E+00  0.00000000000E+00 -0.12254189413E+03  0.12254189423E+03  0.50400001928E-02 0. -1.
    10030    2    1    2    0    0  0.00000000000E+00  0.00000000000E+00  0.59897848526E+03  0.84406227363E+03  0.59469815535E+03 0.  0.
        1    1    3    3  502    0 -0.48579735027E+02  0.28137478127E+03  0.18172297641E+03  0.33845974410E+03  0.50400001928E-02 0. -1.
       -1    1    3    3    0  502  0.48579735027E+02 -0.28137478127E+03  0.41725550884E+03  0.50560252954E+03  0.50400001928E-02 0.  1.
</event>
<event>
 5   0  0.1166419E-01  0.6025813E+03  0.7818609E-02  0.9900065E-01
        2   -1    0    0  501    0  0.00000000000E+00  0.00000000000E+00  0.12311955392E+04  0.12311955392E+04  0.25500000920E-02 0. -1.
       -2   -1    0    0    0  501  0.00000000000E+00  0.00000000000E+00 -0.73730006182E+02  0.73730006226E+02  0.25500000920E-02 0.  1.
    10030    2    1    2    0    0  0.00000000000E+00  0.00000000000E+00  0.11574655330E+04  0.13049255454E+04  0.60258129658E+03 0.  0.
        1    1    3    3  502    0 -0.15007606899E+03 -0.24460263784E+03  0.77747847393E+03  0.82874969344E+03  0.50400001928E-02 0. -1.
       -1    1    3    3    0  502  0.15007606899E+03  0.24460263784E+03  0.37998705910E+03  0.47617585200E+03  0.50400001928E-02 0.  1.
</event>
<event>
 5   0  0.1166419E-01  0.6029072E+03  0.7818609E-02  0.9899393E-01
       -2   -1    0    0    0  501  0.00000000000E+00  0.00000000000E+00  0.13309485501E+03  0.13309485503E+03  0.25500000920E-02 0.  1.
        2   -1    0    0  501    0  0.00000000000E+00  0.00000000000E+00 -0.68277828736E+03  0.68277828737E+03  0.25500000920E-02 0. -1.
    10030    2    1    2    0    0  0.00000000000E+00  0.00000000000E+00 -0.54968343235E+03  0.81587314240E+03  0.60290721399E+03 0.  0.
        1    1    3    3  502    0  0.18379534387E+03 -0.15252937509E+01 -0.59817977502E+03  0.62578119037E+03  0.50400001928E-02 0. -1.
       -1    1    3    3    0  502 -0.18379534387E+03  0.15252937509E+01  0.48496342663E+02  0.19009195203E+03  0.50400001928E-02 0.  1.
</event>
<event>
 5   0  0.1206238E-01  0.5939087E+03  0.7818609E-02  0.9918125E-01
       -2   -1    0    0    0  501  0.00000000000E+00  0.00000000000E+00  0.13334935018E+03  0.13334935021E+03  0.25500000920E-02 0. -1.
        2   -1    0    0  501    0  0.00000000000E+00  0.00000000000E+00 -0.66128472428E+03  0.66128472428E+03  0.25500000920E-02 0.  1.
    10030    2    1    2    0    0  0.00000000000E+00  0.00000000000E+00 -0.52793537409E+03  0.79463407449E+03  0.59390870774E+03 0.  0.
        5    1    3    3  502    0  0.11850600656E+03  0.51038394399E+02  0.93827542024E+02  0.15960666945E+03  0.46999998093E+01 0. -1.
       -5    1    3    3    0  502 -0.11850600656E+03 -0.51038394399E+02 -0.62176291612E+03  0.63502740504E+03  0.46999998093E+01 0.  1.
</event>
<event>
 5   0  0.1175861E-01  0.6103085E+03  0.7818609E-02  0.9884247E-01
        2   -1    0    0  501    0  0.00000000000E+00  0.00000000000E+00  0.43804689152E+03  0.43804689153E+03  0.25500000920E-02 0.  1.
       -2   -1    0    0    0  501  0.00000000000E+00  0.00000000000E+00 -0.21257796382E+03  0.21257796383E+03  0.25500000920E-02 0. -1.
    10030    2    1    2    0    0  0.00000000000E+00  0.00000000000E+00  0.22546892770E+03  0.65062485536E+03  0.61030849990E+03 0.  0.
        3    1    3    3  502    0  0.20301682225E+03  0.22618495889E+03  0.83663281472E+02  0.31523803802E+03  0.10100000352E+00 0. -1.
       -3    1    3    3    0  502 -0.20301682225E+03 -0.22618495889E+03  0.14180564623E+03  0.33538681734E+03  0.10100000352E+00 0.  1.
</event>
<event>
 5   0  0.7266519E-02  0.6320512E+03  0.7818609E-02  0.9841054E-01
        1   -1    0    0  501    0  0.00000000000E+00  0.00000000000E+00  0.44914304753E+03  0.44914304755E+03  0.50400001928E-02 0. -1.
       -1   -1    0    0    0  501  0.00000000000E+00  0.00000000000E+00 -0.22236162744E+03  0.22236162750E+03  0.50400001928E-02 0.  1.
    10030    2    1    2    0    0  0.00000000000E+00  0.00000000000E+00  0.22678142008E+03  0.67150467505E+03  0.63205119739E+03 0.  0.
        4    1    3    3  502    0 -0.13347511157E+03 -0.17032649173E+03 -0.13129820133E+03  0.25311568456E+03  0.12699999809E+01 0.  1.
       -4    1    3    3    0  502  0.13347511157E+03  0.17032649173E+03  0.35807962142E+03  0.41838899050E+03  0.12699999809E+01 0. -1.
</event>
<event>
 5   0  0.7263385E-02  0.5686240E+03  0.7818609E-02  0.9972728E-01
       -1   -1    0    0    0  501  0.00000000000E+00  0.00000000000E+00  0.20647212920E+03  0.20647212926E+03  0.50400001928E-02 0. -1.
        1   -1    0    0  501    0  0.00000000000E+00  0.00000000000E+00 -0.39149741527E+03  0.39149741530E+03  0.50400001928E-02 0.  1.
    10030    2    1    2    0    0  0.00000000000E+00  0.00000000000E+00 -0.18502528607E+03  0.59796954456E+03  0.56862397042E+03 0.  0.
        1    1    3    3  502    0  0.17178151650E+03  0.11977993894E+03  0.10970582020E+03  0.23641381135E+03  0.50400001928E-02 0. -1.
       -1    1    3    3    0  502 -0.17178151650E+03 -0.11977993894E+03 -0.29473110627E+03  0.36155573321E+03  0.50400001928E-02 0.  1.
</event>
<event>
 5   0  0.7263385E-02  0.5255645E+03  0.7818609E-02  0.1007314E+00
        1   -1    0    0  501    0  0.00000000000E+00  0.00000000000E+00  0.27092267282E+03  0.27092267286E+03  0.50400001928E-02 0. -1.
       -1   -1    0    0    0  501  0.00000000000E+00  0.00000000000E+00 -0.25488641230E+03  0.25488641235E+03  0.50400001928E-02 0.  1.
    10030    2    1    2    0    0  0.00000000000E+00  0.00000000000E+00  0.16036260517E+02  0.52580908521E+03  0.52556448933E+03 0.  0.
        1    1    3    3  502    0 -0.47048302672E+02  0.25554974524E+03  0.47219181047E+02  0.26410010632E+03  0.50400001928E-02 0. -1.
       -1    1    3    3    0  502  0.47048302672E+02 -0.25554974524E+03 -0.31182920530E+02  0.26170897889E+03  0.50400001928E-02 0.  1.
</event>
<event>
 5   0  0.1206238E-01  0.5859061E+03  0.7818609E-02  0.9935086E-01
        2   -1    0    0  501    0  0.00000000000E+00  0.00000000000E+00  0.26155653745E+03  0.26155653747E+03  0.25500000920E-02 0.  1.
       -2   -1    0    0    0  501  0.00000000000E+00  0.00000000000E+00 -0.32811833172E+03  0.32811833173E+03  0.25500000920E-02 0. -1.
    10030    2    1    2    0    0  0.00000000000E+00  0.00000000000E+00 -0.66561794265E+02  0.58967486919E+03  0.58590611782E+03 0.  0.
        5    1    3    3  502    0 -0.84028865502E+02 -0.15938896589E+03 -0.26570731688E+03  0.32107345099E+03  0.46999998093E+01 0. -1.
       -5    1    3    3    0  502  0.84028865502E+02  0.15938896589E+03  0.19914552262E+03  0.26860141821E+03  0.46999998093E+01 0.  1.
</event>
<event>
 5   0  0.1166419E-01  0.6015517E+03  0.7818609E-02  0.9902192E-01
        2   -1    0    0  501    0  0.00000000000E+00  0.00000000000E+00  0.64052684713E+03  0.64052684713E+03  0.25500000920E-02 0.  1.
       -2   -1    0    0    0  501  0.00000000000E+00  0.00000000000E+00 -0.14123701384E+03  0.14123701387E+03  0.25500000920E-02 0. -1.
    10030    2    1    2    0    0  0.00000000000E+00  0.00000000000E+00  0.49928983328E+03  0.78176386100E+03  0.60155165759E+03 0.  0.
        1    1    3    3  502    0 -0.43480405783E+02 -0.53103057669E+02  0.63021439482E+03  0.63394058388E+03  0.50400001928E-02 0.  1.
       -1    1    3    3    0  502  0.43480405783E+02  0.53103057669E+02 -0.13092456154E+03  0.14782327712E+03  0.50400001928E-02 0. -1.
</event>
<event>
 5   0  0.7221069E-02  0.6330363E+03  0.7818609E-02  0.9839141E-01
       -1   -1    0    0    0  501  0.00000000000E+00  0.00000000000E+00  0.19247205394E+03  0.19247205400E+03  0.50400001928E-02 0. -1.
        1   -1    0    0  501    0  0.00000000000E+00  0.00000000000E+00 -0.52051063779E+03  0.52051063782E+03  0.50400001928E-02 0.  1.
    10030    2    1    2    0    0  0.00000000000E+00  0.00000000000E+00 -0.32803858385E+03  0.71298269182E+03  0.63303633888E+03 0.  0.
        5    1    3    3  502    0  0.72981325231E+02  0.14911619523E+02 -0.51045753288E+03  0.51588527126E+03  0.46999998093E+01 0.  1.
       -5    1    3    3    0  502 -0.72981325231E+02 -0.14911619523E+02  0.18241894903E+03  0.19709742056E+03  0.46999998093E+01 0. -1.
</event>
<event>
 5   0  0.7424930E-02  0.6077328E+03  0.7818609E-02  0.9889492E-01
       -1   -1    0    0    0  501  0.00000000000E+00  0.00000000000E+00  0.20045985186E+03  0.20045985192E+03  0.50400001928E-02 0. -1.
        1   -1    0    0  501    0  0.00000000000E+00  0.00000000000E+00 -0.46061481021E+03  0.46061481023E+03  0.50400001928E-02 0.  1.
    10030    2    1    2    0    0  0.00000000000E+00  0.00000000000E+00 -0.26015495835E+03  0.66107466216E+03  0.60773275919E+03 0.  0.
        3    1    3    3  502    0 -0.25792787515E+03  0.10775726308E+03 -0.25968380897E+03  0.38154175049E+03  0.10100000352E+00 0.  1.
       -3    1    3    3    0  502  0.25792787515E+03 -0.10775726308E+03 -0.47114937346E+00  0.27953291167E+03  0.10100000352E+00 0. -1.
</event>
<event>
 5   0  0.1166419E-01  0.6035489E+03  0.7818609E-02  0.9898070E-01
       -2   -1    0    0    0  501  0.00000000000E+00  0.00000000000E+00  0.43180708350E+03  0.43180708351E+03  0.25500000920E-02 0.  1.
        2   -1    0    0  501    0  0.00000000000E+00  0.00000000000E+00 -0.21089930134E+03  0.21089930135E+03  0.25500000920E-02 0. -1.
    10030    2    1    2    0    0  0.00000000000E+00  0.00000000000E+00  0.22090778217E+03  0.64270638486E+03  0.60354887865E+03 0.  0.
        1    1    3    3  502    0  0.20052691683E+03  0.22363207389E+03  0.14141721398E+03  0.33199574889E+03  0.50400001928E-02 0. -1.
       -1    1    3    3    0  502 -0.20052691683E+03 -0.22363207389E+03  0.79490568187E+02  0.31071063597E+03  0.50400001928E-02 0.  1.
</event>
<event>
 5   0  0.7263385E-02  0.5972674E+03  0.7818609E-02  0.9911092E-01
       -1   -1    0    0    0  501  0.00000000000E+00  0.00000000000E+00  0.73803179060E+03  0.73803179062E+03  0.50400001928E-02 0.  1.
        1   -1    0    0  501    0  0.00000000000E+00  0.00000000000E+00 -0.12083774262E+03  0.12083774273E+03  0.50400001928E-02 0. -1.
    10030    2    1    2    0    0  0.00000000000E+00  0.00000000000E+00  0.61719404797E+03  0.85886953334E+03  0.59726742959E+03 0.  0.
        1    1    3    3  502    0 -0.10226241629E+03 -0.26669210862E+03  0.18323678303E+03  0.33934937935E+03  0.50400001928E-02 0. -1.
       -1    1    3    3    0  502  0.10226241629E+03  0.26669210862E+03  0.43395726495E+03  0.51952015400E+03  0.50400001928E-02 0.  1.
</event>
<event>
 5   0  0.7123340E-02  0.6110940E+03  0.7818609E-02  0.9882653E-01
        1   -1    0    0  501    0  0.00000000000E+00  0.00000000000E+00  0.23388108338E+03  0.23388108344E+03  0.50400001928E-02 0.  1.
       -1   -1    0    0    0  501  0.00000000000E+00  0.00000000000E+00 -0.39917275298E+03  0.39917275301E+03  0.50400001928E-02 0. -1.
    10030    2    1    2    0    0  0.00000000000E+00  0.00000000000E+00 -0.16529166960E+03  0.63305383645E+03  0.61109395661E+03 0.  0.
        2    1    3    3  502    0  0.23646430809E+03  0.54808995569E+02  0.10960200094E+03  0.26633060961E+03  0.25500000920E-02 0.  1.
       -2    1    3    3    0  502 -0.23646430809E+03 -0.54808995569E+02 -0.27489367054E+03  0.36672322684E+03  0.25500000920E-02 0. -1.
</event>
<event>
 5   0  0.7266519E-02  0.6043022E+03  0.7818609E-02  0.9896520E-01
       -1   -1    0    0    0  501  0.00000000000E+00  0.00000000000E+00  0.26226350964E+03  0.26226350968E+03  0.50400001928E-02 0.  1.
        1   -1    0    0  501    0  0.00000000000E+00  0.00000000000E+00 -0.34810523154E+03  0.34810523158E+03  0.50400001928E-02 0. -1.
    10030    2    1    2    0    0  0.00000000000E+00  0.00000000000E+00 -0.85841721903E+02  0.61036874126E+03  0.60430224150E+03 0.  0.
        4    1    3    3  502    0 -0.18724508425E+03 -0.57393278206E+02 -0.27531536380E+03  0.33786812872E+03  0.12699999809E+01 0. -1.
       -4    1    3    3    0  502  0.18724508425E+03  0.57393278206E+02  0.18947364190E+03  0.27250061254E+03  0.12699999809E+01 0.  1.
</event>
<event>
 5   0  0.7123340E-02  0.6054936E+03  0.7818609E-02  0.9894074E-01
       -1   -1    0    0    0  501  0.00000000000E+00  0.00000000000E+00  0.21214287264E+03  0.21214287270E+03  0.50400001928E-02 0. -1.
        1   -1    0    0  501    0  0.00000000000E+00  0.00000000000E+00 -0.43204662571E+03  0.43204662574E+03  0.50400001928E-02 0.  1.
    10030    2    1    2    0    0  0.00000000000E+00  0.00000000000E+00 -0.21990375307E+03  0.64418949844E+03  0.60549355841E+03 0.  0.
        2    1    3    3  502    0 -0.18682085967E+03  0.19722687420E+03  0.32210844937E+02  0.27356537071E+03  0.25500000920E-02 0. -1.
       -2    1    3    3    0  502  0.18682085967E+03 -0.19722687420E+03 -0.25211459801E+03  0.37062412772E+03  0.25500000920E-02 0.  1.
</event>
<event>
 5   0  0.7263385E-02  0.6024108E+03  0.7818609E-02  0.9900417E-01
        1   -1    0    0  501    0  0.00000000000E+00  0.00000000000E+00  0.98501816392E+03  0.98501816393E+03  0.50400001928E-02 0.  1.
       -1   -1    0    0    0  501  0.00000000000E+00  0.00000000000E+00 -0.92104581871E+02  0.92104582008E+02  0.50400001928E-02 0. -1.
    10030    2    1    2    0    0  0.00000000000E+00  0.00000000000E+00  0.89291358205E+03  0.10771227459E+04  0.60241077747E+03 0.  0.
        1    1    3    3  502    0 -0.52378218479E+02 -0.16819625525E+03  0.96114369241E+01  0.17642516203E+03  0.50400001928E-02 0. -1.
       -1    1    3    3    0  502  0.52378218479E+02  0.16819625525E+03  0.88330214513E+03  0.90069758391E+03  0.50400001928E-02 0.  1.
</event>
<event>
 5   0  0.7424930E-02  0.6005595E+03  0.7818609E-02  0.9904246E-01
       -1   -1    0    0    0  501  0.00000000000E+00  0.00000000000E+00  0.82756823144E+03  0.82756823145E+03  0.50400001928E-02 0.  1.
        1   -1    0    0  501    0  0.00000000000E+00  0.00000000000E+00 -0.10895527174E+03  0.10895527186E+03  0.50400001928E-02 0. -1.
    10030    2    1    2    0    0  0.00000000000E+00  0.00000000000E+00  0.71861295970E+03  0.93652350331E+03  0.60055947783E+03 0.  0.
        3    1    3    3  502    0  0.19418434667E+02  0.76387878949E+02 -0.92536793295E+02  0.12155349427E+03  0.10100000352E+00 0. -1.
       -3    1    3    3    0  502 -0.19418434667E+02 -0.76387878949E+02  0.81114975299E+03  0.81497000904E+03  0.10100000352E+00 0.  1.
</event>
<event>
 5   0  0.7266519E-02  0.5958154E+03  0.7818609E-02  0.9914126E-01
        1   -1    0    0  501    0  0.00000000000E+00  0.00000000000E+00  0.18724297624E+04  0.18724297624E+04  0.50400001928E-02 0. -1.
       -1   -1    0    0    0  501  0.00000000000E+00  0.00000000000E+00 -0.47397776694E+02  0.47397776962E+02  0.50400001928E-02 0.  1.
    10030    2    1    2    0    0  0.00000000000E+00  0.00000000000E+00  0.18250319857E+04  0.19198275394E+04  0.59581543457E+03 0.  0.
        4    1    3    3  502    0 -0.46746886831E+02 -0.13471443303E+02  0.18595349799E+04  0.18601716871E+04  0.12699999809E+01 0. -1.
       -4    1    3    3    0  502  0.46746886831E+02  0.13471443303E+02 -0.34502994117E+02  0.59655852320E+02  0.12699999809E+01 0.  1.
</event>
<event>
 5   0  0.1175861E-01  0.6206229E+03  0.7818609E-02  0.9863520E-01
       -2   -1    0    0    0  501  0.00000000000E+00  0.00000000000E+00  0.16137808613E+03  0.16137808615E+03  0.25500000920E-02 0. -1.
        2   -1    0    0  501    0  0.00000000000E+00  0.00000000000E+00 -0.59669316646E+03  0.59669316647E+03  0.25500000920E-02 0.  1.
    10030    2    1    2    0    0  0.00000000000E+00  0.00000000000E+00 -0.43531508033E+03  0.75807125262E+03  0.62062291682E+03 0.  0.
        3    1    3    3  502    0 -0.22095661939E+02  0.22188102731E+03  0.45947053912E+02  0.22766323928E+03  0.10100000352E+00 0. -1.
       -3    1    3    3    0  502  0.22095661939E+02 -0.22188102731E+03 -0.48126213424E+03  0.53040801334E+03  0.10100000352E+00 0.  1.
</event>
<event>
 5   0  0.7123340E-02  0.5889386E+03  0.7818609E-02  0.9928624E-01
       -1   -1    0    0    0  501  0.00000000000E+00  0.00000000000E+00  0.18383201816E+03  0.18383201823E+03  0.50400001928E-02 0.  1.
        1   -1    0    0  501    0  0.00000000000E+00  0.00000000000E+00 -0.47169241406E+03  0.47169241408E+03  0.50400001928E-02 0. -1.
    10030    2    1    2    0    0  0.00000000000E+00  0.00000000000E+00 -0.28786039589E+03  0.65552443231E+03  0.58893859938E+03 0.  0.
        2    1    3    3  502    0  0.13076618810E+03 -0.26380291348E+03 -0.13890348180E+03  0.32555483466E+03  0.25500000920E-02 0.  1.
       -2    1    3    3    0  502 -0.13076618810E+03  0.26380291348E+03 -0.14895691409E+03  0.32996959765E+03  0.25500000920E-02 0. -1.
</event>
<event>
 5   0  0.7424930E-02  0.5837760E+03  0.7818609E-02  0.9939649E-01
        1   -1    0    0  501    0  0.00000000000E+00  0.00000000000E+00  0.30247956013E+03  0.30247956017E+03  0.50400001928E-02 0. -1.
       -1   -1    0    0    0  501  0.00000000000E+00  0.00000000000E+00 -0.28166728228E+03  0.28166728233E+03  0.50400001928E-02 0.  1.
    10030    2    1    2    0    0  0.00000000000E+00  0.00000000000E+00  0.20812277848E+02  0.58414684250E+03  0.58377596961E+03 0.  0.
        3    1    3    3  502    0 -0.52851987507E+02 -0.54330998352E+02  0.29246000091E+03  0.30212257827E+03  0.10100000352E+00 0. -1.
       -3    1    3    3    0  502  0.52851987507E+02  0.54330998352E+02 -0.27164772307E+03  0.28202426423E+03  0.10100000352E+00 0.  1.
</event>
<event>
 5   0  0.4695625E-02  0.5881800E+03  0.7818609E-02  0.9930237E-01
        4   -1    0    0  501    0  0.00000000000E+00  0.00000000000E+00  0.46724666357E+03  0.46724838952E+03  0.12699999809E+01 0.  1.
       -4   -1    0    0    0  501  0.00000000000E+00  0.00000000000E+00 -0.18509910619E+03  0.18510346299E+03  0.12699999809E+01 0. -1.
    10030    2    1    2    0    0  0.00000000000E+00  0.00000000000E+00  0.28214755738E+03  0.65235185251E+03  0.58817998550E+03 0.  0.
        3    1    3    3  502    0 -0.19919615747E+03 -0.35568446828E+02 -0.95622011223E+02  0.22380304465E+03  0.10100000352E+00 0. -1.
       -3    1    3    3    0  502  0.19919615747E+03  0.35568446828E+02  0.37776956860E+03  0.42854880787E+03  0.10100000352E+00 0.  1.
</event>
<event>
 5   0  0.1166419E-01  0.5972254E+03  0.7818609E-02  0.9911179E-01
       -2   -1    0    0    0  501  0.00000000000E+00  0.00000000000E+00  0.95249554402E+02  0.95249554436E+02  0.25500000920E-02 0. -1.
        2   -1    0    0  501    0  0.00000000000E+00  0.00000000000E+00 -0.93616754863E+03  0.93616754864E+03  0.25500000920E-02 0.  1.
    10030    2    1    2    0    0  0.00000000000E+00  0.00000000000E+00 -0.84091799423E+03  0.10314171031E+04  0.59722539086E+03 0.  0.
        1    1    3    3  502    0 -0.37226827943E+02  0.29405761815E+03 -0.35786043095E+03  0.46467172023E+03  0.50400001928E-02 0.  1.
       -1    1    3    3    0  502  0.37226827943E+02 -0.29405761815E+03 -0.48305756328E+03  0.56674538285E+03  0.50400001928E-02 0. -1.
</event>
<event>
 5   0  0.4695625E-02  0.6050052E+03  0.7818609E-02  0.9895076E-01
        3   -1    0    0  501    0  0.00000000000E+00  0.00000000000E+00  0.50935324814E+03  0.50935325816E+03  0.10100000352E+00 0. -1.
       -3   -1    0    0    0  501  0.00000000000E+00  0.00000000000E+00 -0.17965489678E+03  0.17965492517E+03  0.10100000352E+00 0.  1.
    10030    2    1    2    0    0  0.00000000000E+00  0.00000000000E+00  0.32969835136E+03  0.68900818333E+03  0.60500518494E+03 0.  0.
        3    1    3    3  502    0 -0.22274123123E+03  0.17453211454E+02 -0.67401683451E+02  0.23336938063E+03  0.10100000352E+00 0.  1.
       -3    1    3    3    0  502  0.22274123123E+03 -0.17453211454E+02  0.39710003481E+03  0.45563880270E+03  0.10100000352E+00 0. -1.
</event>
<event>
 5   0  0.7263385E-02  0.5395554E+03  0.7818609E-02  0.1003941E+00
        1   -1    0    0  501    0  0.00000000000E+00  0.00000000000E+00  0.62482586754E+03  0.62482586756E+03  0.50400001928E-02 0.  1.
       -1   -1    0    0    0  501  0.00000000000E+00  0.00000000000E+00 -0.11648045750E+03  0.11648045761E+03  0.50400001928E-02 0. -1.
    10030    2    1    2    0    0  0.00000000000E+00  0.00000000000E+00  0.50834541003E+03  0.74130632517E+03  0.53955538348E+03 0.  0.
        1    1    3    3  502    0  0.53524066871E+02 -0.26438321788E+03  0.25978585714E+03  0.37450234075E+03  0.50400001928E-02 0. -1.
       -1    1    3    3    0  502 -0.53524066871E+02  0.26438321788E+03  0.24855955289E+03  0.36680398442E+03  0.50400001928E-02 0.  1.
</event>
<event>
 5   0  0.1219020E-01  0.5949109E+03  0.7818609E-02  0.9916021E-01
       -2   -1    0    0    0  501  0.00000000000E+00  0.00000000000E+00  0.45076838317E+03  0.45076838318E+03  0.25500000920E-02 0.  1.
        2   -1    0    0  501    0  0.00000000000E+00  0.00000000000E+00 -0.19628647580E+03  0.19628647581E+03  0.25500000920E-02 0. -1.
    10030    2    1    2    0    0  0.00000000000E+00  0.00000000000E+00  0.25448190737E+03  0.64705485899E+03  0.59491087514E+03 0.  0.
        2    1    3    3  502    0 -0.17174914749E+03 -0.14247521911E+03 -0.86677392078E+02  0.23939492064E+03  0.25500000920E-02 0. -1.
       -2    1    3    3    0  502  0.17174914749E+03  0.14247521911E+03  0.34115929945E+03  0.40765993835E+03  0.25500000920E-02 0.  1.
</event>
<event>
 5   0  0.7221069E-02  0.6019439E+03  0.7818609E-02  0.9901381E-01
       -1   -1    0    0    0  501  0.00000000000E+00  0.00000000000E+00  0.10182692137E+03  0.10182692149E+03  0.50400001928E-02 0.  1.
        1   -1    0    0  501    0  0.00000000000E+00  0.00000000000E+00 -0.88958918758E+03  0.88958918760E+03  0.50400001928E-02 0. -1.
    10030    2    1    2    0    0  0.00000000000E+00  0.00000000000E+00 -0.78776226621E+03  0.99141610909E+03  0.60194394531E+03 0.  0.
        5    1    3    3  502    0 -0.97032504752E+02  0.41936287973E+02  0.70182534157E+02  0.12697100979E+03  0.46999998093E+01 0.  1.
       -5    1    3    3    0  502  0.97032504752E+02 -0.41936287973E+02 -0.85794480037E+03  0.86444509930E+03  0.46999998093E+01 0. -1.
</event>
<event>
 5   0  0.7266519E-02  0.6016579E+03  0.7818609E-02  0.9901972E-01
       -1   -1    0    0    0  501  0.00000000000E+00  0.00000000000E+00  0.51438397148E+03  0.51438397151E+03  0.50400001928E-02 0. -1.
        1   -1    0    0  501    0  0.00000000000E+00  0.00000000000E+00 -0.17593482350E+03  0.17593482357E+03  0.50400001928E-02 0.  1.
    10030    2    1    2    0    0  0.00000000000E+00  0.00000000000E+00  0.33844914799E+03  0.69031879508E+03  0.60165788706E+03 0.  0.
        4    1    3    3  502    0  0.24233258569E+03 -0.10374641969E+03  0.29243485543E+01  0.26362580753E+03  0.12699999809E+01 0.  1.
       -4    1    3    3    0  502 -0.24233258569E+03  0.10374641969E+03  0.33552479943E+03  0.42669298754E+03  0.12699999809E+01 0. -1.
</event>
<event>
 5   0  0.7424930E-02  0.5953089E+03  0.7818609E-02  0.9915187E-01
       -1   -1    0    0    0  501  0.00000000000E+00  0.00000000000E+00  0.14154225987E+03  0.14154225996E+03  0.50400001928E-02 0. -1.
        1   -1    0    0  501    0  0.00000000000E+00  0.00000000000E+00 -0.62594850798E+03  0.62594850800E+03  0.50400001928E-02 0.  1.
    10030    2    1    2    0    0  0.00000000000E+00  0.00000000000E+00 -0.48440624811E+03  0.76749076796E+03  0.59530888259E+03 0.  0.
        3    1    3    3  502    0  0.27586390939E+02  0.16888563066E+03  0.71784333119E+02  0.18557037988E+03  0.10100000352E+00 0. -1.
       -3    1    3    3    0  502 -0.27586390939E+02 -0.16888563066E+03 -0.55619058123E+03  0.58192038807E+03  0.10100000352E+00 0.  1.
</event>
<event>
 5   0  0.4695625E-02  0.6497708E+03  0.7818609E-02  0.9807209E-01
        3   -1    0    0  501    0  0.00000000000E+00  0.00000000000E+00  0.54345454021E+03  0.54345454959E+03  0.10100000352E+00 0. -1.
       -3   -1    0    0    0  501  0.00000000000E+00  0.00000000000E+00 -0.19422140290E+03  0.19422142916E+03  0.10100000352E+00 0.  1.
    10030    2    1    2    0    0  0.00000000000E+00  0.00000000000E+00  0.34923313731E+03  0.73767597875E+03  0.64977077915E+03 0.  0.
        4    1    3    3  502    0  0.14559461930E+03 -0.28851801090E+03  0.13681872870E+03  0.35094360402E+03  0.12699999809E+01 0.  1.
       -4    1    3    3    0  502 -0.14559461930E+03  0.28851801090E+03  0.21241440860E+03  0.38673237473E+03  0.12699999809E+01 0. -1.
</event>
<event>
 5   0  0.1175861E-01  0.5687974E+03  0.7818609E-02  0.9972343E-01
       -2   -1    0    0    0  501  0.00000000000E+00  0.00000000000E+00  0.45906423854E+02  0.45906423925E+02  0.25500000920E-02 0. -1.
        2   -1    0    0  501    0  0.00000000000E+00  0.00000000000E+00 -0.17619017697E+04  0.17619017697E+04  0.25500000920E-02 0.  1.
    10030    2    1    2    0    0  0.00000000000E+00  0.00000000000E+00 -0.17159953458E+04  0.18078081936E+04  0.56879736108E+03 0.  0.
        3    1    3    3  502    0 -0.12344428368E+03 -0.17404571545E+03 -0.26040813964E+03  0.33666424169E+03  0.10100000352E+00 0. -1.
       -3    1    3    3    0  502  0.12344428368E+03  0.17404571545E+03 -0.14555872062E+04  0.14711439519E+04  0.10100000352E+00 0.  1.
</event>
<event>
 5   0  0.1146468E-01  0.4522551E+03  0.7818609E-02  0.1027052E+00
        2   -1    0    0  501    0  0.00000000000E+00  0.00000000000E+00  0.12899963579E+03  0.12899963581E+03  0.25500000920E-02 0. -1.
       -2   -1    0    0    0  501  0.00000000000E+00  0.00000000000E+00 -0.39638614562E+03  0.39638614563E+03  0.25500000920E-02 0.  1.
    10030    2    1    2    0    0  0.00000000000E+00  0.00000000000E+00 -0.26738650983E+03  0.52538578144E+03  0.45225509803E+03 0.  0.
        4    1    3    3  502    0 -0.25008652625E+02  0.12745721369E+03  0.81335552221E+02  0.15325749242E+03  0.12699999809E+01 0. -1.
       -4    1    3    3    0  502  0.25008652625E+02 -0.12745721369E+03 -0.34872206205E+03  0.37212828902E+03  0.12699999809E+01 0.  1.
</event>
<event>
 5   0  0.7266519E-02  0.5323429E+03  0.7818609E-02  0.1005666E+00
       -1   -1    0    0    0  501  0.00000000000E+00  0.00000000000E+00  0.10254636997E+03  0.10254637009E+03  0.50400001928E-02 0. -1.
        1   -1    0    0  501    0  0.00000000000E+00  0.00000000000E+00 -0.69088011067E+03  0.69088011069E+03  0.50400001928E-02 0.  1.
    10030    2    1    2    0    0  0.00000000000E+00  0.00000000000E+00 -0.58833374070E+03  0.79342648078E+03  0.53234292514E+03 0.  0.
        4    1    3    3  502    0  0.36876835511E+02  0.17924057704E+03 -0.58224494458E+03  0.61032603897E+03  0.12699999809E+01 0.  1.
       -4    1    3    3    0  502 -0.36876835511E+02 -0.17924057704E+03 -0.60887961254E+01  0.18310044181E+03  0.12699999809E+01 0. -1.
</event>
<event>
 5   0  0.7221069E-02  0.5513241E+03  0.7818609E-02  0.1001188E+00
        1   -1    0    0  501    0  0.00000000000E+00  0.00000000000E+00  0.12923332210E+04  0.12923332210E+04  0.50400001928E-02 0. -1.
       -1   -1    0    0    0  501  0.00000000000E+00  0.00000000000E+00 -0.58800289086E+02  0.58800289302E+02  0.50400001928E-02 0.  1.
    10030    2    1    2    0    0  0.00000000000E+00  0.00000000000E+00  0.12335329319E+04  0.13511335103E+04  0.55132410484E+03 0.  0.
        5    1    3    3  502    0 -0.98989253673E+02  0.25143222595E+03  0.48364909896E+03  0.55403571862E+03  0.46999998093E+01 0.  1.
       -5    1    3    3    0  502  0.98989253673E+02 -0.25143222595E+03  0.74988383296E+03  0.79709779169E+03  0.46999998093E+01 0. -1.
</event>
<event>
 5   0  0.1175861E-01  0.5936093E+03  0.7818609E-02  0.9918754E-01
        2   -1    0    0  501    0  0.00000000000E+00  0.00000000000E+00  0.64002350357E+03  0.64002350357E+03  0.25500000920E-02 0. -1.
       -2   -1    0    0    0  501  0.00000000000E+00  0.00000000000E+00 -0.13764024829E+03  0.13764024832E+03  0.25500000920E-02 0.  1.
    10030    2    1    2    0    0  0.00000000000E+00  0.00000000000E+00  0.50238325527E+03  0.77766375189E+03  0.59360927876E+03 0.  0.
        3    1    3    3  502    0  0.14824447998E+03  0.16125635109E+03 -0.11190023737E+02  0.21932912129E+03  0.10100000352E+00 0.  1.
       -3    1    3    3    0  502 -0.14824447998E+03 -0.16125635109E+03  0.51357327901E+03  0.55833463060E+03  0.10100000352E+00 0. -1.
</event>
<event>
 5   0  0.7266519E-02  0.6003140E+03  0.7818609E-02  0.9904755E-01
       -1   -1    0    0    0  501  0.00000000000E+00  0.00000000000E+00  0.76901900567E+03  0.76901900569E+03  0.50400001928E-02 0.  1.
        1   -1    0    0  501    0  0.00000000000E+00  0.00000000000E+00 -0.11715475010E+03  0.11715475021E+03  0.50400001928E-02 0. -1.
    10030    2    1    2    0    0  0.00000000000E+00  0.00000000000E+00  0.65186425556E+03  0.88617375590E+03  0.60031401613E+03 0.  0.
        4    1    3    3  502    0 -0.73652628929E+01  0.19584635762E+03  0.66152479835E+03  0.68994689261E+03  0.12699999809E+01 0.  1.
       -4    1    3    3    0  502  0.73652628929E+01 -0.19584635762E+03 -0.96605427869E+01  0.19622686329E+03  0.12699999809E+01 0. -1.
</event>
<event>
 5   0  0.1175861E-01  0.6032067E+03  0.7818609E-02  0.9898775E-01
        2   -1    0    0  501    0  0.00000000000E+00  0.00000000000E+00  0.61433850753E+03  0.61433850753E+03  0.25500000920E-02 0. -1.
       -2   -1    0    0    0  501  0.00000000000E+00  0.00000000000E+00 -0.14806917277E+03  0.14806917280E+03  0.25500000920E-02 0.  1.
    10030    2    1    2    0    0  0.00000000000E+00  0.00000000000E+00  0.46626933475E+03  0.76240768033E+03  0.60320674606E+03 0.  0.
        3    1    3    3  502    0 -0.37514537162E+02  0.11377715561E+03  0.58297468051E+03  0.59515718088E+03  0.10100000352E+00 0. -1.
       -3    1    3    3    0  502  0.37514537162E+02 -0.11377715561E+03 -0.11670534575E+03  0.16725049945E+03  0.10100000352E+00 0.  1.
</event>
<event>
 5   0  0.7221069E-02  0.5415929E+03  0.7818609E-02  0.1003459E+00
        1   -1    0    0  501    0  0.00000000000E+00  0.00000000000E+00  0.13580678878E+03  0.13580678887E+03  0.50400001928E-02 0. -1.
       -1   -1    0    0    0  501  0.00000000000E+00  0.00000000000E+00 -0.53996361767E+03  0.53996361770E+03  0.50400001928E-02 0.  1.
    10030    2    1    2    0    0  0.00000000000E+00  0.00000000000E+00 -0.40415682889E+03  0.67577040657E+03  0.54159292836E+03 0.  0.
        5    1    3    3  502    0 -0.12220437147E+03  0.49595267653E+02 -0.49712492904E+03  0.51434315787E+03  0.46999998093E+01 0. -1.
       -5    1    3    3    0  502  0.12220437147E+03 -0.49595267653E+02  0.92968100146E+02  0.16142724870E+03  0.46999998093E+01 0.  1.
</event>
<event>
 5   0  0.7123340E-02  0.5806154E+03  0.7818609E-02  0.9946460E-01
        1   -1    0    0  501    0  0.00000000000E+00  0.00000000000E+00  0.14735552368E+03  0.14735552376E+03  0.50400001928E-02 0. -1.
       -1   -1    0    0    0  501  0.00000000000E+00  0.00000000000E+00 -0.57194027513E+03  0.57194027516E+03  0.50400001928E-02 0.  1.
    10030    2    1    2    0    0  0.00000000000E+00  0.00000000000E+00 -0.42458475146E+03  0.71929579892E+03  0.58061539350E+03 0.  0.
        2    1    3    3  502    0 -0.89929665518E+02  0.25519831653E+03 -0.81977096080E+02  0.28272560865E+03  0.25500000920E-02 0. -1.
       -2    1    3    3    0  502  0.89929665518E+02 -0.25519831653E+03 -0.34260765538E+03  0.43657019027E+03  0.25500000920E-02 0.  1.
</event>
<event>
 5   0  0.1206238E-01  0.5974692E+03  0.7818609E-02  0.9910671E-01
        2   -1    0    0  501    0  0.00000000000E+00  0.00000000000E+00  0.15865550111E+03  0.15865550113E+03  0.25500000920E-02 0. -1.
       -2   -1    0    0    0  501  0.00000000000E+00  0.00000000000E+00 -0.56249146803E+03  0.56249146804E+03  0.25500000920E-02 0.  1.
    10030    2    1    2    0    0  0.00000000000E+00  0.00000000000E+00 -0.40383596692E+03  0.72114696916E+03  0.59746921507E+03 0.  0.
        5    1    3    3  502    0  0.21041193784E+03 -0.44318993459E+02 -0.45215767857E+03  0.50070551530E+03  0.46999998093E+01 0.  1.
       -5    1    3    3    0  502 -0.21041193784E+03  0.44318993459E+02  0.48321711642E+02  0.22044145386E+03  0.46999998093E+01 0. -1.
</event>
<event>
 5   0  0.7263385E-02  0.5949169E+03  0.7818609E-02  0.9916008E-01
       -1   -1    0    0    0  501  0.00000000000E+00  0.00000000000E+00  0.17119710233E+03  0.17119710240E+03  0.50400001928E-02 0. -1.
        1   -1    0    0  501    0  0.00000000000E+00  0.00000000000E+00 -0.51684008270E+03  0.51684008272E+03  0.50400001928E-02 0.  1.
    10030    2    1    2    0    0  0.00000000000E+00  0.00000000000E+00 -0.34564298037E+03  0.68803718512E+03  0.59491688346E+03 0.  0.
        1    1    3    3  502    0  0.22950772122E+03  0.17965605760E+03 -0.10409391788E+03  0.30949254740E+03  0.50400001928E-02 0. -1.
       -1    1    3    3    0  502 -0.22950772122E+03 -0.17965605760E+03 -0.24154906249E+03  0.37854463772E+03  0.50400001928E-02 0.  1.
</event>
<event>
 5   0  0.7263385E-02  0.5946168E+03  0.7818609E-02  0.9916638E-01
        1   -1    0    0  501    0  0.00000000000E+00  0.00000000000E+00  0.48768765191E+03  0.48768765194E+03  0.50400001928E-02 0.  1.
       -1   -1    0    0    0  501  0.00000000000E+00  0.00000000000E+00 -0.18124774801E+03  0.18124774808E+03  0.50400001928E-02 0. -1.
    10030    2    1    2    0    0  0.00000000000E+00  0.00000000000E+00  0.30643990390E+03  0.66893540002E+03  0.59461681333E+03 0.  0.
        1    1    3    3  502    0 -0.26825710624E+03  0.31637313890E+01  0.90618954420E+01  0.26842876563E+03  0.50400001928E-02 0. -1.
       -1    1    3    3    0  502  0.26825710624E+03 -0.31637313890E+01  0.29737800846E+03  0.40050663438E+03  0.50400001928E-02 0.  1.
</event>
<event>
 5   0  0.1175861E-01  0.5904953E+03  0.7818609E-02  0.9925324E-01
        2   -1    0    0  501    0  0.00000000000E+00  0.00000000000E+00  0.11682331717E+04  0.11682331717E+04  0.25500000920E-02 0.  1.
       -2   -1    0    0    0  501  0.00000000000E+00  0.00000000000E+00 -0.74617960807E+02  0.74617960850E+02  0.25500000920E-02 0. -1.
    10030    2    1    2    0    0  0.00000000000E+00  0.00000000000E+00  0.10936152109E+04  0.12428511325E+04  0.59049530750E+03 0.  0.
        3    1    3    3  502    0  0.16046414238E+03 -0.88643238108E+02  0.10339348438E+04  0.10500607773E+04  0.10100000352E+00 0.  1.
       -3    1    3    3    0  502 -0.16046414238E+03  0.88643238108E+02  0.59680367097E+02  0.19279035523E+03  0.10100000352E+00 0. -1.
</event>
<event>
 5   0  0.7266519E-02  0.6143602E+03  0.7818609E-02  0.9876053E-01
       -1   -1    0    0    0  501  0.00000000000E+00  0.00000000000E+00  0.84333442955E+02  0.84333443105E+02  0.50400001928E-02 0.  1.
        1   -1    0    0  501    0  0.00000000000E+00  0.00000000000E+00 -0.11188872755E+04  0.11188872755E+04  0.50400001928E-02 0. -1.
    10030    2    1    2    0    0  0.00000000000E+00  0.00000000000E+00 -0.10345538325E+04  0.12032207186E+04  0.61436020808E+03 0.  0.
        4    1    3    3  502    0  0.15195180155E+03 -0.20611576661E+03 -0.84955746466E+03  0.88731198453E+03  0.12699999809E+01 0. -1.
       -4    1    3    3    0  502 -0.15195180155E+03  0.20611576661E+03 -0.18499636788E+03  0.31590873408E+03  0.12699999809E+01 0.  1.
</event>
<event>
 5   0  0.7263385E-02  0.6091573E+03  0.7818609E-02  0.9886588E-01
        1   -1    0    0  501    0  0.00000000000E+00  0.00000000000E+00  0.15667715238E+03  0.15667715246E+03  0.50400001928E-02 0. -1.
       -1   -1    0    0    0  501  0.00000000000E+00  0.00000000000E+00 -0.59209745915E+03  0.59209745917E+03  0.50400001928E-02 0.  1.
    10030    2    1    2    0    0  0.00000000000E+00  0.00000000000E+00 -0.43542030677E+03  0.74877461163E+03  0.60915726662E+03 0.  0.
        1    1    3    3  502    0 -0.32529015873E+02  0.15550615984E+03 -0.53713089549E+03  0.56013382467E+03  0.50400001928E-02 0.  1.
       -1    1    3    3    0  502  0.32529015873E+02 -0.15550615984E+03  0.10171058872E+03  0.18864078696E+03  0.50400001928E-02 0. -1.
</event>
<event>
 5   0  0.1206238E-01  0.5887225E+03  0.7818609E-02  0.9929083E-01
        2   -1    0    0  501    0  0.00000000000E+00  0.00000000000E+00  0.57885502938E+03  0.57885502939E+03  0.25500000920E-02 0.  1.
       -2   -1    0    0    0  501  0.00000000000E+00  0.00000000000E+00 -0.14968955903E+03  0.14968955905E+03  0.25500000920E-02 0. -1.
    10030    2    1    2    0    0  0.00000000000E+00  0.00000000000E+00  0.42916547036E+03  0.72854458844E+03  0.58872252921E+03 0.  0.
        5    1    3    3  502    0 -0.15640077794E+02  0.22163279177E+03 -0.24292606835E+02  0.22355743594E+03  0.46999998093E+01 0. -1.
       -5    1    3    3    0  502  0.15640077794E+02 -0.22163279177E+03  0.45345807719E+03  0.50498715250E+03  0.46999998093E+01 0.  1.
</event>
<event>
 5   0  0.7221069E-02  0.6116663E+03  0.7818609E-02  0.9881493E-01
        1   -1    0    0  501    0  0.00000000000E+00  0.00000000000E+00  0.33597600853E+03  0.33597600857E+03  0.50400001928E-02 0.  1.
       -1   -1    0    0    0  501  0.00000000000E+00  0.00000000000E+00 -0.27839465802E+03  0.27839465807E+03  0.50400001928E-02 0. -1.
    10030    2    1    2    0    0  0.00000000000E+00  0.00000000000E+00  0.57581350511E+02  0.61437066664E+03  0.61166633396E+03 0.  0.
        5    1    3    3  502    0  0.30516873442E+03  0.73522391709E+01  0.47032030915E+02  0.30889498834E+03  0.46999998093E+01 0.  1.
       -5    1    3    3    0  502 -0.30516873442E+03 -0.73522391709E+01  0.10549319596E+02  0.30547567830E+03  0.46999998093E+01 0. -1.
</event>
<event>
 5   0  0.1175861E-01  0.5957755E+03  0.7818609E-02  0.9914210E-01
        2   -1    0    0  501    0  0.00000000000E+00  0.00000000000E+00  0.11051045754E+03  0.11051045757E+03  0.25500000920E-02 0.  1.
       -2   -1    0    0    0  501  0.00000000000E+00  0.00000000000E+00 -0.80297474130E+03  0.80297474131E+03  0.25500000920E-02 0. -1.
    10030    2    1    2    0    0  0.00000000000E+00  0.00000000000E+00 -0.69246428376E+03  0.91348519888E+03  0.59577548145E+03 0.  0.
        3    1    3    3  502    0 -0.60018686857E+02 -0.19006028867E+03 -0.67868149559E+01  0.19942724778E+03  0.10100000352E+00 0.  1.
       -3    1    3    3    0  502  0.60018686857E+02  0.19006028867E+03 -0.68567746880E+03  0.71405795110E+03  0.10100000352E+00 0. -1.
</event>
<event>
 5   0  0.7123340E-02  0.5937321E+03  0.7818609E-02  0.9918496E-01
       -1   -1    0    0    0  501  0.00000000000E+00  0.00000000000E+00  0.68745548017E+03  0.68745548019E+03  0.50400001928E-02 0.  1.
        1   -1    0    0  501    0  0.00000000000E+00  0.00000000000E+00 -0.12819658051E+03  0.12819658061E+03  0.50400001928E-02 0. -1.
    10030    2    1    2    0    0  0.00000000000E+00  0.00000000000E+00  0.55925889966E+03  0.81565206081E+03  0.59373206705E+03 0.  0.
        2    1    3    3  502    0 -0.19938833445E+03  0.43435318162E+02  0.57582647514E+03  0.61091608610E+03  0.25500000920E-02 0.  1.
       -2    1    3    3    0  502  0.19938833445E+03 -0.43435318162E+02 -0.16567575476E+02  0.20473597471E+03  0.25500000920E-02 0. -1.
</event>
<event>
 5   0  0.7266519E-02  0.6052635E+03  0.7818609E-02  0.9894546E-01
        1   -1    0    0  501    0  0.00000000000E+00  0.00000000000E+00  0.91559319664E+03  0.91559319666E+03  0.50400001928E-02 0. -1.
       -1   -1    0    0    0  501  0.00000000000E+00  0.00000000000E+00 -0.10002910339E+03  0.10002910352E+03  0.50400001928E-02 0.  1.
    10030    2    1    2    0    0  0.00000000000E+00  0.00000000000E+00  0.81556409325E+03  0.10156223002E+04  0.60526346859E+03 0.  0.
        4    1    3    3  502    0  0.13197262783E+03 -0.22089857684E+03  0.14050604576E+03  0.29318341963E+03  0.12699999809E+01 0.  1.
       -4    1    3    3    0  502 -0.13197262783E+03  0.22089857684E+03  0.67505804749E+03  0.72243888055E+03  0.12699999809E+01 0. -1.
</event>
<event>
 5   0  0.7263385E-02  0.6072262E+03  0.7818609E-02  0.9890526E-01
       -1   -1    0    0    0  501  0.00000000000E+00  0.00000000000E+00  0.17661494973E+03  0.17661494980E+03  0.50400001928E-02 0. -1.
        1   -1    0    0  501    0  0.00000000000E+00  0.00000000000E+00 -0.52193155672E+03  0.52193155675E+03  0.50400001928E-02 0.  1.
    10030    2    1    2    0    0  0.00000000000E+00  0.00000000000E+00 -0.34531660699E+03  0.69854650655E+03  0.60722620394E+03 0.  0.
        1    1    3    3  502    0  0.91612745461E+01 -0.55130569168E+02  0.17064685665E+03  0.17956519239E+03  0.50400001928E-02 0. -1.
       -1    1    3    3    0  502 -0.91612745461E+01  0.55130569168E+02 -0.51596346364E+03  0.51898131416E+03  0.50400001928E-02 0.  1.
</event>
<event>
 5   0  0.7266519E-02  0.5972264E+03  0.7818609E-02  0.9911177E-01
        1   -1    0    0  501    0  0.00000000000E+00  0.00000000000E+00  0.18421927025E+03  0.18421927032E+03  0.50400001928E-02 0. -1.
       -1   -1    0    0    0  501  0.00000000000E+00  0.00000000000E+00 -0.48404190620E+03  0.48404190623E+03  0.50400001928E-02 0.  1.
    10030    2    1    2    0    0  0.00000000000E+00  0.00000000000E+00 -0.29982263595E+03  0.66826117655E+03  0.59722641189E+03 0.  0.
        4    1    3    3  502    0 -0.29204506851E+03 -0.62062123579E+02 -0.14418340592E+03  0.33156069831E+03  0.12699999809E+01 0. -1.
       -4    1    3    3    0  502  0.29204506851E+03  0.62062123579E+02 -0.15563923003E+03  0.33670047824E+03  0.12699999809E+01 0.  1.
</event>
<event>
 5   0  0.1219020E-01  0.6160806E+03  0.7818609E-02  0.9872594E-01
        2   -1    0    0  501    0  0.00000000000E+00  0.00000000000E+00  0.10482474074E+04  0.10482474074E+04  0.25500000920E-02 0.  1.
       -2   -1    0    0    0  501  0.00000000000E+00  0.00000000000E+00 -0.90521399062E+02  0.90521399098E+02  0.25500000920E-02 0. -1.
    10030    2    1    2    0    0  0.00000000000E+00  0.00000000000E+00  0.95772600835E+03  0.11387688065E+04  0.61608058533E+03 0.  0.
        2    1    3    3  502    0 -0.15017776399E+03 -0.89035550215E+02  0.94796619912E+03  0.96390902303E+03  0.25500000920E-02 0.  1.
       -2    1    3    3    0  502  0.15017776399E+03  0.89035550215E+02  0.97598092348E+01  0.17485978349E+03  0.25500000920E-02 0. -1.
</event>
<event>
 5   0  0.1166419E-01  0.5821652E+03  0.7818609E-02  0.9943114E-01
       -2   -1    0    0    0  501  0.00000000000E+00  0.00000000000E+00  0.17481007846E+03  0.17481007848E+03  0.25500000920E-02 0. -1.
        2   -1    0    0  501    0  0.00000000000E+00  0.00000000000E+00 -0.48469225253E+03  0.48469225253E+03  0.25500000920E-02 0.  1.
    10030    2    1    2    0    0  0.00000000000E+00  0.00000000000E+00 -0.30988217407E+03  0.65950233101E+03  0.58216523669E+03 0.  0.
        1    1    3    3  502    0 -0.27941315124E+03 -0.80580883323E+02 -0.16945311511E+03  0.33656997205E+03  0.50400001928E-02 0. -1.
       -1    1    3    3    0  502  0.27941315124E+03  0.80580883323E+02 -0.14042905896E+03  0.32293235896E+03  0.50400001928E-02 0.  1.
</event>
<event>
 5   0  0.1175861E-01  0.5973630E+03  0.7818609E-02  0.9910892E-01
        2   -1    0    0  501    0  0.00000000000E+00  0.00000000000E+00  0.20203844925E+03  0.20203844927E+03  0.25500000920E-02 0.  1.
       -2   -1    0    0    0  501  0.00000000000E+00  0.00000000000E+00 -0.44155271321E+03  0.44155271322E+03  0.25500000920E-02 0. -1.
    10030    2    1    2    0    0  0.00000000000E+00  0.00000000000E+00 -0.23951426396E+03  0.64359116249E+03  0.59736295650E+03 0.  0.
        3    1    3    3  502    0 -0.13846622369E+03  0.32919322833E+02 -0.40266930672E+03  0.42708214397E+03  0.10100000352E+00 0. -1.
       -3    1    3    3    0  502  0.13846622369E+03 -0.32919322833E+02  0.16315504277E+03  0.21650901852E+03  0.10100000352E+00 0.  1.
</event>
<event>
 5   0  0.1166419E-01  0.6027170E+03  0.7818609E-02  0.9899785E-01
       -2   -1    0    0    0  501  0.00000000000E+00  0.00000000000E+00  0.15241295960E+03  0.15241295962E+03  0.25500000920E-02 0.  1.
        2   -1    0    0  501    0  0.00000000000E+00  0.00000000000E+00 -0.59586099882E+03  0.59586099883E+03  0.25500000920E-02 0. -1.
    10030    2    1    2    0    0  0.00000000000E+00  0.00000000000E+00 -0.44344803922E+03  0.74827395845E+03  0.60271697620E+03 0.  0.
        1    1    3    3  502    0 -0.29596375840E+02  0.61923923639E+02 -0.58602888804E+03  0.59003421547E+03  0.50400001928E-02 0. -1.
       -1    1    3    3    0  502  0.29596375840E+02 -0.61923923639E+02  0.14258084882E+03  0.15823974298E+03  0.50400001928E-02 0.  1.
</event>
<event>
 5   0  0.1146468E-01  0.5546817E+03  0.7818609E-02  0.1000416E+00
       -2   -1    0    0    0  501  0.00000000000E+00  0.00000000000E+00  0.41343252976E+02  0.41343253054E+02  0.25500000920E-02 0. -1.
        2   -1    0    0  501    0  0.00000000000E+00  0.00000000000E+00 -0.18604717351E+04  0.18604717351E+04  0.25500000920E-02 0.  1.
    10030    2    1    2    0    0  0.00000000000E+00  0.00000000000E+00 -0.18191284822E+04  0.19018149882E+04  0.55468172379E+03 0.  0.
        4    1    3    3  502    0  0.10428297715E+03 -0.58663913243E+02 -0.51714171070E+02  0.13035475607E+03  0.12699999809E+01 0. -1.
       -4    1    3    3    0  502 -0.10428297715E+03  0.58663913243E+02 -0.17674143111E+04  0.17714602321E+04  0.12699999809E+01 0.  1.
</event>
<event>
 5   0  0.7424930E-02  0.5968292E+03  0.7818609E-02  0.9912006E-01
       -1   -1    0    0    0  501  0.00000000000E+00  0.00000000000E+00  0.77899262149E+02  0.77899262312E+02  0.50400001928E-02 0.  1.
        1   -1    0    0  501    0  0.00000000000E+00  0.00000000000E+00 -0.11431592328E+04  0.11431592328E+04  0.50400001928E-02 0. -1.
    10030    2    1    2    0    0  0.00000000000E+00  0.00000000000E+00 -0.10652599707E+04  0.12210584951E+04  0.59682915767E+03 0.  0.
        3    1    3    3  502    0  0.67756077889E+01  0.10220940825E+03  0.40803759076E+02  0.11026163862E+03  0.10100000352E+00 0.  1.
       -3    1    3    3    0  502 -0.67756077889E+01 -0.10220940825E+03 -0.11060637297E+04  0.11107968565E+04  0.10100000352E+00 0. -1.
</event>
<event>
 5   0  0.7263385E-02  0.6111423E+03  0.7818609E-02  0.9882555E-01
        1   -1    0    0  501    0  0.00000000000E+00  0.00000000000E+00  0.72535769663E+03  0.72535769665E+03  0.50400001928E-02 0. -1.
       -1   -1    0    0    0  501  0.00000000000E+00  0.00000000000E+00 -0.12872782965E+03  0.12872782974E+03  0.50400001928E-02 0.  1.
    10030    2    1    2    0    0  0.00000000000E+00  0.00000000000E+00  0.59662986698E+03  0.85408552639E+03  0.61114228148E+03 0.  0.
        1    1    3    3  502    0  0.26086895109E+03  0.10001846944E+03  0.47127737830E+03  0.54786738468E+03  0.50400001928E-02 0. -1.
       -1    1    3    3    0  502 -0.26086895109E+03 -0.10001846944E+03  0.12535248868E+03  0.30621814171E+03  0.50400001928E-02 0.  1.
</event>
<event>
 5   0  0.7221069E-02  0.6031532E+03  0.7818609E-02  0.9898886E-01
       -1   -1    0    0    0  501  0.00000000000E+00  0.00000000000E+00  0.10442733878E+03  0.10442733890E+03  0.50400001928E-02 0.  1.
        1   -1    0    0  501    0  0.00000000000E+00  0.00000000000E+00 -0.87092576832E+03  0.87092576833E+03  0.50400001928E-02 0. -1.
    10030    2    1    2    0    0  0.00000000000E+00  0.00000000000E+00 -0.76649842954E+03  0.97535310724E+03  0.60315324862E+03 0.  0.
        5    1    3    3  502    0 -0.26621727243E+03  0.82523201792E+02 -0.56935271075E+03  0.63392926594E+03  0.46999998093E+01 0. -1.
       -5    1    3    3    0  502  0.26621727243E+03 -0.82523201792E+02 -0.19714571879E+03  0.34142384130E+03  0.46999998093E+01 0.  1.
</event>
<event>
 5   0  0.7263385E-02  0.5926102E+03  0.7818609E-02  0.9920857E-01
       -1   -1    0    0    0  501  0.00000000000E+00  0.00000000000E+00  0.17013274659E+03  0.17013274667E+03  0.50400001928E-02 0.  1.
        1   -1    0    0  501    0  0.00000000000E+00  0.00000000000E+00 -0.51604824038E+03  0.51604824040E+03  0.50400001928E-02 0. -1.
    10030    2    1    2    0    0  0.00000000000E+00  0.00000000000E+00 -0.34591549378E+03  0.68618098707E+03  0.59261017387E+03 0.  0.
        1    1    3    3  502    0  0.79515291260E+02 -0.37380877862E+02 -0.50061715449E+03  0.50826916783E+03  0.50400001928E-02 0. -1.
       -1    1    3    3    0  502 -0.79515291260E+02  0.37380877862E+02  0.15470166070E+03  0.17791181924E+03  0.50400001928E-02 0.  1.
</event>
<event>
 5   0  0.7266519E-02  0.4169509E+03  0.7818609E-02  0.1038063E+00
        1   -1    0    0  501    0  0.00000000000E+00  0.00000000000E+00  0.10482140864E+03  0.10482140876E+03  0.50400001928E-02 0. -1.
       -1   -1    0    0    0  501  0.00000000000E+00  0.00000000000E+00 -0.41462918840E+03  0.41462918843E+03  0.50400001928E-02 0.  1.
    10030    2    1    2    0    0  0.00000000000E+00  0.00000000000E+00 -0.30980777976E+03  0.51945059719E+03  0.41695091141E+03 0.  0.
        4    1    3    3  502    0 -0.19774841813E+03  0.17027442249E+02 -0.75462886247E+02  0.21234554566E+03  0.12699999809E+01 0. -1.
       -4    1    3    3    0  502  0.19774841813E+03 -0.17027442249E+02 -0.23434489351E+03  0.30710505153E+03  0.12699999809E+01 0.  1.
</event>
<event>
 5   0  0.7424930E-02  0.6026889E+03  0.7818609E-02  0.9899843E-01
        1   -1    0    0  501    0  0.00000000000E+00  0.00000000000E+00  0.15408141461E+03  0.15408141469E+03  0.50400001928E-02 0.  1.
       -1   -1    0    0    0  501  0.00000000000E+00  0.00000000000E+00 -0.58935389760E+03  0.58935389762E+03  0.50400001928E-02 0. -1.
    10030    2    1    2    0    0  0.00000000000E+00  0.00000000000E+00 -0.43527248299E+03  0.74343531231E+03  0.60268891573E+03 0.  0.
        3    1    3    3  502    0 -0.28623551313E+03  0.85922122773E+02 -0.26533245794E+03  0.39964322038E+03  0.10100000352E+00 0. -1.
       -3    1    3    3    0  502  0.28623551313E+03 -0.85922122773E+02 -0.16994002505E+03  0.34379209193E+03  0.10100000352E+00 0.  1.
</event>
<event>
 5   0  0.1146468E-01  0.6012725E+03  0.7818609E-02  0.9902770E-01
        2   -1    0    0  501    0  0.00000000000E+00  0.00000000000E+00  0.14999206994E+04  0.14999206994E+04  0.25500000920E-02 0.  1.
       -2   -1    0    0    0  501  0.00000000000E+00  0.00000000000E+00 -0.60257946193E+02  0.60257946246E+02  0.25500000920E-02 0. -1.
    10030    2    1    2    0    0  0.00000000000E+00  0.00000000000E+00  0.14396627532E+04  0.15601786457E+04  0.60127245353E+03 0.  0.
        4    1    3    3  502    0  0.18534369114E+03 -0.13945964910E+03  0.12161041188E+04  0.12380275111E+04  0.12699999809E+01 0.  1.
       -4    1    3    3    0  502 -0.18534369114E+03  0.13945964910E+03  0.22355863440E+03  0.32215113455E+03  0.12699999809E+01 0. -1.
</event>
<event>
 5   0  0.7123340E-02  0.6090274E+03  0.7818609E-02  0.9886852E-01
        1   -1    0    0  501    0  0.00000000000E+00  0.00000000000E+00  0.23257308790E+03  0.23257308795E+03  0.50400001928E-02 0. -1.
       -1   -1    0    0    0  501  0.00000000000E+00  0.00000000000E+00 -0.39870728302E+03  0.39870728305E+03  0.50400001928E-02 0.  1.
    10030    2    1    2    0    0  0.00000000000E+00  0.00000000000E+00 -0.16613419512E+03  0.63128037100E+03  0.60902736886E+03 0.  0.
        2    1    3    3  502    0 -0.58732074442E+02 -0.53887578920E+02  0.22156814916E+03  0.23546926011E+03  0.25500000920E-02 0. -1.
       -2    1    3    3    0  502  0.58732074442E+02  0.53887578920E+02 -0.38770234428E+03  0.39581111089E+03  0.25500000920E-02 0.  1.
</event>
<event>
 5   0  0.7424930E-02  0.5988278E+03  0.7818609E-02  0.9907841E-01
       -1   -1    0    0    0  501  0.00000000000E+00  0.00000000000E+00  0.15251560196E+03  0.15251560205E+03  0.50400001928E-02 0.  1.
        1   -1    0    0  501    0  0.00000000000E+00  0.00000000000E+00 -0.58780000420E+03  0.58780000422E+03  0.50400001928E-02 0. -1.
    10030    2    1    2    0    0  0.00000000000E+00  0.00000000000E+00 -0.43528440224E+03  0.74031560627E+03  0.59882775992E+03 0.  0.
        3    1    3    3  502    0 -0.23492862124E+03  0.57046537834E+02 -0.43602198754E+03  0.49855887153E+03  0.10100000352E+00 0. -1.
       -3    1    3    3    0  502  0.23492862124E+03 -0.57046537834E+02  0.73758530804E+00  0.24175673474E+03  0.10100000352E+00 0.  1.
</event>
<event>
 5   0  0.1206238E-01  0.5892221E+03  0.7818609E-02  0.9928022E-01
       -2   -1    0    0    0  501  0.00000000000E+00  0.00000000000E+00  0.38332630687E+03  0.38332630688E+03  0.25500000920E-02 0.  1.
        2   -1    0    0  501    0  0.00000000000E+00  0.00000000000E+00 -0.22642766872E+03  0.22642766874E+03  0.25500000920E-02 0. -1.
    10030    2    1    2    0    0  0.00000000000E+00  0.00000000000E+00  0.15689863815E+03  0.60975397562E+03  0.58922213819E+03 0.  0.
        5    1    3    3  502    0  0.35484992628E+02 -0.17090350935E+03  0.32400752804E+03  0.36806271535E+03  0.46999998093E+01 0.  1.
       -5    1    3    3    0  502 -0.35484992628E+02  0.17090350935E+03 -0.16710888989E+03  0.24169126026E+03  0.46999998093E+01 0. -1.
</event>
<event>
 5   0  0.7123340E-02  0.5984831E+03  0.7818609E-02  0.9908558E-01
        1   -1    0    0  501    0  0.00000000000E+00  0.00000000000E+00  0.54671866840E+03  0.54671866843E+03  0.50400001928E-02 0.  1.
       -1   -1    0    0    0  501  0.00000000000E+00  0.00000000000E+00 -0.16378719668E+03  0.16378719675E+03  0.50400001928E-02 0. -1.
    10030    2    1    2    0    0  0.00000000000E+00  0.00000000000E+00  0.38293147173E+03  0.71050586518E+03  0.59848314297E+03 0.  0.
        2    1    3    3  502    0  0.11674370705E+03  0.20168127362E+03  0.41432998369E+03  0.47536697893E+03  0.25500000920E-02 0.  1.
       -2    1    3    3    0  502 -0.11674370705E+03 -0.20168127362E+03 -0.31398511965E+02  0.23513888625E+03  0.25500000920E-02 0. -1.
</event>
<event>
 5   0  0.7424930E-02  0.6193327E+03  0.7818609E-02  0.9866089E-01
        1   -1    0    0  501    0  0.00000000000E+00  0.00000000000E+00  0.16468873434E+03  0.16468873442E+03  0.50400001928E-02 0. -1.
       -1   -1    0    0    0  501  0.00000000000E+00  0.00000000000E+00 -0.58226962351E+03  0.58226962353E+03  0.50400001928E-02 0.  1.
    10030    2    1    2    0    0  0.00000000000E+00  0.00000000000E+00 -0.41758088917E+03  0.74695835795E+03  0.61933269695E+03 0.  0.
        3    1    3    3  502    0  0.28473730424E+03  0.53665891325E+02 -0.34056632601E+03  0.44714739509E+03  0.10100000352E+00 0.  1.
       -3    1    3    3    0  502 -0.28473730424E+03 -0.53665891325E+02 -0.77014563153E+02  0.29981096287E+03  0.10100000352E+00 0. -1.
</event>
<event>
 5   0  0.7221069E-02  0.6260415E+03  0.7818609E-02  0.9852804E-01
        1   -1    0    0  501    0  0.00000000000E+00  0.00000000000E+00  0.15412739446E+03  0.15412739454E+03  0.50400001928E-02 0.  1.
       -1   -1    0    0    0  501  0.00000000000E+00  0.00000000000E+00 -0.63572089098E+03  0.63572089100E+03  0.50400001928E-02 0. -1.
    10030    2    1    2    0    0  0.00000000000E+00  0.00000000000E+00 -0.48159349653E+03  0.78984828554E+03  0.62604154677E+03 0.  0.
        5    1    3    3  502    0  0.82648374260E+01  0.25948267504E+03 -0.46135315335E+03  0.52940380456E+03  0.46999998093E+01 0. -1.
       -5    1    3    3    0  502 -0.82648374260E+01 -0.25948267504E+03 -0.20240343175E+02  0.26044448098E+03  0.46999998093E+01 0.  1.
</event>
<event>
 5   0  0.1219020E-01  0.5995575E+03  0.7818609E-02  0.9906325E-01
       -2   -1    0    0    0  501  0.00000000000E+00  0.00000000000E+00  0.17607823350E+03  0.17607823352E+03  0.25500000920E-02 0. -1.
        2   -1    0    0  501    0  0.00000000000E+00  0.00000000000E+00 -0.51038275816E+03  0.51038275817E+03  0.25500000920E-02 0.  1.
    10030    2    1    2    0    0  0.00000000000E+00  0.00000000000E+00 -0.33430452466E+03  0.68646099168E+03  0.59955748506E+03 0.  0.
        2    1    3    3  502    0 -0.29120234256E+03  0.53333524012E+02 -0.22114743110E+03  0.36952598742E+03  0.25500000920E-02 0. -1.
       -2    1    3    3    0  502  0.29120234256E+03 -0.53333524012E+02 -0.11315709357E+03  0.31693500426E+03  0.25500000920E-02 0.  1.
</event>
<event>
 5   0  0.1219020E-01  0.5818053E+03  0.7818609E-02  0.9943890E-01
        2   -1    0    0  501    0  0.00000000000E+00  0.00000000000E+00  0.15795447242E+04  0.15795447242E+04  0.25500000920E-02 0.  1.
       -2   -1    0    0    0  501  0.00000000000E+00  0.00000000000E+00 -0.53575147377E+02  0.53575147438E+02  0.25500000920E-02 0. -1.
    10030    2    1    2    0    0  0.00000000000E+00  0.00000000000E+00  0.15259695768E+04  0.16331198717E+04  0.58180526447E+03 0.  0.
        2    1    3    3  502    0 -0.22042879602E+03  0.18283470316E+03  0.61966456149E+03  0.68264306308E+03  0.25500000920E-02 0. -1.
       -2    1    3    3    0  502  0.22042879602E+03 -0.18283470316E+03  0.90630501534E+03  0.95047680858E+03  0.25500000920E-02 0.  1.
</event>
<event>
 5   0  0.1206238E-01  0.5829685E+03  0.7818609E-02  0.9941385E-01
        2   -1    0    0  501    0  0.00000000000E+00  0.00000000000E+00  0.68284669104E+03  0.68284669104E+03  0.25500000920E-02 0.  1.
       -2   -1    0    0    0  501  0.00000000000E+00  0.00000000000E+00 -0.12442481837E+03  0.12442481840E+03  0.25500000920E-02 0. -1.
    10030    2    1    2    0    0  0.00000000000E+00  0.00000000000E+00  0.55842187266E+03  0.80727150944E+03  0.58296852581E+03 0.  0.
        5    1    3    3  502    0  0.42621372120E+02  0.22660764892E+03  0.32376238172E+02  0.23289035770E+03  0.46999998093E+01 0. -1.
       -5    1    3    3    0  502 -0.42621372120E+02 -0.22660764892E+03  0.52604563449E+03  0.57438115174E+03  0.46999998093E+01 0.  1.
</event>
<event>
 5   0  0.1146468E-01  0.5685469E+03  0.7818609E-02  0.9972899E-01
       -2   -1    0    0    0  501  0.00000000000E+00  0.00000000000E+00  0.54820216810E+02  0.54820216869E+02  0.25500000920E-02 0.  1.
        2   -1    0    0  501    0  0.00000000000E+00  0.00000000000E+00 -0.14741168611E+04  0.14741168611E+04  0.25500000920E-02 0. -1.
    10030    2    1    2    0    0  0.00000000000E+00  0.00000000000E+00 -0.14192966443E+04  0.15289370780E+04  0.56854694081E+03 0.  0.
        4    1    3    3  502    0 -0.13418651032E+03 -0.11817321953E+02 -0.13828307541E+04  0.13893769021E+04  0.12699999809E+01 0. -1.
       -4    1    3    3    0  502  0.13418651032E+03  0.11817321953E+02 -0.36465890206E+02  0.13956017591E+03  0.12699999809E+01 0.  1.
</event>
<event>
 5   0  0.7263385E-02  0.5906930E+03  0.7818609E-02  0.9924906E-01
       -1   -1    0    0    0  501  0.00000000000E+00  0.00000000000E+00  0.87682020321E+02  0.87682020466E+02  0.50400001928E-02 0. -1.
        1   -1    0    0  501    0  0.00000000000E+00  0.00000000000E+00 -0.99483962295E+03  0.99483962296E+03  0.50400001928E-02 0.  1.
    10030    2    1    2    0    0  0.00000000000E+00  0.00000000000E+00 -0.90715760262E+03  0.10825216434E+04  0.59069297650E+03 0.  0.
        1    1    3    3  502    0  0.88966173535E+02 -0.14811915276E+03 -0.89255119377E+03  0.90912149736E+03  0.50400001928E-02 0.  1.
       -1    1    3    3    0  502 -0.88966173535E+02  0.14811915276E+03 -0.14606408858E+02  0.17340014606E+03  0.50400001928E-02 0. -1.
</event>
<event>
 5   0  0.1146468E-01  0.6051947E+03  0.7818609E-02  0.9894687E-01
       -2   -1    0    0    0  501  0.00000000000E+00  0.00000000000E+00  0.71763965363E+02  0.71763965408E+02  0.25500000920E-02 0. -1.
        2   -1    0    0  501    0  0.00000000000E+00  0.00000000000E+00 -0.12759209665E+04  0.12759209665E+04  0.25500000920E-02 0.  1.
    10030    2    1    2    0    0  0.00000000000E+00  0.00000000000E+00 -0.12041570012E+04  0.13476849319E+04  0.60519467308E+03 0.  0.
        4    1    3    3  502    0  0.37575039710E+02 -0.24755942868E+03 -0.98042213856E+03  0.10118926509E+04  0.12699999809E+01 0.  1.
       -4    1    3    3    0  502 -0.37575039710E+02  0.24755942868E+03 -0.22373486261E+03  0.33579228101E+03  0.12699999809E+01 0. -1.
</event>
<event>
 5   0  0.7266519E-02  0.6025324E+03  0.7818609E-02  0.9900166E-01
       -1   -1    0    0    0  501  0.00000000000E+00  0.00000000000E+00  0.21092460988E+03  0.21092460994E+03  0.50400001928E-02 0. -1.
        1   -1    0    0  501    0  0.00000000000E+00  0.00000000000E+00 -0.43030225735E+03  0.43030225738E+03  0.50400001928E-02 0.  1.
    10030    2    1    2    0    0  0.00000000000E+00  0.00000000000E+00 -0.21937764747E+03  0.64122686732E+03  0.60253244158E+03 0.  0.
        4    1    3    3  502    0 -0.75295376053E+02  0.35725393801E+02 -0.41778735331E+03  0.42602063671E+03  0.12699999809E+01 0.  1.
       -4    1    3    3    0  502  0.75295376053E+02 -0.35725393801E+02  0.19840970584E+03  0.21520623060E+03  0.12699999809E+01 0. -1.
</event>
<event>
 5   0  0.1166419E-01  0.5959603E+03  0.7818609E-02  0.9913823E-01
        2   -1    0    0  501    0  0.00000000000E+00  0.00000000000E+00  0.12558130524E+04  0.12558130524E+04  0.25500000920E-02 0.  1.
       -2   -1    0    0    0  501  0.00000000000E+00  0.00000000000E+00 -0.70704921424E+02  0.70704921470E+02  0.25500000920E-02 0. -1.
    10030    2    1    2    0    0  0.00000000000E+00  0.00000000000E+00  0.11851081310E+04  0.13265179739E+04  0.59596027796E+03 0.  0.
        1    1    3    3  502    0  0.14296242189E+01 -0.13956306878E+03  0.11785584745E+04  0.11867939888E+04  0.50400001928E-02 0.  1.
       -1    1    3    3    0  502 -0.14296242189E+01  0.13956306878E+03  0.65496565198E+01  0.13972398512E+03  0.50400001928E-02 0. -1.
</event>
<event>
 5   0  0.7424930E-02  0.6013611E+03  0.7818609E-02  0.9902586E-01
       -1   -1    0    0    0  501  0.00000000000E+00  0.00000000000E+00  0.67548478497E+02  0.67548478685E+02  0.50400001928E-02 0.  1.
        1   -1    0    0  501    0  0.00000000000E+00  0.00000000000E+00 -0.13384282390E+04  0.13384282390E+04  0.50400001928E-02 0. -1.
    10030    2    1    2    0    0  0.00000000000E+00  0.00000000000E+00 -0.12708797605E+04  0.14059767177E+04  0.60136109371E+03 0.  0.
        3    1    3    3  502    0  0.25536251867E+03 -0.46895995205E+02 -0.99001012701E+03  0.10234887943E+04  0.10100000352E+00 0.  1.
       -3    1    3    3    0  502 -0.25536251867E+03  0.46895995205E+02 -0.28086963347E+03  0.38248792335E+03  0.10100000352E+00 0. -1.
</event>
<event>
 5   0  0.1175861E-01  0.5708094E+03  0.7818609E-02  0.9967889E-01
       -2   -1    0    0    0  501  0.00000000000E+00  0.00000000000E+00  0.25669194046E+03  0.25669194047E+03  0.25500000920E-02 0.  1.
        2   -1    0    0  501    0  0.00000000000E+00  0.00000000000E+00 -0.31732922212E+03  0.31732922213E+03  0.25500000920E-02 0. -1.
    10030    2    1    2    0    0  0.00000000000E+00  0.00000000000E+00 -0.60637281667E+02  0.57402116260E+03  0.57080943859E+03 0.  0.
        3    1    3    3  502    0  0.27701559899E+03  0.43663048693E+02  0.23005554898E+02  0.28137762822E+03  0.10100000352E+00 0.  1.
       -3    1    3    3    0  502 -0.27701559899E+03 -0.43663048693E+02 -0.83642836565E+02  0.29264353438E+03  0.10100000352E+00 0. -1.
</event>
<event>
 5   0  0.7221069E-02  0.6010459E+03  0.7818609E-02  0.9903239E-01
       -1   -1    0    0    0  501  0.00000000000E+00  0.00000000000E+00  0.54237986802E+03  0.54237986804E+03  0.50400001928E-02 0.  1.
        1   -1    0    0  501    0  0.00000000000E+00  0.00000000000E+00 -0.16651435340E+03  0.16651435348E+03  0.50400001928E-02 0. -1.
    10030    2    1    2    0    0  0.00000000000E+00  0.00000000000E+00  0.37586551461E+03  0.70889422152E+03  0.60104586533E+03 0.  0.
        5    1    3    3  502    0 -0.81806243553E+02  0.65849266300E+02  0.51998819578E+03  0.53050749392E+03  0.46999998093E+01 0.  1.
       -5    1    3    3    0  502  0.81806243553E+02 -0.65849266300E+02 -0.14412268117E+03  0.17838672760E+03  0.46999998093E+01 0. -1.
</event>
<event>
 5   0  0.1166419E-01  0.5801170E+03  0.7818609E-02  0.9947538E-01
       -2   -1    0    0    0  501  0.00000000000E+00  0.00000000000E+00  0.27962713067E+03  0.27962713068E+03  0.25500000920E-02 0. -1.
        2   -1    0    0  501    0  0.00000000000E+00  0.00000000000E+00 -0.30087899733E+03  0.30087899735E+03  0.25500000920E-02 0.  1.
    10030    2    1    2    0    0  0.00000000000E+00  0.00000000000E+00 -0.21251866668E+02  0.58050612802E+03  0.58011699065E+03 0.  0.
        1    1    3    3  502    0  0.21638164920E+03  0.98695522048E+02  0.15553395701E+03  0.28417008286E+03  0.50400001928E-02 0. -1.
       -1    1    3    3    0  502 -0.21638164920E+03 -0.98695522048E+02 -0.17678582368E+03  0.29633604516E+03  0.50400001928E-02 0.  1.
</event>
<event>
 5   0  0.1175861E-01  0.6015154E+03  0.7818609E-02  0.9902267E-01
        2   -1    0    0  501    0  0.00000000000E+00  0.00000000000E+00  0.14495972871E+04  0.14495972871E+04  0.25500000920E-02 0.  1.
       -2   -1    0    0    0  501  0.00000000000E+00  0.00000000000E+00 -0.62400225557E+02  0.62400225609E+02  0.25500000920E-02 0. -1.
    10030    2    1    2    0    0  0.00000000000E+00  0.00000000000E+00  0.13871970616E+04  0.15119975128E+04  0.60151541202E+03 0.  0.
        3    1    3    3  502    0 -0.11193906169E+03  0.50997184975E+02  0.13834750349E+04  0.13889327733E+04  0.10100000352E+00 0.  1.
       -3    1    3    3    0  502  0.11193906169E+03 -0.50997184975E+02  0.37220266789E+01  0.12306473943E+03  0.10100000352E+00 0. -1.
</event>
<event>
 5   0  0.7221069E-02  0.5666386E+03  0.7818609E-02  0.9977145E-01
       -1   -1    0    0    0  501  0.00000000000E+00  0.00000000000E+00  0.53052200303E+02  0.53052200542E+02  0.50400001928E-02 0. -1.
        1   -1    0    0  501    0  0.00000000000E+00  0.00000000000E+00 -0.15130348225E+04  0.15130348225E+04  0.50400001928E-02 0.  1.
    10030    2    1    2    0    0  0.00000000000E+00  0.00000000000E+00 -0.14599826222E+04  0.15660870230E+04  0.56663860321E+03 0.  0.
        5    1    3    3  502    0  0.15794128277E+03  0.80153844470E+02 -0.13410246226E+04  0.13526785339E+04  0.46999998093E+01 0.  1.
       -5    1    3    3    0  502 -0.15794128277E+03 -0.80153844470E+02 -0.11895799959E+03  0.21340848917E+03  0.46999998093E+01 0. -1.
</event>
<event>
 5   0  0.7266519E-02  0.5893439E+03  0.7818609E-02  0.9927764E-01
       -1   -1    0    0    0  501  0.00000000000E+00  0.00000000000E+00  0.12544855727E+03  0.12544855738E+03  0.50400001928E-02 0.  1.
        1   -1    0    0  501    0  0.00000000000E+00  0.00000000000E+00 -0.69216863439E+03  0.69216863441E+03  0.50400001928E-02 0. -1.
    10030    2    1    2    0    0  0.00000000000E+00  0.00000000000E+00 -0.56672007711E+03  0.81761719178E+03  0.58934389493E+03 0.  0.
        4    1    3    3  502    0  0.11538446602E+03  0.17596426713E+03  0.28244156663E+01  0.21044378948E+03  0.12699999809E+01 0.  1.
       -4    1    3    3    0  502 -0.11538446602E+03 -0.17596426713E+03 -0.56954449278E+03  0.60717340230E+03  0.12699999809E+01 0. -1.
</event>
<event>
 5   0  0.7123340E-02  0.5851171E+03  0.7818609E-02  0.9936774E-01
        1   -1    0    0  501    0  0.00000000000E+00  0.00000000000E+00  0.13932862721E+04  0.13932862721E+04  0.50400001928E-02 0. -1.
       -1   -1    0    0    0  501  0.00000000000E+00  0.00000000000E+00 -0.61430670198E+02  0.61430670405E+02  0.50400001928E-02 0.  1.
    10030    2    1    2    0    0  0.00000000000E+00  0.00000000000E+00  0.13318556019E+04  0.14547169425E+04  0.58511711522E+03 0.  0.
        2    1    3    3  502    0  0.20936953556E+03  0.12987648034E+03  0.27371475921E+03  0.36827065045E+03  0.25500000920E-02 0.  1.
       -2    1    3    3    0  502 -0.20936953556E+03 -0.12987648034E+03  0.10581408427E+04  0.10864462921E+04  0.25500000920E-02 0. -1.
</event>
<event>
 5   0  0.1146468E-01  0.6279856E+03  0.7818609E-02  0.9848988E-01
        2   -1    0    0  501    0  0.00000000000E+00  0.00000000000E+00  0.52635277169E+03  0.52635277170E+03  0.25500000920E-02 0.  1.
       -2   -1    0    0    0  501  0.00000000000E+00  0.00000000000E+00 -0.18731063711E+03  0.18731063713E+03  0.25500000920E-02 0. -1.
    10030    2    1    2    0    0  0.00000000000E+00  0.00000000000E+00  0.33904213458E+03  0.71366340883E+03  0.62798558270E+03 0.  0.
        4    1    3    3  502    0  0.29387488719E+03 -0.95549675497E+02  0.23277118721E+03  0.38688012136E+03  0.12699999809E+01 0.  1.
       -4    1    3    3    0  502 -0.29387488719E+03  0.95549675497E+02  0.10627094737E+03  0.32678328746E+03  0.12699999809E+01 0. -1.
</event>
<event>
 5   0  0.1166419E-01  0.6131910E+03  0.7818609E-02  0.9878411E-01
        2   -1    0    0  501    0  0.00000000000E+00  0.00000000000E+00  0.38289162883E+03  0.38289162884E+03  0.25500000920E-02 0.  1.
       -2   -1    0    0    0  501  0.00000000000E+00  0.00000000000E+00 -0.24550237923E+03  0.24550237924E+03  0.25500000920E-02 0. -1.
    10030    2    1    2    0    0  0.00000000000E+00  0.00000000000E+00  0.13738924960E+03  0.62839400809E+03  0.61319101713E+03 0.  0.
        1    1    3    3  502    0 -0.22867456981E+02  0.20854939179E+03  0.29781106749E+03  0.36428999622E+03  0.50400001928E-02 0.  1.
       -1    1    3    3    0  502  0.22867456981E+02 -0.20854939179E+03 -0.16042181788E+03  0.26410401186E+03  0.50400001928E-02 0. -1.
</event>
<event>
 5   0  0.7263385E-02  0.6046722E+03  0.7818609E-02  0.9895760E-01
       -1   -1    0    0    0  501  0.00000000000E+00  0.00000000000E+00  0.32469028891E+03  0.32469028895E+03  0.50400001928E-02 0.  1.
        1   -1    0    0  501    0  0.00000000000E+00  0.00000000000E+00 -0.28152095652E+03  0.28152095656E+03  0.50400001928E-02 0. -1.
    10030    2    1    2    0    0  0.00000000000E+00  0.00000000000E+00  0.43169332398E+02  0.60621124552E+03  0.60467221114E+03 0.  0.
        1    1    3    3  502    0  0.96896073536E+02 -0.20869626638E+03 -0.17503728060E+03  0.28910383998E+03  0.50400001928E-02 0. -1.
       -1    1    3    3    0  502 -0.96896073536E+02  0.20869626638E+03  0.21820661299E+03  0.31710740554E+03  0.50400001928E-02 0.  1.
</event>
<event>
 5   0  0.1206238E-01  0.5960947E+03  0.7818609E-02  0.9913542E-01
       -2   -1    0    0    0  501  0.00000000000E+00  0.00000000000E+00  0.13315474979E+03  0.13315474982E+03  0.25500000920E-02 0. -1.
        2   -1    0    0  501    0  0.00000000000E+00  0.00000000000E+00 -0.66713528196E+03  0.66713528197E+03  0.25500000920E-02 0.  1.
    10030    2    1    2    0    0  0.00000000000E+00  0.00000000000E+00 -0.53398053217E+03  0.80029003178E+03  0.59609472925E+03 0.  0.
        5    1    3    3  502    0 -0.97348295416E+02  0.43257866341E+02  0.10667012290E+03  0.15082618717E+03  0.46999998093E+01 0. -1.
       -5    1    3    3    0  502  0.97348295416E+02 -0.43257866341E+02 -0.64065065507E+03  0.64946384461E+03  0.46999998093E+01 0.  1.
</event>
<event>
 5   0  0.7266519E-02  0.5873439E+03  0.7818609E-02  0.9932017E-01
        1   -1    0    0  501    0  0.00000000000E+00  0.00000000000E+00  0.51334729487E+03  0.51334729490E+03  0.50400001928E-02 0. -1.
       -1   -1    0    0    0  501  0.00000000000E+00  0.00000000000E+00 -0.16800169093E+03  0.16800169101E+03  0.50400001928E-02 0.  1.
    10030    2    1    2    0    0  0.00000000000E+00  0.00000000000E+00  0.34534560394E+03  0.68134898591E+03  0.58734389793E+03 0.  0.
        4    1    3    3  502    0  0.20012810292E+03  0.17377285965E+03  0.31937840084E+03  0.41503305911E+03  0.12699999809E+01 0. -1.
       -4    1    3    3    0  502 -0.20012810292E+03 -0.17377285965E+03  0.25967203097E+02  0.26631592680E+03  0.12699999809E+01 0.  1.
</event>
<event>
 5   0  0.7424930E-02  0.6055368E+03  0.7818609E-02  0.9893985E-01
        1   -1    0    0  501    0  0.00000000000E+00  0.00000000000E+00  0.24815816256E+03  0.24815816261E+03  0.50400001928E-02 0. -1.
       -1   -1    0    0    0  501  0.00000000000E+00  0.00000000000E+00 -0.36939623400E+03  0.36939623404E+03  0.50400001928E-02 0.  1.
    10030    2    1    2    0    0  0.00000000000E+00  0.00000000000E+00 -0.12123807144E+03  0.61755439665E+03  0.60553675599E+03 0.  0.
        3    1    3    3  502    0 -0.62802982877E+02 -0.25484455519E+03  0.93302487428E+02  0.27855937667E+03  0.10100000352E+00 0.  1.
       -3    1    3    3    0  502  0.62802982877E+02  0.25484455519E+03 -0.21454055887E+03  0.33899501998E+03  0.10100000352E+00 0. -1.
</event>
<event>
 5   0  0.4695625E-02  0.6243610E+03  0.7818609E-02  0.9856115E-01
        3   -1    0    0  501    0  0.00000000000E+00  0.00000000000E+00  0.33297545057E+03  0.33297546589E+03  0.10100000352E+00 0.  1.
       -3   -1    0    0    0  501  0.00000000000E+00  0.00000000000E+00 -0.29268419091E+03  0.29268420833E+03  0.10100000352E+00 0. -1.
    10030    2    1    2    0    0  0.00000000000E+00  0.00000000000E+00  0.40291259669E+02  0.62565967422E+03  0.62436098721E+03 0.  0.
        4    1    3    3  502    0  0.21582353732E+03  0.12349148736E+03  0.20928435504E+03  0.32501000119E+03  0.12699999809E+01 0.  1.
       -4    1    3    3    0  502 -0.21582353732E+03 -0.12349148736E+03 -0.16899309537E+03  0.30064967303E+03  0.12699999809E+01 0. -1.
</event>
<event>
 5   0  0.7123340E-02  0.5936004E+03  0.7818609E-02  0.9918773E-01
       -1   -1    0    0    0  501  0.00000000000E+00  0.00000000000E+00  0.18124247234E+03  0.18124247241E+03  0.50400001928E-02 0. -1.
        1   -1    0    0  501    0  0.00000000000E+00  0.00000000000E+00 -0.48603595925E+03  0.48603595928E+03  0.50400001928E-02 0.  1.
    10030    2    1    2    0    0  0.00000000000E+00  0.00000000000E+00 -0.30479348691E+03  0.66727843169E+03  0.59360040072E+03 0.  0.
        2    1    3    3  502    0 -0.86530642837E+02  0.19258705502E+03  0.82092313556E+02  0.22653139707E+03  0.25500000920E-02 0. -1.
       -2    1    3    3    0  502  0.86530642837E+02 -0.19258705502E+03 -0.38688580047E+03  0.44074703461E+03  0.25500000920E-02 0.  1.
</event>
<event>
 5   0  0.4695625E-02  0.5977368E+03  0.7818609E-02  0.9910113E-01
       -3   -1    0    0    0  501  0.00000000000E+00  0.00000000000E+00  0.77869770619E+03  0.77869771274E+03  0.10100000352E+00 0.  1.
        3   -1    0    0  501    0  0.00000000000E+00  0.00000000000E+00 -0.11470728264E+03  0.11470732711E+03  0.10100000352E+00 0. -1.
    10030    2    1    2    0    0  0.00000000000E+00  0.00000000000E+00  0.66399042354E+03  0.89340503984E+03  0.59773680049E+03 0.  0.
        1    1    3    3  502    0 -0.64166552611E+02  0.39278560544E+02  0.76431285815E+03  0.76800670372E+03  0.50400001928E-02 0.  1.
       -1    1    3    3    0  502  0.64166552611E+02 -0.39278560544E+02 -0.10032243461E+03  0.12539833613E+03  0.50400001928E-02 0. -1.
</event>
<event>
 5   0  0.1146468E-01  0.5792823E+03  0.7818609E-02  0.9949346E-01
       -2   -1    0    0    0  501  0.00000000000E+00  0.00000000000E+00  0.70513530035E+03  0.70513530035E+03  0.25500000920E-02 0.  1.
        2   -1    0    0  501    0  0.00000000000E+00  0.00000000000E+00 -0.11897291363E+03  0.11897291366E+03  0.25500000920E-02 0. -1.
    10030    2    1    2    0    0  0.00000000000E+00  0.00000000000E+00  0.58616238671E+03  0.82410821401E+03  0.57928231874E+03 0.  0.
        4    1    3    3  502    0  0.71218084369E+02 -0.14897129167E+03  0.63161467864E+03  0.65284238256E+03  0.12699999809E+01 0.  1.
       -4    1    3    3    0  502 -0.71218084369E+02  0.14897129167E+03 -0.45452291931E+02  0.17126583146E+03  0.12699999809E+01 0. -1.
</event>
<event>
 5   0  0.7263385E-02  0.5983151E+03  0.7818609E-02  0.9908908E-01
       -1   -1    0    0    0  501  0.00000000000E+00  0.00000000000E+00  0.16129822066E+03  0.16129822074E+03  0.50400001928E-02 0. -1.
        1   -1    0    0  501    0  0.00000000000E+00  0.00000000000E+00 -0.55484340628E+03  0.55484340630E+03  0.50400001928E-02 0.  1.
    10030    2    1    2    0    0  0.00000000000E+00  0.00000000000E+00 -0.39354518562E+03  0.71614162704E+03  0.59831514844E+03 0.  0.
        1    1    3    3  502    0 -0.12233076739E+03 -0.41791955436E+02  0.12614112278E+03  0.18061829108E+03  0.50400001928E-02 0. -1.
       -1    1    3    3    0  502  0.12233076739E+03  0.41791955436E+02 -0.51968630840E+03  0.53552333596E+03  0.50400001928E-02 0.  1.
</event>
<event>
 5   0  0.7424930E-02  0.5985402E+03  0.7818609E-02  0.9908439E-01
       -1   -1    0    0    0  501  0.00000000000E+00  0.00000000000E+00  0.10099503528E+03  0.10099503541E+03  0.50400001928E-02 0.  1.
        1   -1    0    0  501    0  0.00000000000E+00  0.00000000000E+00 -0.88680194373E+03  0.88680194374E+03  0.50400001928E-02 0. -1.
    10030    2    1    2    0    0  0.00000000000E+00  0.00000000000E+00 -0.78580690845E+03  0.98779697915E+03  0.59854020304E+03 0.  0.
        3    1    3    3  502    0 -0.25861716416E+03 -0.15046440092E+03 -0.40336849573E+03  0.50222358277E+03  0.10100000352E+00 0. -1.
       -3    1    3    3    0  502  0.25861716416E+03  0.15046440092E+03 -0.38243841272E+03  0.48557339638E+03  0.10100000352E+00 0.  1.
</event>
<event>
 5   0  0.1219020E-01  0.5811909E+03  0.7818609E-02  0.9945216E-01
       -2   -1    0    0    0  501  0.00000000000E+00  0.00000000000E+00  0.35241137916E+03  0.35241137917E+03  0.25500000920E-02 0.  1.
        2   -1    0    0  501    0  0.00000000000E+00  0.00000000000E+00 -0.23962253557E+03  0.23962253559E+03  0.25500000920E-02 0. -1.
    10030    2    1    2    0    0  0.00000000000E+00  0.00000000000E+00  0.11278884359E+03  0.59203391475E+03  0.58119087483E+03 0.  0.
        2    1    3    3  502    0 -0.22581439471E+03 -0.29882103007E+02  0.24020655736E+03  0.33103515091E+03  0.25500000920E-02 0.  1.
       -2    1    3    3    0  502  0.22581439471E+03  0.29882103007E+02 -0.12741771377E+03  0.26099876384E+03  0.25500000920E-02 0. -1.
</event>
<event>
 5   0  0.1146468E-01  0.6050295E+03  0.7818609E-02  0.9895026E-01
       -2   -1    0    0    0  501  0.00000000000E+00  0.00000000000E+00  0.80426153788E+02  0.80426153828E+02  0.25500000920E-02 0. -1.
        2   -1    0    0  501    0  0.00000000000E+00  0.00000000000E+00 -0.11378781722E+04  0.11378781722E+04  0.25500000920E-02 0.  1.
    10030    2    1    2    0    0  0.00000000000E+00  0.00000000000E+00 -0.10574520184E+04  0.12183043260E+04  0.60502947001E+03 0.  0.
        4    1    3    3  502    0  0.48091016811E+02  0.19728023143E+02  0.71360871085E+02  0.88294550325E+02  0.12699999809E+01 0. -1.
       -4    1    3    3    0  502 -0.48091016811E+02 -0.19728023143E+02 -0.11288128895E+04  0.11300097757E+04  0.12699999809E+01 0.  1.
</event>
<event>
 5   0  0.7221069E-02  0.5882822E+03  0.7818609E-02  0.9930019E-01
        1   -1    0    0  501    0  0.00000000000E+00  0.00000000000E+00  0.15341312424E+04  0.15341312424E+04  0.50400001928E-02 0.  1.
       -1   -1    0    0    0  501  0.00000000000E+00  0.00000000000E+00 -0.56396088371E+02  0.56396088596E+02  0.50400001928E-02 0. -1.
    10030    2    1    2    0    0  0.00000000000E+00  0.00000000000E+00  0.14777351541E+04  0.15905273310E+04  0.58828224962E+03 0.  0.
        5    1    3    3  502    0 -0.28930478207E+03 -0.30207258194E+02  0.62141526062E+03  0.68614047505E+03  0.46999998093E+01 0. -1.
       -5    1    3    3    0  502  0.28930478207E+03  0.30207258194E+02  0.85631989343E+03  0.90438685597E+03  0.46999998093E+01 0.  1.
</event>
<event>
 5   0  0.1146468E-01  0.5921027E+03  0.7818609E-02  0.9921927E-01
       -2   -1    0    0    0  501  0.00000000000E+00  0.00000000000E+00  0.75953070235E+02  0.75953070278E+02  0.25500000920E-02 0. -1.
        2   -1    0    0  501    0  0.00000000000E+00  0.00000000000E+00 -0.11539548080E+04  0.11539548080E+04  0.25500000920E-02 0.  1.
    10030    2    1    2    0    0  0.00000000000E+00  0.00000000000E+00 -0.10780017378E+04  0.12299078783E+04  0.59210272963E+03 0.  0.
        4    1    3    3  502    0 -0.15743326750E+03 -0.25066277871E+03 -0.52806149571E+03  0.60536568989E+03  0.12699999809E+01 0.  1.
       -4    1    3    3    0  502  0.15743326750E+03  0.25066277871E+03 -0.54994024206E+03  0.62454218840E+03  0.12699999809E+01 0. -1.
</event>
<event>
 5   0  0.7123340E-02  0.6713946E+03  0.7818609E-02  0.9767442E-01
       -1   -1    0    0    0  501  0.00000000000E+00  0.00000000000E+00  0.35363172229E+03  0.35363172232E+03  0.50400001928E-02 0.  1.
        1   -1    0    0  501    0  0.00000000000E+00  0.00000000000E+00 -0.31867244137E+03  0.31867244141E+03  0.50400001928E-02 0. -1.
    10030    2    1    2    0    0  0.00000000000E+00  0.00000000000E+00  0.34959280911E+02  0.67230416374E+03  0.67139462111E+03 0.  0.
        2    1    3    3  502    0 -0.15586975889E+03  0.62197561414E+02 -0.27365253637E+03  0.32101344061E+03  0.25500000920E-02 0. -1.
       -2    1    3    3    0  502  0.15586975889E+03 -0.62197561414E+02  0.30861181728E+03  0.35129072313E+03  0.25500000920E-02 0.  1.
</event>
<event>
 5   0  0.1206238E-01  0.6088772E+03  0.7818609E-02  0.9887158E-01
        2   -1    0    0  501    0  0.00000000000E+00  0.00000000000E+00  0.22785188862E+03  0.22785188863E+03  0.25500000920E-02 0. -1.
       -2   -1    0    0    0  501  0.00000000000E+00  0.00000000000E+00 -0.40676799365E+03  0.40676799366E+03  0.25500000920E-02 0.  1.
    10030    2    1    2    0    0  0.00000000000E+00  0.00000000000E+00 -0.17891610504E+03  0.63461988229E+03  0.60887718167E+03 0.  0.
        5    1    3    3  502    0 -0.27195460422E+03  0.63566874781E+02 -0.21565867463E+03  0.35288922946E+03  0.46999998093E+01 0.  1.
       -5    1    3    3    0  502  0.27195460422E+03 -0.63566874781E+02  0.36742569594E+02  0.28173065283E+03  0.46999998093E+01 0. -1.
</event>
<event>
 5   0  0.7123340E-02  0.7006064E+03  0.7818609E-02  0.9716196E-01
        1   -1    0    0  501    0  0.00000000000E+00  0.00000000000E+00  0.50226848420E+03  0.50226848423E+03  0.50400001928E-02 0. -1.
       -1   -1    0    0    0  501  0.00000000000E+00  0.00000000000E+00 -0.24431617735E+03  0.24431617740E+03  0.50400001928E-02 0.  1.
    10030    2    1    2    0    0  0.00000000000E+00  0.00000000000E+00  0.25795230685E+03  0.74658466163E+03  0.70060635478E+03 0.  0.
        2    1    3    3  502    0  0.57918876992E+02 -0.19073351781E+03  0.43594028872E+03  0.47935144358E+03  0.25500000920E-02 0. -1.
       -2    1    3    3    0  502 -0.57918876992E+02  0.19073351781E+03 -0.17798798187E+03  0.26723321804E+03  0.25500000920E-02 0.  1.
</event>
<event>
 5   0  0.1175861E-01  0.5964378E+03  0.7818609E-02  0.9912824E-01
        2   -1    0    0  501    0  0.00000000000E+00  0.00000000000E+00  0.16043618330E+04  0.16043618330E+04  0.25500000920E-02 0.  1.
       -2   -1    0    0    0  501  0.00000000000E+00  0.00000000000E+00 -0.55432960735E+02  0.55432960794E+02  0.25500000920E-02 0. -1.
    10030    2    1    2    0    0  0.00000000000E+00  0.00000000000E+00  0.15489288722E+04  0.16597947938E+04  0.59643784770E+03 0.  0.
        3    1    3    3  502    0 -0.26928085866E+03 -0.31822853061E+01  0.41795361434E+03  0.49719970004E+03  0.10100000352E+00 0. -1.
       -3    1    3    3    0  502  0.26928085866E+03  0.31822853061E+01  0.11309752579E+04  0.11625950937E+04  0.10100000352E+00 0.  1.
</event>
<event>
 5   0  0.4695625E-02  0.4329340E+03  0.7818609E-02  0.1032937E+00
       -4   -1    0    0    0  501  0.00000000000E+00  0.00000000000E+00  0.49998704825E+03  0.49998866118E+03  0.12699999809E+01 0. -1.
        4   -1    0    0  501    0  0.00000000000E+00  0.00000000000E+00 -0.93712275566E+02  0.93720880767E+02  0.12699999809E+01 0.  1.
    10030    2    1    2    0    0  0.00000000000E+00  0.00000000000E+00  0.40627477268E+03  0.59370954195E+03  0.43293397798E+03 0.  0.
        4    1    3    3  502    0  0.19829015862E+03  0.38364380303E+02  0.96333563737E+02  0.22376903513E+03  0.12699999809E+01 0.  1.
       -4    1    3    3    0  502 -0.19829015862E+03 -0.38364380303E+02  0.30994120894E+03  0.36994050682E+03  0.12699999809E+01 0. -1.
</event>
<event>
 5   0  0.1219020E-01  0.6173679E+03  0.7818609E-02  0.9870014E-01
       -2   -1    0    0    0  501  0.00000000000E+00  0.00000000000E+00  0.18202634952E+03  0.18202634954E+03  0.25500000920E-02 0. -1.
        2   -1    0    0  501    0  0.00000000000E+00  0.00000000000E+00 -0.52347241847E+03  0.52347241848E+03  0.25500000920E-02 0.  1.
    10030    2    1    2    0    0  0.00000000000E+00  0.00000000000E+00 -0.34144606895E+03  0.70549876802E+03  0.61736787548E+03 0.  0.
        2    1    3    3  502    0  0.10639875633E+03  0.12340520419E+03 -0.47032530348E+03  0.49775037003E+03  0.25500000920E-02 0.  1.
       -2    1    3    3    0  502 -0.10639875633E+03 -0.12340520419E+03  0.12887923453E+03  0.20774839799E+03  0.25500000920E-02 0. -1.
</event>
<event>
 5   0  0.4695625E-02  0.5943348E+03  0.7818609E-02  0.9917230E-01
       -3   -1    0    0    0  501  0.00000000000E+00  0.00000000000E+00  0.30424771212E+03  0.30424772888E+03  0.10100000352E+00 0. -1.
        3   -1    0    0  501    0  0.00000000000E+00  0.00000000000E+00 -0.29025183448E+03  0.29025185206E+03  0.10100000352E+00 0.  1.
    10030    2    1    2    0    0  0.00000000000E+00  0.00000000000E+00  0.13995877636E+02  0.59449958094E+03  0.59433481065E+03 0.  0.
        2    1    3    3  502    0 -0.23480045271E+03  0.50513916745E+02  0.18204805077E+03  0.30137086982E+03  0.25500000920E-02 0. -1.
       -2    1    3    3    0  502  0.23480045271E+03 -0.50513916745E+02 -0.16805217314E+03  0.29312871112E+03  0.25500000920E-02 0.  1.
</event>
<event>
 5   0  0.1146468E-01  0.6012676E+03  0.7818609E-02  0.9902780E-01
       -2   -1    0    0    0  501  0.00000000000E+00  0.00000000000E+00  0.10010938843E+03  0.10010938846E+03  0.25500000920E-02 0.  1.
        2   -1    0    0  501    0  0.00000000000E+00  0.00000000000E+00 -0.90281910441E+03  0.90281910441E+03  0.25500000920E-02 0. -1.
    10030    2    1    2    0    0  0.00000000000E+00  0.00000000000E+00 -0.80270971598E+03  0.10029284929E+04  0.60126755582E+03 0.  0.
        4    1    3    3  502    0  0.18067728669E+03  0.53738112551E+02 -0.79199655171E+03  0.81412051779E+03  0.12699999809E+01 0. -1.
       -4    1    3    3    0  502 -0.18067728669E+03 -0.53738112551E+02 -0.10713164278E+02  0.18880797508E+03  0.12699999809E+01 0.  1.
</event>
<event>
 5   0  0.1206238E-01  0.5987519E+03  0.7818609E-02  0.9907999E-01
       -2   -1    0    0    0  501  0.00000000000E+00  0.00000000000E+00  0.49037975444E+02  0.49037975510E+02  0.25500000920E-02 0. -1.
        2   -1    0    0  501    0  0.00000000000E+00  0.00000000000E+00 -0.18276844987E+04  0.18276844987E+04  0.25500000920E-02 0.  1.
    10030    2    1    2    0    0  0.00000000000E+00  0.00000000000E+00 -0.17786465233E+04  0.18767224743E+04  0.59875186057E+03 0.  0.
        5    1    3    3  502    0  0.20203093996E+03 -0.50484667164E+02 -0.21532965534E+03  0.29958997444E+03  0.46999998093E+01 0. -1.
       -5    1    3    3    0  502 -0.20203093996E+03  0.50484667164E+02 -0.15633168680E+04  0.15771324998E+04  0.46999998093E+01 0.  1.
</event>
<event>
 5   0  0.7266519E-02  0.5998789E+03  0.7818609E-02  0.9905657E-01
       -1   -1    0    0    0  501  0.00000000000E+00  0.00000000000E+00  0.29977444563E+03  0.29977444567E+03  0.50400001928E-02 0. -1.
        1   -1    0    0  501    0  0.00000000000E+00  0.00000000000E+00 -0.30010457051E+03  0.30010457055E+03  0.50400001928E-02 0.  1.
    10030    2    1    2    0    0  0.00000000000E+00  0.00000000000E+00 -0.33012487631E+00  0.59987901622E+03  0.59987892539E+03 0.  0.
        4    1    3    3  502    0  0.12854747959E+03  0.27077623626E+03 -0.11020650216E+02  0.29994548215E+03  0.12699999809E+01 0. -1.
       -4    1    3    3    0  502 -0.12854747959E+03 -0.27077623626E+03  0.10690525339E+02  0.29993353407E+03  0.12699999809E+01 0.  1.
</event>
<event>
 5   0  0.4695625E-02  0.5981408E+03  0.7818609E-02  0.9909271E-01
       -4   -1    0    0    0  501  0.00000000000E+00  0.00000000000E+00  0.70744841954E+03  0.70744955948E+03  0.12699999809E+01 0. -1.
        4   -1    0    0  501    0  0.00000000000E+00  0.00000000000E+00 -0.12642613630E+03  0.12643251496E+03  0.12699999809E+01 0.  1.
    10030    2    1    2    0    0  0.00000000000E+00  0.00000000000E+00  0.58102228325E+03  0.83388207444E+03  0.59814080320E+03 0.  0.
        1    1    3    3  502    0 -0.13661082211E+03 -0.24464727871E+03  0.43625070395E+03  0.51848768975E+03  0.50400001928E-02 0. -1.
       -1    1    3    3    0  502  0.13661082211E+03  0.24464727871E+03  0.14477157930E+03  0.31539438470E+03  0.50400001928E-02 0.  1.
</event>
<event>
 5   0  0.1206238E-01  0.5994399E+03  0.7818609E-02  0.9906569E-01
        2   -1    0    0  501    0  0.00000000000E+00  0.00000000000E+00  0.43457318387E+03  0.43457318388E+03  0.25500000920E-02 0.  1.
       -2   -1    0    0    0  501  0.00000000000E+00  0.00000000000E+00 -0.20671324759E+03  0.20671324760E+03  0.25500000920E-02 0. -1.
    10030    2    1    2    0    0  0.00000000000E+00  0.00000000000E+00  0.22785993628E+03  0.64128643148E+03  0.59943985239E+03 0.  0.
        5    1    3    3  502    0 -0.19761870669E+03  0.13560860992E+03  0.30639786706E+03  0.38903032177E+03  0.46999998093E+01 0.  1.
       -5    1    3    3    0  502  0.19761870669E+03 -0.13560860992E+03 -0.78537930774E+02  0.25225610971E+03  0.46999998093E+01 0. -1.
</event>
<event>
 5   0  0.7424930E-02  0.6039307E+03  0.7818609E-02  0.9897284E-01
       -1   -1    0    0    0  501  0.00000000000E+00  0.00000000000E+00  0.19590612669E+03  0.19590612676E+03  0.50400001928E-02 0. -1.
        1   -1    0    0  501    0  0.00000000000E+00  0.00000000000E+00 -0.46544274393E+03  0.46544274395E+03  0.50400001928E-02 0.  1.
    10030    2    1    2    0    0  0.00000000000E+00  0.00000000000E+00 -0.26953661723E+03  0.66134887071E+03  0.60393074169E+03 0.  0.
        3    1    3    3  502    0  0.87698700747E+02  0.14164402910E+03 -0.41056391905E+03  0.44307655650E+03  0.10100000352E+00 0.  1.
       -3    1    3    3    0  502 -0.87698700747E+02 -0.14164402910E+03  0.14102730182E+03  0.21827231421E+03  0.10100000352E+00 0. -1.
</event>
<event>
 5   0  0.1166419E-01  0.6574070E+03  0.7818609E-02  0.9792979E-01
       -2   -1    0    0    0  501  0.00000000000E+00  0.00000000000E+00  0.27505666401E+03  0.27505666402E+03  0.25500000920E-02 0. -1.
        2   -1    0    0  501    0  0.00000000000E+00  0.00000000000E+00 -0.39281355616E+03  0.39281355617E+03  0.25500000920E-02 0.  1.
    10030    2    1    2    0    0  0.00000000000E+00  0.00000000000E+00 -0.11775689216E+03  0.66787022019E+03  0.65740698610E+03 0.  0.
        1    1    3    3  502    0 -0.17632776862E+03  0.45086994618E+02  0.21919625610E+03  0.28490580511E+03  0.50400001928E-02 0. -1.
       -1    1    3    3    0  502  0.17632776862E+03 -0.45086994618E+02 -0.33695314826E+03  0.38296441508E+03  0.50400001928E-02 0.  1.
</event>
<event>
 5   0  0.7263385E-02  0.6095224E+03  0.7818609E-02  0.9885845E-01
        1   -1    0    0  501    0  0.00000000000E+00  0.00000000000E+00  0.31663297387E+03  0.31663297391E+03  0.50400001928E-02 0. -1.
       -1   -1    0    0    0  501  0.00000000000E+00  0.00000000000E+00 -0.29333455630E+03  0.29333455635E+03  0.50400001928E-02 0.  1.
    10030    2    1    2    0    0  0.00000000000E+00  0.00000000000E+00  0.23298417567E+02  0.60996753026E+03  0.60952241280E+03 0.  0.
        1    1    3    3  502    0  0.18119679018E+03  0.24428349028E+03  0.30968552401E+02  0.30572168987E+03  0.50400001928E-02 0. -1.
       -1    1    3    3    0  502 -0.18119679018E+03 -0.24428349028E+03 -0.76701348334E+01  0.30424584038E+03  0.50400001928E-02 0.  1.
</event>
<event>
 5   0  0.1166419E-01  0.6016276E+03  0.7818609E-02  0.9902035E-01
       -2   -1    0    0    0  501  0.00000000000E+00  0.00000000000E+00  0.95973376432E+02  0.95973376466E+02  0.25500000920E-02 0.  1.
        2   -1    0    0  501    0  0.00000000000E+00  0.00000000000E+00 -0.94285462129E+03  0.94285462129E+03  0.25500000920E-02 0. -1.
    10030    2    1    2    0    0  0.00000000000E+00  0.00000000000E+00 -0.84688124486E+03  0.10388279978E+04  0.60162759747E+03 0.  0.
        1    1    3    3  502    0  0.46280185783E+02  0.15249383192E+03  0.17096079735E+02  0.16027632494E+03  0.50400001928E-02 0.  1.
       -1    1    3    3    0  502 -0.46280185783E+02 -0.15249383192E+03 -0.86397732459E+03  0.87855167281E+03  0.50400001928E-02 0. -1.
</event>
<event>
 5   0  0.1166419E-01  0.6012687E+03  0.7818609E-02  0.9902777E-01
       -2   -1    0    0    0  501  0.00000000000E+00  0.00000000000E+00  0.14444499434E+03  0.14444499437E+03  0.25500000920E-02 0.  1.
        2   -1    0    0  501    0  0.00000000000E+00  0.00000000000E+00 -0.62571238996E+03  0.62571238997E+03  0.25500000920E-02 0. -1.
    10030    2    1    2    0    0  0.00000000000E+00  0.00000000000E+00 -0.48126739562E+03  0.77015738433E+03  0.60126873406E+03 0.  0.
        1    1    3    3  502    0 -0.77248345080E+02  0.19692508226E+03  0.32991580028E+02  0.21409166079E+03  0.50400001928E-02 0.  1.
       -1    1    3    3    0  502  0.77248345080E+02 -0.19692508226E+03 -0.51425897565E+03  0.55606572354E+03  0.50400001928E-02 0. -1.
</event>
<event>
 5   0  0.1206238E-01  0.6073472E+03  0.7818609E-02  0.9890279E-01
       -2   -1    0    0    0  501  0.00000000000E+00  0.00000000000E+00  0.33909066308E+03  0.33909066309E+03  0.25500000920E-02 0.  1.
        2   -1    0    0  501    0  0.00000000000E+00  0.00000000000E+00 -0.27195571485E+03  0.27195571486E+03  0.25500000920E-02 0. -1.
    10030    2    1    2    0    0  0.00000000000E+00  0.00000000000E+00  0.67134948235E+02  0.61104637795E+03  0.60734716162E+03 0.  0.
        5    1    3    3  502    0  0.13159162160E+02 -0.20436496338E+03 -0.19197948104E+03  0.28074260978E+03  0.46999998093E+01 0. -1.
       -5    1    3    3    0  502 -0.13159162160E+02  0.20436496338E+03  0.25911442928E+03  0.33030376817E+03  0.46999998093E+01 0.  1.
</event>
<event>
 5   0  0.1175861E-01  0.5920492E+03  0.7818609E-02  0.9922040E-01
        2   -1    0    0  501    0  0.00000000000E+00  0.00000000000E+00  0.30281760811E+03  0.30281760812E+03  0.25500000920E-02 0.  1.
       -2   -1    0    0    0  501  0.00000000000E+00  0.00000000000E+00 -0.28938399445E+03  0.28938399446E+03  0.25500000920E-02 0. -1.
    10030    2    1    2    0    0  0.00000000000E+00  0.00000000000E+00  0.13433613653E+02  0.59220160258E+03  0.59204921765E+03 0.  0.
        3    1    3    3  502    0  0.16570229961E+03 -0.18061142910E+03 -0.15931633334E+03  0.29233447400E+03  0.10100000352E+00 0. -1.
       -3    1    3    3    0  502 -0.16570229961E+03  0.18061142910E+03  0.17274994699E+03  0.29986712858E+03  0.10100000352E+00 0.  1.
</event>
<event>
 5   0  0.7123340E-02  0.5773085E+03  0.7818609E-02  0.9953635E-01
        1   -1    0    0  501    0  0.00000000000E+00  0.00000000000E+00  0.13382147755E+04  0.13382147755E+04  0.50400001928E-02 0.  1.
       -1   -1    0    0    0  501  0.00000000000E+00  0.00000000000E+00 -0.62263001100E+02  0.62263001304E+02  0.50400001928E-02 0. -1.
    10030    2    1    2    0    0  0.00000000000E+00  0.00000000000E+00  0.12759517744E+04  0.14004777768E+04  0.57730847279E+03 0.  0.
        2    1    3    3  502    0 -0.25597893944E+02  0.13667190157E+03  0.24336099629E+02  0.14116198711E+03  0.25500000920E-02 0. -1.
       -2    1    3    3    0  502  0.25597893944E+02 -0.13667190157E+03  0.12516156748E+04  0.12593157897E+04  0.25500000920E-02 0.  1.
</event>
<event>
 5   0  0.7424930E-02  0.5787274E+03  0.7818609E-02  0.9950550E-01
       -1   -1    0    0    0  501  0.00000000000E+00  0.00000000000E+00  0.16125962676E+03  0.16125962684E+03  0.50400001928E-02 0. -1.
        1   -1    0    0  501    0  0.00000000000E+00  0.00000000000E+00 -0.51923311093E+03  0.51923311095E+03  0.50400001928E-02 0.  1.
    10030    2    1    2    0    0  0.00000000000E+00  0.00000000000E+00 -0.35797348416E+03  0.68049273779E+03  0.57872735448E+03 0.  0.
        3    1    3    3  502    0 -0.70268371267E+02 -0.44575249607E+02  0.14688681704E+03  0.16882044930E+03  0.10100000352E+00 0. -1.
       -3    1    3    3    0  502  0.70268371267E+02  0.44575249607E+02 -0.50486030121E+03  0.51167228850E+03  0.10100000352E+00 0.  1.
</event>
<event>
 5   0  0.4695625E-02  0.6074659E+03  0.7818609E-02  0.9890037E-01
        3   -1    0    0  501    0  0.00000000000E+00  0.00000000000E+00  0.12716968307E+03  0.12716972317E+03  0.10100000352E+00 0.  1.
       -3   -1    0    0    0  501  0.00000000000E+00  0.00000000000E+00 -0.72543769244E+03  0.72543769947E+03  0.10100000352E+00 0. -1.
    10030    2    1    2    0    0  0.00000000000E+00  0.00000000000E+00 -0.59826800937E+03  0.85260742264E+03  0.60746588884E+03 0.  0.
        2    1    3    3  502    0  0.16020143184E+03 -0.10664155646E+03  0.30675187976E+02  0.19487916126E+03  0.25500000920E-02 0. -1.
       -2    1    3    3    0  502 -0.16020143184E+03  0.10664155646E+03 -0.62894319735E+03  0.65772826138E+03  0.25500000920E-02 0.  1.
</event>
<event>
 5   0  0.4695625E-02  0.6017137E+03  0.7818609E-02  0.9901857E-01
       -3   -1    0    0    0  501  0.00000000000E+00  0.00000000000E+00  0.48360948802E+03  0.48360949857E+03  0.10100000352E+00 0.  1.
        3   -1    0    0  501    0  0.00000000000E+00  0.00000000000E+00 -0.18716511402E+03  0.18716514128E+03  0.10100000352E+00 0. -1.
    10030    2    1    2    0    0  0.00000000000E+00  0.00000000000E+00  0.29644437400E+03  0.67077463985E+03  0.60171367824E+03 0.  0.
        3    1    3    3  502    0  0.12072354026E+03 -0.13477345064E+03 -0.11973375064E+03  0.21696598216E+03  0.10100000352E+00 0. -1.
       -3    1    3    3    0  502 -0.12072354026E+03  0.13477345064E+03  0.41617812463E+03  0.45380865769E+03  0.10100000352E+00 0.  1.
</event>
<event>
 5   0  0.7123340E-02  0.5965613E+03  0.7818609E-02  0.9912566E-01
        1   -1    0    0  501    0  0.00000000000E+00  0.00000000000E+00  0.18778276591E+03  0.18778276598E+03  0.50400001928E-02 0. -1.
       -1   -1    0    0    0  501  0.00000000000E+00  0.00000000000E+00 -0.47379927330E+03  0.47379927332E+03  0.50400001928E-02 0.  1.
    10030    2    1    2    0    0  0.00000000000E+00  0.00000000000E+00 -0.28601650738E+03  0.66158203930E+03  0.59656127282E+03 0.  0.
        2    1    3    3  502    0  0.12416016678E+03  0.26480155258E+03 -0.20801195507E+03  0.35889355347E+03  0.25500000920E-02 0. -1.
       -2    1    3    3    0  502 -0.12416016678E+03 -0.26480155258E+03 -0.78004552310E+02  0.30268848583E+03  0.25500000920E-02 0.  1.
</event>
<event>
 5   0  0.7263385E-02  0.6003814E+03  0.7818609E-02  0.9904615E-01
        1   -1    0    0  501    0  0.00000000000E+00  0.00000000000E+00  0.11065901184E+03  0.11065901195E+03  0.50400001928E-02 0.  1.
       -1   -1    0    0    0  501  0.00000000000E+00  0.00000000000E+00 -0.81434362399E+03  0.81434362401E+03  0.50400001928E-02 0. -1.
    10030    2    1    2    0    0  0.00000000000E+00  0.00000000000E+00 -0.70368461216E+03  0.92500263596E+03  0.60038141472E+03 0.  0.
        1    1    3    3  502    0  0.97252123294E+02  0.13964944174E+03  0.29162107620E+02  0.17265680007E+03  0.50400001928E-02 0.  1.
       -1    1    3    3    0  502 -0.97252123294E+02 -0.13964944174E+03 -0.73284671978E+03  0.75234583589E+03  0.50400001928E-02 0. -1.
</event>
<event>
 5   0  0.1166419E-01  0.6003891E+03  0.7818609E-02  0.9904599E-01
       -2   -1    0    0    0  501  0.00000000000E+00  0.00000000000E+00  0.26951953805E+03  0.26951953806E+03  0.25500000920E-02 0.  1.
        2   -1    0    0  501    0  0.00000000000E+00  0.00000000000E+00 -0.33436074725E+03  0.33436074726E+03  0.25500000920E-02 0. -1.
    10030    2    1    2    0    0  0.00000000000E+00  0.00000000000E+00 -0.64841209203E+02  0.60388028532E+03  0.60038905435E+03 0.  0.
        1    1    3    3  502    0  0.84154800811E+01 -0.28533513268E+03 -0.12585748868E+03  0.31197286056E+03  0.50400001928E-02 0.  1.
       -1    1    3    3    0  502 -0.84154800811E+01  0.28533513268E+03  0.61016279475E+02  0.29190742476E+03  0.50400001928E-02 0. -1.
</event>
<event>
 5   0  0.7424930E-02  0.6096245E+03  0.7818609E-02  0.9885637E-01
       -1   -1    0    0    0  501  0.00000000000E+00  0.00000000000E+00  0.14459210558E+03  0.14459210567E+03  0.50400001928E-02 0.  1.
        1   -1    0    0  501    0  0.00000000000E+00  0.00000000000E+00 -0.64256974542E+03  0.64256974544E+03  0.50400001928E-02 0. -1.
    10030    2    1    2    0    0  0.00000000000E+00  0.00000000000E+00 -0.49797763984E+03  0.78716185111E+03  0.60962451563E+03 0.  0.
        3    1    3    3  502    0 -0.28254925792E+03  0.16151973338E+02 -0.10281488095E+03  0.30110775370E+03  0.10100000352E+00 0.  1.
       -3    1    3    3    0  502  0.28254925792E+03 -0.16151973338E+02 -0.39516275888E+03  0.48605409740E+03  0.10100000352E+00 0. -1.
</event>
<event>
 5   0  0.1219020E-01  0.5674041E+03  0.7818609E-02  0.9975439E-01
       -2   -1    0    0    0  501  0.00000000000E+00  0.00000000000E+00  0.18973911948E+03  0.18973911950E+03  0.25500000920E-02 0. -1.
        2   -1    0    0  501    0  0.00000000000E+00  0.00000000000E+00 -0.42419746814E+03  0.42419746814E+03  0.25500000920E-02 0.  1.
    10030    2    1    2    0    0  0.00000000000E+00  0.00000000000E+00 -0.23445834866E+03  0.61393658764E+03  0.56740410325E+03 0.  0.
        2    1    3    3  502    0  0.54801108949E+02  0.25975335139E+03 -0.89639309059E+01  0.26562250877E+03  0.25500000920E-02 0. -1.
       -2    1    3    3    0  502 -0.54801108949E+02 -0.25975335139E+03 -0.22549441775E+03  0.34831407888E+03  0.25500000920E-02 0.  1.
</event>
<event>
 5   0  0.7221069E-02  0.7977532E+03  0.7818609E-02  0.9563275E-01
        1   -1    0    0  501    0  0.00000000000E+00  0.00000000000E+00  0.69355056366E+03  0.69355056368E+03  0.50400001928E-02 0.  1.
       -1   -1    0    0    0  501  0.00000000000E+00  0.00000000000E+00 -0.22940292844E+03  0.22940292849E+03  0.50400001928E-02 0. -1.
    10030    2    1    2    0    0  0.00000000000E+00  0.00000000000E+00  0.46414763522E+03  0.92295349218E+03  0.79775317075E+03 0.  0.
        5    1    3    3  502    0 -0.12484539901E+03  0.54596538149E+02  0.66575439402E+03  0.67957204091E+03  0.46999998093E+01 0.  1.
       -5    1    3    3    0  502  0.12484539901E+03 -0.54596538149E+02 -0.20160675880E+03  0.24338145127E+03  0.46999998093E+01 0. -1.
</event>
<event>
 5   0  0.1146468E-01  0.6010722E+03  0.7818609E-02  0.9903184E-01
       -2   -1    0    0    0  501  0.00000000000E+00  0.00000000000E+00  0.11605343176E+03  0.11605343179E+03  0.25500000920E-02 0. -1.
        2   -1    0    0  501    0  0.00000000000E+00  0.00000000000E+00 -0.77827887242E+03  0.77827887243E+03  0.25500000920E-02 0.  1.
    10030    2    1    2    0    0  0.00000000000E+00  0.00000000000E+00 -0.66222544066E+03  0.89433230421E+03  0.60107215548E+03 0.  0.
        4    1    3    3  502    0  0.20347312414E+03 -0.17633221097E+03 -0.13245805204E+03  0.30006850772E+03  0.12699999809E+01 0.  1.
       -4    1    3    3    0  502 -0.20347312414E+03  0.17633221097E+03 -0.52976738862E+03  0.59426379649E+03  0.12699999809E+01 0. -1.
</event>
<event>
 5   0  0.1166419E-01  0.5820786E+03  0.7818609E-02  0.9943301E-01
       -2   -1    0    0    0  501  0.00000000000E+00  0.00000000000E+00  0.17744314804E+03  0.17744314806E+03  0.25500000920E-02 0.  1.
        2   -1    0    0  501    0  0.00000000000E+00  0.00000000000E+00 -0.47735781776E+03  0.47735781777E+03  0.25500000920E-02 0. -1.
    10030    2    1    2    0    0  0.00000000000E+00  0.00000000000E+00 -0.29991466972E+03  0.65480096583E+03  0.58207859928E+03 0.  0.
        1    1    3    3  502    0 -0.27701731993E+03  0.41975399106E+02 -0.61355927577E+02  0.28681889677E+03  0.50400001928E-02 0. -1.
       -1    1    3    3    0  502  0.27701731993E+03 -0.41975399106E+02 -0.23855874214E+03  0.36798206906E+03  0.50400001928E-02 0.  1.
</event>
<event>
 5   0  0.1166419E-01  0.5932583E+03  0.7818609E-02  0.9919492E-01
        2   -1    0    0  501    0  0.00000000000E+00  0.00000000000E+00  0.12380896173E+04  0.12380896173E+04  0.25500000920E-02 0.  1.
       -2   -1    0    0    0  501  0.00000000000E+00  0.00000000000E+00 -0.71068242627E+02  0.71068242673E+02  0.25500000920E-02 0. -1.
    10030    2    1    2    0    0  0.00000000000E+00  0.00000000000E+00  0.11670213747E+04  0.13091578600E+04  0.59325830243E+03 0.  0.
        1    1    3    3  502    0 -0.22928709653E+03 -0.18552775601E+03  0.65314439513E+03  0.71665244143E+03  0.50400001928E-02 0. -1.
       -1    1    3    3    0  502  0.22928709653E+03  0.18552775601E+03  0.51387697957E+03  0.59250541857E+03  0.50400001928E-02 0.  1.
</event>
<event>
 5   0  0.7123340E-02  0.5954520E+03  0.7818609E-02  0.9914887E-01
       -1   -1    0    0    0  501  0.00000000000E+00  0.00000000000E+00  0.12321501241E+03  0.12321501251E+03  0.50400001928E-02 0. -1.
        1   -1    0    0  501    0  0.00000000000E+00  0.00000000000E+00 -0.71939905660E+03  0.71939905661E+03  0.50400001928E-02 0.  1.
    10030    2    1    2    0    0  0.00000000000E+00  0.00000000000E+00 -0.59618404419E+03  0.84261406913E+03  0.59545197535E+03 0.  0.
        2    1    3    3  502    0 -0.22720574525E+03 -0.18868287129E+03 -0.35136172127E+03  0.45899753351E+03  0.25500000920E-02 0.  1.
       -2    1    3    3    0  502  0.22720574525E+03  0.18868287129E+03 -0.24482232292E+03  0.38361653562E+03  0.25500000920E-02 0. -1.
</event>
<event>
 5   0  0.1146468E-01  0.6050146E+03  0.7818609E-02  0.9895057E-01
       -2   -1    0    0    0  501  0.00000000000E+00  0.00000000000E+00  0.11235194782E+03  0.11235194785E+03  0.25500000920E-02 0.  1.
        2   -1    0    0  501    0  0.00000000000E+00  0.00000000000E+00 -0.81450009229E+03  0.81450009229E+03  0.25500000920E-02 0. -1.
    10030    2    1    2    0    0  0.00000000000E+00  0.00000000000E+00 -0.70214814447E+03  0.92685204014E+03  0.60501461762E+03 0.  0.
        4    1    3    3  502    0 -0.19993472901E+03 -0.20882242140E+03 -0.48748093108E+03  0.56676271103E+03  0.12699999809E+01 0.  1.
       -4    1    3    3    0  502  0.19993472901E+03  0.20882242140E+03 -0.21466721339E+03  0.36008932912E+03  0.12699999809E+01 0. -1.
</event>
<event>
 5   0  0.1146468E-01  0.6040930E+03  0.7818609E-02  0.9896951E-01
       -2   -1    0    0    0  501  0.00000000000E+00  0.00000000000E+00  0.84933844326E+02  0.84933844365E+02  0.25500000920E-02 0. -1.
        2   -1    0    0  501    0  0.00000000000E+00  0.00000000000E+00 -0.10741548065E+04  0.10741548065E+04  0.25500000920E-02 0.  1.
    10030    2    1    2    0    0  0.00000000000E+00  0.00000000000E+00 -0.98922096215E+03  0.11590886508E+04  0.60409302972E+03 0.  0.
        4    1    3    3  502    0  0.27635125630E+03 -0.87880826116E+02 -0.65671073396E+03  0.71788833216E+03  0.12699999809E+01 0.  1.
       -4    1    3    3    0  502 -0.27635125630E+03  0.87880826116E+02 -0.33251022819E+03  0.44120031868E+03  0.12699999809E+01 0. -1.
</event>
<event>
 5   0  0.4695625E-02  0.6022665E+03  0.7818609E-02  0.9900715E-01
        4   -1    0    0  501    0  0.00000000000E+00  0.00000000000E+00  0.12881972786E+03  0.12882598801E+03  0.12699999809E+01 0.  1.
       -4   -1    0    0    0  501  0.00000000000E+00  0.00000000000E+00 -0.70391517450E+03  0.70391632016E+03  0.12699999809E+01 0. -1.
    10030    2    1    2    0    0  0.00000000000E+00  0.00000000000E+00 -0.57509544664E+03  0.83274230817E+03  0.60226653491E+03 0.  0.
        1    1    3    3  502    0  0.25784044640E+03 -0.52113741360E+02 -0.49021167527E+03  0.55633175753E+03  0.50400001928E-02 0.  1.
       -1    1    3    3    0  502 -0.25784044640E+03  0.52113741360E+02 -0.84883771365E+02  0.27641055064E+03  0.50400001928E-02 0. -1.
</event>
<event>
 5   0  0.1166419E-01  0.5992270E+03  0.7818609E-02  0.9907011E-01
        2   -1    0    0  501    0  0.00000000000E+00  0.00000000000E+00  0.10497903164E+03  0.10497903167E+03  0.25500000920E-02 0. -1.
       -2   -1    0    0    0  501  0.00000000000E+00  0.00000000000E+00 -0.85510655112E+03  0.85510655113E+03  0.25500000920E-02 0.  1.
    10030    2    1    2    0    0  0.00000000000E+00  0.00000000000E+00 -0.75012751949E+03  0.96008558280E+03  0.59922702777E+03 0.  0.
        1    1    3    3  502    0  0.26489481758E+03  0.92803824404E+02 -0.54300104062E+03  0.61125440232E+03  0.50400001928E-02 0.  1.
       -1    1    3    3    0  502 -0.26489481758E+03 -0.92803824404E+02 -0.20712647886E+03  0.34883118048E+03  0.50400001928E-02 0. -1.
</event>
<event>
 5   0  0.7424930E-02  0.5995659E+03  0.7818609E-02  0.9906307E-01
       -1   -1    0    0    0  501  0.00000000000E+00  0.00000000000E+00  0.28062904059E+03  0.28062904063E+03  0.50400001928E-02 0. -1.
        1   -1    0    0  501    0  0.00000000000E+00  0.00000000000E+00 -0.32024418631E+03  0.32024418635E+03  0.50400001928E-02 0.  1.
    10030    2    1    2    0    0  0.00000000000E+00  0.00000000000E+00 -0.39615145722E+02  0.60087322698E+03  0.59956590558E+03 0.  0.
        3    1    3    3  502    0  0.63157095639E+02  0.29293370058E+03 -0.11372754301E+02  0.29988051188E+03  0.10100000352E+00 0.  1.
       -3    1    3    3    0  502 -0.63157095639E+02 -0.29293370058E+03 -0.28242391422E+02  0.30099271509E+03  0.10100000352E+00 0. -1.
</event>
<event>
 5   0  0.7221069E-02  0.5843618E+03  0.7818609E-02  0.9938392E-01
        1   -1    0    0  501    0  0.00000000000E+00  0.00000000000E+00  0.11995811408E+04  0.11995811408E+04  0.50400001928E-02 0. -1.
       -1   -1    0    0    0  501  0.00000000000E+00  0.00000000000E+00 -0.71166247074E+02  0.71166247252E+02  0.50400001928E-02 0.  1.
    10030    2    1    2    0    0  0.00000000000E+00  0.00000000000E+00  0.11284148937E+04  0.12707473881E+04  0.58436183302E+03 0.  0.
        5    1    3    3  502    0  0.85571252361E+02  0.85548037858E+02  0.11424467967E+04  0.11488462383E+04  0.46999998093E+01 0. -1.
       -5    1    3    3    0  502 -0.85571252361E+02 -0.85548037858E+02 -0.14031902965E+02  0.12190114975E+03  0.46999998093E+01 0.  1.
</event>
<event>
 5   0  0.7221069E-02  0.5986090E+03  0.7818609E-02  0.9908296E-01
       -1   -1    0    0    0  501  0.00000000000E+00  0.00000000000E+00  0.50460834027E+03  0.50460834029E+03  0.50400001928E-02 0.  1.
        1   -1    0    0  501    0  0.00000000000E+00  0.00000000000E+00 -0.17753013313E+03  0.17753013320E+03  0.50400001928E-02 0. -1.
    10030    2    1    2    0    0  0.00000000000E+00  0.00000000000E+00  0.32707820714E+03  0.68213847349E+03  0.59860900714E+03 0.  0.
        5    1    3    3  502    0  0.80401355616E+02  0.95444694816E+02  0.47350012917E+03  0.48969228100E+03  0.46999998093E+01 0.  1.
       -5    1    3    3    0  502 -0.80401355616E+02 -0.95444694816E+02 -0.14642192203E+03  0.19244619249E+03  0.46999998093E+01 0. -1.
</event>
<event>
 5   0  0.4695625E-02  0.5958327E+03  0.7818609E-02  0.9914090E-01
        4   -1    0    0  501    0  0.00000000000E+00  0.00000000000E+00  0.46582277103E+03  0.46582450227E+03  0.12699999809E+01 0.  1.
       -4   -1    0    0    0  501  0.00000000000E+00  0.00000000000E+00 -0.19052780167E+03  0.19053203434E+03  0.12699999809E+01 0. -1.
    10030    2    1    2    0    0  0.00000000000E+00  0.00000000000E+00  0.27529496937E+03  0.65635653660E+03  0.59583268036E+03 0.  0.
        5    1    3    3  502    0  0.34895797880E+02  0.86522101569E+02  0.44927600361E+03  0.45888430806E+03  0.46999998093E+01 0.  1.
       -5    1    3    3    0  502 -0.34895797880E+02 -0.86522101569E+02 -0.17398103424E+03  0.19747222854E+03  0.46999998093E+01 0. -1.
</event>
<event>
 5   0  0.1175861E-01  0.6152361E+03  0.7818609E-02  0.9874291E-01
       -2   -1    0    0    0  501  0.00000000000E+00  0.00000000000E+00  0.98551726319E+02  0.98551726352E+02  0.25500000920E-02 0. -1.
        2   -1    0    0  501    0  0.00000000000E+00  0.00000000000E+00 -0.96019499653E+03  0.96019499653E+03  0.25500000920E-02 0.  1.
    10030    2    1    2    0    0  0.00000000000E+00  0.00000000000E+00 -0.86164327021E+03  0.10587467229E+04  0.61523613200E+03 0.  0.
        3    1    3    3  502    0  0.18864202636E+03  0.21009972709E+02 -0.84740804563E+03  0.86840522745E+03  0.10100000352E+00 0.  1.
       -3    1    3    3    0  502 -0.18864202636E+03 -0.21009972709E+02 -0.14235224573E+02  0.19034149543E+03  0.10100000352E+00 0. -1.
</event>
<event>
 5   0  0.1206238E-01  0.7949026E+03  0.7818609E-02  0.9567425E-01
       -2   -1    0    0    0  501  0.00000000000E+00  0.00000000000E+00  0.42212606292E+03  0.42212606293E+03  0.25500000920E-02 0.  1.
        2   -1    0    0  501    0  0.00000000000E+00  0.00000000000E+00 -0.37421885722E+03  0.37421885723E+03  0.25500000920E-02 0. -1.
    10030    2    1    2    0    0  0.00000000000E+00  0.00000000000E+00  0.47907205700E+02  0.79634492015E+03  0.79490259246E+03 0.  0.
        5    1    3    3  502    0  0.49769675407E+02  0.22775955678E+03 -0.29849063152E+03  0.37877458125E+03  0.46999998093E+01 0. -1.
       -5    1    3    3    0  502 -0.49769675407E+02 -0.22775955678E+03  0.34639783723E+03  0.41757033890E+03  0.46999998093E+01 0.  1.
</event>
<event>
 5   0  0.1219020E-01  0.5967621E+03  0.7818609E-02  0.9912147E-01
       -2   -1    0    0    0  501  0.00000000000E+00  0.00000000000E+00  0.65958605538E+02  0.65958605588E+02  0.25500000920E-02 0. -1.
        2   -1    0    0  501    0  0.00000000000E+00  0.00000000000E+00 -0.13498049222E+04  0.13498049222E+04  0.25500000920E-02 0.  1.
    10030    2    1    2    0    0  0.00000000000E+00  0.00000000000E+00 -0.12838463166E+04  0.14157635278E+04  0.59676209817E+03 0.  0.
        2    1    3    3  502    0  0.20481014504E+02  0.10992497778E+03  0.14373900073E+02  0.11273678062E+03  0.25500000920E-02 0. -1.
       -2    1    3    3    0  502 -0.20481014504E+02 -0.10992497778E+03 -0.12982202167E+04  0.13030267472E+04  0.25500000920E-02 0.  1.
</event>
<event>
 5   0  0.7123340E-02  0.5930945E+03  0.7818609E-02  0.9919837E-01
       -1   -1    0    0    0  501  0.00000000000E+00  0.00000000000E+00  0.28652115339E+03  0.28652115343E+03  0.50400001928E-02 0.  1.
        1   -1    0    0  501    0  0.00000000000E+00  0.00000000000E+00 -0.30692420009E+03  0.30692420013E+03  0.50400001928E-02 0. -1.
    10030    2    1    2    0    0  0.00000000000E+00  0.00000000000E+00 -0.20403046705E+02  0.59344535356E+03  0.59309451468E+03 0.  0.
        2    1    3    3  502    0 -0.10907489977E+03  0.40937075647E+02  0.26266310626E+03  0.28734140899E+03  0.25500000920E-02 0.  1.
       -2    1    3    3    0  502  0.10907489977E+03 -0.40937075647E+02 -0.28306615296E+03  0.30610394457E+03  0.25500000920E-02 0. -1.
</event>
<event>
 5   0  0.1166419E-01  0.5979979E+03  0.7818609E-02  0.9909569E-01
       -2   -1    0    0    0  501  0.00000000000E+00  0.00000000000E+00  0.10806411778E+03  0.10806411781E+03  0.25500000920E-02 0. -1.
        2   -1    0    0  501    0  0.00000000000E+00  0.00000000000E+00 -0.82729007138E+03  0.82729007138E+03  0.25500000920E-02 0.  1.
    10030    2    1    2    0    0  0.00000000000E+00  0.00000000000E+00 -0.71922595360E+03  0.93535418919E+03  0.59799789875E+03 0.  0.
        1    1    3    3  502    0  0.73765400929E+02  0.11930829156E+03  0.53405381942E+02  0.15009309663E+03  0.50400001928E-02 0. -1.
       -1    1    3    3    0  502 -0.73765400929E+02 -0.11930829156E+03 -0.77263133554E+03  0.78526109256E+03  0.50400001928E-02 0.  1.
</event>
<event>
 5   0  0.4695625E-02  0.5363515E+03  0.7818609E-02  0.1004703E+00
       -3   -1    0    0    0  501  0.00000000000E+00  0.00000000000E+00  0.12482016678E+03  0.12482020764E+03  0.10100000352E+00 0.  1.
        3   -1    0    0  501    0  0.00000000000E+00  0.00000000000E+00 -0.57617465440E+03  0.57617466326E+03  0.10100000352E+00 0. -1.
    10030    2    1    2    0    0  0.00000000000E+00  0.00000000000E+00 -0.45135448762E+03  0.70099487090E+03  0.53635150371E+03 0.  0.
        4    1    3    3  502    0 -0.18455746380E+02 -0.12447328758E+03  0.83835589252E+02  0.15120923524E+03  0.12699999809E+01 0.  1.
       -4    1    3    3    0  502  0.18455746380E+02  0.12447328758E+03 -0.53519007688E+03  0.54978563566E+03  0.12699999809E+01 0. -1.
</event>
<event>
 5   0  0.4695625E-02  0.6032310E+03  0.7818609E-02  0.9898725E-01
        4   -1    0    0  501    0  0.00000000000E+00  0.00000000000E+00  0.23219657167E+03  0.23220004478E+03  0.12699999809E+01 0. -1.
       -4   -1    0    0    0  501  0.00000000000E+00  0.00000000000E+00 -0.39178085405E+03  0.39178291247E+03  0.12699999809E+01 0.  1.
    10030    2    1    2    0    0  0.00000000000E+00  0.00000000000E+00 -0.15958428238E+03  0.62398295724E+03  0.60323095722E+03 0.  0.
        1    1    3    3  502    0  0.24943956704E+03  0.16767440224E+03 -0.53683100609E+02  0.30531406467E+03  0.50400001928E-02 0. -1.
       -1    1    3    3    0  502 -0.24943956704E+03 -0.16767440224E+03 -0.10590118177E+03  0.31866889257E+03  0.50400001928E-02 0.  1.
</event>
<event>
 5   0  0.7263385E-02  0.5779477E+03  0.7818609E-02  0.9952244E-01
        1   -1    0    0  501    0  0.00000000000E+00  0.00000000000E+00  0.83573731341E+03  0.83573731343E+03  0.50400001928E-02 0. -1.
       -1   -1    0    0    0  501  0.00000000000E+00  0.00000000000E+00 -0.99918819548E+02  0.99918819675E+02  0.50400001928E-02 0.  1.
    10030    2    1    2    0    0  0.00000000000E+00  0.00000000000E+00  0.73581849387E+03  0.93565613310E+03  0.57794769962E+03 0.  0.
        1    1    3    3  502    0  0.98521703756E+02 -0.25268796130E+03  0.52938189890E+03  0.59481335460E+03  0.50400001928E-02 0. -1.
       -1    1    3    3    0  502 -0.98521703756E+02  0.25268796130E+03  0.20643659496E+03  0.34084277851E+03  0.50400001928E-02 0.  1.
</event>
<event>
 5   0  0.4695625E-02  0.5805627E+03  0.7818609E-02  0.9946573E-01
        3   -1    0    0  501    0  0.00000000000E+00  0.00000000000E+00  0.70552518568E+03  0.70552519291E+03  0.10100000352E+00 0. -1.
       -3   -1    0    0    0  501  0.00000000000E+00  0.00000000000E+00 -0.11943337759E+03  0.11943342029E+03  0.10100000352E+00 0.  1.
    10030    2    1    2    0    0  0.00000000000E+00  0.00000000000E+00  0.58609180809E+03  0.82495861320E+03  0.58056274940E+03 0.  0.
        3    1    3    3  502    0 -0.14231262289E+02  0.19855084695E+03 -0.71721538624E+01  0.19918940143E+03  0.10100000352E+00 0.  1.
       -3    1    3    3    0  502  0.14231262289E+02 -0.19855084695E+03  0.59326396195E+03  0.62576921177E+03  0.10100000352E+00 0. -1.
</event>
<event>
 5   0  0.7424930E-02  0.5969536E+03  0.7818609E-02  0.9911747E-01
       -1   -1    0    0    0  501  0.00000000000E+00  0.00000000000E+00  0.10216607670E+03  0.10216607682E+03  0.50400001928E-02 0.  1.
        1   -1    0    0  501    0  0.00000000000E+00  0.00000000000E+00 -0.87199601794E+03  0.87199601796E+03  0.50400001928E-02 0. -1.
    10030    2    1    2    0    0  0.00000000000E+00  0.00000000000E+00 -0.76982994125E+03  0.97416209478E+03  0.59695364012E+03 0.  0.
        3    1    3    3  502    0  0.15474988473E+03 -0.25293007683E+03 -0.44066855721E+03  0.53114022451E+03  0.10100000352E+00 0.  1.
       -3    1    3    3    0  502 -0.15474988473E+03  0.25293007683E+03 -0.32916138404E+03  0.44302187026E+03  0.10100000352E+00 0. -1.
</event>
<event>
 5   0  0.7123340E-02  0.5806095E+03  0.7818609E-02  0.9946472E-01
        1   -1    0    0  501    0  0.00000000000E+00  0.00000000000E+00  0.49860786972E+03  0.49860786974E+03  0.50400001928E-02 0.  1.
       -1   -1    0    0    0  501  0.00000000000E+00  0.00000000000E+00 -0.16902428325E+03  0.16902428333E+03  0.50400001928E-02 0. -1.
    10030    2    1    2    0    0  0.00000000000E+00  0.00000000000E+00  0.32958358647E+03  0.66763215307E+03  0.58060946543E+03 0.  0.
        2    1    3    3  502    0 -0.66482396384E+02  0.46621758707E+02  0.48528370850E+03  0.49203025837E+03  0.25500000920E-02 0.  1.
       -2    1    3    3    0  502  0.66482396384E+02 -0.46621758707E+02 -0.15570012203E+03  0.17560189470E+03  0.25500000920E-02 0. -1.
</event>
<event>
 5   0  0.7424930E-02  0.6088804E+03  0.7818609E-02  0.9887151E-01
       -1   -1    0    0    0  501  0.00000000000E+00  0.00000000000E+00  0.19390751479E+03  0.19390751486E+03  0.50400001928E-02 0. -1.
        1   -1    0    0  501    0  0.00000000000E+00  0.00000000000E+00 -0.47797957615E+03  0.47797957618E+03  0.50400001928E-02 0.  1.
    10030    2    1    2    0    0  0.00000000000E+00  0.00000000000E+00 -0.28407206136E+03  0.67188709104E+03  0.60888038814E+03 0.  0.
        3    1    3    3  502    0  0.29520532626E+03 -0.73273184060E+02 -0.12770449361E+03  0.32988421006E+03  0.10100000352E+00 0.  1.
       -3    1    3    3    0  502 -0.29520532626E+03  0.73273184060E+02 -0.15636756775E+03  0.34200288098E+03  0.10100000352E+00 0. -1.
</event>
<event>
 5   0  0.7266519E-02  0.5866991E+03  0.7818609E-02  0.9933392E-01
       -1   -1    0    0    0  501  0.00000000000E+00  0.00000000000E+00  0.15294464756E+03  0.15294464764E+03  0.50400001928E-02 0. -1.
        1   -1    0    0  501    0  0.00000000000E+00  0.00000000000E+00 -0.56264773974E+03  0.56264773977E+03  0.50400001928E-02 0.  1.
    10030    2    1    2    0    0  0.00000000000E+00  0.00000000000E+00 -0.40970309219E+03  0.71559238741E+03  0.58669910616E+03 0.  0.
        4    1    3    3  502    0  0.24653763908E+03  0.15086663725E+03 -0.26596771806E+03  0.39278746119E+03  0.12699999809E+01 0.  1.
       -4    1    3    3    0  502 -0.24653763908E+03 -0.15086663725E+03 -0.14373537413E+03  0.32280492622E+03  0.12699999809E+01 0. -1.
</event>
<event>
 5   0  0.4695625E-02  0.4370405E+03  0.7818609E-02  0.1031659E+00
       -4   -1    0    0    0  501  0.00000000000E+00  0.00000000000E+00  0.39267895911E+02  0.39288427675E+02  0.12699999809E+01 0.  1.
        4   -1    0    0  501    0  0.00000000000E+00  0.00000000000E+00 -0.12156953348E+04  0.12156959982E+04  0.12699999809E+01 0. -1.
    10030    2    1    2    0    0  0.00000000000E+00  0.00000000000E+00 -0.11764274389E+04  0.12549844259E+04  0.43704049027E+03 0.  0.
        5    1    3    3  502    0 -0.12137933650E+03 -0.11440224262E+02 -0.67637044168E+02  0.13950154767E+03  0.46999998093E+01 0.  1.
       -5    1    3    3    0  502  0.12137933650E+03  0.11440224262E+02 -0.11087903948E+04  0.11154828782E+04  0.46999998093E+01 0. -1.
</event>
<event>
 5   0  0.1219020E-01  0.6011129E+03  0.7818609E-02  0.9903100E-01
       -2   -1    0    0    0  501  0.00000000000E+00  0.00000000000E+00  0.71613876659E+02  0.71613876705E+02  0.25500000920E-02 0.  1.
        2   -1    0    0  501    0  0.00000000000E+00  0.00000000000E+00 -0.12614059649E+04  0.12614059649E+04  0.25500000920E-02 0. -1.
    10030    2    1    2    0    0  0.00000000000E+00  0.00000000000E+00 -0.11897920882E+04  0.13330198416E+04  0.60111287199E+03 0.  0.
        2    1    3    3  502    0 -0.16461376988E+03  0.19755199406E+03 -0.93994059941E+03  0.97448079202E+03  0.25500000920E-02 0. -1.
       -2    1    3    3    0  502  0.16461376988E+03 -0.19755199406E+03 -0.24985148880E+03  0.35853904956E+03  0.25500000920E-02 0.  1.
</event>
<event>
 5   0  0.7123340E-02  0.6372453E+03  0.7818609E-02  0.9831011E-01
       -1   -1    0    0    0  501  0.00000000000E+00  0.00000000000E+00  0.16933673982E+03  0.16933673989E+03  0.50400001928E-02 0. -1.
        1   -1    0    0  501    0  0.00000000000E+00  0.00000000000E+00 -0.59951773502E+03  0.59951773504E+03  0.50400001928E-02 0.  1.
    10030    2    1    2    0    0  0.00000000000E+00  0.00000000000E+00 -0.43018099520E+03  0.76885447493E+03  0.63724525498E+03 0.  0.
        2    1    3    3  502    0  0.21296546625E+02  0.18980384365E+03  0.92612881386E+02  0.21226442888E+03  0.25500000920E-02 0. -1.
       -2    1    3    3    0  502 -0.21296546625E+02 -0.18980384365E+03 -0.52279387659E+03  0.55659004605E+03  0.25500000920E-02 0.  1.
</event>
<event>
 5   0  0.7221069E-02  0.5989358E+03  0.7818609E-02  0.9907616E-01
       -1   -1    0    0    0  501  0.00000000000E+00  0.00000000000E+00  0.48130456308E+02  0.48130456572E+02  0.50400001928E-02 0. -1.
        1   -1    0    0  501    0  0.00000000000E+00  0.00000000000E+00 -0.18632902929E+04  0.18632902929E+04  0.50400001928E-02 0.  1.
    10030    2    1    2    0    0  0.00000000000E+00  0.00000000000E+00 -0.18151598366E+04  0.19114207495E+04  0.59893576381E+03 0.  0.
        5    1    3    3  502    0 -0.10462076194E+03 -0.24349821362E+03 -0.46282224033E+03  0.53335110388E+03  0.46999998093E+01 0. -1.
       -5    1    3    3    0  502  0.10462076194E+03  0.24349821362E+03 -0.13523375963E+04  0.13780696456E+04  0.46999998093E+01 0.  1.
</event>
<event>
 5   0  0.4695625E-02  0.6026033E+03  0.7818609E-02  0.9900020E-01
        3   -1    0    0  501    0  0.00000000000E+00  0.00000000000E+00  0.81682447644E+03  0.81682448268E+03  0.10100000352E+00 0. -1.
       -3   -1    0    0    0  501  0.00000000000E+00  0.00000000000E+00 -0.11114097105E+03  0.11114101694E+03  0.10100000352E+00 0.  1.
    10030    2    1    2    0    0  0.00000000000E+00  0.00000000000E+00  0.70568350539E+03  0.92796549962E+03  0.60260331788E+03 0.  0.
        2    1    3    3  502    0 -0.21236549155E+03  0.15978650686E+03  0.13423786606E+03  0.29774256408E+03  0.25500000920E-02 0.  1.
       -2    1    3    3    0  502  0.21236549155E+03 -0.15978650686E+03  0.57144563932E+03  0.63022293554E+03  0.25500000920E-02 0. -1.
</event>
<event>
 5   0  0.1175861E-01  0.6031085E+03  0.7818609E-02  0.9898978E-01
        2   -1    0    0  501    0  0.00000000000E+00  0.00000000000E+00  0.80322909232E+03  0.80322909232E+03  0.25500000920E-02 0.  1.
       -2   -1    0    0    0  501  0.00000000000E+00  0.00000000000E+00 -0.11321172809E+03  0.11321172812E+03  0.25500000920E-02 0. -1.
    10030    2    1    2    0    0  0.00000000000E+00  0.00000000000E+00  0.69001736423E+03  0.91644082045E+03  0.60310845993E+03 0.  0.
        3    1    3    3  502    0  0.26372634991E+03  0.92563772710E+02  0.17299085510E+03  0.32870273167E+03  0.10100000352E+00 0. -1.
       -3    1    3    3    0  502 -0.26372634991E+03 -0.92563772710E+02  0.51702650913E+03  0.58773808878E+03  0.10100000352E+00 0.  1.
</event>
<event>
 5   0  0.1175861E-01  0.5983572E+03  0.7818609E-02  0.9908820E-01
       -2   -1    0    0    0  501  0.00000000000E+00  0.00000000000E+00  0.48694765288E+02  0.48694765355E+02  0.25500000920E-02 0.  1.
        2   -1    0    0  501    0  0.00000000000E+00  0.00000000000E+00 -0.18381405541E+04  0.18381405541E+04  0.25500000920E-02 0. -1.
    10030    2    1    2    0    0  0.00000000000E+00  0.00000000000E+00 -0.17894457888E+04  0.18868353195E+04  0.59835716061E+03 0.  0.
        3    1    3    3  502    0  0.47170039926E+01  0.17170803361E+03 -0.16671474218E+04  0.16759732799E+04  0.10100000352E+00 0. -1.
       -3    1    3    3    0  502 -0.47170039926E+01 -0.17170803361E+03 -0.12229836706E+03  0.21086203954E+03  0.10100000352E+00 0.  1.
</event>
<event>
 5   0  0.1146468E-01  0.5993937E+03  0.7818609E-02  0.9906665E-01
        2   -1    0    0  501    0  0.00000000000E+00  0.00000000000E+00  0.21403992203E+04  0.21403992203E+04  0.25500000920E-02 0.  1.
       -2   -1    0    0    0  501  0.00000000000E+00  0.00000000000E+00 -0.41963288605E+02  0.41963288682E+02  0.25500000920E-02 0. -1.
    10030    2    1    2    0    0  0.00000000000E+00  0.00000000000E+00  0.20984359317E+04  0.21823625090E+04  0.59939366128E+03 0.  0.
        4    1    3    3  502    0 -0.11839142038E+03  0.26703891356E+03  0.12931960740E+04  0.13257767566E+04  0.12699999809E+01 0.  1.
       -4    1    3    3    0  502  0.11839142038E+03 -0.26703891356E+03  0.80523985772E+03  0.85658575235E+03  0.12699999809E+01 0. -1.
</event>
<event>
 5   0  0.1175861E-01  0.5948425E+03  0.7818609E-02  0.9916164E-01
       -2   -1    0    0    0  501  0.00000000000E+00  0.00000000000E+00  0.23321522184E+03  0.23321522186E+03  0.25500000920E-02 0.  1.
        2   -1    0    0  501    0  0.00000000000E+00  0.00000000000E+00 -0.37930367314E+03  0.37930367315E+03  0.25500000920E-02 0. -1.
    10030    2    1    2    0    0  0.00000000000E+00  0.00000000000E+00 -0.14608845130E+03  0.61251889501E+03  0.59484246750E+03 0.  0.
        3    1    3    3  502    0 -0.15650755963E+03 -0.24626678521E+03 -0.13735486238E+02  0.29211405222E+03  0.10100000352E+00 0. -1.
       -3    1    3    3    0  502  0.15650755963E+03  0.24626678521E+03 -0.13235296506E+03  0.32040484279E+03  0.10100000352E+00 0.  1.
</event>
<event>
 5   0  0.1166419E-01  0.6100241E+03  0.7818609E-02  0.9884825E-01
       -2   -1    0    0    0  501  0.00000000000E+00  0.00000000000E+00  0.32965145428E+03  0.32965145429E+03  0.25500000920E-02 0. -1.
        2   -1    0    0  501    0  0.00000000000E+00  0.00000000000E+00 -0.28221432450E+03  0.28221432451E+03  0.25500000920E-02 0.  1.
    10030    2    1    2    0    0  0.00000000000E+00  0.00000000000E+00  0.47437129784E+02  0.61186577881E+03  0.61002413886E+03 0.  0.
        1    1    3    3  502    0 -0.33213058094E+02 -0.14186116587E+03  0.29249146246E+03  0.32677049017E+03  0.50400001928E-02 0. -1.
       -1    1    3    3    0  502  0.33213058094E+02  0.14186116587E+03 -0.24505433268E+03  0.28509528863E+03  0.50400001928E-02 0.  1.
</event>
<event>
 5   0  0.1175861E-01  0.6222753E+03  0.7818609E-02  0.9860240E-01
       -2   -1    0    0    0  501  0.00000000000E+00  0.00000000000E+00  0.10731769554E+03  0.10731769557E+03  0.25500000920E-02 0.  1.
        2   -1    0    0  501    0  0.00000000000E+00  0.00000000000E+00 -0.90205673244E+03  0.90205673244E+03  0.25500000920E-02 0. -1.
    10030    2    1    2    0    0  0.00000000000E+00  0.00000000000E+00 -0.79473903689E+03  0.10093744280E+04  0.62227534032E+03 0.  0.
        3    1    3    3  502    0 -0.91626912770E+02  0.54604722585E+02 -0.87147346427E+03  0.87797675141E+03  0.10100000352E+00 0. -1.
       -3    1    3    3    0  502  0.91626912770E+02 -0.54604722585E+02  0.76734427381E+02  0.13139767661E+03  0.10100000352E+00 0.  1.
</event>
<event>
 5   0  0.1206238E-01  0.5977197E+03  0.7818609E-02  0.9910148E-01
       -2   -1    0    0    0  501  0.00000000000E+00  0.00000000000E+00  0.24575966335E+03  0.24575966336E+03  0.25500000920E-02 0.  1.
        2   -1    0    0  501    0  0.00000000000E+00  0.00000000000E+00 -0.36343314055E+03  0.36343314055E+03  0.25500000920E-02 0. -1.
    10030    2    1    2    0    0  0.00000000000E+00  0.00000000000E+00 -0.11767347720E+03  0.60919280392E+03  0.59771968774E+03 0.  0.
        5    1    3    3  502    0 -0.14534984005E+03  0.10942095948E+03  0.18276960695E+03  0.25792700828E+03  0.46999998093E+01 0.  1.
       -5    1    3    3    0  502  0.14534984005E+03 -0.10942095948E+03 -0.30044308415E+03  0.35126579564E+03  0.46999998093E+01 0. -1.
</event>
<event>
 5   0  0.7424930E-02  0.6005412E+03  0.7818609E-02  0.9904284E-01
        1   -1    0    0  501    0  0.00000000000E+00  0.00000000000E+00  0.22756175264E+03  0.22756175270E+03  0.50400001928E-02 0.  1.
       -1   -1    0    0    0  501  0.00000000000E+00  0.00000000000E+00 -0.39621090553E+03  0.39621090556E+03  0.50400001928E-02 0. -1.
    10030    2    1    2    0    0  0.00000000000E+00  0.00000000000E+00 -0.16864915289E+03  0.62377265826E+03  0.60054124956E+03 0.  0.
        3    1    3    3  502    0  0.12571918656E+03  0.74546379919E+02  0.18811963695E+03  0.23822570103E+03  0.10100000352E+00 0.  1.
       -3    1    3    3    0  502 -0.12571918656E+03 -0.74546379919E+02 -0.35676878983E+03  0.38554695723E+03  0.10100000352E+00 0. -1.
</event>
<event>
 5   0  0.4695625E-02  0.6207545E+03  0.7818609E-02  0.9863259E-01
        3   -1    0    0  501    0  0.00000000000E+00  0.00000000000E+00  0.53014551411E+03  0.53014552373E+03  0.10100000352E+00 0.  1.
       -3   -1    0    0    0  501  0.00000000000E+00  0.00000000000E+00 -0.18171241470E+03  0.18171244277E+03  0.10100000352E+00 0. -1.
    10030    2    1    2    0    0  0.00000000000E+00  0.00000000000E+00  0.34843309941E+03  0.71185796650E+03  0.62075449230E+03 0.  0.
        3    1    3    3  502    0  0.23685090331E+03 -0.14066149927E+03  0.10225436237E+02  0.27566025742E+03  0.10100000352E+00 0.  1.
       -3    1    3    3    0  502 -0.23685090331E+03  0.14066149927E+03  0.33820766317E+03  0.43619770908E+03  0.10100000352E+00 0. -1.
</event>
<event>
 5   0  0.7263385E-02  0.5770685E+03  0.7818609E-02  0.9954158E-01
        1   -1    0    0  501    0  0.00000000000E+00  0.00000000000E+00  0.50446170105E+02  0.50446170357E+02  0.50400001928E-02 0.  1.
       -1   -1    0    0    0  501  0.00000000000E+00  0.00000000000E+00 -0.16503139756E+04  0.16503139756E+04  0.50400001928E-02 0. -1.
    10030    2    1    2    0    0  0.00000000000E+00  0.00000000000E+00 -0.15998678055E+04  0.17007601460E+04  0.57706852197E+03 0.  0.
        1    1    3    3  502    0  0.19339812443E+03 -0.13048674171E+03 -0.13002917573E+04  0.13210557438E+04  0.50400001928E-02 0. -1.
       -1    1    3    3    0  502 -0.19339812443E+03  0.13048674171E+03 -0.29957604823E+03  0.37970440213E+03  0.50400001928E-02 0.  1.
</event>
<event>
 5   0  0.7424930E-02  0.5781290E+03  0.7818609E-02  0.9951850E-01
       -1   -1    0    0    0  501  0.00000000000E+00  0.00000000000E+00  0.33580932598E+03  0.33580932601E+03  0.50400001928E-02 0.  1.
        1   -1    0    0  501    0  0.00000000000E+00  0.00000000000E+00 -0.24882659470E+03  0.24882659475E+03  0.50400001928E-02 0. -1.
    10030    2    1    2    0    0  0.00000000000E+00  0.00000000000E+00  0.86982731277E+02  0.58463592076E+03  0.57812902047E+03 0.  0.
        3    1    3    3  502    0  0.12885538747E+03 -0.30641436015E+02 -0.21633561747E+03  0.25366063563E+03  0.10100000352E+00 0. -1.
       -3    1    3    3    0  502 -0.12885538747E+03  0.30641436015E+02  0.30331834875E+03  0.33097528513E+03  0.10100000352E+00 0.  1.
</event>
<event>
 5   0  0.7266519E-02  0.5915317E+03  0.7818609E-02  0.9923132E-01
        1   -1    0    0  501    0  0.00000000000E+00  0.00000000000E+00  0.54522877436E+03  0.54522877438E+03  0.50400001928E-02 0.  1.
       -1   -1    0    0    0  501  0.00000000000E+00  0.00000000000E+00 -0.16044173534E+03  0.16044173542E+03  0.50400001928E-02 0. -1.
    10030    2    1    2    0    0  0.00000000000E+00  0.00000000000E+00  0.38478703902E+03  0.70567050980E+03  0.59153174303E+03 0.  0.
        4    1    3    3  502    0 -0.25188594568E+03 -0.13046652013E+03  0.29225882129E+03  0.40728966845E+03  0.12699999809E+01 0.  1.
       -4    1    3    3    0  502  0.25188594568E+03  0.13046652013E+03  0.92528217731E+02  0.29838084135E+03  0.12699999809E+01 0. -1.
</event>
<event>
 5   0  0.7266519E-02  0.6386093E+03  0.7818609E-02  0.9828391E-01
       -1   -1    0    0    0  501  0.00000000000E+00  0.00000000000E+00  0.42938712612E+03  0.42938712615E+03  0.50400001928E-02 0.  1.
        1   -1    0    0  501    0  0.00000000000E+00  0.00000000000E+00 -0.23744414853E+03  0.23744414859E+03  0.50400001928E-02 0. -1.
    10030    2    1    2    0    0  0.00000000000E+00  0.00000000000E+00  0.19194297759E+03  0.66683127474E+03  0.63860930335E+03 0.  0.
        4    1    3    3  502    0 -0.23843227137E+02 -0.26144077009E+03 -0.93813463154E+02  0.27878729260E+03  0.12699999809E+01 0. -1.
       -4    1    3    3    0  502  0.23843227137E+02  0.26144077009E+03  0.28575644074E+03  0.38804398214E+03  0.12699999809E+01 0.  1.
</event>
<event>
 5   0  0.1146468E-01  0.5950540E+03  0.7818609E-02  0.9915721E-01
       -2   -1    0    0    0  501  0.00000000000E+00  0.00000000000E+00  0.17504636100E+03  0.17504636102E+03  0.25500000920E-02 0. -1.
        2   -1    0    0  501    0  0.00000000000E+00  0.00000000000E+00 -0.50570781320E+03  0.50570781321E+03  0.25500000920E-02 0.  1.
    10030    2    1    2    0    0  0.00000000000E+00  0.00000000000E+00 -0.33066145219E+03  0.68075417423E+03  0.59505398895E+03 0.  0.
        4    1    3    3  502    0 -0.58417784333E+02  0.11850608014E+03 -0.47030267867E+03  0.48851054341E+03  0.12699999809E+01 0.  1.
       -4    1    3    3    0  502  0.58417784333E+02 -0.11850608014E+03  0.13964122648E+03  0.19224363082E+03  0.12699999809E+01 0. -1.
</event>
<event>
 5   0  0.1206238E-01  0.5919321E+03  0.7818609E-02  0.9922287E-01
        2   -1    0    0  501    0  0.00000000000E+00  0.00000000000E+00  0.87176916011E+03  0.87176916011E+03  0.25500000920E-02 0.  1.
       -2   -1    0    0    0  501  0.00000000000E+00  0.00000000000E+00 -0.10048062101E+03  0.10048062105E+03  0.25500000920E-02 0. -1.
    10030    2    1    2    0    0  0.00000000000E+00  0.00000000000E+00  0.77128853909E+03  0.97224978116E+03  0.59193211302E+03 0.  0.
        5    1    3    3  502    0 -0.12210477952E+03 -0.26113807455E+03  0.27581569390E+03  0.39899756661E+03  0.46999998093E+01 0. -1.
       -5    1    3    3    0  502  0.12210477952E+03  0.26113807455E+03  0.49547284519E+03  0.57325221454E+03  0.46999998093E+01 0.  1.
</event>
<event>
 5   0  0.7266519E-02  0.6022927E+03  0.7818609E-02  0.9900661E-01
        1   -1    0    0  501    0  0.00000000000E+00  0.00000000000E+00  0.46924562402E+03  0.46924562405E+03  0.50400001928E-02 0.  1.
       -1   -1    0    0    0  501  0.00000000000E+00  0.00000000000E+00 -0.19326580541E+03  0.19326580548E+03  0.50400001928E-02 0. -1.
    10030    2    1    2    0    0  0.00000000000E+00  0.00000000000E+00  0.27597981861E+03  0.66251142953E+03  0.60229273113E+03 0.  0.
        4    1    3    3  502    0 -0.14430690973E+03  0.26124578929E+03  0.93802997407E+02  0.31284894412E+03  0.12699999809E+01 0. -1.
       -4    1    3    3    0  502  0.14430690973E+03 -0.26124578929E+03  0.18217682120E+03  0.34966248540E+03  0.12699999809E+01 0.  1.
</event>
<event>
 5   0  0.1175861E-01  0.5844651E+03  0.7818609E-02  0.9938171E-01
        2   -1    0    0  501    0  0.00000000000E+00  0.00000000000E+00  0.29419416674E+03  0.29419416675E+03  0.25500000920E-02 0. -1.
       -2   -1    0    0    0  501  0.00000000000E+00  0.00000000000E+00 -0.29028402043E+03  0.29028402044E+03  0.25500000920E-02 0.  1.
    10030    2    1    2    0    0  0.00000000000E+00  0.00000000000E+00  0.39101463052E+01  0.58447818719E+03  0.58446510765E+03 0.  0.
        3    1    3    3  502    0 -0.28061063396E+03 -0.20283714898E+02 -0.77078956819E+02  0.29171035766E+03  0.10100000352E+00 0.  1.
       -3    1    3    3    0  502  0.28061063396E+03  0.20283714898E+02  0.80989103124E+02  0.29276782953E+03  0.10100000352E+00 0. -1.
</event>
<event>
 5   0  0.1166419E-01  0.6070478E+03  0.7818609E-02  0.9890891E-01
       -2   -1    0    0    0  501  0.00000000000E+00  0.00000000000E+00  0.23286124292E+03  0.23286124294E+03  0.25500000920E-02 0. -1.
        2   -1    0    0  501    0  0.00000000000E+00  0.00000000000E+00 -0.39562938784E+03  0.39562938785E+03  0.25500000920E-02 0.  1.
    10030    2    1    2    0    0  0.00000000000E+00  0.00000000000E+00 -0.16276814492E+03  0.62849063079E+03  0.60704777735E+03 0.  0.
        1    1    3    3  502    0  0.62389816604E+02  0.29597369513E+03 -0.55318723419E+02  0.30749484323E+03  0.50400001928E-02 0. -1.
       -1    1    3    3    0  502 -0.62389816604E+02 -0.29597369513E+03 -0.10744942150E+03  0.32099578756E+03  0.50400001928E-02 0.  1.
</event>
<event>
 5   0  0.4695625E-02  0.5950003E+03  0.7818609E-02  0.9915833E-01
        3   -1    0    0  501    0  0.00000000000E+00  0.00000000000E+00  0.70106273127E+02  0.70106345881E+02  0.10100000352E+00 0.  1.
       -3   -1    0    0    0  501  0.00000000000E+00  0.00000000000E+00 -0.12624590955E+04  0.12624590995E+04  0.10100000352E+00 0. -1.
    10030    2    1    2    0    0  0.00000000000E+00  0.00000000000E+00 -0.11923528223E+04  0.13325654454E+04  0.59500034731E+03 0.  0.
        5    1    3    3  502    0 -0.10842930401E+03 -0.26264358343E+03 -0.39906961783E+03  0.48991551900E+03  0.46999998093E+01 0.  1.
       -5    1    3    3    0  502  0.10842930401E+03  0.26264358343E+03 -0.79328320452E+03  0.84264992640E+03  0.46999998093E+01 0. -1.
</event>
<event>
 5   0  0.1219020E-01  0.5992021E+03  0.7818609E-02  0.9907063E-01
        2   -1    0    0  501    0  0.00000000000E+00  0.00000000000E+00  0.18830737972E+03  0.18830737974E+03  0.25500000920E-02 0. -1.
       -2   -1    0    0    0  501  0.00000000000E+00  0.00000000000E+00 -0.47667162812E+03  0.47667162813E+03  0.25500000920E-02 0.  1.
    10030    2    1    2    0    0  0.00000000000E+00  0.00000000000E+00 -0.28836424840E+03  0.66497900786E+03  0.59920208706E+03 0.  0.
        2    1    3    3  502    0 -0.21008988009E+03  0.19759729598E+03 -0.23419251565E+03  0.37152198251E+03  0.25500000920E-02 0.  1.
       -2    1    3    3    0  502  0.21008988009E+03 -0.19759729598E+03 -0.54171732749E+02  0.29345702535E+03  0.25500000920E-02 0. -1.
</event>
<event>
 5   0  0.4695625E-02  0.6048168E+03  0.7818609E-02  0.9895463E-01
       -4   -1    0    0    0  501  0.00000000000E+00  0.00000000000E+00  0.62558499033E+03  0.62558627944E+03  0.12699999809E+01 0.  1.
        4   -1    0    0  501    0  0.00000000000E+00  0.00000000000E+00 -0.14618030351E+03  0.14618582022E+03  0.12699999809E+01 0. -1.
    10030    2    1    2    0    0  0.00000000000E+00  0.00000000000E+00  0.47940468682E+03  0.77177209966E+03  0.60481676570E+03 0.  0.
        1    1    3    3  502    0  0.28629223113E+02 -0.10806420000E+03  0.59825295576E+03  0.60860833287E+03  0.50400001928E-02 0.  1.
       -1    1    3    3    0  502 -0.28629223113E+02  0.10806420000E+03 -0.11884826894E+03  0.16316376679E+03  0.50400001928E-02 0. -1.
</event>
<event>
 5   0  0.7266519E-02  0.6057757E+03  0.7818609E-02  0.9893495E-01
        1   -1    0    0  501    0  0.00000000000E+00  0.00000000000E+00  0.50692048628E+03  0.50692048631E+03  0.50400001928E-02 0. -1.
       -1   -1    0    0    0  501  0.00000000000E+00  0.00000000000E+00 -0.18097718787E+03  0.18097718794E+03  0.50400001928E-02 0.  1.
    10030    2    1    2    0    0  0.00000000000E+00  0.00000000000E+00  0.32594329841E+03  0.68789767425E+03  0.60577568164E+03 0.  0.
        4    1    3    3  502    0  0.12221911999E+03 -0.98787251461E+02  0.45699966682E+03  0.48326674075E+03  0.12699999809E+01 0. -1.
       -4    1    3    3    0  502 -0.12221911999E+03  0.98787251461E+02 -0.13105636841E+03  0.20463093350E+03  0.12699999809E+01 0.  1.
</event>
<event>
 5   0  0.1206238E-01  0.5965851E+03  0.7818609E-02  0.9912516E-01
        2   -1    0    0  501    0  0.00000000000E+00  0.00000000000E+00  0.70796268407E+03  0.70796268408E+03  0.25500000920E-02 0.  1.
       -2   -1    0    0    0  501  0.00000000000E+00  0.00000000000E+00 -0.12568237914E+03  0.12568237917E+03  0.25500000920E-02 0. -1.
    10030    2    1    2    0    0  0.00000000000E+00  0.00000000000E+00  0.58228030493E+03  0.83364506325E+03  0.59658506347E+03 0.  0.
        5    1    3    3  502    0  0.46074766981E+02  0.21178501928E+03  0.57744780184E+03  0.61680129085E+03  0.46999998093E+01 0.  1.
       -5    1    3    3    0  502 -0.46074766981E+02 -0.21178501928E+03  0.48325030930E+01  0.21684377240E+03  0.46999998093E+01 0. -1.
</event>
<event>
 5   0  0.4695625E-02  0.6063290E+03  0.7818609E-02  0.9892362E-01
        4   -1    0    0  501    0  0.00000000000E+00  0.00000000000E+00  0.18245889968E+04  0.18245894388E+04  0.12699999809E+01 0. -1.
       -4   -1    0    0    0  501  0.00000000000E+00  0.00000000000E+00 -0.50363836070E+02  0.50379846007E+02  0.12699999809E+01 0.  1.
    10030    2    1    2    0    0  0.00000000000E+00  0.00000000000E+00  0.17742251608E+04  0.18749692848E+04  0.60632903441E+03 0.  0.
        4    1    3    3  502    0 -0.29806868416E+03  0.55122576189E+02  0.90215819005E+03  0.95172183523E+03  0.12699999809E+01 0.  1.
       -4    1    3    3    0  502  0.29806868416E+03 -0.55122576189E+02  0.87206697071E+03  0.92324744960E+03  0.12699999809E+01 0. -1.
</event>
<event>
 5   0  0.7221069E-02  0.6078691E+03  0.7818609E-02  0.9889213E-01
        1   -1    0    0  501    0  0.00000000000E+00  0.00000000000E+00  0.22019608809E+03  0.22019608815E+03  0.50400001928E-02 0.  1.
       -1   -1    0    0    0  501  0.00000000000E+00  0.00000000000E+00 -0.41951801087E+03  0.41951801090E+03  0.50400001928E-02 0. -1.
    10030    2    1    2    0    0  0.00000000000E+00  0.00000000000E+00 -0.19932192278E+03  0.63971409905E+03  0.60786914680E+03 0.  0.
        5    1    3    3  502    0 -0.80203681740E+02 -0.20610018473E+03  0.11969114788E+03  0.25151138660E+03  0.46999998093E+01 0.  1.
       -5    1    3    3    0  502  0.80203681740E+02  0.20610018473E+03 -0.31901307066E+03  0.38820271246E+03  0.46999998093E+01 0. -1.
</event>
<event>
 5   0  0.7266519E-02  0.6061505E+03  0.7818609E-02  0.9892727E-01
       -1   -1    0    0    0  501  0.00000000000E+00  0.00000000000E+00  0.14444568626E+03  0.14444568635E+03  0.50400001928E-02 0. -1.
        1   -1    0    0  501    0  0.00000000000E+00  0.00000000000E+00 -0.63591108133E+03  0.63591108135E+03  0.50400001928E-02 0.  1.
    10030    2    1    2    0    0  0.00000000000E+00  0.00000000000E+00 -0.49146539507E+03  0.78035676770E+03  0.60615051789E+03 0.  0.
        4    1    3    3  502    0  0.45556706586E+02 -0.17409747549E+03  0.68211982388E+02  0.19245735094E+03  0.12699999809E+01 0. -1.
       -4    1    3    3    0  502 -0.45556706586E+02  0.17409747549E+03 -0.55967737746E+03  0.58789941676E+03  0.12699999809E+01 0.  1.
</event>
<event>
 5   0  0.7424930E-02  0.6020230E+03  0.7818609E-02  0.9901218E-01
        1   -1    0    0  501    0  0.00000000000E+00  0.00000000000E+00  0.30241885637E+03  0.30241885641E+03  0.50400001928E-02 0. -1.
       -1   -1    0    0    0  501  0.00000000000E+00  0.00000000000E+00 -0.29961067086E+03  0.29961067090E+03  0.50400001928E-02 0.  1.
    10030    2    1    2    0    0  0.00000000000E+00  0.00000000000E+00  0.28081855112E+01  0.60202952732E+03  0.60202297785E+03 0.  0.
        3    1    3    3  502    0  0.36926197572E+02  0.87396787542E+02 -0.28426694067E+03  0.29968224221E+03  0.10100000352E+00 0.  1.
       -3    1    3    3    0  502 -0.36926197572E+02 -0.87396787542E+02  0.28707512618E+03  0.30234728511E+03  0.10100000352E+00 0. -1.
</event>
<event>
 5   0  0.4695625E-02  0.6010374E+03  0.7818609E-02  0.9903256E-01
       -3   -1    0    0    0  501  0.00000000000E+00  0.00000000000E+00  0.94604223391E+03  0.94604223930E+03  0.10100000352E+00 0. -1.
        3   -1    0    0  501    0  0.00000000000E+00  0.00000000000E+00 -0.95462380282E+02  0.95462433711E+02  0.10100000352E+00 0.  1.
    10030    2    1    2    0    0  0.00000000000E+00  0.00000000000E+00  0.85057985363E+03  0.10415046730E+04  0.60103735034E+03 0.  0.
        5    1    3    3  502    0  0.26604671513E+03 -0.11485288032E+02  0.66650183621E+03  0.71774616275E+03  0.46999998093E+01 0. -1.
       -5    1    3    3    0  502 -0.26604671513E+03  0.11485288032E+02  0.18407801742E+03  0.32375851026E+03  0.46999998093E+01 0.  1.
</event>
<event>
 5   0  0.4695625E-02  0.5951245E+03  0.7818609E-02  0.9915573E-01
       -3   -1    0    0    0  501  0.00000000000E+00  0.00000000000E+00  0.11511022152E+03  0.11511026583E+03  0.10100000352E+00 0.  1.
        3   -1    0    0  501    0  0.00000000000E+00  0.00000000000E+00 -0.76920412938E+03  0.76920413601E+03  0.10100000352E+00 0. -1.
    10030    2    1    2    0    0  0.00000000000E+00  0.00000000000E+00 -0.65409390786E+03  0.88431440184E+03  0.59512445842E+03 0.  0.
        1    1    3    3  502    0  0.60470169793E+01 -0.29396305399E+03 -0.25907573423E+03  0.39188146118E+03  0.50400001928E-02 0.  1.
       -1    1    3    3    0  502 -0.60470169793E+01  0.29396305399E+03 -0.39501817363E+03  0.49243294066E+03  0.50400001928E-02 0. -1.
</event>
<event>
 5   0  0.7221069E-02  0.5984159E+03  0.7818609E-02  0.9908698E-01
        1   -1    0    0  501    0  0.00000000000E+00  0.00000000000E+00  0.49907917096E+03  0.49907917099E+03  0.50400001928E-02 0.  1.
       -1   -1    0    0    0  501  0.00000000000E+00  0.00000000000E+00 -0.17938112923E+03  0.17938112930E+03  0.50400001928E-02 0. -1.
    10030    2    1    2    0    0  0.00000000000E+00  0.00000000000E+00  0.31969804173E+03  0.67846030028E+03  0.59841585972E+03 0.  0.
        5    1    3    3  502    0 -0.20395769613E+03 -0.21877299912E+03  0.15242065321E+03  0.33572982066E+03  0.46999998093E+01 0. -1.
       -5    1    3    3    0  502  0.20395769613E+03  0.21877299912E+03  0.16727738852E+03  0.34273047962E+03  0.46999998093E+01 0.  1.
</event>
<event>
 5   0  0.7266519E-02  0.6012279E+03  0.7818609E-02  0.9902862E-01
        1   -1    0    0  501    0  0.00000000000E+00  0.00000000000E+00  0.19894597145E+04  0.19894597145E+04  0.50400001928E-02 0.  1.
       -1   -1    0    0    0  501  0.00000000000E+00  0.00000000000E+00 -0.45423756684E+02  0.45423756963E+02  0.50400001928E-02 0. -1.
    10030    2    1    2    0    0  0.00000000000E+00  0.00000000000E+00  0.19440359578E+04  0.20348834715E+04  0.60122785795E+03 0.  0.
        4    1    3    3  502    0 -0.20814579554E+03  0.64115123200E+02  0.16732948128E+04  0.16874100167E+04  0.12699999809E+01 0.  1.
       -4    1    3    3    0  502  0.20814579554E+03 -0.64115123200E+02  0.27074114504E+03  0.34747345473E+03  0.12699999809E+01 0. -1.
</event>
<event>
 5   0  0.4695625E-02  0.5979652E+03  0.7818609E-02  0.9909637E-01
       -3   -1    0    0    0  501  0.00000000000E+00  0.00000000000E+00  0.19368365856E+03  0.19368368489E+03  0.10100000352E+00 0.  1.
        3   -1    0    0  501    0  0.00000000000E+00  0.00000000000E+00 -0.46152881081E+03  0.46152882186E+03  0.10100000352E+00 0. -1.
    10030    2    1    2    0    0  0.00000000000E+00  0.00000000000E+00 -0.26784515226E+03  0.65521250675E+03  0.59796521924E+03 0.  0.
        2    1    3    3  502    0 -0.69560745649E+02  0.43932048806E+02 -0.44888140542E+03  0.45635867296E+03  0.25500000920E-02 0. -1.
       -2    1    3    3    0  502  0.69560745649E+02 -0.43932048806E+02  0.18103625317E+03  0.19885383379E+03  0.25500000920E-02 0.  1.
</event>
<event>
 5   0  0.1166419E-01  0.5983591E+03  0.7818609E-02  0.9908816E-01
       -2   -1    0    0    0  501  0.00000000000E+00  0.00000000000E+00  0.54497183962E+02  0.54497184022E+02  0.25500000920E-02 0.  1.
        2   -1    0    0  501    0  0.00000000000E+00  0.00000000000E+00 -0.16424408318E+04  0.16424408318E+04  0.25500000920E-02 0. -1.
    10030    2    1    2    0    0  0.00000000000E+00  0.00000000000E+00 -0.15879436478E+04  0.16969380158E+04  0.59835909021E+03 0.  0.
        1    1    3    3  502    0  0.22971167111E+03  0.84568866155E+02 -0.12818030938E+04  0.13049668641E+04  0.50400001928E-02 0. -1.
       -1    1    3    3    0  502 -0.22971167111E+03 -0.84568866155E+02 -0.30614055402E+03  0.39197115176E+03  0.50400001928E-02 0.  1.
</event>
<event>
 5   0  0.7263385E-02  0.4886049E+03  0.7818609E-02  0.1016797E+00
       -1   -1    0    0    0  501  0.00000000000E+00  0.00000000000E+00  0.75618257227E+02  0.75618257395E+02  0.50400001928E-02 0.  1.
        1   -1    0    0  501    0  0.00000000000E+00  0.00000000000E+00 -0.78927605747E+03  0.78927605749E+03  0.50400001928E-02 0. -1.
    10030    2    1    2    0    0  0.00000000000E+00  0.00000000000E+00 -0.71365780024E+03  0.86489431488E+03  0.48860487110E+03 0.  0.
        1    1    3    3  502    0  0.41027787094E+00  0.12320425194E+03 -0.73025602969E+03  0.74057634647E+03  0.50400001928E-02 0. -1.
       -1    1    3    3    0  502 -0.41027787094E+00 -0.12320425194E+03  0.16598229445E+02  0.12431796842E+03  0.50400001928E-02 0.  1.
</event>
<event>
 5   0  0.1146468E-01  0.6115314E+03  0.7818609E-02  0.9881767E-01
        2   -1    0    0  501    0  0.00000000000E+00  0.00000000000E+00  0.11820929748E+04  0.11820929749E+04  0.25500000920E-02 0.  1.
       -2   -1    0    0    0  501  0.00000000000E+00  0.00000000000E+00 -0.79090791072E+02  0.79090791113E+02  0.25500000920E-02 0. -1.
    10030    2    1    2    0    0  0.00000000000E+00  0.00000000000E+00  0.11030021838E+04  0.12611837660E+04  0.61153141711E+03 0.  0.
        4    1    3    3  502    0  0.64288857728E+02 -0.29181247166E+03  0.41779103302E+03  0.51365215469E+03  0.12699999809E+01 0. -1.
       -4    1    3    3    0  502 -0.64288857728E+02  0.29181247166E+03  0.68521115075E+03  0.74753161128E+03  0.12699999809E+01 0.  1.
</event>
<event>
 5   0  0.1206238E-01  0.5981406E+03  0.7818609E-02  0.9909271E-01
        2   -1    0    0  501    0  0.00000000000E+00  0.00000000000E+00  0.16615364816E+04  0.16615364816E+04  0.25500000920E-02 0. -1.
       -2   -1    0    0    0  501  0.00000000000E+00  0.00000000000E+00 -0.53831527526E+02  0.53831527586E+02  0.25500000920E-02 0.  1.
    10030    2    1    2    0    0  0.00000000000E+00  0.00000000000E+00  0.16077049541E+04  0.17153680092E+04  0.59814060855E+03 0.  0.
        5    1    3    3  502    0 -0.93409624859E+02  0.19299297262E+02  0.16166349807E+04  0.16194531706E+04  0.46999998093E+01 0. -1.
       -5    1    3    3    0  502  0.93409624859E+02 -0.19299297262E+02 -0.89300266247E+01  0.95914838606E+02  0.46999998093E+01 0.  1.
</event>
<event>
 5   0  0.4695625E-02  0.6970097E+03  0.7818609E-02  0.9722360E-01
        4   -1    0    0  501    0  0.00000000000E+00  0.00000000000E+00  0.27706454402E+03  0.27706745470E+03  0.12699999809E+01 0.  1.
       -4   -1    0    0    0  501  0.00000000000E+00  0.00000000000E+00 -0.43835968373E+03  0.43836152342E+03  0.12699999809E+01 0. -1.
    10030    2    1    2    0    0  0.00000000000E+00  0.00000000000E+00 -0.16129513971E+03  0.71542897812E+03  0.69700968476E+03 0.  0.
        5    1    3    3  502    0 -0.97935129985E+02  0.10058716704E+03  0.24672359723E+03  0.28390789226E+03  0.46999998093E+01 0.  1.
       -5    1    3    3    0  502  0.97935129985E+02 -0.10058716704E+03 -0.40801873694E+03  0.43152108587E+03  0.46999998093E+01 0. -1.
</event>
<event>
 5   0  0.7263385E-02  0.5984656E+03  0.7818609E-02  0.9908595E-01
        1   -1    0    0  501    0  0.00000000000E+00  0.00000000000E+00  0.17114349247E+03  0.17114349255E+03  0.50400001928E-02 0. -1.
       -1   -1    0    0    0  501  0.00000000000E+00  0.00000000000E+00 -0.52318825587E+03  0.52318825590E+03  0.50400001928E-02 0.  1.
    10030    2    1    2    0    0  0.00000000000E+00  0.00000000000E+00 -0.35204476340E+03  0.69433174844E+03  0.59846558921E+03 0.  0.
        1    1    3    3  502    0 -0.25724545430E+02  0.23073723979E+03  0.43000563785E+02  0.23611538403E+03  0.50400001928E-02 0. -1.
       -1    1    3    3    0  502  0.25724545430E+02 -0.23073723979E+03 -0.39504532718E+03  0.45821636441E+03  0.50400001928E-02 0.  1.
</event>
<event>
 5   0  0.1219020E-01  0.5993277E+03  0.7818609E-02  0.9906802E-01
        2   -1    0    0  501    0  0.00000000000E+00  0.00000000000E+00  0.53088059274E+03  0.53088059275E+03  0.25500000920E-02 0.  1.
       -2   -1    0    0    0  501  0.00000000000E+00  0.00000000000E+00 -0.16914993763E+03  0.16914993765E+03  0.25500000920E-02 0. -1.
    10030    2    1    2    0    0  0.00000000000E+00  0.00000000000E+00  0.36173065512E+03  0.70003053040E+03  0.59932768720E+03 0.  0.
        2    1    3    3  502    0 -0.15644235263E+03  0.18718598584E+03 -0.22403530283E+02  0.24497902189E+03  0.25500000920E-02 0. -1.
       -2    1    3    3    0  502  0.15644235263E+03 -0.18718598584E+03  0.38413418540E+03  0.45505150850E+03  0.25500000920E-02 0.  1.
</event>
<event>
 5   0  0.7424930E-02  0.5963676E+03  0.7818609E-02  0.9912971E-01
       -1   -1    0    0    0  501  0.00000000000E+00  0.00000000000E+00  0.39956271673E+02  0.39956271991E+02  0.50400001928E-02 0.  1.
        1   -1    0    0  501    0  0.00000000000E+00  0.00000000000E+00 -0.22252724257E+04  0.22252724257E+04  0.50400001928E-02 0. -1.
    10030    2    1    2    0    0  0.00000000000E+00  0.00000000000E+00 -0.21853161540E+04  0.22652286977E+04  0.59636763814E+03 0.  0.
        3    1    3    3  502    0  0.89166222314E+02  0.40521703351E+02 -0.21624318756E+04  0.21646487591E+04  0.10100000352E+00 0. -1.
       -3    1    3    3    0  502 -0.89166222314E+02 -0.40521703351E+02 -0.22884278458E+02  0.10057993859E+03  0.10100000352E+00 0.  1.
</event>
<event>
 5   0  0.7424930E-02  0.6140490E+03  0.7818609E-02  0.9876680E-01
        1   -1    0    0  501    0  0.00000000000E+00  0.00000000000E+00  0.20235639307E+04  0.20235639307E+04  0.50400001928E-02 0.  1.
       -1   -1    0    0    0  501  0.00000000000E+00  0.00000000000E+00 -0.46583179426E+02  0.46583179699E+02  0.50400001928E-02 0. -1.
    10030    2    1    2    0    0  0.00000000000E+00  0.00000000000E+00  0.19769807513E+04  0.20701471104E+04  0.61404899464E+03 0.  0.
        3    1    3    3  502    0 -0.13414888509E+03  0.13543542387E+03  0.17998857614E+04  0.18099523314E+04  0.10100000352E+00 0.  1.
       -3    1    3    3    0  502  0.13414888509E+03 -0.13543542387E+03  0.17709498983E+03  0.26019477903E+03  0.10100000352E+00 0. -1.
</event>
<event>
 5   0  0.1219020E-01  0.6060400E+03  0.7818609E-02  0.9892954E-01
        2   -1    0    0  501    0  0.00000000000E+00  0.00000000000E+00  0.13657474979E+03  0.13657474982E+03  0.25500000920E-02 0.  1.
       -2   -1    0    0    0  501  0.00000000000E+00  0.00000000000E+00 -0.67231402934E+03  0.67231402934E+03  0.25500000920E-02 0. -1.
    10030    2    1    2    0    0  0.00000000000E+00  0.00000000000E+00 -0.53573927955E+03  0.80888877916E+03  0.60603999984E+03 0.  0.
        2    1    3    3  502    0 -0.17132043178E+03 -0.24931957148E+03 -0.24436274238E+03  0.38887541570E+03  0.25500000920E-02 0.  1.
       -2    1    3    3    0  502  0.17132043178E+03  0.24931957148E+03 -0.29137653716E+03  0.42001336346E+03  0.25500000920E-02 0. -1.
</event>
<event>
 5   0  0.7221069E-02  0.6167382E+03  0.7818609E-02  0.9871275E-01
        1   -1    0    0  501    0  0.00000000000E+00  0.00000000000E+00  0.42058721746E+03  0.42058721749E+03  0.50400001928E-02 0.  1.
       -1   -1    0    0    0  501  0.00000000000E+00  0.00000000000E+00 -0.22609225362E+03  0.22609225368E+03  0.50400001928E-02 0. -1.
    10030    2    1    2    0    0  0.00000000000E+00  0.00000000000E+00  0.19449496384E+03  0.64667947117E+03  0.61673823254E+03 0.  0.
        5    1    3    3  502    0  0.20426905534E+02 -0.25920607303E+03  0.27101678672E+03  0.37560249660E+03  0.46999998093E+01 0.  1.
       -5    1    3    3    0  502 -0.20426905534E+02  0.25920607303E+03 -0.76521822883E+02  0.27107697457E+03  0.46999998093E+01 0. -1.
</event>
<event>
 5   0  0.1175861E-01  0.6132598E+03  0.7818609E-02  0.9878272E-01
        2   -1    0    0  501    0  0.00000000000E+00  0.00000000000E+00  0.16485113557E+03  0.16485113559E+03  0.25500000920E-02 0.  1.
       -2   -1    0    0    0  501  0.00000000000E+00  0.00000000000E+00 -0.57034416903E+03  0.57034416903E+03  0.25500000920E-02 0. -1.
    10030    2    1    2    0    0  0.00000000000E+00  0.00000000000E+00 -0.40549303345E+03  0.73519530463E+03  0.61325976206E+03 0.  0.
        3    1    3    3  502    0  0.29271027470E+03 -0.56057957906E+02 -0.28919612389E+03  0.41527847023E+03  0.10100000352E+00 0. -1.
       -3    1    3    3    0  502 -0.29271027470E+03  0.56057957906E+02 -0.11629690956E+03  0.31991683440E+03  0.10100000352E+00 0.  1.
</event>
<event>
 5   0  0.1175861E-01  0.5188891E+03  0.7818609E-02  0.1008963E+00
        2   -1    0    0  501    0  0.00000000000E+00  0.00000000000E+00  0.22948530690E+04  0.22948530690E+04  0.25500000920E-02 0. -1.
       -2   -1    0    0    0  501  0.00000000000E+00  0.00000000000E+00 -0.29331499419E+02  0.29331499530E+02  0.25500000920E-02 0.  1.
    10030    2    1    2    0    0  0.00000000000E+00  0.00000000000E+00  0.22655215696E+04  0.23241845685E+04  0.51888912723E+03 0.  0.
        3    1    3    3  502    0 -0.89944982057E+02  0.11902444966E+03  0.18201287249E+03  0.23534148671E+03  0.10100000352E+00 0.  1.
       -3    1    3    3    0  502  0.89944982057E+02 -0.11902444966E+03  0.20835086971E+04  0.20888430818E+04  0.10100000352E+00 0. -1.
</event>
<event>
 5   0  0.1219020E-01  0.4775719E+03  0.7818609E-02  0.1019805E+00
       -2   -1    0    0    0  501  0.00000000000E+00  0.00000000000E+00  0.14543328892E+03  0.14543328894E+03  0.25500000920E-02 0.  1.
        2   -1    0    0  501    0  0.00000000000E+00  0.00000000000E+00 -0.39206103803E+03  0.39206103804E+03  0.25500000920E-02 0. -1.
    10030    2    1    2    0    0  0.00000000000E+00  0.00000000000E+00 -0.24662774912E+03  0.53749432698E+03  0.47757188453E+03 0.  0.
        2    1    3    3  502    0 -0.24845968277E+01 -0.12923424336E+03 -0.34928204052E+03  0.37243201623E+03  0.25500000920E-02 0. -1.
       -2    1    3    3    0  502  0.24845968277E+01  0.12923424336E+03  0.10265429141E+03  0.16506231074E+03  0.25500000920E-02 0.  1.
</event>
<event>
 5   0  0.7266519E-02  0.7173925E+03  0.7818609E-02  0.9687943E-01
        1   -1    0    0  501    0  0.00000000000E+00  0.00000000000E+00  0.71056671359E+03  0.71056671361E+03  0.50400001928E-02 0. -1.
       -1   -1    0    0    0  501  0.00000000000E+00  0.00000000000E+00 -0.18107094960E+03  0.18107094967E+03  0.50400001928E-02 0.  1.
    10030    2    1    2    0    0  0.00000000000E+00  0.00000000000E+00  0.52949576399E+03  0.89163766328E+03  0.71739247172E+03 0.  0.
        4    1    3    3  502    0  0.28452346571E+03 -0.94284173827E+01  0.53596754651E+03  0.60688163706E+03  0.12699999809E+01 0. -1.
       -4    1    3    3    0  502 -0.28452346571E+03  0.94284173827E+01 -0.64717825110E+01  0.28475602621E+03  0.12699999809E+01 0.  1.
</event>
<event>
 5   0  0.1166419E-01  0.6048379E+03  0.7818609E-02  0.9895420E-01
       -2   -1    0    0    0  501  0.00000000000E+00  0.00000000000E+00  0.10329481205E+03  0.10329481208E+03  0.25500000920E-02 0. -1.
        2   -1    0    0  501    0  0.00000000000E+00  0.00000000000E+00 -0.88539984960E+03  0.88539984960E+03  0.25500000920E-02 0.  1.
    10030    2    1    2    0    0  0.00000000000E+00  0.00000000000E+00 -0.78210503755E+03  0.98869466169E+03  0.60483786611E+03 0.  0.
        1    1    3    3  502    0  0.17618514590E+03 -0.66209655025E+02 -0.41136201609E+01  0.18826004874E+03  0.50400001928E-02 0. -1.
       -1    1    3    3    0  502 -0.17618514590E+03  0.66209655025E+02 -0.77799141739E+03  0.80043461295E+03  0.50400001928E-02 0.  1.
</event>
<event>
 5   0  0.1219020E-01  0.6142025E+03  0.7818609E-02  0.9876371E-01
       -2   -1    0    0    0  501  0.00000000000E+00  0.00000000000E+00  0.12393845564E+03  0.12393845567E+03  0.25500000920E-02 0. -1.
        2   -1    0    0  501    0  0.00000000000E+00  0.00000000000E+00 -0.76095181302E+03  0.76095181303E+03  0.25500000920E-02 0.  1.
    10030    2    1    2    0    0  0.00000000000E+00  0.00000000000E+00 -0.63701335738E+03  0.88489026869E+03  0.61420254814E+03 0.  0.
        2    1    3    3  502    0 -0.17763119075E+03 -0.65489072362E+02 -0.66687818111E+03  0.69323024096E+03  0.25500000920E-02 0.  1.
       -2    1    3    3    0  502  0.17763119075E+03  0.65489072362E+02  0.29864823733E+02  0.19166002773E+03  0.25500000920E-02 0. -1.
</event>
<event>
 5   0  0.1166419E-01  0.6055842E+03  0.7818609E-02  0.9893888E-01
        2   -1    0    0  501    0  0.00000000000E+00  0.00000000000E+00  0.86872710117E+03  0.86872710118E+03  0.25500000920E-02 0. -1.
       -2   -1    0    0    0  501  0.00000000000E+00  0.00000000000E+00 -0.10553722666E+03  0.10553722669E+03  0.25500000920E-02 0.  1.
    10030    2    1    2    0    0  0.00000000000E+00  0.00000000000E+00  0.76318987452E+03  0.97426432787E+03  0.60558417746E+03 0.  0.
        1    1    3    3  502    0  0.65115399662E+02 -0.11392187987E+03 -0.57418597045E+02  0.14323095091E+03  0.50400001928E-02 0.  1.
       -1    1    3    3    0  502 -0.65115399662E+02  0.11392187987E+03  0.82060847156E+03  0.83103337695E+03  0.50400001928E-02 0. -1.
</event>
<event>
 5   0  0.1175861E-01  0.5783058E+03  0.7818609E-02  0.9951466E-01
       -2   -1    0    0    0  501  0.00000000000E+00  0.00000000000E+00  0.24817843345E+03  0.24817843347E+03  0.25500000920E-02 0. -1.
        2   -1    0    0  501    0  0.00000000000E+00  0.00000000000E+00 -0.33689226058E+03  0.33689226058E+03  0.25500000920E-02 0.  1.
    10030    2    1    2    0    0  0.00000000000E+00  0.00000000000E+00 -0.88713827122E+02  0.58507069405E+03  0.57830577890E+03 0.  0.
        3    1    3    3  502    0 -0.19227625243E+03 -0.19461762741E+03  0.50350134841E+02  0.27817498886E+03  0.10100000352E+00 0. -1.
       -3    1    3    3    0  502  0.19227625243E+03  0.19461762741E+03 -0.13906396196E+03  0.30689570519E+03  0.10100000352E+00 0.  1.
</event>
<event>
 5   0  0.4695625E-02  0.6590216E+03  0.7818609E-02  0.9789996E-01
       -4   -1    0    0    0  501  0.00000000000E+00  0.00000000000E+00  0.11287485695E+04  0.11287492840E+04  0.12699999809E+01 0. -1.
        4   -1    0    0  501    0  0.00000000000E+00  0.00000000000E+00 -0.96187764590E+02  0.96196148347E+02  0.12699999809E+01 0.  1.
    10030    2    1    2    0    0  0.00000000000E+00  0.00000000000E+00  0.10325608050E+04  0.12249454324E+04  0.65902162052E+03 0.  0.
        3    1    3    3  502    0  0.52616884500E+02 -0.13344557912E+03  0.10676732674E+04  0.10772662045E+04  0.10100000352E+00 0. -1.
       -3    1    3    3    0  502 -0.52616884500E+02  0.13344557912E+03 -0.35112462484E+02  0.14767922787E+03  0.10100000352E+00 0.  1.
</event>
<event>
 5   0  0.1166419E-01  0.6204312E+03  0.7818609E-02  0.9863902E-01
       -2   -1    0    0    0  501  0.00000000000E+00  0.00000000000E+00  0.22837745226E+03  0.22837745227E+03  0.25500000920E-02 0.  1.
        2   -1    0    0  501    0  0.00000000000E+00  0.00000000000E+00 -0.42138010656E+03  0.42138010657E+03  0.25500000920E-02 0. -1.
    10030    2    1    2    0    0  0.00000000000E+00  0.00000000000E+00 -0.19300265430E+03  0.64975755884E+03  0.62043118934E+03 0.  0.
        1    1    3    3  502    0 -0.16468488750E+03 -0.24046374363E+03 -0.20777711283E+03  0.35793191086E+03  0.50400001928E-02 0. -1.
       -1    1    3    3    0  502  0.16468488750E+03  0.24046374363E+03  0.14774458529E+02  0.29182564798E+03  0.50400001928E-02 0.  1.
</event>
<event>
 5   0  0.1146468E-01  0.5963284E+03  0.7818609E-02  0.9913053E-01
       -2   -1    0    0    0  501  0.00000000000E+00  0.00000000000E+00  0.94657152355E+02  0.94657152389E+02  0.25500000920E-02 0.  1.
        2   -1    0    0  501    0  0.00000000000E+00  0.00000000000E+00 -0.93919887177E+03  0.93919887178E+03  0.25500000920E-02 0. -1.
    10030    2    1    2    0    0  0.00000000000E+00  0.00000000000E+00 -0.84454171942E+03  0.10338560242E+04  0.59632840186E+03 0.  0.
        4    1    3    3  502    0 -0.15834060491E+03  0.20297574900E+03 -0.68307282356E+03  0.72997328515E+03  0.12699999809E+01 0. -1.
       -4    1    3    3    0  502  0.15834060491E+03 -0.20297574900E+03 -0.16146889586E+03  0.30388273902E+03  0.12699999809E+01 0.  1.
</event>
<event>
 5   0  0.7263385E-02  0.5950614E+03  0.7818609E-02  0.9915705E-01
        1   -1    0    0  501    0  0.00000000000E+00  0.00000000000E+00  0.15571662018E+03  0.15571662027E+03  0.50400001928E-02 0. -1.
       -1   -1    0    0    0  501  0.00000000000E+00  0.00000000000E+00 -0.56849762082E+03  0.56849762084E+03  0.50400001928E-02 0.  1.
    10030    2    1    2    0    0  0.00000000000E+00  0.00000000000E+00 -0.41278100063E+03  0.72421424110E+03  0.59506143593E+03 0.  0.
        1    1    3    3  502    0  0.17935906541E+03  0.10869822939E+03 -0.46323966684E+03  0.50850365620E+03  0.50400001928E-02 0.  1.
       -1    1    3    3    0  502 -0.17935906541E+03 -0.10869822939E+03  0.50458666204E+02  0.21571058490E+03  0.50400001928E-02 0. -1.
</event>
<event>
 5   0  0.7123340E-02  0.5969645E+03  0.7818609E-02  0.9911724E-01
        1   -1    0    0  501    0  0.00000000000E+00  0.00000000000E+00  0.16519841653E+03  0.16519841661E+03  0.50400001928E-02 0.  1.
       -1   -1    0    0    0  501  0.00000000000E+00  0.00000000000E+00 -0.53930096567E+03  0.53930096569E+03  0.50400001928E-02 0. -1.
    10030    2    1    2    0    0  0.00000000000E+00  0.00000000000E+00 -0.37410254914E+03  0.70449938230E+03  0.59696454031E+03 0.  0.
        2    1    3    3  502    0 -0.22484587518E+03  0.12204783818E+03 -0.36850203254E+03  0.44860348905E+03  0.25500000920E-02 0. -1.
       -2    1    3    3    0  502  0.22484587518E+03 -0.12204783818E+03 -0.56005165982E+01  0.25589589325E+03  0.25500000920E-02 0.  1.
</event>
<event>
 5   0  0.7221069E-02  0.6050187E+03  0.7818609E-02  0.9895048E-01
       -1   -1    0    0    0  501  0.00000000000E+00  0.00000000000E+00  0.10736240682E+03  0.10736240693E+03  0.50400001928E-02 0.  1.
        1   -1    0    0  501    0  0.00000000000E+00  0.00000000000E+00 -0.85236450501E+03  0.85236450503E+03  0.50400001928E-02 0. -1.
    10030    2    1    2    0    0  0.00000000000E+00  0.00000000000E+00 -0.74500209820E+03  0.95972691196E+03  0.60501869328E+03 0.  0.
        5    1    3    3  502    0  0.85320823633E+02 -0.14059218201E+03  0.30188314720E+02  0.16726992836E+03  0.46999998093E+01 0.  1.
       -5    1    3    3    0  502 -0.85320823633E+02  0.14059218201E+03 -0.77519041292E+03  0.79245698361E+03  0.46999998093E+01 0. -1.
</event>
<event>
 5   0  0.4695625E-02  0.5847145E+03  0.7818609E-02  0.9937636E-01
       -3   -1    0    0    0  501  0.00000000000E+00  0.00000000000E+00  0.98888221096E+02  0.98888272675E+02  0.10100000352E+00 0.  1.
        3   -1    0    0  501    0  0.00000000000E+00  0.00000000000E+00 -0.86433675665E+03  0.86433676255E+03  0.10100000352E+00 0. -1.
    10030    2    1    2    0    0  0.00000000000E+00  0.00000000000E+00 -0.76544853555E+03  0.96322503523E+03  0.58471446699E+03 0.  0.
        2    1    3    3  502    0  0.26113314404E+02 -0.24056669127E+03 -0.11244703611E+03  0.26683060933E+03  0.25500000920E-02 0.  1.
       -2    1    3    3    0  502 -0.26113314404E+02  0.24056669127E+03 -0.65300149945E+03  0.69639442590E+03  0.25500000920E-02 0. -1.
</event>
<event>
 5   0  0.7424930E-02  0.6184264E+03  0.7818609E-02  0.9867898E-01
       -1   -1    0    0    0  501  0.00000000000E+00  0.00000000000E+00  0.18987510277E+03  0.18987510284E+03  0.50400001928E-02 0. -1.
        1   -1    0    0  501    0  0.00000000000E+00  0.00000000000E+00 -0.50355633596E+03  0.50355633598E+03  0.50400001928E-02 0.  1.
    10030    2    1    2    0    0  0.00000000000E+00  0.00000000000E+00 -0.31368123318E+03  0.69343143882E+03  0.61842642593E+03 0.  0.
        3    1    3    3  502    0 -0.60676486850E+02 -0.85937691456E+02  0.16919249440E+03  0.19923110508E+03  0.10100000352E+00 0. -1.
       -3    1    3    3    0  502  0.60676486850E+02  0.85937691456E+02 -0.48287372759E+03  0.49420033374E+03  0.10100000352E+00 0.  1.
</event>
<event>
 5   0  0.1146468E-01  0.6082042E+03  0.7818609E-02  0.9888530E-01
        2   -1    0    0  501    0  0.00000000000E+00  0.00000000000E+00  0.21913057761E+03  0.21913057763E+03  0.25500000920E-02 0. -1.
       -2   -1    0    0    0  501  0.00000000000E+00  0.00000000000E+00 -0.42202277265E+03  0.42202277266E+03  0.25500000920E-02 0.  1.
    10030    2    1    2    0    0  0.00000000000E+00  0.00000000000E+00 -0.20289219504E+03  0.64115335028E+03  0.60820422209E+03 0.  0.
        4    1    3    3  502    0  0.11632807597E+03 -0.24266105044E+03 -0.25075186694E+03  0.36782430362E+03  0.12699999809E+01 0.  1.
       -4    1    3    3    0  502 -0.11632807597E+03  0.24266105044E+03  0.47859671896E+02  0.27332904667E+03  0.12699999809E+01 0. -1.
</event>
<event>
 5   0  0.7263385E-02  0.5869530E+03  0.7818609E-02  0.9932850E-01
        1   -1    0    0  501    0  0.00000000000E+00  0.00000000000E+00  0.74570899960E+03  0.74570899962E+03  0.50400001928E-02 0.  1.
       -1   -1    0    0    0  501  0.00000000000E+00  0.00000000000E+00 -0.11549875226E+03  0.11549875237E+03  0.50400001928E-02 0. -1.
    10030    2    1    2    0    0  0.00000000000E+00  0.00000000000E+00  0.63021024734E+03  0.86120775199E+03  0.58695301024E+03 0.  0.
        1    1    3    3  502    0  0.13256850763E+02  0.28093104818E+03  0.19207923773E+03  0.34057661622E+03  0.50400001928E-02 0. -1.
       -1    1    3    3    0  502 -0.13256850763E+02 -0.28093104818E+03  0.43813100962E+03  0.52063113577E+03  0.50400001928E-02 0.  1.
</event>
<event>
 5   0  0.1206238E-01  0.6024240E+03  0.7818609E-02  0.9900390E-01
        2   -1    0    0  501    0  0.00000000000E+00  0.00000000000E+00  0.12630470137E+04  0.12630470137E+04  0.25500000920E-02 0.  1.
       -2   -1    0    0    0  501  0.00000000000E+00  0.00000000000E+00 -0.71833162483E+02  0.71833162528E+02  0.25500000920E-02 0. -1.
    10030    2    1    2    0    0  0.00000000000E+00  0.00000000000E+00  0.11912138512E+04  0.13348801762E+04  0.60242397492E+03 0.  0.
        5    1    3    3  502    0 -0.44199075846E+02 -0.29774193297E+03  0.57314534451E+03  0.64739593210E+03  0.46999998093E+01 0. -1.
       -5    1    3    3    0  502  0.44199075846E+02  0.29774193297E+03  0.61806850670E+03  0.68748424413E+03  0.46999998093E+01 0.  1.
</event>
<event>
 5   0  0.1206238E-01  0.5987473E+03  0.7818609E-02  0.9908009E-01
       -2   -1    0    0    0  501  0.00000000000E+00  0.00000000000E+00  0.16383525821E+03  0.16383525823E+03  0.25500000920E-02 0.  1.
        2   -1    0    0  501    0  0.00000000000E+00  0.00000000000E+00 -0.54704079923E+03  0.54704079924E+03  0.25500000920E-02 0. -1.
    10030    2    1    2    0    0  0.00000000000E+00  0.00000000000E+00 -0.38320554102E+03  0.71087605747E+03  0.59874726088E+03 0.  0.
        5    1    3    3  502    0 -0.40786532065E+02 -0.27115638865E+02  0.15900194893E+03  0.16644070665E+03  0.46999998093E+01 0.  1.
       -5    1    3    3    0  502  0.40786532065E+02  0.27115638865E+02 -0.54220748995E+03  0.54443535082E+03  0.46999998093E+01 0. -1.
</event>
<event>
 5   0  0.1206238E-01  0.6013989E+03  0.7818609E-02  0.9902508E-01
       -2   -1    0    0    0  501  0.00000000000E+00  0.00000000000E+00  0.52253848138E+03  0.52253848139E+03  0.25500000920E-02 0. -1.
        2   -1    0    0  501    0  0.00000000000E+00  0.00000000000E+00 -0.17304018742E+03  0.17304018743E+03  0.25500000920E-02 0.  1.
    10030    2    1    2    0    0  0.00000000000E+00  0.00000000000E+00  0.34949829397E+03  0.69557866882E+03  0.60139889178E+03 0.  0.
        5    1    3    3  502    0  0.18813136547E+03 -0.18068016625E+03  0.34769615756E+03  0.43468775130E+03  0.46999998093E+01 0. -1.
       -5    1    3    3    0  502 -0.18813136547E+03  0.18068016625E+03  0.18021364028E+01  0.26089091752E+03  0.46999998093E+01 0.  1.
</event>
<event>
 5   0  0.1219020E-01  0.6017551E+03  0.7818609E-02  0.9901772E-01
        2   -1    0    0  501    0  0.00000000000E+00  0.00000000000E+00  0.45168851855E+03  0.45168851855E+03  0.25500000920E-02 0.  1.
       -2   -1    0    0    0  501  0.00000000000E+00  0.00000000000E+00 -0.20041973263E+03  0.20041973265E+03  0.25500000920E-02 0. -1.
    10030    2    1    2    0    0  0.00000000000E+00  0.00000000000E+00  0.25126878591E+03  0.65210825121E+03  0.60175507353E+03 0.  0.
        2    1    3    3  502    0  0.77519589526E+02 -0.20962240845E+03  0.34392596355E+03  0.41016570956E+03  0.25500000920E-02 0.  1.
       -2    1    3    3    0  502 -0.77519589526E+02  0.20962240845E+03 -0.92657177641E+02  0.24194254165E+03  0.25500000920E-02 0. -1.
</event>
<event>
 5   0  0.7266519E-02  0.5065447E+03  0.7818609E-02  0.1012085E+00
        1   -1    0    0  501    0  0.00000000000E+00  0.00000000000E+00  0.24681376866E+03  0.24681376871E+03  0.50400001928E-02 0. -1.
       -1   -1    0    0    0  501  0.00000000000E+00  0.00000000000E+00 -0.25989993701E+03  0.25989993706E+03  0.50400001928E-02 0.  1.
    10030    2    1    2    0    0  0.00000000000E+00  0.00000000000E+00 -0.13086168348E+02  0.50671370577E+03  0.50654469873E+03 0.  0.
        4    1    3    3  502    0 -0.14503849932E+03 -0.12458479626E+03 -0.17269405317E+03  0.25764779573E+03  0.12699999809E+01 0.  1.
       -4    1    3    3    0  502  0.14503849932E+03  0.12458479626E+03  0.15960788482E+03  0.24906591004E+03  0.12699999809E+01 0. -1.
</event>
<event>
 5   0  0.1166419E-01  0.5929267E+03  0.7818609E-02  0.9920191E-01
       -2   -1    0    0    0  501  0.00000000000E+00  0.00000000000E+00  0.84398851233E+02  0.84398851272E+02  0.25500000920E-02 0.  1.
        2   -1    0    0  501    0  0.00000000000E+00  0.00000000000E+00 -0.10413708865E+04  0.10413708865E+04  0.25500000920E-02 0. -1.
    10030    2    1    2    0    0  0.00000000000E+00  0.00000000000E+00 -0.95697203527E+03  0.11257697378E+04  0.59292666174E+03 0.  0.
        1    1    3    3  502    0  0.23434398186E+03 -0.95628294425E+02 -0.18539793217E+03  0.31374235577E+03  0.50400001928E-02 0.  1.
       -1    1    3    3    0  502 -0.23434398186E+03  0.95628294425E+02 -0.77157410310E+03  0.81202738201E+03  0.50400001928E-02 0. -1.
</event>
<event>
 5   0  0.1206238E-01  0.5795681E+03  0.7818609E-02  0.9948727E-01
       -2   -1    0    0    0  501  0.00000000000E+00  0.00000000000E+00  0.11309038190E+03  0.11309038193E+03  0.25500000920E-02 0. -1.
        2   -1    0    0  501    0  0.00000000000E+00  0.00000000000E+00 -0.74254584702E+03  0.74254584702E+03  0.25500000920E-02 0.  1.
    10030    2    1    2    0    0  0.00000000000E+00  0.00000000000E+00 -0.62945546512E+03  0.85563622895E+03  0.57956809240E+03 0.  0.
        5    1    3    3  502    0 -0.19385078069E+03  0.15929952141E+03 -0.52865993017E+03  0.58519900415E+03  0.46999998093E+01 0.  1.
       -5    1    3    3    0  502  0.19385078069E+03 -0.15929952141E+03 -0.10079553495E+03  0.27043722480E+03  0.46999998093E+01 0. -1.
</event>
<event>
 5   0  0.1146468E-01  0.5451641E+03  0.7818609E-02  0.1002619E+00
        2   -1    0    0  501    0  0.00000000000E+00  0.00000000000E+00  0.41750394337E+03  0.41750394338E+03  0.25500000920E-02 0. -1.
       -2   -1    0    0    0  501  0.00000000000E+00  0.00000000000E+00 -0.17796471184E+03  0.17796471186E+03  0.25500000920E-02 0.  1.
    10030    2    1    2    0    0  0.00000000000E+00  0.00000000000E+00  0.23953923153E+03  0.59546865524E+03  0.54516408166E+03 0.  0.
        4    1    3    3  502    0 -0.32074461428E+02  0.26055031315E+03  0.39622294949E+02  0.26549345739E+03  0.12699999809E+01 0.  1.
       -4    1    3    3    0  502  0.32074461428E+02 -0.26055031315E+03  0.19991693659E+03  0.32997519785E+03  0.12699999809E+01 0. -1.
</event>
<event>
 5   0  0.1175861E-01  0.6110827E+03  0.7818609E-02  0.9882676E-01
       -2   -1    0    0    0  501  0.00000000000E+00  0.00000000000E+00  0.16621976309E+03  0.16621976311E+03  0.25500000920E-02 0. -1.
        2   -1    0    0  501    0  0.00000000000E+00  0.00000000000E+00 -0.56163914104E+03  0.56163914104E+03  0.25500000920E-02 0.  1.
    10030    2    1    2    0    0  0.00000000000E+00  0.00000000000E+00 -0.39541937795E+03  0.72785890415E+03  0.61108272754E+03 0.  0.
        3    1    3    3  502    0  0.47943824330E+01 -0.30301857187E+03 -0.24402903307E+03  0.38909307393E+03  0.10100000352E+00 0. -1.
       -3    1    3    3    0  502 -0.47943824330E+01  0.30301857187E+03 -0.15139034488E+03  0.33876583022E+03  0.10100000352E+00 0.  1.
</event>
<event>
 5   0  0.1206238E-01  0.6028140E+03  0.7818609E-02  0.9899585E-01
       -2   -1    0    0    0  501  0.00000000000E+00  0.00000000000E+00  0.98147788597E+02  0.98147788630E+02  0.25500000920E-02 0. -1.
        2   -1    0    0  501    0  0.00000000000E+00  0.00000000000E+00 -0.92560596667E+03  0.92560596668E+03  0.25500000920E-02 0.  1.
    10030    2    1    2    0    0  0.00000000000E+00  0.00000000000E+00 -0.82745817807E+03  0.10237537553E+04  0.60281399705E+03 0.  0.
        5    1    3    3  502    0  0.29236494312E+03  0.33885982933E+00 -0.53791023283E+03  0.61224740373E+03  0.46999998093E+01 0.  1.
       -5    1    3    3    0  502 -0.29236494312E+03 -0.33885982933E+00 -0.28954794524E+03  0.41150635157E+03  0.46999998093E+01 0. -1.
</event>
<event>
 5   0  0.7266519E-02  0.5774303E+03  0.7818609E-02  0.9953370E-01
       -1   -1    0    0    0  501  0.00000000000E+00  0.00000000000E+00  0.93793643746E+02  0.93793643881E+02  0.50400001928E-02 0. -1.
        1   -1    0    0  501    0  0.00000000000E+00  0.00000000000E+00 -0.88872164474E+03  0.88872164476E+03  0.50400001928E-02 0.  1.
    10030    2    1    2    0    0  0.00000000000E+00  0.00000000000E+00 -0.79492800100E+03  0.98251528864E+03  0.57743031237E+03 0.  0.
        4    1    3    3  502    0 -0.19237617085E+03  0.12959191015E+03 -0.68996978416E+03  0.72791659566E+03  0.12699999809E+01 0.  1.
       -4    1    3    3    0  502  0.19237617085E+03 -0.12959191015E+03 -0.10495821684E+03  0.25459869298E+03  0.12699999809E+01 0. -1.
</event>
<event>
 5   0  0.7424930E-02  0.6050743E+03  0.7818609E-02  0.9894934E-01
       -1   -1    0    0    0  501  0.00000000000E+00  0.00000000000E+00  0.33052657577E+03  0.33052657581E+03  0.50400001928E-02 0.  1.
        1   -1    0    0  501    0  0.00000000000E+00  0.00000000000E+00 -0.27691787550E+03  0.27691787555E+03  0.50400001928E-02 0. -1.
    10030    2    1    2    0    0  0.00000000000E+00  0.00000000000E+00  0.53608700271E+02  0.60744445136E+03  0.60507426713E+03 0.  0.
        3    1    3    3  502    0 -0.12933101059E+03 -0.53006232504E+02  0.29616963368E+03  0.32749447797E+03  0.10100000352E+00 0.  1.
       -3    1    3    3    0  502  0.12933101059E+03  0.53006232504E+02 -0.24256093341E+03  0.27994997339E+03  0.10100000352E+00 0. -1.
</event>
<event>
 5   0  0.7221069E-02  0.5948567E+03  0.7818609E-02  0.9916135E-01
       -1   -1    0    0    0  501  0.00000000000E+00  0.00000000000E+00  0.65705424479E+03  0.65705424481E+03  0.50400001928E-02 0.  1.
        1   -1    0    0  501    0  0.00000000000E+00  0.00000000000E+00 -0.13463673034E+03  0.13463673043E+03  0.50400001928E-02 0. -1.
    10030    2    1    2    0    0  0.00000000000E+00  0.00000000000E+00  0.52241751445E+03  0.79169097525E+03  0.59485673980E+03 0.  0.
        5    1    3    3  502    0 -0.20232129711E+03 -0.15974870318E+03  0.63859238757E+02  0.26561936640E+03  0.46999998093E+01 0. -1.
       -5    1    3    3    0  502  0.20232129711E+03  0.15974870318E+03  0.45855827569E+03  0.52607160885E+03  0.46999998093E+01 0.  1.
</event>
<event>
 5   0  0.1166419E-01  0.6010470E+03  0.7818609E-02  0.9903236E-01
        2   -1    0    0  501    0  0.00000000000E+00  0.00000000000E+00  0.32475426651E+03  0.32475426652E+03  0.25500000920E-02 0. -1.
       -2   -1    0    0    0  501  0.00000000000E+00  0.00000000000E+00 -0.27810069729E+03  0.27810069730E+03  0.25500000920E-02 0.  1.
    10030    2    1    2    0    0  0.00000000000E+00  0.00000000000E+00  0.46653569215E+02  0.60285496382E+03  0.60104704631E+03 0.  0.
        1    1    3    3  502    0  0.16389789160E+03  0.12976346915E+03  0.23987736440E+03  0.31818583685E+03  0.50400001928E-02 0. -1.
       -1    1    3    3    0  502 -0.16389789160E+03 -0.12976346915E+03 -0.19322379518E+03  0.28466912697E+03  0.50400001928E-02 0.  1.
</event>
<event>
 5   0  0.1206238E-01  0.5972785E+03  0.7818609E-02  0.9911068E-01
       -2   -1    0    0    0  501  0.00000000000E+00  0.00000000000E+00  0.14528484303E+03  0.14528484305E+03  0.25500000920E-02 0. -1.
        2   -1    0    0  501    0  0.00000000000E+00  0.00000000000E+00 -0.61386588569E+03  0.61386588570E+03  0.25500000920E-02 0.  1.
    10030    2    1    2    0    0  0.00000000000E+00  0.00000000000E+00 -0.46858104266E+03  0.75915072875E+03  0.59727852416E+03 0.  0.
        5    1    3    3  502    0  0.23949110362E+03 -0.17113007850E+03 -0.29811814934E+03  0.41897256885E+03  0.46999998093E+01 0. -1.
       -5    1    3    3    0  502 -0.23949110362E+03  0.17113007850E+03 -0.17046289332E+03  0.34017815991E+03  0.46999998093E+01 0.  1.
</event>
<event>
 5   0  0.7221069E-02  0.6181507E+03  0.7818609E-02  0.9868449E-01
        1   -1    0    0  501    0  0.00000000000E+00  0.00000000000E+00  0.76481850680E+03  0.76481850682E+03  0.50400001928E-02 0.  1.
       -1   -1    0    0    0  501  0.00000000000E+00  0.00000000000E+00 -0.12490226935E+03  0.12490226945E+03  0.50400001928E-02 0. -1.
    10030    2    1    2    0    0  0.00000000000E+00  0.00000000000E+00  0.63991623745E+03  0.88972077627E+03  0.61815068451E+03 0.  0.
        5    1    3    3  502    0  0.26052915460E+03  0.27652963588E+02  0.84043076846E+02  0.27518258585E+03  0.46999998093E+01 0. -1.
       -5    1    3    3    0  502 -0.26052915460E+03 -0.27652963588E+02  0.55587316061E+03  0.61453819041E+03  0.46999998093E+01 0.  1.
</event>
<event>
 5   0  0.7263385E-02  0.6277435E+03  0.7818609E-02  0.9849462E-01
       -1   -1    0    0    0  501  0.00000000000E+00  0.00000000000E+00  0.16595216385E+03  0.16595216392E+03  0.50400001928E-02 0.  1.
        1   -1    0    0  501    0  0.00000000000E+00  0.00000000000E+00 -0.59363781538E+03  0.59363781541E+03  0.50400001928E-02 0. -1.
    10030    2    1    2    0    0  0.00000000000E+00  0.00000000000E+00 -0.42768565154E+03  0.75958997933E+03  0.62774351463E+03 0.  0.
        1    1    3    3  502    0 -0.33897321966E+01 -0.24671255445E+03 -0.44859193058E+03  0.51197001378E+03  0.50400001928E-02 0. -1.
       -1    1    3    3    0  502  0.33897321966E+01  0.24671255445E+03  0.20906279037E+02  0.24761996555E+03  0.50400001928E-02 0.  1.
</event>
<event>
 5   0  0.1146468E-01  0.5903688E+03  0.7818609E-02  0.9925592E-01
       -2   -1    0    0    0  501  0.00000000000E+00  0.00000000000E+00  0.23937073111E+03  0.23937073112E+03  0.25500000920E-02 0. -1.
        2   -1    0    0  501    0  0.00000000000E+00  0.00000000000E+00 -0.36401207239E+03  0.36401207240E+03  0.25500000920E-02 0.  1.
    10030    2    1    2    0    0  0.00000000000E+00  0.00000000000E+00 -0.12464134129E+03  0.60338280353E+03  0.59036882000E+03 0.  0.
        4    1    3    3  502    0 -0.21780911798E+03 -0.14807117544E+03  0.73907987217E+02  0.27355052248E+03  0.12699999809E+01 0. -1.
       -4    1    3    3    0  502  0.21780911798E+03  0.14807117544E+03 -0.19854932850E+03  0.32983228105E+03  0.12699999809E+01 0.  1.
</event>
<event>
 5   0  0.7266519E-02  0.6054243E+03  0.7818609E-02  0.9894216E-01
       -1   -1    0    0    0  501  0.00000000000E+00  0.00000000000E+00  0.21470584309E+03  0.21470584315E+03  0.50400001928E-02 0.  1.
        1   -1    0    0  501    0  0.00000000000E+00  0.00000000000E+00 -0.42679153992E+03  0.42679153995E+03  0.50400001928E-02 0. -1.
    10030    2    1    2    0    0  0.00000000000E+00  0.00000000000E+00 -0.21208569682E+03  0.64149738310E+03  0.60542427250E+03 0.  0.
        4    1    3    3  502    0  0.93540446219E+02  0.17114068196E+02  0.19846579883E+03  0.22007497044E+03  0.12699999809E+01 0.  1.
       -4    1    3    3    0  502 -0.93540446219E+02 -0.17114068196E+02 -0.41055149565E+03  0.42142241266E+03  0.12699999809E+01 0. -1.
</event>
<event>
 5   0  0.1146468E-01  0.5854454E+03  0.7818609E-02  0.9936071E-01
       -2   -1    0    0    0  501  0.00000000000E+00  0.00000000000E+00  0.11739340864E+03  0.11739340867E+03  0.25500000920E-02 0.  1.
        2   -1    0    0  501    0  0.00000000000E+00  0.00000000000E+00 -0.72990963278E+03  0.72990963279E+03  0.25500000920E-02 0. -1.
    10030    2    1    2    0    0  0.00000000000E+00  0.00000000000E+00 -0.61251622414E+03  0.84730304146E+03  0.58544540242E+03 0.  0.
        4    1    3    3  502    0  0.27248235920E+03 -0.74797874725E+02 -0.41689321175E+03  0.50362974599E+03  0.12699999809E+01 0. -1.
       -4    1    3    3    0  502 -0.27248235920E+03  0.74797874725E+02 -0.19562301239E+03  0.34367329547E+03  0.12699999809E+01 0.  1.
</event>
<event>
 5   0  0.1166419E-01  0.6041373E+03  0.7818609E-02  0.9896859E-01
       -2   -1    0    0    0  501  0.00000000000E+00  0.00000000000E+00  0.10831110473E+03  0.10831110476E+03  0.25500000920E-02 0.  1.
        2   -1    0    0  501    0  0.00000000000E+00  0.00000000000E+00 -0.84243884132E+03  0.84243884132E+03  0.25500000920E-02 0. -1.
    10030    2    1    2    0    0  0.00000000000E+00  0.00000000000E+00 -0.73412773659E+03  0.95074994608E+03  0.60413734064E+03 0.  0.
        1    1    3    3  502    0 -0.29922528613E+03  0.90486637142E+01 -0.43055825597E+03  0.52440257626E+03  0.50400001928E-02 0. -1.
       -1    1    3    3    0  502  0.29922528613E+03 -0.90486637142E+01 -0.30356948062E+03  0.42634736983E+03  0.50400001928E-02 0.  1.
</event>
<event>
 5   0  0.4695625E-02  0.5900555E+03  0.7818609E-02  0.9926255E-01
        4   -1    0    0  501    0  0.00000000000E+00  0.00000000000E+00  0.13067170754E+03  0.13067787897E+03  0.12699999809E+01 0. -1.
       -4   -1    0    0    0  501  0.00000000000E+00  0.00000000000E+00 -0.66608478857E+03  0.66608599930E+03  0.12699999809E+01 0.  1.
    10030    2    1    2    0    0  0.00000000000E+00  0.00000000000E+00 -0.53541308102E+03  0.79676387827E+03  0.59005551466E+03 0.  0.
        4    1    3    3  502    0  0.18426560292E+03  0.45907009872E+02  0.37174406020E+02  0.19350662867E+03  0.12699999809E+01 0. -1.
       -4    1    3    3    0  502 -0.18426560292E+03 -0.45907009872E+02 -0.57258748704E+03  0.60325724960E+03  0.12699999809E+01 0.  1.
</event>
<event>
 5   0  0.7263385E-02  0.6632843E+03  0.7818609E-02  0.9782167E-01
        1   -1    0    0  501    0  0.00000000000E+00  0.00000000000E+00  0.50224411168E+03  0.50224411170E+03  0.50400001928E-02 0. -1.
       -1   -1    0    0    0  501  0.00000000000E+00  0.00000000000E+00 -0.21899015378E+03  0.21899015384E+03  0.50400001928E-02 0.  1.
    10030    2    1    2    0    0  0.00000000000E+00  0.00000000000E+00  0.28325395790E+03  0.72123426554E+03  0.66328429887E+03 0.  0.
        1    1    3    3  502    0 -0.21821573450E+03 -0.41335678047E+02  0.40943711810E+03  0.46579555468E+03  0.50400001928E-02 0. -1.
       -1    1    3    3    0  502  0.21821573450E+03  0.41335678047E+02 -0.12618316020E+03  0.25543871086E+03  0.50400001928E-02 0.  1.
</event>
<event>
 5   0  0.7221069E-02  0.6172294E+03  0.7818609E-02  0.9870292E-01
        1   -1    0    0  501    0  0.00000000000E+00  0.00000000000E+00  0.18798497734E+03  0.18798497741E+03  0.50400001928E-02 0.  1.
       -1   -1    0    0    0  501  0.00000000000E+00  0.00000000000E+00 -0.50665231737E+03  0.50665231740E+03  0.50400001928E-02 0. -1.
    10030    2    1    2    0    0  0.00000000000E+00  0.00000000000E+00 -0.31866734003E+03  0.69463729481E+03  0.61722937206E+03 0.  0.
        5    1    3    3  502    0 -0.26429815125E+03 -0.15152930757E+03 -0.10412776269E+03  0.32199274024E+03  0.46999998093E+01 0. -1.
       -5    1    3    3    0  502  0.26429815125E+03  0.15152930757E+03 -0.21453957734E+03  0.37264455457E+03  0.46999998093E+01 0.  1.
</event>
<event>
 5   0  0.1146468E-01  0.5863023E+03  0.7818609E-02  0.9934239E-01
        2   -1    0    0  501    0  0.00000000000E+00  0.00000000000E+00  0.11298558977E+04  0.11298558977E+04  0.25500000920E-02 0. -1.
       -2   -1    0    0    0  501  0.00000000000E+00  0.00000000000E+00 -0.76060662724E+02  0.76060662767E+02  0.25500000920E-02 0.  1.
    10030    2    1    2    0    0  0.00000000000E+00  0.00000000000E+00  0.10537952350E+04  0.12059165605E+04  0.58630227150E+03 0.  0.
        4    1    3    3  502    0 -0.32587231419E+02 -0.10057808287E+03 -0.35475822638E+02  0.11152589519E+03  0.12699999809E+01 0.  1.
       -4    1    3    3    0  502  0.32587231419E+02  0.10057808287E+03  0.10892710576E+04  0.10943906653E+04  0.12699999809E+01 0. -1.
</event>
<event>
 5   0  0.4695625E-02  0.6229669E+03  0.7818609E-02  0.9858870E-01
       -3   -1    0    0    0  501  0.00000000000E+00  0.00000000000E+00  0.16590094193E+03  0.16590097267E+03  0.10100000352E+00 0. -1.
        3   -1    0    0  501    0  0.00000000000E+00  0.00000000000E+00 -0.58481833605E+03  0.58481834477E+03  0.10100000352E+00 0.  1.
    10030    2    1    2    0    0  0.00000000000E+00  0.00000000000E+00 -0.41891739412E+03  0.75071931745E+03  0.62296686147E+03 0.  0.
        3    1    3    3  502    0  0.26597556844E+03 -0.10319559764E+03 -0.58802728346E+02  0.29129041426E+03  0.10100000352E+00 0. -1.
       -3    1    3    3    0  502 -0.26597556844E+03  0.10319559764E+03 -0.36011466577E+03  0.45942890319E+03  0.10100000352E+00 0.  1.
</event>
<event>
 5   0  0.7266519E-02  0.5970825E+03  0.7818609E-02  0.9911477E-01
       -1   -1    0    0    0  501  0.00000000000E+00  0.00000000000E+00  0.94902984162E+02  0.94902984295E+02  0.50400001928E-02 0.  1.
        1   -1    0    0  501    0  0.00000000000E+00  0.00000000000E+00 -0.93913674246E+03  0.93913674247E+03  0.50400001928E-02 0. -1.
    10030    2    1    2    0    0  0.00000000000E+00  0.00000000000E+00 -0.84423375830E+03  0.10340397268E+04  0.59708250509E+03 0.  0.
        4    1    3    3  502    0  0.74450959712E+02 -0.55115186817E+02  0.69380485132E+02  0.11574063175E+03  0.12699999809E+01 0.  1.
       -4    1    3    3    0  502 -0.74450959712E+02  0.55115186817E+02 -0.91361424343E+03  0.91829909502E+03  0.12699999809E+01 0. -1.
</event>
<event>
 5   0  0.1146468E-01  0.5883636E+03  0.7818609E-02  0.9929846E-01
       -2   -1    0    0    0  501  0.00000000000E+00  0.00000000000E+00  0.77610458931E+02  0.77610458973E+02  0.25500000920E-02 0. -1.
        2   -1    0    0  501    0  0.00000000000E+00  0.00000000000E+00 -0.11150934901E+04  0.11150934901E+04  0.25500000920E-02 0.  1.
    10030    2    1    2    0    0  0.00000000000E+00  0.00000000000E+00 -0.10374830312E+04  0.11927039491E+04  0.58836355273E+03 0.  0.
        4    1    3    3  502    0  0.15070067990E+03  0.16206659114E+03 -0.12584446911E+03  0.25458734885E+03  0.12699999809E+01 0. -1.
       -4    1    3    3    0  502 -0.15070067990E+03 -0.16206659114E+03 -0.91163856207E+03  0.93811660024E+03  0.12699999809E+01 0.  1.
</event>
<event>
 5   0  0.4695625E-02  0.6074407E+03  0.7818609E-02  0.9890088E-01
       -4   -1    0    0    0  501  0.00000000000E+00  0.00000000000E+00  0.12053576225E+03  0.12054245261E+03  0.12699999809E+01 0. -1.
        4   -1    0    0  501    0  0.00000000000E+00  0.00000000000E+00 -0.76527173303E+03  0.76527278683E+03  0.12699999809E+01 0.  1.
    10030    2    1    2    0    0  0.00000000000E+00  0.00000000000E+00 -0.64473597078E+03  0.88581523944E+03  0.60744066905E+03 0.  0.
        5    1    3    3  502    0 -0.13984135698E+03  0.22510115861E+03 -0.10608166421E+03  0.28548475653E+03  0.46999998093E+01 0. -1.
       -5    1    3    3    0  502  0.13984135698E+03 -0.22510115861E+03 -0.53865430657E+03  0.60033048291E+03  0.46999998093E+01 0.  1.
</event>
<event>
 5   0  0.1166419E-01  0.6049987E+03  0.7818609E-02  0.9895089E-01
        2   -1    0    0  501    0  0.00000000000E+00  0.00000000000E+00  0.49706769504E+03  0.49706769504E+03  0.25500000920E-02 0.  1.
       -2   -1    0    0    0  501  0.00000000000E+00  0.00000000000E+00 -0.18409133995E+03  0.18409133997E+03  0.25500000920E-02 0. -1.
    10030    2    1    2    0    0  0.00000000000E+00  0.00000000000E+00  0.31297635508E+03  0.68115903501E+03  0.60499870424E+03 0.  0.
        1    1    3    3  502    0  0.12207139070E+03  0.22114468894E+03  0.34387097978E+03  0.42667745270E+03  0.50400001928E-02 0. -1.
       -1    1    3    3    0  502 -0.12207139070E+03 -0.22114468894E+03 -0.30894624700E+02  0.25448158231E+03  0.50400001928E-02 0.  1.
</event>
<event>
 5   0  0.7263385E-02  0.6135200E+03  0.7818609E-02  0.9877747E-01
        1   -1    0    0  501    0  0.00000000000E+00  0.00000000000E+00  0.35579569850E+03  0.35579569854E+03  0.50400001928E-02 0. -1.
       -1   -1    0    0    0  501  0.00000000000E+00  0.00000000000E+00 -0.26448235513E+03  0.26448235518E+03  0.50400001928E-02 0.  1.
    10030    2    1    2    0    0  0.00000000000E+00  0.00000000000E+00  0.91313343367E+02  0.62027805372E+03  0.61351995668E+03 0.  0.
        1    1    3    3  502    0  0.23477384870E+03  0.16370607907E+02 -0.15327180010E+03  0.28085405742E+03  0.50400001928E-02 0.  1.
       -1    1    3    3    0  502 -0.23477384870E+03 -0.16370607907E+02  0.24458514347E+03  0.33942399630E+03  0.50400001928E-02 0. -1.
</event>
<event>
 5   0  0.7263385E-02  0.5780493E+03  0.7818609E-02  0.9952023E-01
        1   -1    0    0  501    0  0.00000000000E+00  0.00000000000E+00  0.53268308128E+03  0.53268308130E+03  0.50400001928E-02 0.  1.
       -1   -1    0    0    0  501  0.00000000000E+00  0.00000000000E+00 -0.15681976435E+03  0.15681976443E+03  0.50400001928E-02 0. -1.
    10030    2    1    2    0    0  0.00000000000E+00  0.00000000000E+00  0.37586331693E+03  0.68950284573E+03  0.57804925505E+03 0.  0.
        1    1    3    3  502    0  0.65220160401E+02  0.40707907100E+02 -0.14439902103E+03  0.16359058751E+03  0.50400001928E-02 0. -1.
       -1    1    3    3    0  502 -0.65220160401E+02 -0.40707907100E+02  0.52026233796E+03  0.52591225822E+03  0.50400001928E-02 0.  1.
</event>
<event>
 5   0  0.7424930E-02  0.6020824E+03  0.7818609E-02  0.9901095E-01
       -1   -1    0    0    0  501  0.00000000000E+00  0.00000000000E+00  0.26932033001E+03  0.26932033005E+03  0.50400001928E-02 0.  1.
        1   -1    0    0  501    0  0.00000000000E+00  0.00000000000E+00 -0.33649821683E+03  0.33649821687E+03  0.50400001928E-02 0. -1.
    10030    2    1    2    0    0  0.00000000000E+00  0.00000000000E+00 -0.67177886822E+02  0.60581854692E+03  0.60208242236E+03 0.  0.
        3    1    3    3  502    0  0.49972932331E+02 -0.80132936784E+02 -0.32120745301E+03  0.33480265768E+03  0.10100000352E+00 0. -1.
       -3    1    3    3    0  502 -0.49972932331E+02  0.80132936784E+02  0.25402956618E+03  0.27101588924E+03  0.10100000352E+00 0.  1.
</event>
<event>
 5   0  0.1175861E-01  0.4758737E+03  0.7818609E-02  0.1020275E+00
       -2   -1    0    0    0  501  0.00000000000E+00  0.00000000000E+00  0.54411697345E+02  0.54411697405E+02  0.25500000920E-02 0.  1.
        2   -1    0    0  501    0  0.00000000000E+00  0.00000000000E+00 -0.10404739067E+04  0.10404739067E+04  0.25500000920E-02 0. -1.
    10030    2    1    2    0    0  0.00000000000E+00  0.00000000000E+00 -0.98606220938E+03  0.10948856041E+04  0.47587372839E+03 0.  0.
        3    1    3    3  502    0 -0.82025384740E+02 -0.11692881886E+03 -0.93086747956E+03  0.94176153411E+03  0.10100000352E+00 0. -1.
       -3    1    3    3    0  502  0.82025384740E+02  0.11692881886E+03 -0.55194729822E+02  0.15312407003E+03  0.10100000352E+00 0.  1.
</event>
<event>
 5   0  0.1219020E-01  0.6095565E+03  0.7818609E-02  0.9885775E-01
       -2   -1    0    0    0  501  0.00000000000E+00  0.00000000000E+00  0.77312093703E+02  0.77312093745E+02  0.25500000920E-02 0. -1.
        2   -1    0    0  501    0  0.00000000000E+00  0.00000000000E+00 -0.12014909311E+04  0.12014909311E+04  0.25500000920E-02 0.  1.
    10030    2    1    2    0    0  0.00000000000E+00  0.00000000000E+00 -0.11241788374E+04  0.12788030248E+04  0.60955649279E+03 0.  0.
        2    1    3    3  502    0 -0.16319316192E+03  0.25729514387E+03 -0.54625317756E+03  0.62548008214E+03  0.25500000920E-02 0. -1.
       -2    1    3    3    0  502  0.16319316192E+03 -0.25729514387E+03 -0.57792565981E+03  0.65332294268E+03  0.25500000920E-02 0.  1.
</event>
<event>
 5   0  0.7123340E-02  0.5960382E+03  0.7818609E-02  0.9913660E-01
        1   -1    0    0  501    0  0.00000000000E+00  0.00000000000E+00  0.27553900689E+03  0.27553900694E+03  0.50400001928E-02 0. -1.
       -1   -1    0    0    0  501  0.00000000000E+00  0.00000000000E+00 -0.32233330115E+03  0.32233330119E+03  0.50400001928E-02 0.  1.
    10030    2    1    2    0    0  0.00000000000E+00  0.00000000000E+00 -0.46794294259E+02  0.59787230813E+03  0.59603824613E+03 0.  0.
        2    1    3    3  502    0 -0.32741509984E+02 -0.21307081941E+03  0.18301315258E+03  0.28278082429E+03  0.25500000920E-02 0. -1.
       -2    1    3    3    0  502  0.32741509984E+02  0.21307081941E+03 -0.22980744684E+03  0.31509148384E+03  0.25500000920E-02 0.  1.
</event>
<event>
 5   0  0.1166419E-01  0.5815541E+03  0.7818609E-02  0.9944432E-01
       -2   -1    0    0    0  501  0.00000000000E+00  0.00000000000E+00  0.22348785899E+03  0.22348785900E+03  0.25500000920E-02 0.  1.
        2   -1    0    0  501    0  0.00000000000E+00  0.00000000000E+00 -0.37832606578E+03  0.37832606579E+03  0.25500000920E-02 0. -1.
    10030    2    1    2    0    0  0.00000000000E+00  0.00000000000E+00 -0.15483820679E+03  0.60181392479E+03  0.58155406437E+03 0.  0.
        1    1    3    3  502    0  0.17844856495E+03 -0.18745100030E+03  0.59748647690E+02  0.26561564105E+03  0.50400001928E-02 0.  1.
       -1    1    3    3    0  502 -0.17844856495E+03  0.18745100030E+03 -0.21458685448E+03  0.33619828373E+03  0.50400001928E-02 0. -1.
</event>
<event>
 5   0  0.1206238E-01  0.6007691E+03  0.7818609E-02  0.9903812E-01
       -2   -1    0    0    0  501  0.00000000000E+00  0.00000000000E+00  0.22707452344E+03  0.22707452346E+03  0.25500000920E-02 0.  1.
        2   -1    0    0  501    0  0.00000000000E+00  0.00000000000E+00 -0.39736241914E+03  0.39736241914E+03  0.25500000920E-02 0. -1.
    10030    2    1    2    0    0  0.00000000000E+00  0.00000000000E+00 -0.17028789569E+03  0.62443694260E+03  0.60076911361E+03 0.  0.
        5    1    3    3  502    0  0.20358743032E+03 -0.33668794254E+02 -0.31197852573E+03  0.37407769247E+03  0.46999998093E+01 0. -1.
       -5    1    3    3    0  502 -0.20358743032E+03  0.33668794254E+02  0.14169063003E+03  0.25035925013E+03  0.46999998093E+01 0.  1.
</event>
<event>
 5   0  0.7266519E-02  0.5940123E+03  0.7818609E-02  0.9917907E-01
        1   -1    0    0  501    0  0.00000000000E+00  0.00000000000E+00  0.18122948419E+03  0.18122948426E+03  0.50400001928E-02 0.  1.
       -1   -1    0    0    0  501  0.00000000000E+00  0.00000000000E+00 -0.48674554272E+03  0.48674554275E+03  0.50400001928E-02 0. -1.
    10030    2    1    2    0    0  0.00000000000E+00  0.00000000000E+00 -0.30551605853E+03  0.66797502701E+03  0.59401226813E+03 0.  0.
        4    1    3    3  502    0  0.27107168885E+03 -0.98129538457E+02 -0.23307826832E+03  0.37072410075E+03  0.12699999809E+01 0. -1.
       -4    1    3    3    0  502 -0.27107168885E+03  0.98129538457E+02 -0.72437790218E+02  0.29725092626E+03  0.12699999809E+01 0.  1.
</event>
<event>
 5   0  0.1166419E-01  0.6202543E+03  0.7818609E-02  0.9864254E-01
       -2   -1    0    0    0  501  0.00000000000E+00  0.00000000000E+00  0.13149215357E+03  0.13149215359E+03  0.25500000920E-02 0.  1.
        2   -1    0    0  501    0  0.00000000000E+00  0.00000000000E+00 -0.73144162695E+03  0.73144162696E+03  0.25500000920E-02 0. -1.
    10030    2    1    2    0    0  0.00000000000E+00  0.00000000000E+00 -0.59994947338E+03  0.86293378055E+03  0.62025425351E+03 0.  0.
        1    1    3    3  502    0  0.95024242815E+02  0.29345153989E+02  0.10870503951E+03  0.14733475634E+03  0.50400001928E-02 0.  1.
       -1    1    3    3    0  502 -0.95024242815E+02 -0.29345153989E+02 -0.70865451289E+03  0.71559902421E+03  0.50400001928E-02 0. -1.
</event>
<event>
 5   0  0.7263385E-02  0.6376033E+03  0.7818609E-02  0.9830323E-01
        1   -1    0    0  501    0  0.00000000000E+00  0.00000000000E+00  0.71918090313E+03  0.71918090315E+03  0.50400001928E-02 0. -1.
       -1   -1    0    0    0  501  0.00000000000E+00  0.00000000000E+00 -0.14131976608E+03  0.14131976617E+03  0.50400001928E-02 0.  1.
    10030    2    1    2    0    0  0.00000000000E+00  0.00000000000E+00  0.57786113705E+03  0.86050066932E+03  0.63760325296E+03 0.  0.
        1    1    3    3  502    0 -0.10563772365E+03  0.30029657986E+03  0.26566781386E+03  0.41462845040E+03  0.50400001928E-02 0.  1.
       -1    1    3    3    0  502  0.10563772365E+03 -0.30029657986E+03  0.31219332319E+03  0.44587221892E+03  0.50400001928E-02 0. -1.
</event>
<event>
 5   0  0.1166419E-01  0.5184504E+03  0.7818609E-02  0.1009072E+00
        2   -1    0    0  501    0  0.00000000000E+00  0.00000000000E+00  0.47657962040E+03  0.47657962040E+03  0.25500000920E-02 0.  1.
       -2   -1    0    0    0  501  0.00000000000E+00  0.00000000000E+00 -0.14099993645E+03  0.14099993647E+03  0.25500000920E-02 0. -1.
    10030    2    1    2    0    0  0.00000000000E+00  0.00000000000E+00  0.33557968395E+03  0.61757955687E+03  0.51845036868E+03 0.  0.
        1    1    3    3  502    0  0.18353106440E+02  0.15003157172E+03  0.41865441086E+03  0.44510428530E+03  0.50400001928E-02 0.  1.
       -1    1    3    3    0  502 -0.18353106440E+02 -0.15003157172E+03 -0.83074726912E+02  0.17247527158E+03  0.50400001928E-02 0. -1.
</event>
<event>
 5   0  0.7123340E-02  0.5943305E+03  0.7818609E-02  0.9917239E-01
        1   -1    0    0  501    0  0.00000000000E+00  0.00000000000E+00  0.39060544329E+03  0.39060544332E+03  0.50400001928E-02 0. -1.
       -1   -1    0    0    0  501  0.00000000000E+00  0.00000000000E+00 -0.22607768541E+03  0.22607768547E+03  0.50400001928E-02 0.  1.
    10030    2    1    2    0    0  0.00000000000E+00  0.00000000000E+00  0.16452775788E+03  0.61668312879E+03  0.59433046214E+03 0.  0.
        2    1    3    3  502    0  0.13509810917E+03  0.18914479064E+03  0.27437566054E+03  0.35959595942E+03  0.25500000920E-02 0. -1.
       -2    1    3    3    0  502 -0.13509810917E+03 -0.18914479064E+03 -0.10984790267E+03  0.25708716937E+03  0.25500000920E-02 0.  1.
</event>
<event>
 5   0  0.1219020E-01  0.5855680E+03  0.7818609E-02  0.9935809E-01
        2   -1    0    0  501    0  0.00000000000E+00  0.00000000000E+00  0.27958660984E+03  0.27958660985E+03  0.25500000920E-02 0. -1.
       -2   -1    0    0    0  501  0.00000000000E+00  0.00000000000E+00 -0.30660432021E+03  0.30660432022E+03  0.25500000920E-02 0.  1.
    10030    2    1    2    0    0  0.00000000000E+00  0.00000000000E+00 -0.27017710365E+02  0.58619093007E+03  0.58556797199E+03 0.  0.
        2    1    3    3  502    0 -0.23518371723E+03 -0.26415858012E+02  0.15904994289E+03  0.28514217987E+03  0.25500000920E-02 0. -1.
       -2    1    3    3    0  502  0.23518371723E+03  0.26415858012E+02 -0.18606765325E+03  0.30104875020E+03  0.25500000920E-02 0.  1.
</event>
<event>
 5   0  0.1219020E-01  0.6096667E+03  0.7818609E-02  0.9885551E-01
       -2   -1    0    0    0  501  0.00000000000E+00  0.00000000000E+00  0.11868291125E+03  0.11868291128E+03  0.25500000920E-02 0. -1.
        2   -1    0    0  501    0  0.00000000000E+00  0.00000000000E+00 -0.78295497675E+03  0.78295497675E+03  0.25500000920E-02 0.  1.
    10030    2    1    2    0    0  0.00000000000E+00  0.00000000000E+00 -0.66427206550E+03  0.90163788803E+03  0.60966671562E+03 0.  0.
        2    1    3    3  502    0  0.89430288849E+02  0.10177179304E+03  0.71710362581E+02  0.15328943385E+03  0.25500000920E-02 0. -1.
       -2    1    3    3    0  502 -0.89430288849E+02 -0.10177179304E+03 -0.73598242808E+03  0.74834845418E+03  0.25500000920E-02 0.  1.
</event>
<event>
 5   0  0.7266519E-02  0.5911030E+03  0.7818609E-02  0.9924038E-01
        1   -1    0    0  501    0  0.00000000000E+00  0.00000000000E+00  0.59400297155E+03  0.59400297157E+03  0.50400001928E-02 0.  1.
       -1   -1    0    0    0  501  0.00000000000E+00  0.00000000000E+00 -0.14705428483E+03  0.14705428491E+03  0.50400001928E-02 0. -1.
    10030    2    1    2    0    0  0.00000000000E+00  0.00000000000E+00  0.44694868672E+03  0.74105725648E+03  0.59110297650E+03 0.  0.
        4    1    3    3  502    0 -0.24601810354E+03 -0.42326619772E+02  0.25119976876E+02  0.25089654472E+03  0.12699999809E+01 0. -1.
       -4    1    3    3    0  502  0.24601810354E+03  0.42326619772E+02  0.42182870984E+03  0.49016071177E+03  0.12699999809E+01 0.  1.
</event>
<event>
 5   0  0.7221069E-02  0.6002634E+03  0.7818609E-02  0.9904860E-01
       -1   -1    0    0    0  501  0.00000000000E+00  0.00000000000E+00  0.17778125368E+03  0.17778125375E+03  0.50400001928E-02 0. -1.
        1   -1    0    0  501    0  0.00000000000E+00  0.00000000000E+00 -0.50668465320E+03  0.50668465322E+03  0.50400001928E-02 0.  1.
    10030    2    1    2    0    0  0.00000000000E+00  0.00000000000E+00 -0.32890339952E+03  0.68446590697E+03  0.60026338518E+03 0.  0.
        5    1    3    3  502    0  0.53002280823E+02  0.89348500208E+01  0.17220571472E+03  0.18046044303E+03  0.46999998093E+01 0. -1.
       -5    1    3    3    0  502 -0.53002280823E+02 -0.89348500208E+01 -0.50110911424E+03  0.50400546395E+03  0.46999998093E+01 0.  1.
</event>
<event>
 5   0  0.4695625E-02  0.5990508E+03  0.7818609E-02  0.9907377E-01
        4   -1    0    0  501    0  0.00000000000E+00  0.00000000000E+00  0.33290969723E+03  0.33291211965E+03  0.12699999809E+01 0.  1.
       -4   -1    0    0    0  501  0.00000000000E+00  0.00000000000E+00 -0.26948401324E+03  0.26948700580E+03  0.12699999809E+01 0. -1.
    10030    2    1    2    0    0  0.00000000000E+00  0.00000000000E+00  0.63425683986E+02  0.60239912545E+03  0.59905082335E+03 0.  0.
        3    1    3    3  502    0 -0.15390124221E+03  0.12421283872E+03  0.25791689722E+03  0.32501624226E+03  0.10100000352E+00 0.  1.
       -3    1    3    3    0  502  0.15390124221E+03 -0.12421283872E+03 -0.19449121324E+03  0.27738288319E+03  0.10100000352E+00 0. -1.
</event>
<event>
 5   0  0.1175861E-01  0.4675995E+03  0.7818609E-02  0.1022600E+00
       -2   -1    0    0    0  501  0.00000000000E+00  0.00000000000E+00  0.46410228050E+02  0.46410228120E+02  0.25500000920E-02 0.  1.
        2   -1    0    0  501    0  0.00000000000E+00  0.00000000000E+00 -0.11778077397E+04  0.11778077397E+04  0.25500000920E-02 0. -1.
    10030    2    1    2    0    0  0.00000000000E+00  0.00000000000E+00 -0.11313975116E+04  0.12242179678E+04  0.46759951172E+03 0.  0.
        3    1    3    3  502    0 -0.15495561867E+03  0.72448185768E+02 -0.98297292053E+03  0.99774533628E+03  0.10100000352E+00 0. -1.
       -3    1    3    3    0  502  0.15495561867E+03 -0.72448185768E+02 -0.14842459108E+03  0.22647263150E+03  0.10100000352E+00 0.  1.
</event>
<event>
 5   0  0.4695625E-02  0.7447851E+03  0.7818609E-02  0.9643567E-01
        4   -1    0    0  501    0  0.00000000000E+00  0.00000000000E+00  0.17378514738E+03  0.17378978782E+03  0.12699999809E+01 0.  1.
       -4   -1    0    0    0  501  0.00000000000E+00  0.00000000000E+00 -0.79795927729E+03  0.79796028793E+03  0.12699999809E+01 0. -1.
    10030    2    1    2    0    0  0.00000000000E+00  0.00000000000E+00 -0.62417412991E+03  0.97175007575E+03  0.74478511349E+03 0.  0.
        5    1    3    3  502    0 -0.22202129877E+03  0.76242781016E+02 -0.68921687692E+03  0.72811291171E+03  0.46999998093E+01 0. -1.
       -5    1    3    3    0  502  0.22202129877E+03 -0.76242781016E+02  0.65042747014E+02  0.24363716404E+03  0.46999998093E+01 0.  1.
</event>
<event>
 5   0  0.7263385E-02  0.6001968E+03  0.7818609E-02  0.9904998E-01
        1   -1    0    0  501    0  0.00000000000E+00  0.00000000000E+00  0.92991488447E+03  0.92991488449E+03  0.50400001928E-02 0. -1.
       -1   -1    0    0    0  501  0.00000000000E+00  0.00000000000E+00 -0.96846550178E+02  0.96846550309E+02  0.50400001928E-02 0.  1.
    10030    2    1    2    0    0  0.00000000000E+00  0.00000000000E+00  0.83306833429E+03  0.10267614348E+04  0.60019679637E+03 0.  0.
        1    1    3    3  502    0 -0.81572373221E+01 -0.10204159065E+03 -0.66055370294E+02  0.12182913737E+03  0.50400001928E-02 0.  1.
       -1    1    3    3    0  502  0.81572373221E+01  0.10204159065E+03  0.89912370459E+03  0.90493229742E+03  0.50400001928E-02 0. -1.
</event>
<event>
 5   0  0.1166419E-01  0.5863284E+03  0.7818609E-02  0.9934183E-01
        2   -1    0    0  501    0  0.00000000000E+00  0.00000000000E+00  0.33035784005E+03  0.33035784006E+03  0.25500000920E-02 0.  1.
       -2   -1    0    0    0  501  0.00000000000E+00  0.00000000000E+00 -0.26015803676E+03  0.26015803677E+03  0.25500000920E-02 0. -1.
    10030    2    1    2    0    0  0.00000000000E+00  0.00000000000E+00  0.70199803293E+02  0.59051587683E+03  0.58632839638E+03 0.  0.
        1    1    3    3  502    0  0.18044240085E+03  0.72794550702E+02 -0.18575310726E+03  0.26900320355E+03  0.50400001928E-02 0. -1.
       -1    1    3    3    0  502 -0.18044240085E+03 -0.72794550702E+02  0.25595291055E+03  0.32151267328E+03  0.50400001928E-02 0.  1.
</event>
<event>
 5   0  0.7221069E-02  0.6036013E+03  0.7818609E-02  0.9897962E-01
        1   -1    0    0  501    0  0.00000000000E+00  0.00000000000E+00  0.52969350336E+03  0.52969350338E+03  0.50400001928E-02 0. -1.
       -1   -1    0    0    0  501  0.00000000000E+00  0.00000000000E+00 -0.17195537360E+03  0.17195537368E+03  0.50400001928E-02 0.  1.
    10030    2    1    2    0    0  0.00000000000E+00  0.00000000000E+00  0.35773812976E+03  0.70164887706E+03  0.60360133963E+03 0.  0.
        5    1    3    3  502    0 -0.12955471336E+03 -0.16662967956E+03 -0.71828811306E+02  0.22300525105E+03  0.46999998093E+01 0.  1.
       -5    1    3    3    0  502  0.12955471336E+03  0.16662967956E+03  0.42956694106E+03  0.47864362601E+03  0.46999998093E+01 0. -1.
</event>
<event>
 5   0  0.7221069E-02  0.5790616E+03  0.7818609E-02  0.9949825E-01
        1   -1    0    0  501    0  0.00000000000E+00  0.00000000000E+00  0.10622260514E+04  0.10622260515E+04  0.50400001928E-02 0. -1.
       -1   -1    0    0    0  501  0.00000000000E+00  0.00000000000E+00 -0.78917370090E+02  0.78917370251E+02  0.50400001928E-02 0.  1.
    10030    2    1    2    0    0  0.00000000000E+00  0.00000000000E+00  0.98330868136E+03  0.11411434217E+04  0.57906160819E+03 0.  0.
        5    1    3    3  502    0 -0.15162084510E+03 -0.63653275801E+02  0.22130964252E+02  0.16598942667E+03  0.46999998093E+01 0.  1.
       -5    1    3    3    0  502  0.15162084510E+03  0.63653275801E+02  0.96117771711E+03  0.97515399504E+03  0.46999998093E+01 0. -1.
</event>
<event>
 5   0  0.1219020E-01  0.6023870E+03  0.7818609E-02  0.9900466E-01
        2   -1    0    0  501    0  0.00000000000E+00  0.00000000000E+00  0.68463882130E+03  0.68463882131E+03  0.25500000920E-02 0. -1.
       -2   -1    0    0    0  501  0.00000000000E+00  0.00000000000E+00 -0.13250420341E+03  0.13250420343E+03  0.25500000920E-02 0.  1.
    10030    2    1    2    0    0  0.00000000000E+00  0.00000000000E+00  0.55213461789E+03  0.81714302474E+03  0.60238699074E+03 0.  0.
        2    1    3    3  502    0  0.10714783943E+03 -0.11193524215E+02  0.65760942813E+03  0.66637535553E+03  0.25500000920E-02 0. -1.
       -2    1    3    3    0  502 -0.10714783943E+03  0.11193524215E+02 -0.10547481024E+03  0.15076766921E+03  0.25500000920E-02 0.  1.
</event>
<event>
 5   0  0.1219020E-01  0.6218140E+03  0.7818609E-02  0.9861155E-01
       -2   -1    0    0    0  501  0.00000000000E+00  0.00000000000E+00  0.11300466867E+03  0.11300466870E+03  0.25500000920E-02 0.  1.
        2   -1    0    0  501    0  0.00000000000E+00  0.00000000000E+00 -0.85539083398E+03  0.85539083399E+03  0.25500000920E-02 0. -1.
    10030    2    1    2    0    0  0.00000000000E+00  0.00000000000E+00 -0.74238616531E+03  0.96839550269E+03  0.62181398438E+03 0.  0.
        2    1    3    3  502    0  0.24540856932E+03  0.12325175270E+03 -0.59819996107E+03  0.65822454669E+03  0.25500000920E-02 0. -1.
       -2    1    3    3    0  502 -0.24540856932E+03 -0.12325175270E+03 -0.14418620424E+03  0.31017095599E+03  0.25500000920E-02 0.  1.
</event>
<event>
 5   0  0.7424930E-02  0.6402839E+03  0.7818609E-02  0.9825183E-01
        1   -1    0    0  501    0  0.00000000000E+00  0.00000000000E+00  0.40323788162E+03  0.40323788165E+03  0.50400001928E-02 0. -1.
       -1   -1    0    0    0  501  0.00000000000E+00  0.00000000000E+00 -0.25416977976E+03  0.25416977981E+03  0.50400001928E-02 0.  1.
    10030    2    1    2    0    0  0.00000000000E+00  0.00000000000E+00  0.14906810186E+03  0.65740766146E+03  0.64028394822E+03 0.  0.
        3    1    3    3  502    0  0.31417694886E+03 -0.36145267323E+02  0.23431097582E+02  0.31711616496E+03  0.10100000352E+00 0.  1.
       -3    1    3    3    0  502 -0.31417694886E+03  0.36145267323E+02  0.12563700428E+03  0.34029149650E+03  0.10100000352E+00 0. -1.
</event>
<event>
 5   0  0.1206238E-01  0.5966159E+03  0.7818609E-02  0.9912452E-01
        2   -1    0    0  501    0  0.00000000000E+00  0.00000000000E+00  0.10148190566E+03  0.10148190570E+03  0.25500000920E-02 0.  1.
       -2   -1    0    0    0  501  0.00000000000E+00  0.00000000000E+00 -0.87688177197E+03  0.87688177197E+03  0.25500000920E-02 0. -1.
    10030    2    1    2    0    0  0.00000000000E+00  0.00000000000E+00 -0.77539986630E+03  0.97836367767E+03  0.59661590082E+03 0.  0.
        5    1    3    3  502    0  0.20040922988E+03  0.11553841594E+03 -0.78934064430E+02  0.24447016485E+03  0.46999998093E+01 0.  1.
       -5    1    3    3    0  502 -0.20040922988E+03 -0.11553841594E+03 -0.69646580187E+03  0.73389351282E+03  0.46999998093E+01 0. -1.
</event>
<event>
 5   0  0.7266519E-02  0.6033992E+03  0.7818609E-02  0.9898379E-01
        1   -1    0    0  501    0  0.00000000000E+00  0.00000000000E+00  0.42624534178E+03  0.42624534181E+03  0.50400001928E-02 0.  1.
       -1   -1    0    0    0  501  0.00000000000E+00  0.00000000000E+00 -0.21354519633E+03  0.21354519639E+03  0.50400001928E-02 0. -1.
    10030    2    1    2    0    0  0.00000000000E+00  0.00000000000E+00  0.21270014545E+03  0.63979053821E+03  0.60339918868E+03 0.  0.
        4    1    3    3  502    0  0.19348333315E+03 -0.60395963616E+01 -0.13901219776E+03  0.23832389925E+03  0.12699999809E+01 0. -1.
       -4    1    3    3    0  502 -0.19348333315E+03  0.60395963616E+01  0.35171234321E+03  0.40146663895E+03  0.12699999809E+01 0.  1.
</event>
<event>
 5   0  0.1219020E-01  0.6047665E+03  0.7818609E-02  0.9895566E-01
        2   -1    0    0  501    0  0.00000000000E+00  0.00000000000E+00  0.35813804333E+03  0.35813804334E+03  0.25500000920E-02 0.  1.
       -2   -1    0    0    0  501  0.00000000000E+00  0.00000000000E+00 -0.25530837220E+03  0.25530837221E+03  0.25500000920E-02 0. -1.
    10030    2    1    2    0    0  0.00000000000E+00  0.00000000000E+00  0.10282967113E+03  0.61344641555E+03  0.60476653635E+03 0.  0.
        2    1    3    3  502    0  0.17388634635E+03  0.11009881531E+03  0.27612865854E+03  0.34439112453E+03  0.25500000920E-02 0.  1.
       -2    1    3    3    0  502 -0.17388634635E+03 -0.11009881531E+03 -0.17329898741E+03  0.26905529102E+03  0.25500000920E-02 0. -1.
</event>
<event>
 5   0  0.7424930E-02  0.5997270E+03  0.7818609E-02  0.9905973E-01
       -1   -1    0    0    0  501  0.00000000000E+00  0.00000000000E+00  0.15517256396E+03  0.15517256405E+03  0.50400001928E-02 0. -1.
        1   -1    0    0  501    0  0.00000000000E+00  0.00000000000E+00 -0.57947179580E+03  0.57947179583E+03  0.50400001928E-02 0.  1.
    10030    2    1    2    0    0  0.00000000000E+00  0.00000000000E+00 -0.42429923184E+03  0.73464435987E+03  0.59972701903E+03 0.  0.
        3    1    3    3  502    0  0.14575134879E+03 -0.19182601764E+01  0.10885416825E+03  0.18192409281E+03  0.10100000352E+00 0. -1.
       -3    1    3    3    0  502 -0.14575134879E+03  0.19182601764E+01 -0.53315340009E+03  0.55272026707E+03  0.10100000352E+00 0.  1.
</event>
<event>
 5   0  0.7221069E-02  0.6165296E+03  0.7818609E-02  0.9871694E-01
        1   -1    0    0  501    0  0.00000000000E+00  0.00000000000E+00  0.96587529587E+03  0.96587529589E+03  0.50400001928E-02 0. -1.
       -1   -1    0    0    0  501  0.00000000000E+00  0.00000000000E+00 -0.98384528914E+02  0.98384529043E+02  0.50400001928E-02 0.  1.
    10030    2    1    2    0    0  0.00000000000E+00  0.00000000000E+00  0.86749076696E+03  0.10642598249E+04  0.61652959718E+03 0.  0.
        5    1    3    3  502    0 -0.52371723480E+02  0.26292834489E+03  0.17120821750E+03  0.31813276427E+03  0.46999998093E+01 0.  1.
       -5    1    3    3    0  502  0.52371723480E+02 -0.26292834489E+03  0.69628254946E+03  0.74612706066E+03  0.46999998093E+01 0. -1.
</event>
<event>
 5   0  0.4695625E-02  0.6040402E+03  0.7818609E-02  0.9897059E-01
        4   -1    0    0  501    0  0.00000000000E+00  0.00000000000E+00  0.18326879578E+03  0.18327319610E+03  0.12699999809E+01 0. -1.
       -4   -1    0    0    0  501  0.00000000000E+00  0.00000000000E+00 -0.49770664203E+03  0.49770826236E+03  0.12699999809E+01 0.  1.
    10030    2    1    2    0    0  0.00000000000E+00  0.00000000000E+00 -0.31443784625E+03  0.68098145846E+03  0.60404022019E+03 0.  0.
        5    1    3    3  502    0  0.88777784872E+02  0.77054685591E+00  0.16818525658E+03  0.19023790200E+03  0.46999998093E+01 0. -1.
       -5    1    3    3    0  502 -0.88777784872E+02 -0.77054685591E+00 -0.48262310282E+03  0.49074355646E+03  0.46999998093E+01 0.  1.
</event>
<event>
 5   0  0.7221069E-02  0.6014078E+03  0.7818609E-02  0.9902490E-01
        1   -1    0    0  501    0  0.00000000000E+00  0.00000000000E+00  0.10698361972E+04  0.10698361972E+04  0.50400001928E-02 0.  1.
       -1   -1    0    0    0  501  0.00000000000E+00  0.00000000000E+00 -0.84520268315E+02  0.84520268465E+02  0.50400001928E-02 0. -1.
    10030    2    1    2    0    0  0.00000000000E+00  0.00000000000E+00  0.98531592888E+03  0.11543564657E+04  0.60140782347E+03 0.  0.
        5    1    3    3  502    0 -0.72374007787E+02 -0.28502671488E+03  0.37244429447E+03  0.47456829612E+03  0.46999998093E+01 0. -1.
       -5    1    3    3    0  502  0.72374007787E+02  0.28502671488E+03  0.61287163441E+03  0.67978816955E+03  0.46999998093E+01 0.  1.
</event>
<event>
 5   0  0.1219020E-01  0.6004410E+03  0.7818609E-02  0.9904492E-01
       -2   -1    0    0    0  501  0.00000000000E+00  0.00000000000E+00  0.74679615066E+02  0.74679615109E+02  0.25500000920E-02 0. -1.
        2   -1    0    0  501    0  0.00000000000E+00  0.00000000000E+00 -0.12069201722E+04  0.12069201722E+04  0.25500000920E-02 0.  1.
    10030    2    1    2    0    0  0.00000000000E+00  0.00000000000E+00 -0.11322405572E+04  0.12815997873E+04  0.60044095099E+03 0.  0.
        2    1    3    3  502    0  0.17374246340E+02  0.19946505495E+03 -0.88636271063E+02  0.21896246513E+03  0.25500000920E-02 0. -1.
       -2    1    3    3    0  502 -0.17374246340E+02 -0.19946505495E+03 -0.10436042861E+04  0.10626373222E+04  0.25500000920E-02 0.  1.
</event>
<event>
 5   0  0.1219020E-01  0.6006466E+03  0.7818609E-02  0.9904065E-01
       -2   -1    0    0    0  501  0.00000000000E+00  0.00000000000E+00  0.55950059859E+02  0.55950059917E+02  0.25500000920E-02 0. -1.
        2   -1    0    0  501    0  0.00000000000E+00  0.00000000000E+00 -0.16120462833E+04  0.16120462833E+04  0.25500000920E-02 0.  1.
    10030    2    1    2    0    0  0.00000000000E+00  0.00000000000E+00 -0.15560962234E+04  0.16679963432E+04  0.60064660524E+03 0.  0.
        2    1    3    3  502    0  0.12604038193E+03  0.44166584282E+02 -0.31054295189E+02  0.13711759297E+03  0.25500000920E-02 0. -1.
       -2    1    3    3    0  502 -0.12604038193E+03 -0.44166584282E+02 -0.15250419282E+04  0.15308787502E+04  0.25500000920E-02 0.  1.
</event>
<event>
 5   0  0.7123340E-02  0.5988473E+03  0.7818609E-02  0.9907800E-01
        1   -1    0    0  501    0  0.00000000000E+00  0.00000000000E+00  0.41980842885E+03  0.41980842888E+03  0.50400001928E-02 0. -1.
       -1   -1    0    0    0  501  0.00000000000E+00  0.00000000000E+00 -0.21356057090E+03  0.21356057096E+03  0.50400001928E-02 0.  1.
    10030    2    1    2    0    0  0.00000000000E+00  0.00000000000E+00  0.20624785795E+03  0.63336899985E+03  0.59884731865E+03 0.  0.
        2    1    3    3  502    0  0.16468245423E+03 -0.96200148420E+02 -0.14100642267E+03  0.23718682621E+03  0.25500000920E-02 0. -1.
       -2    1    3    3    0  502 -0.16468245423E+03  0.96200148420E+02  0.34725428062E+03  0.39618217363E+03  0.25500000920E-02 0.  1.
</event>
<event>
 5   0  0.1146468E-01  0.5971431E+03  0.7818609E-02  0.9911351E-01
        2   -1    0    0  501    0  0.00000000000E+00  0.00000000000E+00  0.23956639480E+04  0.23956639480E+04  0.25500000920E-02 0. -1.
       -2   -1    0    0    0  501  0.00000000000E+00  0.00000000000E+00 -0.37210968501E+02  0.37210968588E+02  0.25500000920E-02 0.  1.
    10030    2    1    2    0    0  0.00000000000E+00  0.00000000000E+00  0.23584529795E+04  0.24328749166E+04  0.59714311790E+03 0.  0.
        4    1    3    3  502    0 -0.15355151574E+03  0.66793218293E+02  0.21863344553E+04  0.21927378698E+04  0.12699999809E+01 0. -1.
       -4    1    3    3    0  502  0.15355151574E+03 -0.66793218293E+02  0.17211852413E+03  0.24013704680E+03  0.12699999809E+01 0.  1.
</event>
<event>
 5   0  0.7221069E-02  0.5687235E+03  0.7818609E-02  0.9972507E-01
        1   -1    0    0  501    0  0.00000000000E+00  0.00000000000E+00  0.29782900635E+03  0.29782900639E+03  0.50400001928E-02 0. -1.
       -1   -1    0    0    0  501  0.00000000000E+00  0.00000000000E+00 -0.27150340977E+03  0.27150340981E+03  0.50400001928E-02 0.  1.
    10030    2    1    2    0    0  0.00000000000E+00  0.00000000000E+00  0.26325596586E+02  0.56933241621E+03  0.56872345046E+03 0.  0.
        5    1    3    3  502    0 -0.17232273994E+03 -0.22035244219E+03  0.64101222209E+02  0.28702157091E+03  0.46999998093E+01 0. -1.
       -5    1    3    3    0  502  0.17232273994E+03  0.22035244219E+03 -0.37775625623E+02  0.28231084529E+03  0.46999998093E+01 0.  1.
</event>
<event>
 5   0  0.7221069E-02  0.6052532E+03  0.7818609E-02  0.9894567E-01
       -1   -1    0    0    0  501  0.00000000000E+00  0.00000000000E+00  0.88533623078E+02  0.88533623221E+02  0.50400001928E-02 0. -1.
        1   -1    0    0  501    0  0.00000000000E+00  0.00000000000E+00 -0.10344417083E+04  0.10344417083E+04  0.50400001928E-02 0.  1.
    10030    2    1    2    0    0  0.00000000000E+00  0.00000000000E+00 -0.94590808524E+03  0.11229753315E+04  0.60525324414E+03 0.  0.
        5    1    3    3  502    0  0.17561793238E+03 -0.23701710661E+03 -0.34791161663E+03  0.45616153935E+03  0.46999998093E+01 0. -1.
       -5    1    3    3    0  502 -0.17561793238E+03  0.23701710661E+03 -0.59799646861E+03  0.66681379220E+03  0.46999998093E+01 0.  1.
</event>
<event>
 5   0  0.7424930E-02  0.6036188E+03  0.7818609E-02  0.9897927E-01
        1   -1    0    0  501    0  0.00000000000E+00  0.00000000000E+00  0.80086438224E+03  0.80086438226E+03  0.50400001928E-02 0. -1.
       -1   -1    0    0    0  501  0.00000000000E+00  0.00000000000E+00 -0.11373824852E+03  0.11373824863E+03  0.50400001928E-02 0.  1.
    10030    2    1    2    0    0  0.00000000000E+00  0.00000000000E+00  0.68712613373E+03  0.91460263089E+03  0.60361879425E+03 0.  0.
        3    1    3    3  502    0  0.25331434296E+03 -0.13652360409E+03  0.48145493248E+03  0.56089723929E+03  0.10100000352E+00 0. -1.
       -3    1    3    3    0  502 -0.25331434296E+03  0.13652360409E+03  0.20567120125E+03  0.35370539160E+03  0.10100000352E+00 0.  1.
</event>
<event>
 5   0  0.1219020E-01  0.5870363E+03  0.7818609E-02  0.9932673E-01
       -2   -1    0    0    0  501  0.00000000000E+00  0.00000000000E+00  0.36914095941E+03  0.36914095942E+03  0.25500000920E-02 0.  1.
        2   -1    0    0  501    0  0.00000000000E+00  0.00000000000E+00 -0.23338751910E+03  0.23338751911E+03  0.25500000920E-02 0. -1.
    10030    2    1    2    0    0  0.00000000000E+00  0.00000000000E+00  0.13575344031E+03  0.60252847853E+03  0.58703626028E+03 0.  0.
        2    1    3    3  502    0 -0.16502364584E+03 -0.21935734409E+01 -0.18125361591E+03  0.24513361405E+03  0.25500000920E-02 0. -1.
       -2    1    3    3    0  502  0.16502364584E+03  0.21935734409E+01  0.31700705622E+03  0.35739486447E+03  0.25500000920E-02 0.  1.
</event>
<event>
 5   0  0.7263385E-02  0.6094742E+03  0.7818609E-02  0.9885943E-01
        1   -1    0    0  501    0  0.00000000000E+00  0.00000000000E+00  0.16887958187E+03  0.16887958194E+03  0.50400001928E-02 0.  1.
       -1   -1    0    0    0  501  0.00000000000E+00  0.00000000000E+00 -0.54988708877E+03  0.54988708880E+03  0.50400001928E-02 0. -1.
    10030    2    1    2    0    0  0.00000000000E+00  0.00000000000E+00 -0.38100750691E+03  0.71876667074E+03  0.60947420507E+03 0.  0.
        1    1    3    3  502    0  0.12836910373E+03 -0.16212289368E+03  0.73470263988E+02  0.21945464033E+03  0.50400001928E-02 0.  1.
       -1    1    3    3    0  502 -0.12836910373E+03  0.16212289368E+03 -0.45447777089E+03  0.49931203041E+03  0.50400001928E-02 0. -1.
</event>
<event>
 5   0  0.1219020E-01  0.5844699E+03  0.7818609E-02  0.9938160E-01
       -2   -1    0    0    0  501  0.00000000000E+00  0.00000000000E+00  0.45353157359E+02  0.45353157430E+02  0.25500000920E-02 0.  1.
        2   -1    0    0  501    0  0.00000000000E+00  0.00000000000E+00 -0.18830282234E+04  0.18830282234E+04  0.25500000920E-02 0. -1.
    10030    2    1    2    0    0  0.00000000000E+00  0.00000000000E+00 -0.18376750660E+04  0.19283813808E+04  0.58446993215E+03 0.  0.
        2    1    3    3  502    0 -0.63864619735E+02  0.16400732263E+03 -0.14912826095E+03  0.23068664841E+03  0.25500000920E-02 0.  1.
       -2    1    3    3    0  502  0.63864619735E+02 -0.16400732263E+03 -0.16885468051E+04  0.16976947324E+04  0.25500000920E-02 0. -1.
</event>
<event>
 5   0  0.1219020E-01  0.6375309E+03  0.7818609E-02  0.9830462E-01
        2   -1    0    0  501    0  0.00000000000E+00  0.00000000000E+00  0.26544017088E+03  0.26544017089E+03  0.25500000920E-02 0.  1.
       -2   -1    0    0    0  501  0.00000000000E+00  0.00000000000E+00 -0.38280342757E+03  0.38280342758E+03  0.25500000920E-02 0. -1.
    10030    2    1    2    0    0  0.00000000000E+00  0.00000000000E+00 -0.11736325669E+03  0.64824359848E+03  0.63753088470E+03 0.  0.
        2    1    3    3  502    0  0.22194317067E+03 -0.36146131323E+02  0.17104866307E+03  0.28252957183E+03  0.25500000920E-02 0.  1.
       -2    1    3    3    0  502 -0.22194317067E+03  0.36146131323E+02 -0.28841191976E+03  0.36571402664E+03  0.25500000920E-02 0. -1.
</event>
<event>
 5   0  0.7424930E-02  0.5865779E+03  0.7818609E-02  0.9933651E-01
       -1   -1    0    0    0  501  0.00000000000E+00  0.00000000000E+00  0.74499136915E+02  0.74499137086E+02  0.50400001928E-02 0. -1.
        1   -1    0    0  501    0  0.00000000000E+00  0.00000000000E+00 -0.11546227257E+04  0.11546227257E+04  0.50400001928E-02 0.  1.
    10030    2    1    2    0    0  0.00000000000E+00  0.00000000000E+00 -0.10801235888E+04  0.12291218628E+04  0.58657786062E+03 0.  0.
        3    1    3    3  502    0  0.11305212772E+03  0.24380573608E+03 -0.78618447055E+03  0.83084779139E+03  0.10100000352E+00 0.  1.
       -3    1    3    3    0  502 -0.11305212772E+03 -0.24380573608E+03 -0.29393911827E+03  0.39827407144E+03  0.10100000352E+00 0. -1.
</event>
<event>
 5   0  0.7263385E-02  0.5977061E+03  0.7818609E-02  0.9910177E-01
       -1   -1    0    0    0  501  0.00000000000E+00  0.00000000000E+00  0.15311315686E+03  0.15311315695E+03  0.50400001928E-02 0.  1.
        1   -1    0    0  501    0  0.00000000000E+00  0.00000000000E+00 -0.58331456017E+03  0.58331456019E+03  0.50400001928E-02 0. -1.
    10030    2    1    2    0    0  0.00000000000E+00  0.00000000000E+00 -0.43020140331E+03  0.73642771714E+03  0.59770606084E+03 0.  0.
        1    1    3    3  502    0  0.14053010380E+03  0.82836824207E+02  0.93420376236E+02  0.18798408507E+03  0.50400001928E-02 0.  1.
       -1    1    3    3    0  502 -0.14053010380E+03 -0.82836824207E+02 -0.52362177954E+03  0.54844363207E+03  0.50400001928E-02 0. -1.
</event>
<event>
 5   0  0.7424930E-02  0.5821798E+03  0.7818609E-02  0.9943083E-01
        1   -1    0    0  501    0  0.00000000000E+00  0.00000000000E+00  0.42155312257E+03  0.42155312260E+03  0.50400001928E-02 0. -1.
       -1   -1    0    0    0  501  0.00000000000E+00  0.00000000000E+00 -0.20100276009E+03  0.20100276016E+03  0.50400001928E-02 0.  1.
    10030    2    1    2    0    0  0.00000000000E+00  0.00000000000E+00  0.22055036247E+03  0.62255588276E+03  0.58217983885E+03 0.  0.
        3    1    3    3  502    0 -0.16958298260E+03 -0.19341535486E+03  0.25597997617E+03  0.36289619160E+03  0.10100000352E+00 0. -1.
       -3    1    3    3    0  502  0.16958298260E+03  0.19341535486E+03 -0.35429613695E+02  0.25965969115E+03  0.10100000352E+00 0.  1.
</event>
<event>
 5   0  0.7221069E-02  0.5906941E+03  0.7818609E-02  0.9924903E-01
       -1   -1    0    0    0  501  0.00000000000E+00  0.00000000000E+00  0.18680656098E+03  0.18680656105E+03  0.50400001928E-02 0.  1.
        1   -1    0    0  501    0  0.00000000000E+00  0.00000000000E+00 -0.46695304336E+03  0.46695304338E+03  0.50400001928E-02 0. -1.
    10030    2    1    2    0    0  0.00000000000E+00  0.00000000000E+00 -0.28014648238E+03  0.65375960443E+03  0.59069414149E+03 0.  0.
        5    1    3    3  502    0  0.48594394940E+02 -0.24372673232E+03  0.36467631693E+02  0.25122920496E+03  0.46999998093E+01 0.  1.
       -5    1    3    3    0  502 -0.48594394940E+02  0.24372673232E+03 -0.31661411407E+03  0.40253039947E+03  0.46999998093E+01 0. -1.
</event>
<event>
 5   0  0.7266519E-02  0.5986729E+03  0.7818609E-02  0.9908163E-01
        1   -1    0    0  501    0  0.00000000000E+00  0.00000000000E+00  0.25316958488E+03  0.25316958493E+03  0.50400001928E-02 0. -1.
       -1   -1    0    0    0  501  0.00000000000E+00  0.00000000000E+00 -0.35392206047E+03  0.35392206050E+03  0.50400001928E-02 0.  1.
    10030    2    1    2    0    0  0.00000000000E+00  0.00000000000E+00 -0.10075247559E+03  0.60709164543E+03  0.59867286945E+03 0.  0.
        4    1    3    3  502    0  0.16320753610E+03 -0.54133991844E+02 -0.29883911412E+03  0.34478053591E+03  0.12699999809E+01 0.  1.
       -4    1    3    3    0  502 -0.16320753610E+03  0.54133991844E+02  0.19808663853E+03  0.26231110952E+03  0.12699999809E+01 0. -1.
</event>
<event>
 5   0  0.7266519E-02  0.5656095E+03  0.7818609E-02  0.9979441E-01
        1   -1    0    0  501    0  0.00000000000E+00  0.00000000000E+00  0.16721558989E+03  0.16721558996E+03  0.50400001928E-02 0.  1.
       -1   -1    0    0    0  501  0.00000000000E+00  0.00000000000E+00 -0.47829593398E+03  0.47829593400E+03  0.50400001928E-02 0. -1.
    10030    2    1    2    0    0  0.00000000000E+00  0.00000000000E+00 -0.31108034409E+03  0.64551152397E+03  0.56560953589E+03 0.  0.
        4    1    3    3  502    0  0.24685432362E+03  0.37192640881E+02 -0.38908407752E+01  0.24967398977E+03  0.12699999809E+01 0. -1.
       -4    1    3    3    0  502 -0.24685432362E+03 -0.37192640881E+02 -0.30718950332E+03  0.39583753419E+03  0.12699999809E+01 0.  1.
</event>
<event>
 5   0  0.1166419E-01  0.5975049E+03  0.7818609E-02  0.9910596E-01
        2   -1    0    0  501    0  0.00000000000E+00  0.00000000000E+00  0.13398277948E+03  0.13398277950E+03  0.25500000920E-02 0. -1.
       -2   -1    0    0    0  501  0.00000000000E+00  0.00000000000E+00 -0.66615288433E+03  0.66615288433E+03  0.25500000920E-02 0.  1.
    10030    2    1    2    0    0  0.00000000000E+00  0.00000000000E+00 -0.53217010485E+03  0.80013566383E+03  0.59750486194E+03 0.  0.
        1    1    3    3  502    0 -0.27456627181E+03  0.11725298183E+03 -0.25153127075E+03  0.39038811400E+03  0.50400001928E-02 0.  1.
       -1    1    3    3    0  502  0.27456627181E+03 -0.11725298183E+03 -0.28063883410E+03  0.40974754983E+03  0.50400001928E-02 0. -1.
</event>
<event>
 5   0  0.1175861E-01  0.6171785E+03  0.7818609E-02  0.9870393E-01
       -2   -1    0    0    0  501  0.00000000000E+00  0.00000000000E+00  0.96795308968E+02  0.96795309001E+02  0.25500000920E-02 0. -1.
        2   -1    0    0  501    0  0.00000000000E+00  0.00000000000E+00 -0.98380102422E+03  0.98380102422E+03  0.25500000920E-02 0.  1.
    10030    2    1    2    0    0  0.00000000000E+00  0.00000000000E+00 -0.88700571525E+03  0.10805963332E+04  0.61717849646E+03 0.  0.
        3    1    3    3  502    0 -0.21936760727E+03 -0.18502472245E+02 -0.64883273009E+02  0.22950890596E+03  0.10100000352E+00 0. -1.
       -3    1    3    3    0  502  0.21936760727E+03  0.18502472245E+02 -0.82212244224E+03  0.85108742726E+03  0.10100000352E+00 0.  1.
</event>
<event>
 5   0  0.7221069E-02  0.6028330E+03  0.7818609E-02  0.9899546E-01
       -1   -1    0    0    0  501  0.00000000000E+00  0.00000000000E+00  0.29697768372E+03  0.29697768376E+03  0.50400001928E-02 0. -1.
        1   -1    0    0  501    0  0.00000000000E+00  0.00000000000E+00 -0.30592168052E+03  0.30592168056E+03  0.50400001928E-02 0.  1.
    10030    2    1    2    0    0  0.00000000000E+00  0.00000000000E+00 -0.89439967994E+01  0.60289936432E+03  0.60283301868E+03 0.  0.
        5    1    3    3  502    0  0.20773826282E+03  0.20976326967E+03 -0.65092256605E+02  0.30234898215E+03  0.46999998093E+01 0.  1.
       -5    1    3    3    0  502 -0.20773826282E+03 -0.20976326967E+03  0.56148259806E+02  0.30055038216E+03  0.46999998093E+01 0. -1.
</event>
<event>
 5   0  0.1219020E-01  0.5881762E+03  0.7818609E-02  0.9930245E-01
       -2   -1    0    0    0  501  0.00000000000E+00  0.00000000000E+00  0.95117192912E+02  0.95117192946E+02  0.25500000920E-02 0.  1.
        2   -1    0    0  501    0  0.00000000000E+00  0.00000000000E+00 -0.90927631174E+03  0.90927631174E+03  0.25500000920E-02 0. -1.
    10030    2    1    2    0    0  0.00000000000E+00  0.00000000000E+00 -0.81415911882E+03  0.10043935047E+04  0.58817619936E+03 0.  0.
        2    1    3    3  502    0 -0.14984477103E+03  0.89901109196E+01 -0.83892537815E+03  0.85225000299E+03  0.25500000920E-02 0. -1.
       -2    1    3    3    0  502  0.14984477103E+03 -0.89901109196E+01  0.24766259321E+02  0.15214350169E+03  0.25500000920E-02 0.  1.
</event>
<event>
 5   0  0.1146468E-01  0.5976465E+03  0.7818609E-02  0.9910301E-01
       -2   -1    0    0    0  501  0.00000000000E+00  0.00000000000E+00  0.45875479628E+02  0.45875479699E+02  0.25500000920E-02 0. -1.
        2   -1    0    0  501    0  0.00000000000E+00  0.00000000000E+00 -0.19464719122E+04  0.19464719122E+04  0.25500000920E-02 0.  1.
    10030    2    1    2    0    0  0.00000000000E+00  0.00000000000E+00 -0.19005964325E+04  0.19923473919E+04  0.59764649292E+03 0.  0.
        4    1    3    3  502    0 -0.25025989062E+03  0.58259260646E+02 -0.14588261647E+04  0.14812830743E+04  0.12699999809E+01 0.  1.
       -4    1    3    3    0  502  0.25025989062E+03 -0.58259260646E+02 -0.44177026779E+03  0.51106431758E+03  0.12699999809E+01 0. -1.
</event>
<event>
 5   0  0.7266519E-02  0.5943055E+03  0.7818609E-02  0.9917291E-01
       -1   -1    0    0    0  501  0.00000000000E+00  0.00000000000E+00  0.14634478493E+03  0.14634478502E+03  0.50400001928E-02 0.  1.
        1   -1    0    0  501    0  0.00000000000E+00  0.00000000000E+00 -0.60336799787E+03  0.60336799789E+03  0.50400001928E-02 0. -1.
    10030    2    1    2    0    0  0.00000000000E+00  0.00000000000E+00 -0.45702321294E+03  0.74971278291E+03  0.59430551041E+03 0.  0.
        4    1    3    3  502    0  0.18743275436E+02  0.75868757264E+02  0.13314522985E+03  0.15439120388E+03  0.12699999809E+01 0.  1.
       -4    1    3    3    0  502 -0.18743275436E+02 -0.75868757264E+02 -0.59016844279E+03  0.59532157904E+03  0.12699999809E+01 0. -1.
</event>
<event>
 5   0  0.1206238E-01  0.6058687E+03  0.7818609E-02  0.9893305E-01
       -2   -1    0    0    0  501  0.00000000000E+00  0.00000000000E+00  0.10848672166E+03  0.10848672169E+03  0.25500000920E-02 0. -1.
        2   -1    0    0  501    0  0.00000000000E+00  0.00000000000E+00 -0.84590287741E+03  0.84590287742E+03  0.25500000920E-02 0.  1.
    10030    2    1    2    0    0  0.00000000000E+00  0.00000000000E+00 -0.73741615575E+03  0.95438959911E+03  0.60586873177E+03 0.  0.
        5    1    3    3  502    0 -0.22869477121E+03 -0.60687953610E+02 -0.66660293103E+03  0.70736545276E+03  0.46999998093E+01 0.  1.
       -5    1    3    3    0  502  0.22869477121E+03  0.60687953610E+02 -0.70813224716E+02  0.24702414636E+03  0.46999998093E+01 0. -1.
</event>
<event>
 5   0  0.1175861E-01  0.6012025E+03  0.7818609E-02  0.9902914E-01
        2   -1    0    0  501    0  0.00000000000E+00  0.00000000000E+00  0.73364278649E+02  0.73364278693E+02  0.25500000920E-02 0. -1.
       -2   -1    0    0    0  501  0.00000000000E+00  0.00000000000E+00 -0.12316773595E+04  0.12316773595E+04  0.25500000920E-02 0.  1.
    10030    2    1    2    0    0  0.00000000000E+00  0.00000000000E+00 -0.11583130809E+04  0.13050416382E+04  0.60120253173E+03 0.  0.
        3    1    3    3  502    0 -0.16027533215E+03 -0.10788358369E+03 -0.10790540924E+04  0.10962138451E+04  0.10100000352E+00 0.  1.
       -3    1    3    3    0  502  0.16027533215E+03  0.10788358369E+03 -0.79258988532E+02  0.20882779315E+03  0.10100000352E+00 0. -1.
</event>
<event>
 5   0  0.7266519E-02  0.6063101E+03  0.7818609E-02  0.9892400E-01
        1   -1    0    0  501    0  0.00000000000E+00  0.00000000000E+00  0.48611146558E+03  0.48611146561E+03  0.50400001928E-02 0.  1.
       -1   -1    0    0    0  501  0.00000000000E+00  0.00000000000E+00 -0.18905740270E+03  0.18905740277E+03  0.50400001928E-02 0. -1.
    10030    2    1    2    0    0  0.00000000000E+00  0.00000000000E+00  0.29705406288E+03  0.67516886838E+03  0.60631005645E+03 0.  0.
        4    1    3    3  502    0 -0.86675283927E+02 -0.23628560942E+03 -0.39656016876E+02  0.25478953400E+03  0.12699999809E+01 0. -1.
       -4    1    3    3    0  502  0.86675283927E+02  0.23628560942E+03  0.33671007976E+03  0.42037933438E+03  0.12699999809E+01 0.  1.
</event>
<event>
 5   0  0.4695625E-02  0.5881290E+03  0.7818609E-02  0.9930345E-01
        3   -1    0    0  501    0  0.00000000000E+00  0.00000000000E+00  0.17364046721E+03  0.17364049659E+03  0.10100000352E+00 0. -1.
       -3   -1    0    0    0  501  0.00000000000E+00  0.00000000000E+00 -0.49800547088E+03  0.49800548112E+03  0.10100000352E+00 0.  1.
    10030    2    1    2    0    0  0.00000000000E+00  0.00000000000E+00 -0.32436500367E+03  0.67164597771E+03  0.58812895165E+03 0.  0.
        1    1    3    3  502    0 -0.13649805347E+03  0.22272930050E+03 -0.31639057829E+03  0.41029630507E+03  0.50400001928E-02 0.  1.
       -1    1    3    3    0  502  0.13649805347E+03 -0.22272930050E+03 -0.79744253794E+01  0.26134967263E+03  0.50400001928E-02 0. -1.
</event>
<event>
 5   0  0.7263385E-02  0.6036362E+03  0.7818609E-02  0.9897891E-01
        1   -1    0    0  501    0  0.00000000000E+00  0.00000000000E+00  0.39976766122E+03  0.39976766125E+03  0.50400001928E-02 0.  1.
       -1   -1    0    0    0  501  0.00000000000E+00  0.00000000000E+00 -0.22786776365E+03  0.22786776370E+03  0.50400001928E-02 0. -1.
    10030    2    1    2    0    0  0.00000000000E+00  0.00000000000E+00  0.17189989757E+03  0.62763542495E+03  0.60363619165E+03 0.  0.
        1    1    3    3  502    0  0.26130710851E+03  0.42339484108E+02 -0.64797453065E+02  0.27253026772E+03  0.50400001928E-02 0. -1.
       -1    1    3    3    0  502 -0.26130710851E+03 -0.42339484108E+02  0.23669735064E+03  0.35510515724E+03  0.50400001928E-02 0.  1.
</event>
<event>
 5   0  0.1146468E-01  0.6041743E+03  0.7818609E-02  0.9896783E-01
       -2   -1    0    0    0  501  0.00000000000E+00  0.00000000000E+00  0.69805935267E+02  0.69805935313E+02  0.25500000920E-02 0.  1.
        2   -1    0    0  501    0  0.00000000000E+00  0.00000000000E+00 -0.13072906009E+04  0.13072906009E+04  0.25500000920E-02 0. -1.
    10030    2    1    2    0    0  0.00000000000E+00  0.00000000000E+00 -0.12374846656E+04  0.13770965362E+04  0.60417428973E+03 0.  0.
        4    1    3    3  502    0  0.21878847480E+03 -0.31696665499E+02 -0.10879797527E+04  0.11102137769E+04  0.12699999809E+01 0. -1.
       -4    1    3    3    0  502 -0.21878847480E+03  0.31696665499E+02 -0.14950491292E+03  0.26688275927E+03  0.12699999809E+01 0.  1.
</event>
<event>
 5   0  0.1175861E-01  0.5984718E+03  0.7818609E-02  0.9908582E-01
       -2   -1    0    0    0  501  0.00000000000E+00  0.00000000000E+00  0.45877546754E+02  0.45877546825E+02  0.25500000920E-02 0. -1.
        2   -1    0    0  501    0  0.00000000000E+00  0.00000000000E+00 -0.19517634161E+04  0.19517634161E+04  0.25500000920E-02 0.  1.
    10030    2    1    2    0    0  0.00000000000E+00  0.00000000000E+00 -0.19058858693E+04  0.19976409629E+04  0.59847177860E+03 0.  0.
        3    1    3    3  502    0  0.40774115809E+02 -0.78070677445E+02  0.16305972182E+01  0.88092157682E+02  0.10100000352E+00 0. -1.
       -3    1    3    3    0  502 -0.40774115809E+02  0.78070677445E+02 -0.19075164665E+04  0.19095488052E+04  0.10100000352E+00 0.  1.
</event>
<event>
 5   0  0.1219020E-01  0.6413051E+03  0.7818609E-02  0.9823233E-01
       -2   -1    0    0    0  501  0.00000000000E+00  0.00000000000E+00  0.27068357356E+03  0.27068357357E+03  0.25500000920E-02 0.  1.
        2   -1    0    0  501    0  0.00000000000E+00  0.00000000000E+00 -0.37984599157E+03  0.37984599158E+03  0.25500000920E-02 0. -1.
    10030    2    1    2    0    0  0.00000000000E+00  0.00000000000E+00 -0.10916241802E+03  0.65052956515E+03  0.64130513925E+03 0.  0.
        2    1    3    3  502    0  0.85939211674E+02 -0.60730039351E+02 -0.36183133158E+03  0.37682303313E+03  0.25500000920E-02 0. -1.
       -2    1    3    3    0  502 -0.85939211674E+02  0.60730039351E+02  0.25266891356E+03  0.27370653202E+03  0.25500000920E-02 0.  1.
</event>
<event>
 5   0  0.1219020E-01  0.5948096E+03  0.7818609E-02  0.9916233E-01
       -2   -1    0    0    0  501  0.00000000000E+00  0.00000000000E+00  0.32608598831E+02  0.32608598931E+02  0.25500000920E-02 0.  1.
        2   -1    0    0  501    0  0.00000000000E+00  0.00000000000E+00 -0.27124628219E+04  0.27124628219E+04  0.25500000920E-02 0. -1.
    10030    2    1    2    0    0  0.00000000000E+00  0.00000000000E+00 -0.26798542231E+04  0.27450714208E+04  0.59480959018E+03 0.  0.
        2    1    3    3  502    0  0.10353550101E+03 -0.37165718438E+02 -0.64732200650E+02  0.12763678311E+03  0.25500000920E-02 0.  1.
       -2    1    3    3    0  502 -0.10353550101E+03  0.37165718438E+02 -0.26151220224E+04  0.26174346377E+04  0.25500000920E-02 0. -1.
</event>
<event>
 5   0  0.1146468E-01  0.6094235E+03  0.7818609E-02  0.9886046E-01
       -2   -1    0    0    0  501  0.00000000000E+00  0.00000000000E+00  0.21579978650E+03  0.21579978651E+03  0.25500000920E-02 0.  1.
        2   -1    0    0  501    0  0.00000000000E+00  0.00000000000E+00 -0.43025652040E+03  0.43025652040E+03  0.25500000920E-02 0. -1.
    10030    2    1    2    0    0  0.00000000000E+00  0.00000000000E+00 -0.21445673390E+03  0.64605630692E+03  0.60942354811E+03 0.  0.
        4    1    3    3  502    0 -0.10066520131E+03  0.28548703351E+03 -0.70332206615E+02  0.31078056768E+03  0.12699999809E+01 0.  1.
       -4    1    3    3    0  502  0.10066520131E+03 -0.28548703351E+03 -0.14412452729E+03  0.33527573924E+03  0.12699999809E+01 0. -1.
</event>
<event>
 5   0  0.1206238E-01  0.5980105E+03  0.7818609E-02  0.9909542E-01
       -2   -1    0    0    0  501  0.00000000000E+00  0.00000000000E+00  0.85356290050E+02  0.85356290088E+02  0.25500000920E-02 0. -1.
        2   -1    0    0  501    0  0.00000000000E+00  0.00000000000E+00 -0.10474228982E+04  0.10474228982E+04  0.25500000920E-02 0.  1.
    10030    2    1    2    0    0  0.00000000000E+00  0.00000000000E+00 -0.96206660816E+03  0.11327791883E+04  0.59801047726E+03 0.  0.
        5    1    3    3  502    0 -0.13084038334E+03  0.21063086035E+03 -0.79742052689E+03  0.83509649260E+03  0.46999998093E+01 0.  1.
       -5    1    3    3    0  502  0.13084038334E+03 -0.21063086035E+03 -0.16464608127E+03  0.29768269570E+03  0.46999998093E+01 0. -1.
</event>
<event>
 5   0  0.1206238E-01  0.5996042E+03  0.7818609E-02  0.9906228E-01
        2   -1    0    0  501    0  0.00000000000E+00  0.00000000000E+00  0.41152710177E+03  0.41152710178E+03  0.25500000920E-02 0. -1.
       -2   -1    0    0    0  501  0.00000000000E+00  0.00000000000E+00 -0.21840920423E+03  0.21840920425E+03  0.25500000920E-02 0.  1.
    10030    2    1    2    0    0  0.00000000000E+00  0.00000000000E+00  0.19311789754E+03  0.62993630603E+03  0.59960422555E+03 0.  0.
        5    1    3    3  502    0  0.19311716242E+03 -0.19835441923E+03  0.21735589087E+03  0.35200055020E+03  0.46999998093E+01 0. -1.
       -5    1    3    3    0  502 -0.19311716242E+03  0.19835441923E+03 -0.24237993331E+02  0.27793575583E+03  0.46999998093E+01 0.  1.
</event>
<event>
 5   0  0.1175861E-01  0.5993591E+03  0.7818609E-02  0.9906737E-01
        2   -1    0    0  501    0  0.00000000000E+00  0.00000000000E+00  0.10494841121E+04  0.10494841121E+04  0.25500000920E-02 0. -1.
       -2   -1    0    0    0  501  0.00000000000E+00  0.00000000000E+00 -0.85573302861E+02  0.85573302899E+02  0.25500000920E-02 0.  1.
    10030    2    1    2    0    0  0.00000000000E+00  0.00000000000E+00  0.96391080928E+03  0.11350574150E+04  0.59935906366E+03 0.  0.
        3    1    3    3  502    0  0.19265321166E+03  0.22906459680E+03  0.51016976377E+03  0.59148883974E+03  0.10100000352E+00 0.  1.
       -3    1    3    3    0  502 -0.19265321166E+03 -0.22906459680E+03  0.45374104552E+03  0.54356857531E+03  0.10100000352E+00 0. -1.
</event>
<event>
 5   0  0.7266519E-02  0.5896308E+03  0.7818609E-02  0.9927155E-01
       -1   -1    0    0    0  501  0.00000000000E+00  0.00000000000E+00  0.99658858825E+02  0.99658858953E+02  0.50400001928E-02 0.  1.
        1   -1    0    0  501    0  0.00000000000E+00  0.00000000000E+00 -0.87213647892E+03  0.87213647893E+03  0.50400001928E-02 0. -1.
    10030    2    1    2    0    0  0.00000000000E+00  0.00000000000E+00 -0.77247762009E+03  0.97179533788E+03  0.58963082110E+03 0.  0.
        4    1    3    3  502    0 -0.16182256912E+03  0.24640306755E+03 -0.39229398279E+03  0.49071091021E+03  0.12699999809E+01 0.  1.
       -4    1    3    3    0  502  0.16182256912E+03 -0.24640306755E+03 -0.38018363730E+03  0.48108442767E+03  0.12699999809E+01 0. -1.
</event>
<event>
 5   0  0.7263385E-02  0.5855957E+03  0.7818609E-02  0.9935749E-01
        1   -1    0    0  501    0  0.00000000000E+00  0.00000000000E+00  0.16020998949E+04  0.16020998949E+04  0.50400001928E-02 0.  1.
       -1   -1    0    0    0  501  0.00000000000E+00  0.00000000000E+00 -0.53511374847E+02  0.53511375085E+02  0.50400001928E-02 0. -1.
    10030    2    1    2    0    0  0.00000000000E+00  0.00000000000E+00  0.15485885201E+04  0.16556112700E+04  0.58559565648E+03 0.  0.
        1    1    3    3  502    0  0.50950503839E+02  0.11278732314E+01  0.15894641839E+04  0.15902809871E+04  0.50400001928E-02 0.  1.
       -1    1    3    3    0  502 -0.50950503839E+02 -0.11278732314E+01 -0.40875663874E+02  0.65330282887E+02  0.50400001928E-02 0. -1.
</event>
<event>
 5   0  0.1219020E-01  0.6735800E+03  0.7818609E-02  0.9763512E-01
       -2   -1    0    0    0  501  0.00000000000E+00  0.00000000000E+00  0.13490027936E+03  0.13490027939E+03  0.25500000920E-02 0.  1.
        2   -1    0    0  501    0  0.00000000000E+00  0.00000000000E+00 -0.84082486097E+03  0.84082486097E+03  0.25500000920E-02 0. -1.
    10030    2    1    2    0    0  0.00000000000E+00  0.00000000000E+00 -0.70592458160E+03  0.97572514036E+03  0.67358001352E+03 0.  0.
        2    1    3    3  502    0  0.30251832924E+03  0.14670240800E+03 -0.32440780176E+03  0.46720376485E+03  0.25500000920E-02 0. -1.
       -2    1    3    3    0  502 -0.30251832924E+03 -0.14670240800E+03 -0.38151677984E+03  0.50852137551E+03  0.25500000920E-02 0.  1.
</event>
<event>
 5   0  0.1146468E-01  0.6052874E+03  0.7818609E-02  0.9894497E-01
       -2   -1    0    0    0  501  0.00000000000E+00  0.00000000000E+00  0.30738389275E+03  0.30738389276E+03  0.25500000920E-02 0. -1.
        2   -1    0    0  501    0  0.00000000000E+00  0.00000000000E+00 -0.29797656059E+03  0.29797656060E+03  0.25500000920E-02 0.  1.
    10030    2    1    2    0    0  0.00000000000E+00  0.00000000000E+00  0.94073321620E+01  0.60536045336E+03  0.60528735374E+03 0.  0.
        4    1    3    3  502    0 -0.17827052380E+03  0.21256398113E+03  0.12566353494E+03  0.30455994918E+03  0.12699999809E+01 0. -1.
       -4    1    3    3    0  502  0.17827052380E+03 -0.21256398113E+03 -0.11625620278E+03  0.30080050418E+03  0.12699999809E+01 0.  1.
</event>
<event>
 5   0  0.7221069E-02  0.6270252E+03  0.7818609E-02  0.9850871E-01
       -1   -1    0    0    0  501  0.00000000000E+00  0.00000000000E+00  0.51256847966E+03  0.51256847969E+03  0.50400001928E-02 0.  1.
        1   -1    0    0  501    0  0.00000000000E+00  0.00000000000E+00 -0.19176003184E+03  0.19176003190E+03  0.50400001928E-02 0. -1.
    10030    2    1    2    0    0  0.00000000000E+00  0.00000000000E+00  0.32080844782E+03  0.70432851159E+03  0.62702519251E+03 0.  0.
        5    1    3    3  502    0  0.15459296164E+03 -0.26029991226E+03  0.69058016171E+02  0.31055776871E+03  0.46999998093E+01 0. -1.
       -5    1    3    3    0  502 -0.15459296164E+03  0.26029991226E+03  0.25175043165E+03  0.39377074288E+03  0.46999998093E+01 0.  1.
</event>
<event>
 5   0  0.4695625E-02  0.6028895E+03  0.7818609E-02  0.9899429E-01
       -3   -1    0    0    0  501  0.00000000000E+00  0.00000000000E+00  0.54197155887E+03  0.54197156828E+03  0.10100000352E+00 0.  1.
        3   -1    0    0  501    0  0.00000000000E+00  0.00000000000E+00 -0.16766365057E+03  0.16766368099E+03  0.10100000352E+00 0. -1.
    10030    2    1    2    0    0  0.00000000000E+00  0.00000000000E+00  0.37430790831E+03  0.70963524927E+03  0.60288952287E+03 0.  0.
        4    1    3    3  502    0  0.16668377083E+03 -0.15769112688E+02  0.48220618241E+03  0.51044741122E+03  0.12699999809E+01 0.  1.
       -4    1    3    3    0  502 -0.16668377083E+03  0.15769112688E+02 -0.10789827410E+03  0.19918783805E+03  0.12699999809E+01 0. -1.
</event>
<event>
 5   0  0.1166419E-01  0.6001960E+03  0.7818609E-02  0.9905000E-01
       -2   -1    0    0    0  501  0.00000000000E+00  0.00000000000E+00  0.39557549214E+03  0.39557549215E+03  0.25500000920E-02 0.  1.
        2   -1    0    0  501    0  0.00000000000E+00  0.00000000000E+00 -0.22766525643E+03  0.22766525644E+03  0.25500000920E-02 0. -1.
    10030    2    1    2    0    0  0.00000000000E+00  0.00000000000E+00  0.16791023571E+03  0.62324074859E+03  0.60019595420E+03 0.  0.
        1    1    3    3  502    0  0.23350963481E+03  0.11796944995E+03  0.23662134054E+03  0.35275090290E+03  0.50400001928E-02 0.  1.
       -1    1    3    3    0  502 -0.23350963481E+03 -0.11796944995E+03 -0.68711104832E+02  0.27048984569E+03  0.50400001928E-02 0. -1.
</event>
<event>
 5   0  0.7221069E-02  0.5932175E+03  0.7818609E-02  0.9919578E-01
       -1   -1    0    0    0  501  0.00000000000E+00  0.00000000000E+00  0.82840451428E+02  0.82840451581E+02  0.50400001928E-02 0. -1.
        1   -1    0    0  501    0  0.00000000000E+00  0.00000000000E+00 -0.10620022372E+04  0.10620022372E+04  0.50400001928E-02 0.  1.
    10030    2    1    2    0    0  0.00000000000E+00  0.00000000000E+00 -0.97916178575E+03  0.11448426888E+04  0.59321748066E+03 0.  0.
        5    1    3    3  502    0  0.24868963733E+03 -0.18743619433E+02 -0.17985480090E+03  0.30751861471E+03  0.46999998093E+01 0. -1.
       -5    1    3    3    0  502 -0.24868963733E+03  0.18743619433E+02 -0.79930698484E+03  0.83732407406E+03  0.46999998093E+01 0.  1.
</event>
<event>
 5   0  0.7266519E-02  0.5809705E+03  0.7818609E-02  0.9945692E-01
       -1   -1    0    0    0  501  0.00000000000E+00  0.00000000000E+00  0.77304479393E+03  0.77304479395E+03  0.50400001928E-02 0.  1.
        1   -1    0    0  501    0  0.00000000000E+00  0.00000000000E+00 -0.10915496249E+03  0.10915496260E+03  0.50400001928E-02 0. -1.
    10030    2    1    2    0    0  0.00000000000E+00  0.00000000000E+00  0.66388983144E+03  0.88219975655E+03  0.58097048304E+03 0.  0.
        4    1    3    3  502    0 -0.57311423841E+02  0.51392222776E+01  0.76429984237E+03  0.76646387576E+03  0.12699999809E+01 0.  1.
       -4    1    3    3    0  502  0.57311423841E+02 -0.51392222776E+01 -0.10041001092E+03  0.11573588079E+03  0.12699999809E+01 0. -1.
</event>
<event>
 5   0  0.7266519E-02  0.6004035E+03  0.7818609E-02  0.9904569E-01
       -1   -1    0    0    0  501  0.00000000000E+00  0.00000000000E+00  0.40030651948E+03  0.40030651951E+03  0.50400001928E-02 0. -1.
        1   -1    0    0  501    0  0.00000000000E+00  0.00000000000E+00 -0.22513021500E+03  0.22513021506E+03  0.50400001928E-02 0.  1.
    10030    2    1    2    0    0  0.00000000000E+00  0.00000000000E+00  0.17517630448E+03  0.62543673457E+03  0.60040350707E+03 0.  0.
        4    1    3    3  502    0  0.29214762611E+03 -0.69056322216E+02  0.86874879169E+02  0.31251858922E+03  0.12699999809E+01 0.  1.
       -4    1    3    3    0  502 -0.29214762611E+03  0.69056322216E+02  0.88301425310E+02  0.31291814535E+03  0.12699999809E+01 0. -1.
</event>
<event>
 5   0  0.7263385E-02  0.5944248E+03  0.7818609E-02  0.9917041E-01
        1   -1    0    0  501    0  0.00000000000E+00  0.00000000000E+00  0.50199860261E+03  0.50199860263E+03  0.50400001928E-02 0. -1.
       -1   -1    0    0    0  501  0.00000000000E+00  0.00000000000E+00 -0.17596703562E+03  0.17596703569E+03  0.50400001928E-02 0.  1.
    10030    2    1    2    0    0  0.00000000000E+00  0.00000000000E+00  0.32603156699E+03  0.67796563832E+03  0.59442478420E+03 0.  0.
        1    1    3    3  502    0  0.10300251734E+03 -0.13677516875E+03 -0.11406340272E+03  0.20573630023E+03  0.50400001928E-02 0.  1.
       -1    1    3    3    0  502 -0.10300251734E+03  0.13677516875E+03  0.44009496971E+03  0.47222933809E+03  0.50400001928E-02 0. -1.
</event>
<event>
 5   0  0.7263385E-02  0.5993380E+03  0.7818609E-02  0.9906781E-01
        1   -1    0    0  501    0  0.00000000000E+00  0.00000000000E+00  0.16996945102E+03  0.16996945109E+03  0.50400001928E-02 0.  1.
       -1   -1    0    0    0  501  0.00000000000E+00  0.00000000000E+00 -0.52833903026E+03  0.52833903028E+03  0.50400001928E-02 0. -1.
    10030    2    1    2    0    0  0.00000000000E+00  0.00000000000E+00 -0.35836957924E+03  0.69830848138E+03  0.59933795127E+03 0.  0.
        1    1    3    3  502    0 -0.14840651182E+03  0.14202799114E+03  0.75030729494E+02  0.21869168574E+03  0.50400001928E-02 0.  1.
       -1    1    3    3    0  502  0.14840651182E+03 -0.14202799114E+03 -0.43340030874E+03  0.47961679564E+03  0.50400001928E-02 0. -1.
</event>
<event>
 5   0  0.4695625E-02  0.5932995E+03  0.7818609E-02  0.9919406E-01
       -4   -1    0    0    0  501  0.00000000000E+00  0.00000000000E+00  0.15497822693E+03  0.15498343048E+03  0.12699999809E+01 0. -1.
        4   -1    0    0  501    0  0.00000000000E+00  0.00000000000E+00 -0.56781324578E+03  0.56781466605E+03  0.12699999809E+01 0.  1.
    10030    2    1    2    0    0  0.00000000000E+00  0.00000000000E+00 -0.41283501885E+03  0.72279809653E+03  0.59329953275E+03 0.  0.
        3    1    3    3  502    0  0.39471818481E+02 -0.16633761573E+03  0.88933695438E+02  0.19270557659E+03  0.10100000352E+00 0. -1.
       -3    1    3    3    0  502 -0.39471818481E+02  0.16633761573E+03 -0.50176871429E+03  0.53009251994E+03  0.10100000352E+00 0.  1.
</event>
<event>
 5   0  0.7221069E-02  0.6145871E+03  0.7818609E-02  0.9875596E-01
       -1   -1    0    0    0  501  0.00000000000E+00  0.00000000000E+00  0.10447555252E+03  0.10447555264E+03  0.50400001928E-02 0. -1.
        1   -1    0    0  501    0  0.00000000000E+00  0.00000000000E+00 -0.90384146669E+03  0.90384146670E+03  0.50400001928E-02 0.  1.
    10030    2    1    2    0    0  0.00000000000E+00  0.00000000000E+00 -0.79936591417E+03  0.10083170193E+04  0.61458713521E+03 0.  0.
        5    1    3    3  502    0  0.18604057850E+03 -0.24327331731E+03 -0.35902142707E+03  0.47192317050E+03  0.46999998093E+01 0.  1.
       -5    1    3    3    0  502 -0.18604057850E+03  0.24327331731E+03 -0.44034448709E+03  0.53639384884E+03  0.46999998093E+01 0. -1.
</event>
<event>
 5   0  0.1175861E-01  0.6019657E+03  0.7818609E-02  0.9901336E-01
        2   -1    0    0  501    0  0.00000000000E+00  0.00000000000E+00  0.56702652890E+03  0.56702652890E+03  0.25500000920E-02 0.  1.
       -2   -1    0    0    0  501  0.00000000000E+00  0.00000000000E+00 -0.15976441668E+03  0.15976441670E+03  0.25500000920E-02 0. -1.
    10030    2    1    2    0    0  0.00000000000E+00  0.00000000000E+00  0.40726211222E+03  0.72679094560E+03  0.60196565563E+03 0.  0.
        3    1    3    3  502    0 -0.52907700993E+02  0.64761820566E+02  0.55271832354E+03  0.55900883142E+03  0.10100000352E+00 0.  1.
       -3    1    3    3    0  502  0.52907700993E+02 -0.64761820566E+02 -0.14545621132E+03  0.16778211418E+03  0.10100000352E+00 0. -1.
</event>
<event>
 5   0  0.7424930E-02  0.5812645E+03  0.7818609E-02  0.9945057E-01
       -1   -1    0    0    0  501  0.00000000000E+00  0.00000000000E+00  0.16715525609E+03  0.16715525617E+03  0.50400001928E-02 0. -1.
        1   -1    0    0  501    0  0.00000000000E+00  0.00000000000E+00 -0.50532124045E+03  0.50532124048E+03  0.50400001928E-02 0.  1.
    10030    2    1    2    0    0  0.00000000000E+00  0.00000000000E+00 -0.33816598436E+03  0.67247649665E+03  0.58126448847E+03 0.  0.
        3    1    3    3  502    0 -0.17783851639E+03  0.22111306646E+03 -0.24179028230E+03  0.37280031772E+03  0.10100000352E+00 0. -1.
       -3    1    3    3    0  502  0.17783851639E+03 -0.22111306646E+03 -0.96375702058E+02  0.29967617893E+03  0.10100000352E+00 0.  1.
</event>
<event>
 5   0  0.4695625E-02  0.6040284E+03  0.7818609E-02  0.9897083E-01
        3   -1    0    0  501    0  0.00000000000E+00  0.00000000000E+00  0.18021848707E+03  0.18021851537E+03  0.10100000352E+00 0. -1.
       -3   -1    0    0    0  501  0.00000000000E+00  0.00000000000E+00 -0.50612211805E+03  0.50612212813E+03  0.10100000352E+00 0.  1.
    10030    2    1    2    0    0  0.00000000000E+00  0.00000000000E+00 -0.32590363098E+03  0.68634064350E+03  0.60402839523E+03 0.  0.
        5    1    3    3  502    0  0.30062872889E+03 -0.25910005547E+02 -0.14943425768E+03  0.33675161231E+03  0.46999998093E+01 0. -1.
       -5    1    3    3    0  502 -0.30062872889E+03  0.25910005547E+02 -0.17646937330E+03  0.34958903120E+03  0.46999998093E+01 0.  1.
</event>
<event>
 5   0  0.4695625E-02  0.6113386E+03  0.7818609E-02  0.9882157E-01
       -4   -1    0    0    0  501  0.00000000000E+00  0.00000000000E+00  0.87327581886E+03  0.87327674233E+03  0.12699999809E+01 0.  1.
        4   -1    0    0  501    0  0.00000000000E+00  0.00000000000E+00 -0.10698746003E+03  0.10699499756E+03  0.12699999809E+01 0. -1.
    10030    2    1    2    0    0  0.00000000000E+00  0.00000000000E+00  0.76628835883E+03  0.98027173990E+03  0.61133856019E+03 0.  0.
        5    1    3    3  502    0 -0.21666860808E+03 -0.20309060646E+03  0.26728716044E+03  0.39956926346E+03  0.46999998093E+01 0.  1.
       -5    1    3    3    0  502  0.21666860808E+03  0.20309060646E+03  0.49900119838E+03  0.58070247644E+03  0.46999998093E+01 0. -1.
</event>
<event>
 5   0  0.1206238E-01  0.5868159E+03  0.7818609E-02  0.9933143E-01
       -2   -1    0    0    0  501  0.00000000000E+00  0.00000000000E+00  0.46269497506E+02  0.46269497576E+02  0.25500000920E-02 0.  1.
        2   -1    0    0  501    0  0.00000000000E+00  0.00000000000E+00 -0.18605827513E+04  0.18605827513E+04  0.25500000920E-02 0. -1.
    10030    2    1    2    0    0  0.00000000000E+00  0.00000000000E+00 -0.18143132538E+04  0.19068522489E+04  0.58681591335E+03 0.  0.
        5    1    3    3  502    0  0.20594748777E+03  0.20893006292E+03 -0.90719398146E+03  0.95346166620E+03  0.46999998093E+01 0. -1.
       -5    1    3    3    0  502 -0.20594748777E+03 -0.20893006292E+03 -0.90711927237E+03  0.95339058272E+03  0.46999998093E+01 0.  1.
</event>
<event>
 5   0  0.1175861E-01  0.5178686E+03  0.7818609E-02  0.1009217E+00
       -2   -1    0    0    0  501  0.00000000000E+00  0.00000000000E+00  0.10630570244E+03  0.10630570247E+03  0.25500000920E-02 0.  1.
        2   -1    0    0  501    0  0.00000000000E+00  0.00000000000E+00 -0.63069959964E+03  0.63069959965E+03  0.25500000920E-02 0. -1.
    10030    2    1    2    0    0  0.00000000000E+00  0.00000000000E+00 -0.52439389720E+03  0.73700530211E+03  0.51786857012E+03 0.  0.
        3    1    3    3  502    0 -0.21134366649E+03  0.12033178599E+03 -0.13569593527E+03  0.27849466985E+03  0.10100000352E+00 0. -1.
       -3    1    3    3    0  502  0.21134366649E+03 -0.12033178599E+03 -0.38869796193E+03  0.45851063226E+03  0.10100000352E+00 0.  1.
</event>
<event>
 5   0  0.7263385E-02  0.6006491E+03  0.7818609E-02  0.9904060E-01
       -1   -1    0    0    0  501  0.00000000000E+00  0.00000000000E+00  0.25945083166E+03  0.25945083170E+03  0.50400001928E-02 0. -1.
        1   -1    0    0  501    0  0.00000000000E+00  0.00000000000E+00 -0.34763747241E+03  0.34763747244E+03  0.50400001928E-02 0.  1.
    10030    2    1    2    0    0  0.00000000000E+00  0.00000000000E+00 -0.88186640750E+02  0.60708830415E+03  0.60064908676E+03 0.  0.
        1    1    3    3  502    0  0.14907658394E+03  0.43591042031E+02  0.21570474230E+03  0.26580546025E+03  0.50400001928E-02 0. -1.
       -1    1    3    3    0  502 -0.14907658394E+03 -0.43591042031E+02 -0.30389138305E+03  0.34128284390E+03  0.50400001928E-02 0.  1.
</event>
<event>
 5   0  0.1146468E-01  0.5962284E+03  0.7818609E-02  0.9913262E-01
       -2   -1    0    0    0  501  0.00000000000E+00  0.00000000000E+00  0.83681699017E+02  0.83681699056E+02  0.25500000920E-02 0. -1.
        2   -1    0    0  501    0  0.00000000000E+00  0.00000000000E+00 -0.10620253943E+04  0.10620253943E+04  0.25500000920E-02 0.  1.
    10030    2    1    2    0    0  0.00000000000E+00  0.00000000000E+00 -0.97834369526E+03  0.11457070933E+04  0.59622844419E+03 0.  0.
        4    1    3    3  502    0 -0.17408910002E+03 -0.23546147490E+03 -0.38181431149E+03  0.48117865941E+03  0.12699999809E+01 0.  1.
       -4    1    3    3    0  502  0.17408910002E+03  0.23546147490E+03 -0.59652938377E+03  0.66452843393E+03  0.12699999809E+01 0. -1.
</event>
<event>
 5   0  0.1166419E-01  0.6040331E+03  0.7818609E-02  0.9897074E-01
       -2   -1    0    0    0  501  0.00000000000E+00  0.00000000000E+00  0.76168321955E+02  0.76168321998E+02  0.25500000920E-02 0.  1.
        2   -1    0    0  501    0  0.00000000000E+00  0.00000000000E+00 -0.11975319411E+04  0.11975319411E+04  0.25500000920E-02 0. -1.
    10030    2    1    2    0    0  0.00000000000E+00  0.00000000000E+00 -0.11213636191E+04  0.12737002631E+04  0.60403310661E+03 0.  0.
        1    1    3    3  502    0  0.59399520266E+02 -0.78930069909E+02 -0.11625028141E+04  0.11666923553E+04  0.50400001928E-02 0. -1.
       -1    1    3    3    0  502 -0.59399520266E+02  0.78930069909E+02  0.41139195008E+02  0.10700790782E+03  0.50400001928E-02 0.  1.
</event>
<event>
 5   0  0.1175861E-01  0.6080335E+03  0.7818609E-02  0.9888878E-01
       -2   -1    0    0    0  501  0.00000000000E+00  0.00000000000E+00  0.14710642948E+03  0.14710642950E+03  0.25500000920E-02 0. -1.
        2   -1    0    0  501    0  0.00000000000E+00  0.00000000000E+00 -0.62829463188E+03  0.62829463189E+03  0.25500000920E-02 0.  1.
    10030    2    1    2    0    0  0.00000000000E+00  0.00000000000E+00 -0.48118820240E+03  0.77540106139E+03  0.60803348581E+03 0.  0.
        3    1    3    3  502    0  0.21713622470E+03 -0.42022020435E+02 -0.50660799010E+03  0.55277993461E+03  0.10100000352E+00 0.  1.
       -3    1    3    3    0  502 -0.21713622470E+03  0.42022020435E+02  0.25419787693E+02  0.22262112677E+03  0.10100000352E+00 0. -1.
</event>
<event>
 5   0  0.7221069E-02  0.6087229E+03  0.7818609E-02  0.9887472E-01
       -1   -1    0    0    0  501  0.00000000000E+00  0.00000000000E+00  0.24250190754E+03  0.24250190759E+03  0.50400001928E-02 0.  1.
        1   -1    0    0  501    0  0.00000000000E+00  0.00000000000E+00 -0.38200064651E+03  0.38200064655E+03  0.50400001928E-02 0. -1.
    10030    2    1    2    0    0  0.00000000000E+00  0.00000000000E+00 -0.13949873898E+03  0.62450255414E+03  0.60872287779E+03 0.  0.
        5    1    3    3  502    0  0.12422170036E+03  0.26550201319E+03  0.14172388302E+02  0.29350518979E+03  0.46999998093E+01 0. -1.
       -5    1    3    3    0  502 -0.12422170036E+03 -0.26550201319E+03 -0.15367112728E+03  0.33099736435E+03  0.46999998093E+01 0.  1.
</event>
<event>
 5   0  0.7123340E-02  0.6079578E+03  0.7818609E-02  0.9889032E-01
        1   -1    0    0  501    0  0.00000000000E+00  0.00000000000E+00  0.48491577031E+03  0.48491577034E+03  0.50400001928E-02 0.  1.
       -1   -1    0    0    0  501  0.00000000000E+00  0.00000000000E+00 -0.19055509427E+03  0.19055509434E+03  0.50400001928E-02 0. -1.
    10030    2    1    2    0    0  0.00000000000E+00  0.00000000000E+00  0.29436067604E+03  0.67547086468E+03  0.60795779577E+03 0.  0.
        2    1    3    3  502    0  0.30413374236E+02  0.28789986405E+03  0.25016603662E+03  0.38261514729E+03  0.25500000920E-02 0. -1.
       -2    1    3    3    0  502 -0.30413374236E+02 -0.28789986405E+03  0.44194639421E+02  0.29285571739E+03  0.25500000920E-02 0.  1.
</event>
<event>
 5   0  0.7263385E-02  0.6008414E+03  0.7818609E-02  0.9903662E-01
       -1   -1    0    0    0  501  0.00000000000E+00  0.00000000000E+00  0.12275640831E+03  0.12275640842E+03  0.50400001928E-02 0. -1.
        1   -1    0    0  501    0  0.00000000000E+00  0.00000000000E+00 -0.73521707190E+03  0.73521707192E+03  0.50400001928E-02 0.  1.
    10030    2    1    2    0    0  0.00000000000E+00  0.00000000000E+00 -0.61246066359E+03  0.85797348033E+03  0.60084143375E+03 0.  0.
        1    1    3    3  502    0 -0.10369315457E+03 -0.38422945511E+02  0.92636694272E+02  0.14425723621E+03  0.50400001928E-02 0. -1.
       -1    1    3    3    0  502  0.10369315457E+03  0.38422945511E+02 -0.70509735786E+03  0.71371624413E+03  0.50400001928E-02 0.  1.
</event>
<event>
 5   0  0.1219020E-01  0.6025032E+03  0.7818609E-02  0.9900226E-01
       -2   -1    0    0    0  501  0.00000000000E+00  0.00000000000E+00  0.70884586526E+02  0.70884586572E+02  0.25500000920E-02 0. -1.
        2   -1    0    0  501    0  0.00000000000E+00  0.00000000000E+00 -0.12802858394E+04  0.12802858394E+04  0.25500000920E-02 0.  1.
    10030    2    1    2    0    0  0.00000000000E+00  0.00000000000E+00 -0.12094012529E+04  0.13511704260E+04  0.60250321956E+03 0.  0.
        2    1    3    3  502    0 -0.22321534931E+03 -0.11951359910E+03 -0.23864256012E+03  0.34793514345E+03  0.25500000920E-02 0. -1.
       -2    1    3    3    0  502  0.22321534931E+03  0.11951359910E+03 -0.97075869277E+03  0.10032352825E+04  0.25500000920E-02 0.  1.
</event>
<event>
 5   0  0.1146468E-01  0.6044246E+03  0.7818609E-02  0.9896269E-01
        2   -1    0    0  501    0  0.00000000000E+00  0.00000000000E+00  0.78883781505E+03  0.78883781506E+03  0.25500000920E-02 0. -1.
       -2   -1    0    0    0  501  0.00000000000E+00  0.00000000000E+00 -0.11578081045E+03  0.11578081048E+03  0.25500000920E-02 0.  1.
    10030    2    1    2    0    0  0.00000000000E+00  0.00000000000E+00  0.67305700460E+03  0.90461862554E+03  0.60442462411E+03 0.  0.
        4    1    3    3  502    0 -0.26198595357E+03 -0.79510988884E+02  0.14502590824E+03  0.30982699073E+03  0.12699999809E+01 0.  1.
       -4    1    3    3    0  502  0.26198595357E+03  0.79510988884E+02  0.52803109636E+03  0.59479163481E+03  0.12699999809E+01 0. -1.
</event>
<event>
 5   0  0.7123340E-02  0.6215278E+03  0.7818609E-02  0.9861723E-01
       -1   -1    0    0    0  501  0.00000000000E+00  0.00000000000E+00  0.14041672004E+03  0.14041672013E+03  0.50400001928E-02 0.  1.
        1   -1    0    0  501    0  0.00000000000E+00  0.00000000000E+00 -0.68776852240E+03  0.68776852242E+03  0.50400001928E-02 0. -1.
    10030    2    1    2    0    0  0.00000000000E+00  0.00000000000E+00 -0.54735180236E+03  0.82818524255E+03  0.62152779538E+03 0.  0.
        2    1    3    3  502    0 -0.47373304301E+02 -0.27571892555E+03 -0.45397757934E+03  0.53325490942E+03  0.25500000920E-02 0. -1.
       -2    1    3    3    0  502  0.47373304301E+02  0.27571892555E+03 -0.93374223017E+02  0.29493033313E+03  0.25500000920E-02 0.  1.
</event>
<event>
 5   0  0.4695625E-02  0.4839325E+03  0.7818609E-02  0.1018060E+00
        3   -1    0    0  501    0  0.00000000000E+00  0.00000000000E+00  0.66288796411E+03  0.66288797180E+03  0.10100000352E+00 0.  1.
       -3   -1    0    0    0  501  0.00000000000E+00  0.00000000000E+00 -0.88322086224E+02  0.88322143973E+02  0.10100000352E+00 0. -1.
    10030    2    1    2    0    0  0.00000000000E+00  0.00000000000E+00  0.57456587788E+03  0.75121011577E+03  0.48393252630E+03 0.  0.
        3    1    3    3  502    0 -0.22006931269E+03  0.99125629700E+02  0.31377550842E+03  0.39586799913E+03  0.10100000352E+00 0.  1.
       -3    1    3    3    0  502  0.22006931269E+03 -0.99125629700E+02  0.26079036947E+03  0.35534211664E+03  0.10100000352E+00 0. -1.
</event>
<event>
 5   0  0.7221069E-02  0.6083712E+03  0.7818609E-02  0.9888189E-01
        1   -1    0    0  501    0  0.00000000000E+00  0.00000000000E+00  0.11849207631E+04  0.11849207631E+04  0.50400001928E-02 0.  1.
       -1   -1    0    0    0  501  0.00000000000E+00  0.00000000000E+00 -0.78088655297E+02  0.78088655459E+02  0.50400001928E-02 0. -1.
    10030    2    1    2    0    0  0.00000000000E+00  0.00000000000E+00  0.11068321078E+04  0.12630094186E+04  0.60837116676E+03 0.  0.
        5    1    3    3  502    0  0.10467942213E+02  0.12482975928E+03 -0.21971187543E+02  0.12726692302E+03  0.46999998093E+01 0. -1.
       -5    1    3    3    0  502 -0.10467942213E+02 -0.12482975928E+03  0.11288032954E+04  0.11357424956E+04  0.46999998093E+01 0.  1.
</event>
<event>
 5   0  0.7123340E-02  0.5912726E+03  0.7818609E-02  0.9923680E-01
        1   -1    0    0  501    0  0.00000000000E+00  0.00000000000E+00  0.26846268151E+03  0.26846268156E+03  0.50400001928E-02 0. -1.
       -1   -1    0    0    0  501  0.00000000000E+00  0.00000000000E+00 -0.32556036244E+03  0.32556036248E+03  0.50400001928E-02 0.  1.
    10030    2    1    2    0    0  0.00000000000E+00  0.00000000000E+00 -0.57097680929E+02  0.59402304403E+03  0.59127255278E+03 0.  0.
        2    1    3    3  502    0 -0.11846755662E+02 -0.28029188539E+03 -0.12223994161E+03  0.30601713998E+03  0.25500000920E-02 0.  1.
       -2    1    3    3    0  502  0.11846755662E+02  0.28029188539E+03  0.65142260679E+02  0.28800590405E+03  0.25500000920E-02 0. -1.
</event>
<event>
 5   0  0.4695625E-02  0.5514324E+03  0.7818609E-02  0.1001163E+00
        3   -1    0    0  501    0  0.00000000000E+00  0.00000000000E+00  0.15817483733E+03  0.15817486958E+03  0.10100000352E+00 0. -1.
       -3   -1    0    0    0  501  0.00000000000E+00  0.00000000000E+00 -0.48060367159E+03  0.48060368220E+03  0.10100000352E+00 0.  1.
    10030    2    1    2    0    0  0.00000000000E+00  0.00000000000E+00 -0.32242883426E+03  0.63877855178E+03  0.55143239391E+03 0.  0.
        4    1    3    3  502    0  0.17851569054E+03  0.16034357291E+03 -0.39113195309E+01  0.23998921739E+03  0.12699999809E+01 0. -1.
       -4    1    3    3    0  502 -0.17851569054E+03 -0.16034357291E+03 -0.31851751473E+03  0.39878933440E+03  0.12699999809E+01 0.  1.
</event>
<event>
 5   0  0.1219020E-01  0.4894148E+03  0.7818609E-02  0.1016579E+00
        2   -1    0    0  501    0  0.00000000000E+00  0.00000000000E+00  0.76341180079E+03  0.76341180079E+03  0.25500000920E-02 0.  1.
       -2   -1    0    0    0  501  0.00000000000E+00  0.00000000000E+00 -0.78439605156E+02  0.78439605198E+02  0.25500000920E-02 0. -1.
    10030    2    1    2    0    0  0.00000000000E+00  0.00000000000E+00  0.68497219563E+03  0.84185140599E+03  0.48941483527E+03 0.  0.
        2    1    3    3  502    0 -0.22520499774E+03  0.52443744729E+02  0.48024687848E+03  0.53301472932E+03  0.25500000920E-02 0.  1.
       -2    1    3    3    0  502  0.22520499774E+03 -0.52443744729E+02  0.20472531715E+03  0.30883667667E+03  0.25500000920E-02 0. -1.
</event>
<event>
 5   0  0.1175861E-01  0.5887995E+03  0.7818609E-02  0.9928920E-01
        2   -1    0    0  501    0  0.00000000000E+00  0.00000000000E+00  0.94639175304E+03  0.94639175305E+03  0.25500000920E-02 0. -1.
       -2   -1    0    0    0  501  0.00000000000E+00  0.00000000000E+00 -0.91580702244E+02  0.91580702280E+02  0.25500000920E-02 0.  1.
    10030    2    1    2    0    0  0.00000000000E+00  0.00000000000E+00  0.85481105080E+03  0.10379724553E+04  0.58879952908E+03 0.  0.
        3    1    3    3  502    0 -0.48828992492E+01 -0.15378136461E+03 -0.15064680073E+02  0.15459464931E+03  0.10100000352E+00 0.  1.
       -3    1    3    3    0  502  0.48828992492E+01  0.15378136461E+03  0.86987573087E+03  0.88337780602E+03  0.10100000352E+00 0. -1.
</event>
<event>
 5   0  0.1219020E-01  0.5973893E+03  0.7818609E-02  0.9910837E-01
       -2   -1    0    0    0  501  0.00000000000E+00  0.00000000000E+00  0.50566281520E+02  0.50566281584E+02  0.25500000920E-02 0. -1.
        2   -1    0    0  501    0  0.00000000000E+00  0.00000000000E+00 -0.17643869029E+04  0.17643869029E+04  0.25500000920E-02 0.  1.
    10030    2    1    2    0    0  0.00000000000E+00  0.00000000000E+00 -0.17138206213E+04  0.18149531844E+04  0.59738926974E+03 0.  0.
        2    1    3    3  502    0 -0.47755331281E+02  0.22914071738E+03 -0.14206673010E+04  0.14398199958E+04  0.25500000920E-02 0.  1.
       -2    1    3    3    0  502  0.47755331281E+02 -0.22914071738E+03 -0.29315332033E+03  0.37513318868E+03  0.25500000920E-02 0. -1.
</event>
<event>
 5   0  0.7424930E-02  0.5970801E+03  0.7818609E-02  0.9911483E-01
        1   -1    0    0  501    0  0.00000000000E+00  0.00000000000E+00  0.30860474035E+03  0.30860474039E+03  0.50400001928E-02 0. -1.
       -1   -1    0    0    0  501  0.00000000000E+00  0.00000000000E+00 -0.28880357071E+03  0.28880357075E+03  0.50400001928E-02 0.  1.
    10030    2    1    2    0    0  0.00000000000E+00  0.00000000000E+00  0.19801169640E+02  0.59740831114E+03  0.59708006490E+03 0.  0.
        3    1    3    3  502    0  0.17062695306E+01 -0.21788915405E+02  0.30780320114E+03  0.30857817328E+03  0.10100000352E+00 0. -1.
       -3    1    3    3    0  502 -0.17062695306E+01  0.21788915405E+02 -0.28800203150E+03  0.28883013787E+03  0.10100000352E+00 0.  1.
</event>
<event>
 5   0  0.7221069E-02  0.6008233E+03  0.7818609E-02  0.9903700E-01
        1   -1    0    0  501    0  0.00000000000E+00  0.00000000000E+00  0.30308152748E+03  0.30308152752E+03  0.50400001928E-02 0. -1.
       -1   -1    0    0    0  501  0.00000000000E+00  0.00000000000E+00 -0.29776524233E+03  0.29776524237E+03  0.50400001928E-02 0.  1.
    10030    2    1    2    0    0  0.00000000000E+00  0.00000000000E+00  0.53162851458E+01  0.60084676989E+03  0.60082325022E+03 0.  0.
        5    1    3    3  502    0  0.26419936330E+03  0.37948169532E+02  0.14044483879E+03  0.30164252001E+03  0.46999998093E+01 0. -1.
       -5    1    3    3    0  502 -0.26419936330E+03 -0.37948169532E+02 -0.13512855364E+03  0.29920424988E+03  0.46999998093E+01 0.  1.
</event>
<event>
 5   0  0.1206238E-01  0.4961929E+03  0.7818609E-02  0.1014777E+00
        2   -1    0    0  501    0  0.00000000000E+00  0.00000000000E+00  0.82134932323E+03  0.82134932324E+03  0.25500000920E-02 0.  1.
       -2   -1    0    0    0  501  0.00000000000E+00  0.00000000000E+00 -0.74939906985E+02  0.74939907029E+02  0.25500000920E-02 0. -1.
    10030    2    1    2    0    0  0.00000000000E+00  0.00000000000E+00  0.74640941625E+03  0.89628923027E+03  0.49619287341E+03 0.  0.
        5    1    3    3  502    0  0.23347876447E+02 -0.11040642664E+03 -0.25806906192E+02  0.11585675976E+03  0.46999998093E+01 0. -1.
       -5    1    3    3    0  502 -0.23347876447E+02  0.11040642664E+03  0.77221632244E+03  0.78043247050E+03  0.46999998093E+01 0.  1.
</event>
<event>
 5   0  0.7221069E-02  0.6046797E+03  0.7818609E-02  0.9895744E-01
        1   -1    0    0  501    0  0.00000000000E+00  0.00000000000E+00  0.51448521593E+03  0.51448521595E+03  0.50400001928E-02 0.  1.
       -1   -1    0    0    0  501  0.00000000000E+00  0.00000000000E+00 -0.17767156159E+03  0.17767156166E+03  0.50400001928E-02 0. -1.
    10030    2    1    2    0    0  0.00000000000E+00  0.00000000000E+00  0.33681365434E+03  0.69215677761E+03  0.60467972270E+03 0.  0.
        5    1    3    3  502    0 -0.27865571902E+03 -0.75871900187E+02  0.27067206755E+03  0.39584215684E+03  0.46999998093E+01 0.  1.
       -5    1    3    3    0  502  0.27865571902E+03  0.75871900187E+02  0.66141586785E+02  0.29631462077E+03  0.46999998093E+01 0. -1.
</event>
<event>
 5   0  0.7123340E-02  0.5997360E+03  0.7818609E-02  0.9905954E-01
        1   -1    0    0  501    0  0.00000000000E+00  0.00000000000E+00  0.18014900090E+03  0.18014900097E+03  0.50400001928E-02 0.  1.
       -1   -1    0    0    0  501  0.00000000000E+00  0.00000000000E+00 -0.49914684863E+03  0.49914684866E+03  0.50400001928E-02 0. -1.
    10030    2    1    2    0    0  0.00000000000E+00  0.00000000000E+00 -0.31899784774E+03  0.67929584963E+03  0.59973596229E+03 0.  0.
        2    1    3    3  502    0 -0.26930394303E+03  0.96903520508E+02 -0.26084430324E+03  0.38723979206E+03  0.25500000920E-02 0. -1.
       -2    1    3    3    0  502  0.26930394303E+03 -0.96903520508E+02 -0.58153544495E+02  0.29205605757E+03  0.25500000920E-02 0.  1.
</event>
<event>
 5   0  0.1206238E-01  0.5919341E+03  0.7818609E-02  0.9922283E-01
       -2   -1    0    0    0  501  0.00000000000E+00  0.00000000000E+00  0.13068479693E+03  0.13068479696E+03  0.25500000920E-02 0. -1.
        2   -1    0    0  501    0  0.00000000000E+00  0.00000000000E+00 -0.67028838829E+03  0.67028838830E+03  0.25500000920E-02 0.  1.
    10030    2    1    2    0    0  0.00000000000E+00  0.00000000000E+00 -0.53960359136E+03  0.80097318525E+03  0.59193412445E+03 0.  0.
        5    1    3    3  502    0  0.15301613087E+03 -0.56720616555E+02 -0.60384865693E+03  0.62552894027E+03  0.46999998093E+01 0.  1.
       -5    1    3    3    0  502 -0.15301613087E+03  0.56720616555E+02  0.64245065564E+02  0.17544424498E+03  0.46999998093E+01 0. -1.
</event>
<event>
 5   0  0.7263385E-02  0.6024796E+03  0.7818609E-02  0.9900275E-01
        1   -1    0    0  501    0  0.00000000000E+00  0.00000000000E+00  0.32621587185E+03  0.32621587188E+03  0.50400001928E-02 0. -1.
       -1   -1    0    0    0  501  0.00000000000E+00  0.00000000000E+00 -0.27817597873E+03  0.27817597878E+03  0.50400001928E-02 0.  1.
    10030    2    1    2    0    0  0.00000000000E+00  0.00000000000E+00  0.48039893112E+02  0.60439185066E+03  0.60247960780E+03 0.  0.
        1    1    3    3  502    0  0.10995847276E+03  0.25936077265E+03  0.13106637926E+03  0.31070447683E+03  0.50400001928E-02 0. -1.
       -1    1    3    3    0  502 -0.10995847276E+03 -0.25936077265E+03 -0.83026486150E+02  0.29368737384E+03  0.50400001928E-02 0.  1.
</event>
<event>
 5   0  0.1175861E-01  0.5990231E+03  0.7818609E-02  0.9907435E-01
        2   -1    0    0  501    0  0.00000000000E+00  0.00000000000E+00  0.18352729277E+03  0.18352729278E+03  0.25500000920E-02 0. -1.
       -2   -1    0    0    0  501  0.00000000000E+00  0.00000000000E+00 -0.48879477533E+03  0.48879477533E+03  0.25500000920E-02 0.  1.
    10030    2    1    2    0    0  0.00000000000E+00  0.00000000000E+00 -0.30526748256E+03  0.67232206812E+03  0.59902314427E+03 0.  0.
        3    1    3    3  502    0  0.66494643466E+01 -0.82561679205E+02 -0.47568461026E+03  0.48284211176E+03  0.10100000352E+00 0.  1.
       -3    1    3    3    0  502 -0.66494643466E+01  0.82561679205E+02  0.17041712770E+03  0.18947995636E+03  0.10100000352E+00 0. -1.
</event>
<event>
 5   0  0.1166419E-01  0.5883322E+03  0.7818609E-02  0.9929913E-01
        2   -1    0    0  501    0  0.00000000000E+00  0.00000000000E+00  0.21185213600E+03  0.21185213601E+03  0.25500000920E-02 0.  1.
       -2   -1    0    0    0  501  0.00000000000E+00  0.00000000000E+00 -0.40846272243E+03  0.40846272244E+03  0.25500000920E-02 0. -1.
    10030    2    1    2    0    0  0.00000000000E+00  0.00000000000E+00 -0.19661058643E+03  0.62031485845E+03  0.58833221985E+03 0.  0.
        1    1    3    3  502    0 -0.21176080573E+01  0.20744210435E+03  0.12159162845E+03  0.24046046464E+03  0.50400001928E-02 0.  1.
       -1    1    3    3    0  502  0.21176080573E+01 -0.20744210435E+03 -0.31820221488E+03  0.37985439381E+03  0.50400001928E-02 0. -1.
</event>
<event>
 5   0  0.1175861E-01  0.6016260E+03  0.7818609E-02  0.9902038E-01
       -2   -1    0    0    0  501  0.00000000000E+00  0.00000000000E+00  0.36105398327E+03  0.36105398328E+03  0.25500000920E-02 0. -1.
        2   -1    0    0  501    0  0.00000000000E+00  0.00000000000E+00 -0.25062307931E+03  0.25062307933E+03  0.25500000920E-02 0.  1.
    10030    2    1    2    0    0  0.00000000000E+00  0.00000000000E+00  0.11043090396E+03  0.61167706261E+03  0.60162600041E+03 0.  0.
        3    1    3    3  502    0  0.21227504573E+03  0.17523194209E+03  0.17857476985E+03  0.32810956583E+03  0.10100000352E+00 0. -1.
       -3    1    3    3    0  502 -0.21227504573E+03 -0.17523194209E+03 -0.68143865888E+02  0.28356749677E+03  0.10100000352E+00 0.  1.
</event>
<event>
 5   0  0.4695625E-02  0.5802551E+03  0.7818609E-02  0.9947239E-01
       -4   -1    0    0    0  501  0.00000000000E+00  0.00000000000E+00  0.11570301506E+03  0.11570998485E+03  0.12699999809E+01 0.  1.
        4   -1    0    0  501    0  0.00000000000E+00  0.00000000000E+00 -0.72747098995E+03  0.72747209852E+03  0.12699999809E+01 0. -1.
    10030    2    1    2    0    0  0.00000000000E+00  0.00000000000E+00 -0.61176797489E+03  0.84318208337E+03  0.58025509099E+03 0.  0.
        3    1    3    3  502    0 -0.24534908040E+03 -0.15483077918E+03 -0.30255731364E+03  0.41917738449E+03  0.10100000352E+00 0. -1.
       -3    1    3    3    0  502  0.24534908040E+03  0.15483077918E+03 -0.30921066125E+03  0.42400469887E+03  0.10100000352E+00 0.  1.
</event>
<event>
 5   0  0.1146468E-01  0.5980713E+03  0.7818609E-02  0.9909416E-01
       -2   -1    0    0    0  501  0.00000000000E+00  0.00000000000E+00  0.11409110658E+03  0.11409110661E+03  0.25500000920E-02 0.  1.
        2   -1    0    0  501    0  0.00000000000E+00  0.00000000000E+00 -0.78377980755E+03  0.78377980755E+03  0.25500000920E-02 0. -1.
    10030    2    1    2    0    0  0.00000000000E+00  0.00000000000E+00 -0.66968870096E+03  0.89787091416E+03  0.59807125186E+03 0.  0.
        4    1    3    3  502    0  0.85677509580E+02  0.25397158684E+03 -0.13579912692E+03  0.30047498788E+03  0.12699999809E+01 0.  1.
       -4    1    3    3    0  502 -0.85677509580E+02 -0.25397158684E+03 -0.53388957404E+03  0.59739592628E+03  0.12699999809E+01 0. -1.
</event>
<event>
 5   0  0.7221069E-02  0.6031812E+03  0.7818609E-02  0.9898828E-01
        1   -1    0    0  501    0  0.00000000000E+00  0.00000000000E+00  0.86852912126E+03  0.86852912128E+03  0.50400001928E-02 0. -1.
       -1   -1    0    0    0  501  0.00000000000E+00  0.00000000000E+00 -0.10472521050E+03  0.10472521062E+03  0.50400001928E-02 0.  1.
    10030    2    1    2    0    0  0.00000000000E+00  0.00000000000E+00  0.76380391076E+03  0.97325433190E+03  0.60318121693E+03 0.  0.
        5    1    3    3  502    0 -0.48540473614E+02 -0.86645621172E+02  0.84132390472E+03  0.84717863754E+03  0.46999998093E+01 0. -1.
       -5    1    3    3    0  502  0.48540473614E+02  0.86645621172E+02 -0.77519993957E+02  0.12607569436E+03  0.46999998093E+01 0.  1.
</event>
<event>
 5   0  0.4695625E-02  0.5926884E+03  0.7818609E-02  0.9920693E-01
       -4   -1    0    0    0  501  0.00000000000E+00  0.00000000000E+00  0.92592295740E+02  0.92601005018E+02  0.12699999809E+01 0. -1.
        4   -1    0    0  501    0  0.00000000000E+00  0.00000000000E+00 -0.94840391663E+03  0.94840476695E+03  0.12699999809E+01 0.  1.
    10030    2    1    2    0    0  0.00000000000E+00  0.00000000000E+00 -0.85581162089E+03  0.10410057720E+04  0.59268835557E+03 0.  0.
        4    1    3    3  502    0  0.88195201868E+02  0.10160344634E+03  0.35855866001E+02  0.13924406619E+03  0.12699999809E+01 0. -1.
       -4    1    3    3    0  502 -0.88195201868E+02 -0.10160344634E+03 -0.89166748689E+03  0.90176170578E+03  0.12699999809E+01 0.  1.
</event>
<event>
 5   0  0.4695625E-02  0.5963303E+03  0.7818609E-02  0.9913049E-01
        3   -1    0    0  501    0  0.00000000000E+00  0.00000000000E+00  0.51688493443E+03  0.51688494430E+03  0.10100000352E+00 0. -1.
       -3   -1    0    0    0  501  0.00000000000E+00  0.00000000000E+00 -0.17199660043E+03  0.17199663008E+03  0.10100000352E+00 0.  1.
    10030    2    1    2    0    0  0.00000000000E+00  0.00000000000E+00  0.34488833400E+03  0.68888157438E+03  0.59633032842E+03 0.  0.
        1    1    3    3  502    0 -0.12524507841E+03  0.20613262545E+03  0.37493575324E+03  0.44581813335E+03  0.50400001928E-02 0. -1.
       -1    1    3    3    0  502  0.12524507841E+03 -0.20613262545E+03 -0.30047419234E+02  0.24306344104E+03  0.50400001928E-02 0.  1.
</event>
<event>
 5   0  0.4695625E-02  0.6119522E+03  0.7818609E-02  0.9880915E-01
        3   -1    0    0  501    0  0.00000000000E+00  0.00000000000E+00  0.44841159310E+03  0.44841160448E+03  0.10100000352E+00 0. -1.
       -3   -1    0    0    0  501  0.00000000000E+00  0.00000000000E+00 -0.20878445742E+03  0.20878448185E+03  0.10100000352E+00 0.  1.
    10030    2    1    2    0    0  0.00000000000E+00  0.00000000000E+00  0.23962713568E+03  0.65719608633E+03  0.61195222994E+03 0.  0.
        1    1    3    3  502    0 -0.63039525848E+02 -0.29120341550E+03  0.19458875235E+03  0.35586260492E+03  0.50400001928E-02 0. -1.
       -1    1    3    3    0  502  0.63039525848E+02  0.29120341550E+03  0.45038383330E+02  0.30133348140E+03  0.50400001928E-02 0.  1.
</event>
<event>
 5   0  0.4695625E-02  0.6288077E+03  0.7818609E-02  0.9847378E-01
       -3   -1    0    0    0  501  0.00000000000E+00  0.00000000000E+00  0.98729686345E+02  0.98729738006E+02  0.10100000352E+00 0. -1.
        3   -1    0    0  501    0  0.00000000000E+00  0.00000000000E+00 -0.10012161752E+04  0.10012161803E+04  0.10100000352E+00 0.  1.
    10030    2    1    2    0    0  0.00000000000E+00  0.00000000000E+00 -0.90248648887E+03  0.10999459183E+04  0.62880772946E+03 0.  0.
        2    1    3    3  502    0  0.10464603810E+03 -0.25971592045E+03 -0.20111403531E+03  0.34474629488E+03  0.25500000920E-02 0. -1.
       -2    1    3    3    0  502 -0.10464603810E+03  0.25971592045E+03 -0.70137245356E+03  0.75519962344E+03  0.25500000920E-02 0.  1.
</event>
<event>
 5   0  0.4695625E-02  0.6008118E+03  0.7818609E-02  0.9903723E-01
       -4   -1    0    0    0  501  0.00000000000E+00  0.00000000000E+00  0.22207147780E+03  0.22207510925E+03  0.12699999809E+01 0. -1.
        4   -1    0    0  501    0  0.00000000000E+00  0.00000000000E+00 -0.40636441870E+03  0.40636640324E+03  0.12699999809E+01 0.  1.
    10030    2    1    2    0    0  0.00000000000E+00  0.00000000000E+00 -0.18429294090E+03  0.62844151250E+03  0.60081182292E+03 0.  0.
        5    1    3    3  502    0 -0.91611846477E+02  0.84724247030E+02 -0.37793402838E+03  0.39802907966E+03  0.46999998093E+01 0.  1.
       -5    1    3    3    0  502  0.91611846477E+02 -0.84724247030E+02  0.19364108748E+03  0.23041243284E+03  0.46999998093E+01 0. -1.
</event>
<event>
 5   0  0.7424930E-02  0.6086696E+03  0.7818609E-02  0.9887581E-01
       -1   -1    0    0    0  501  0.00000000000E+00  0.00000000000E+00  0.46302778655E+03  0.46302778658E+03  0.50400001928E-02 0. -1.
        1   -1    0    0  501    0  0.00000000000E+00  0.00000000000E+00 -0.20003050211E+03  0.20003050217E+03  0.50400001928E-02 0.  1.
    10030    2    1    2    0    0  0.00000000000E+00  0.00000000000E+00  0.26299728444E+03  0.66305828875E+03  0.60866963342E+03 0.  0.
        3    1    3    3  502    0  0.10960026082E+03  0.28360480078E+03  0.11705612898E+03  0.32580062574E+03  0.10100000352E+00 0. -1.
       -3    1    3    3    0  502 -0.10960026082E+03 -0.28360480078E+03  0.14594115546E+03  0.33725766301E+03  0.10100000352E+00 0.  1.
</event>
<event>
 5   0  0.7221069E-02  0.5986007E+03  0.7818609E-02  0.9908313E-01
        1   -1    0    0  501    0  0.00000000000E+00  0.00000000000E+00  0.31102948963E+03  0.31102948967E+03  0.50400001928E-02 0. -1.
       -1   -1    0    0    0  501  0.00000000000E+00  0.00000000000E+00 -0.28801351016E+03  0.28801351021E+03  0.50400001928E-02 0.  1.
    10030    2    1    2    0    0  0.00000000000E+00  0.00000000000E+00  0.23015979466E+02  0.59904299987E+03  0.59860068525E+03 0.  0.
        5    1    3    3  502    0 -0.66385546476E+02 -0.44831742360E+02 -0.27704805984E+03  0.28843481649E+03  0.46999998093E+01 0.  1.
       -5    1    3    3    0  502  0.66385546476E+02  0.44831742360E+02  0.30006403930E+03  0.31060818338E+03  0.46999998093E+01 0. -1.
</event>
<event>
 5   0  0.1206238E-01  0.6040359E+03  0.7818609E-02  0.9897068E-01
       -2   -1    0    0    0  501  0.00000000000E+00  0.00000000000E+00  0.42916646502E+02  0.42916646578E+02  0.25500000920E-02 0.  1.
        2   -1    0    0  501    0  0.00000000000E+00  0.00000000000E+00 -0.21253954191E+04  0.21253954191E+04  0.25500000920E-02 0. -1.
    10030    2    1    2    0    0  0.00000000000E+00  0.00000000000E+00 -0.20824787726E+04  0.21683120657E+04  0.60403590610E+03 0.  0.
        5    1    3    3  502    0  0.11543312732E+03  0.28056179719E+02 -0.20378652001E+04  0.20413301105E+04  0.46999998093E+01 0. -1.
       -5    1    3    3    0  502 -0.11543312732E+03 -0.28056179719E+02 -0.44613572511E+02  0.12698195523E+03  0.46999998093E+01 0.  1.
</event>
<event>
 5   0  0.7263385E-02  0.6050241E+03  0.7818609E-02  0.9895037E-01
        1   -1    0    0  501    0  0.00000000000E+00  0.00000000000E+00  0.42668241732E+03  0.42668241735E+03  0.50400001928E-02 0. -1.
       -1   -1    0    0    0  501  0.00000000000E+00  0.00000000000E+00 -0.21447697299E+03  0.21447697305E+03  0.50400001928E-02 0.  1.
    10030    2    1    2    0    0  0.00000000000E+00  0.00000000000E+00  0.21220544433E+03  0.64115939040E+03  0.60502414274E+03 0.  0.
        1    1    3    3  502    0 -0.12942221478E+03  0.24706503809E+03  0.23024134540E+03  0.36166603363E+03  0.50400001928E-02 0. -1.
       -1    1    3    3    0  502  0.12942221478E+03 -0.24706503809E+03 -0.18035901070E+02  0.27949335677E+03  0.50400001928E-02 0.  1.
</event>
<event>
 5   0  0.7221069E-02  0.7368340E+03  0.7818609E-02  0.9656235E-01
       -1   -1    0    0    0  501  0.00000000000E+00  0.00000000000E+00  0.88176737294E+02  0.88176737438E+02  0.50400001928E-02 0. -1.
        1   -1    0    0  501    0  0.00000000000E+00  0.00000000000E+00 -0.15393070094E+04  0.15393070094E+04  0.50400001928E-02 0.  1.
    10030    2    1    2    0    0  0.00000000000E+00  0.00000000000E+00 -0.14511302721E+04  0.16274837469E+04  0.73683395662E+03 0.  0.
        5    1    3    3  502    0  0.13388581328E+03  0.14112935945E+03 -0.14165413680E+04  0.14298442028E+04  0.46999998093E+01 0.  1.
       -5    1    3    3    0  502 -0.13388581328E+03 -0.14112935945E+03 -0.34588904169E+02  0.19763954408E+03  0.46999998093E+01 0. -1.
</event>
<event>
 5   0  0.7266519E-02  0.4238118E+03  0.7818609E-02  0.1035833E+00
        1   -1    0    0  501    0  0.00000000000E+00  0.00000000000E+00  0.28224875476E+03  0.28224875480E+03  0.50400001928E-02 0. -1.
       -1   -1    0    0    0  501  0.00000000000E+00  0.00000000000E+00 -0.15909412547E+03  0.15909412555E+03  0.50400001928E-02 0.  1.
    10030    2    1    2    0    0  0.00000000000E+00  0.00000000000E+00  0.12315462929E+03  0.44134288035E+03  0.42381183952E+03 0.  0.
        4    1    3    3  502    0 -0.18124192844E+03  0.36219830450E+02  0.16950813459E+03  0.25078902156E+03  0.12699999809E+01 0. -1.
       -4    1    3    3    0  502  0.18124192844E+03 -0.36219830450E+02 -0.46353505304E+02  0.19055385878E+03  0.12699999809E+01 0.  1.
</event>
<event>
 5   0  0.7123340E-02  0.5575643E+03  0.7818609E-02  0.9997581E-01
       -1   -1    0    0    0  501  0.00000000000E+00  0.00000000000E+00  0.17866662623E+03  0.17866662630E+03  0.50400001928E-02 0.  1.
        1   -1    0    0  501    0  0.00000000000E+00  0.00000000000E+00 -0.43499717513E+03  0.43499717516E+03  0.50400001928E-02 0. -1.
    10030    2    1    2    0    0  0.00000000000E+00  0.00000000000E+00 -0.25633054890E+03  0.61366380146E+03  0.55756426618E+03 0.  0.
        2    1    3    3  502    0  0.18460652685E+03 -0.17677118239E+03 -0.25068436683E+03  0.35800876032E+03  0.25500000920E-02 0. -1.
       -2    1    3    3    0  502 -0.18460652685E+03  0.17677118239E+03 -0.56461820622E+01  0.25565504114E+03  0.25500000920E-02 0.  1.
</event>
<event>
 5   0  0.1219020E-01  0.6223317E+03  0.7818609E-02  0.9860128E-01
        2   -1    0    0  501    0  0.00000000000E+00  0.00000000000E+00  0.65440893776E+03  0.65440893776E+03  0.25500000920E-02 0. -1.
       -2   -1    0    0    0  501  0.00000000000E+00  0.00000000000E+00 -0.14795671063E+03  0.14795671065E+03  0.25500000920E-02 0.  1.
    10030    2    1    2    0    0  0.00000000000E+00  0.00000000000E+00  0.50645222713E+03  0.80236564841E+03  0.62233172455E+03 0.  0.
        2    1    3    3  502    0  0.37577300871E+02  0.20273758758E+02  0.65061410371E+03  0.65201364310E+03  0.25500000920E-02 0. -1.
       -2    1    3    3    0  502 -0.37577300871E+02 -0.20273758758E+02 -0.14416187658E+03  0.15035200531E+03  0.25500000920E-02 0.  1.
</event>
<event>
 5   0  0.1175861E-01  0.5992606E+03  0.7818609E-02  0.9906941E-01
        2   -1    0    0  501    0  0.00000000000E+00  0.00000000000E+00  0.30340234667E+03  0.30340234668E+03  0.25500000920E-02 0.  1.
       -2   -1    0    0    0  501  0.00000000000E+00  0.00000000000E+00 -0.29590512422E+03  0.29590512423E+03  0.25500000920E-02 0. -1.
    10030    2    1    2    0    0  0.00000000000E+00  0.00000000000E+00  0.74972224474E+01  0.59930747091E+03  0.59926057467E+03 0.  0.
        3    1    3    3  502    0 -0.68980969403E+02  0.25453545643E+03  0.14599766330E+03  0.30143324404E+03  0.10100000352E+00 0. -1.
       -3    1    3    3    0  502  0.68980969403E+02 -0.25453545643E+03 -0.13850044085E+03  0.29787422688E+03  0.10100000352E+00 0.  1.
</event>
<event>
 5   0  0.1146468E-01  0.5991614E+03  0.7818609E-02  0.9907147E-01
       -2   -1    0    0    0  501  0.00000000000E+00  0.00000000000E+00  0.11780451024E+03  0.11780451027E+03  0.25500000920E-02 0. -1.
        2   -1    0    0  501    0  0.00000000000E+00  0.00000000000E+00 -0.76184358030E+03  0.76184358031E+03  0.25500000920E-02 0.  1.
    10030    2    1    2    0    0  0.00000000000E+00  0.00000000000E+00 -0.64403907007E+03  0.87964809057E+03  0.59916144692E+03 0.  0.
        4    1    3    3  502    0  0.25576569814E+03  0.11254716109E+03 -0.48057807026E+03  0.55591352775E+03  0.12699999809E+01 0.  1.
       -4    1    3    3    0  502 -0.25576569814E+03 -0.11254716109E+03 -0.16346099980E+03  0.32373456283E+03  0.12699999809E+01 0. -1.
</event>
<event>
 5   0  0.7424930E-02  0.6096447E+03  0.7818609E-02  0.9885596E-01
        1   -1    0    0  501    0  0.00000000000E+00  0.00000000000E+00  0.16473076214E+04  0.16473076215E+04  0.50400001928E-02 0. -1.
       -1   -1    0    0    0  501  0.00000000000E+00  0.00000000000E+00 -0.56405161778E+02  0.56405162003E+02  0.50400001928E-02 0.  1.
    10030    2    1    2    0    0  0.00000000000E+00  0.00000000000E+00  0.15909024597E+04  0.17037127835E+04  0.60964466071E+03 0.  0.
        3    1    3    3  502    0 -0.11511604826E+03 -0.15512878285E+03  0.13649434554E+03  0.23653194372E+03  0.10100000352E+00 0.  1.
       -3    1    3    3    0  502  0.11511604826E+03  0.15512878285E+03  0.14544081141E+04  0.14671808397E+04  0.10100000352E+00 0. -1.
</event>
<event>
 5   0  0.1166419E-01  0.6111254E+03  0.7818609E-02  0.9882590E-01
       -2   -1    0    0    0  501  0.00000000000E+00  0.00000000000E+00  0.26262110223E+03  0.26262110224E+03  0.25500000920E-02 0.  1.
        2   -1    0    0  501    0  0.00000000000E+00  0.00000000000E+00 -0.35552573133E+03  0.35552573134E+03  0.25500000920E-02 0. -1.
    10030    2    1    2    0    0  0.00000000000E+00  0.00000000000E+00 -0.92904629097E+02  0.61814683358E+03  0.61112538628E+03 0.  0.
        1    1    3    3  502    0  0.13009236808E+03  0.19898954980E+03  0.14771068949E+03  0.27989160934E+03  0.50400001928E-02 0.  1.
       -1    1    3    3    0  502 -0.13009236808E+03 -0.19898954980E+03 -0.24061531859E+03  0.33825522424E+03  0.50400001928E-02 0. -1.
</event>
<event>
 5   0  0.1206238E-01  0.6088867E+03  0.7818609E-02  0.9887139E-01
        2   -1    0    0  501    0  0.00000000000E+00  0.00000000000E+00  0.35213024579E+03  0.35213024580E+03  0.25500000920E-02 0.  1.
       -2   -1    0    0    0  501  0.00000000000E+00  0.00000000000E+00 -0.26321443224E+03  0.26321443225E+03  0.25500000920E-02 0. -1.
    10030    2    1    2    0    0  0.00000000000E+00  0.00000000000E+00  0.88915813546E+02  0.61534467805E+03  0.60888673077E+03 0.  0.
        5    1    3    3  502    0  0.20378423494E+02 -0.29016154847E+03  0.13515759021E+03  0.32077822330E+03  0.46999998093E+01 0.  1.
       -5    1    3    3    0  502 -0.20378423494E+02  0.29016154847E+03 -0.46241776667E+02  0.29456645475E+03  0.46999998093E+01 0. -1.
</event>
<event>
 5   0  0.7266519E-02  0.6799363E+03  0.7818609E-02  0.9752173E-01
        1   -1    0    0  501    0  0.00000000000E+00  0.00000000000E+00  0.33453554556E+03  0.33453554560E+03  0.50400001928E-02 0. -1.
       -1   -1    0    0    0  501  0.00000000000E+00  0.00000000000E+00 -0.34548899484E+03  0.34548899488E+03  0.50400001928E-02 0.  1.
    10030    2    1    2    0    0  0.00000000000E+00  0.00000000000E+00 -0.10953449282E+02  0.68002454048E+03  0.67993631879E+03 0.  0.
        4    1    3    3  502    0  0.22315581627E+03  0.23792060943E+03  0.90306270006E+02  0.33846945213E+03  0.12699999809E+01 0. -1.
       -4    1    3    3    0  502 -0.22315581627E+03 -0.23792060943E+03 -0.10125971929E+03  0.34155508835E+03  0.12699999809E+01 0.  1.
</event>
<event>
 5   0  0.7123340E-02  0.6162928E+03  0.7818609E-02  0.9872168E-01
        1   -1    0    0  501    0  0.00000000000E+00  0.00000000000E+00  0.76015557007E+03  0.76015557009E+03  0.50400001928E-02 0.  1.
       -1   -1    0    0    0  501  0.00000000000E+00  0.00000000000E+00 -0.12491419055E+03  0.12491419065E+03  0.50400001928E-02 0. -1.
    10030    2    1    2    0    0  0.00000000000E+00  0.00000000000E+00  0.63524137952E+03  0.88506976074E+03  0.61629284526E+03 0.  0.
        2    1    3    3  502    0 -0.26066470024E+03 -0.26436460020E+01  0.55360408816E+03  0.61190731426E+03  0.25500000920E-02 0.  1.
       -2    1    3    3    0  502  0.26066470024E+03  0.26436460020E+01  0.81637291365E+02  0.27316244648E+03  0.25500000920E-02 0. -1.
</event>
<event>
 5   0  0.7123340E-02  0.5976837E+03  0.7818609E-02  0.9910223E-01
        1   -1    0    0  501    0  0.00000000000E+00  0.00000000000E+00  0.12435537607E+03  0.12435537618E+03  0.50400001928E-02 0.  1.
       -1   -1    0    0    0  501  0.00000000000E+00  0.00000000000E+00 -0.71815524580E+03  0.71815524582E+03  0.50400001928E-02 0. -1.
    10030    2    1    2    0    0  0.00000000000E+00  0.00000000000E+00 -0.59379986973E+03  0.84251062199E+03  0.59768374822E+03 0.  0.
        2    1    3    3  502    0 -0.17454824784E+03 -0.55084975464E+02 -0.62989712852E+03  0.65595109411E+03  0.25500000920E-02 0. -1.
       -2    1    3    3    0  502  0.17454824784E+03  0.55084975464E+02  0.36097258789E+02  0.18655952788E+03  0.25500000920E-02 0.  1.
</event>
<event>
 5   0  0.7424930E-02  0.6245932E+03  0.7818609E-02  0.9855657E-01
       -1   -1    0    0    0  501  0.00000000000E+00  0.00000000000E+00  0.30859616383E+03  0.30859616387E+03  0.50400001928E-02 0. -1.
        1   -1    0    0  501    0  0.00000000000E+00  0.00000000000E+00 -0.31604135844E+03  0.31604135848E+03  0.50400001928E-02 0.  1.
    10030    2    1    2    0    0  0.00000000000E+00  0.00000000000E+00 -0.74451946133E+01  0.62463752235E+03  0.62459315030E+03 0.  0.
        3    1    3    3  502    0  0.12142416594E+02  0.17947704586E+03  0.25157909132E+03  0.30927576313E+03  0.10100000352E+00 0. -1.
       -3    1    3    3    0  502 -0.12142416594E+02 -0.17947704586E+03 -0.25902428594E+03  0.31536175922E+03  0.10100000352E+00 0.  1.
</event>
<event>
 5   0  0.7123340E-02  0.6042682E+03  0.7818609E-02  0.9896590E-01
       -1   -1    0    0    0  501  0.00000000000E+00  0.00000000000E+00  0.12494493375E+03  0.12494493385E+03  0.50400001928E-02 0.  1.
        1   -1    0    0  501    0  0.00000000000E+00  0.00000000000E+00 -0.73060186208E+03  0.73060186210E+03  0.50400001928E-02 0. -1.
    10030    2    1    2    0    0  0.00000000000E+00  0.00000000000E+00 -0.60565692833E+03  0.85554679595E+03  0.60426815672E+03 0.  0.
        2    1    3    3  502    0 -0.63968586140E+02  0.25707893357E+03 -0.97149100313E+02  0.28216928570E+03  0.25500000920E-02 0.  1.
       -2    1    3    3    0  502  0.63968586140E+02 -0.25707893357E+03 -0.50850782802E+03  0.57337751025E+03  0.25500000920E-02 0. -1.
</event>
<event>
 5   0  0.1219020E-01  0.5954024E+03  0.7818609E-02  0.9914991E-01
        2   -1    0    0  501    0  0.00000000000E+00  0.00000000000E+00  0.50778560311E+03  0.50778560311E+03  0.25500000920E-02 0.  1.
       -2   -1    0    0    0  501  0.00000000000E+00  0.00000000000E+00 -0.17453431785E+03  0.17453431787E+03  0.25500000920E-02 0. -1.
    10030    2    1    2    0    0  0.00000000000E+00  0.00000000000E+00  0.33325128526E+03  0.68231992098E+03  0.59540243151E+03 0.  0.
        2    1    3    3  502    0 -0.25732451009E+03 -0.36793082459E+02  0.33443152657E+00  0.25994181322E+03  0.25500000920E-02 0. -1.
       -2    1    3    3    0  502  0.25732451009E+03  0.36793082459E+02  0.33291685373E+03  0.42237810776E+03  0.25500000920E-02 0.  1.
</event>
<event>
 5   0  0.1219020E-01  0.5769815E+03  0.7818609E-02  0.9954347E-01
       -2   -1    0    0    0  501  0.00000000000E+00  0.00000000000E+00  0.39290467952E+03  0.39290467952E+03  0.25500000920E-02 0.  1.
        2   -1    0    0  501    0  0.00000000000E+00  0.00000000000E+00 -0.21182469369E+03  0.21182469370E+03  0.25500000920E-02 0. -1.
    10030    2    1    2    0    0  0.00000000000E+00  0.00000000000E+00  0.18107998583E+03  0.60472937323E+03  0.57698150194E+03 0.  0.
        2    1    3    3  502    0 -0.25023917460E+02  0.20028431489E+03 -0.12549631582E+03  0.23767483781E+03  0.25500000920E-02 0. -1.
       -2    1    3    3    0  502  0.25023917460E+02 -0.20028431489E+03  0.30657630164E+03  0.36705453542E+03  0.25500000920E-02 0.  1.
</event>
<event>
 5   0  0.1175861E-01  0.6019946E+03  0.7818609E-02  0.9901277E-01
        2   -1    0    0  501    0  0.00000000000E+00  0.00000000000E+00  0.16588083305E+04  0.16588083305E+04  0.25500000920E-02 0. -1.
       -2   -1    0    0    0  501  0.00000000000E+00  0.00000000000E+00 -0.54617144161E+02  0.54617144221E+02  0.25500000920E-02 0.  1.
    10030    2    1    2    0    0  0.00000000000E+00  0.00000000000E+00  0.16041911863E+04  0.17134254747E+04  0.60199459723E+03 0.  0.
        3    1    3    3  502    0 -0.28161705041E+03 -0.10600620084E+03  0.78120214633E+03  0.83715128939E+03  0.10100000352E+00 0. -1.
       -3    1    3    3    0  502  0.28161705041E+03  0.10600620084E+03  0.82298903998E+03  0.87627418530E+03  0.10100000352E+00 0.  1.
</event>
<event>
 5   0  0.4695625E-02  0.6154794E+03  0.7818609E-02  0.9873802E-01
       -3   -1    0    0    0  501  0.00000000000E+00  0.00000000000E+00  0.19565281510E+03  0.19565284116E+03  0.10100000352E+00 0. -1.
        3   -1    0    0  501    0  0.00000000000E+00  0.00000000000E+00 -0.48403953108E+03  0.48403954162E+03  0.10100000352E+00 0.  1.
    10030    2    1    2    0    0  0.00000000000E+00  0.00000000000E+00 -0.28838671599E+03  0.67969238279E+03  0.61547935567E+03 0.  0.
        1    1    3    3  502    0 -0.91783007058E+02 -0.11053694165E+03 -0.44472776981E+03  0.46735995241E+03  0.50400001928E-02 0.  1.
       -1    1    3    3    0  502  0.91783007058E+02  0.11053694165E+03  0.15634105382E+03  0.21233243038E+03  0.50400001928E-02 0. -1.
</event>
<event>
 5   0  0.7266519E-02  0.6081495E+03  0.7818609E-02  0.9888641E-01
        1   -1    0    0  501    0  0.00000000000E+00  0.00000000000E+00  0.52701776555E+03  0.52701776558E+03  0.50400001928E-02 0. -1.
       -1   -1    0    0    0  501  0.00000000000E+00  0.00000000000E+00 -0.17544277691E+03  0.17544277698E+03  0.50400001928E-02 0.  1.
    10030    2    1    2    0    0  0.00000000000E+00  0.00000000000E+00  0.35157498864E+03  0.70246054256E+03  0.60814952209E+03 0.  0.
        4    1    3    3  502    0  0.19945758436E+03 -0.16414368526E+03  0.36108087177E+03  0.44396788873E+03  0.12699999809E+01 0. -1.
       -4    1    3    3    0  502 -0.19945758436E+03  0.16414368526E+03 -0.95058831272E+01  0.25849265383E+03  0.12699999809E+01 0.  1.
</event>
<event>
 5   0  0.7123340E-02  0.5422354E+03  0.7818609E-02  0.1003307E+00
        1   -1    0    0  501    0  0.00000000000E+00  0.00000000000E+00  0.31785253177E+03  0.31785253181E+03  0.50400001928E-02 0. -1.
       -1   -1    0    0    0  501  0.00000000000E+00  0.00000000000E+00 -0.23125439264E+03  0.23125439269E+03  0.50400001928E-02 0.  1.
    10030    2    1    2    0    0  0.00000000000E+00  0.00000000000E+00  0.86598139129E+02  0.54910692450E+03  0.54223535188E+03 0.  0.
        2    1    3    3  502    0  0.12366632962E+03  0.29854129641E+01 -0.20101022388E+03  0.23602411716E+03  0.25500000920E-02 0.  1.
       -2    1    3    3    0  502 -0.12366632962E+03 -0.29854129641E+01  0.28760836301E+03  0.31308280734E+03  0.25500000920E-02 0. -1.
</event>
<event>
 5   0  0.4695625E-02  0.5640561E+03  0.7818609E-02  0.9982919E-01
        3   -1    0    0  501    0  0.00000000000E+00  0.00000000000E+00  0.48927420540E+03  0.48927421583E+03  0.10100000352E+00 0.  1.
       -3   -1    0    0    0  501  0.00000000000E+00  0.00000000000E+00 -0.16256693233E+03  0.16256696370E+03  0.10100000352E+00 0. -1.
    10030    2    1    2    0    0  0.00000000000E+00  0.00000000000E+00  0.32670727307E+03  0.65184117953E+03  0.56405609744E+03 0.  0.
        5    1    3    3  502    0  0.16269025080E+03  0.12220539444E+03 -0.62262440836E+02  0.21284026328E+03  0.46999998093E+01 0. -1.
       -5    1    3    3    0  502 -0.16269025080E+03 -0.12220539444E+03  0.38896971391E+03  0.43900091625E+03  0.46999998093E+01 0.  1.
</event>
<event>
 5   0  0.7123340E-02  0.6012123E+03  0.7818609E-02  0.9902894E-01
       -1   -1    0    0    0  501  0.00000000000E+00  0.00000000000E+00  0.13971813854E+03  0.13971813864E+03  0.50400001928E-02 0.  1.
        1   -1    0    0  501    0  0.00000000000E+00  0.00000000000E+00 -0.64675971487E+03  0.64675971489E+03  0.50400001928E-02 0. -1.
    10030    2    1    2    0    0  0.00000000000E+00  0.00000000000E+00 -0.50704157632E+03  0.78647785352E+03  0.60121232020E+03 0.  0.
        2    1    3    3  502    0 -0.14629887362E+03  0.65590199648E+02  0.79117219835E+02  0.17878749731E+03  0.25500000920E-02 0.  1.
       -2    1    3    3    0  502  0.14629887362E+03 -0.65590199648E+02 -0.58615879616E+03  0.60769035621E+03  0.25500000920E-02 0. -1.
</event>
<event>
 5   0  0.1175861E-01  0.5887298E+03  0.7818609E-02  0.9929068E-01
       -2   -1    0    0    0  501  0.00000000000E+00  0.00000000000E+00  0.58559195354E+02  0.58559195410E+02  0.25500000920E-02 0. -1.
        2   -1    0    0  501    0  0.00000000000E+00  0.00000000000E+00 -0.14797113591E+04  0.14797113591E+04  0.25500000920E-02 0.  1.
    10030    2    1    2    0    0  0.00000000000E+00  0.00000000000E+00 -0.14211521638E+04  0.15382705545E+04  0.58872984158E+03 0.  0.
        3    1    3    3  502    0  0.20298260229E+02  0.62811351846E+02 -0.14601236668E+04  0.14616150033E+04  0.10100000352E+00 0.  1.
       -3    1    3    3    0  502 -0.20298260229E+02 -0.62811351846E+02  0.38971503024E+02  0.76655551253E+02  0.10100000352E+00 0. -1.
</event>
<event>
 5   0  0.1219020E-01  0.5933039E+03  0.7818609E-02  0.9919397E-01
       -2   -1    0    0    0  501  0.00000000000E+00  0.00000000000E+00  0.42395219513E+02  0.42395219590E+02  0.25500000920E-02 0.  1.
        2   -1    0    0  501    0  0.00000000000E+00  0.00000000000E+00 -0.20757617717E+04  0.20757617717E+04  0.25500000920E-02 0. -1.
    10030    2    1    2    0    0  0.00000000000E+00  0.00000000000E+00 -0.20333665522E+04  0.21181569913E+04  0.59330388857E+03 0.  0.
        2    1    3    3  502    0  0.24988369120E+03 -0.53040518898E+02 -0.15551329488E+04  0.15759738717E+04  0.25500000920E-02 0. -1.
       -2    1    3    3    0  502 -0.24988369120E+03  0.53040518898E+02 -0.47823360337E+03  0.54218311960E+03  0.25500000920E-02 0.  1.
</event>
<event>
 5   0  0.1219020E-01  0.6154402E+03  0.7818609E-02  0.9873880E-01
        2   -1    0    0  501    0  0.00000000000E+00  0.00000000000E+00  0.85555571353E+03  0.85555571353E+03  0.25500000920E-02 0.  1.
       -2   -1    0    0    0  501  0.00000000000E+00  0.00000000000E+00 -0.11067855411E+03  0.11067855414E+03  0.25500000920E-02 0. -1.
    10030    2    1    2    0    0  0.00000000000E+00  0.00000000000E+00  0.74487715942E+03  0.96623426767E+03  0.61544023057E+03 0.  0.
        2    1    3    3  502    0  0.83014780715E+02 -0.11912799575E+03  0.79839114112E+03  0.81148712091E+03  0.25500000920E-02 0.  1.
       -2    1    3    3    0  502 -0.83014780715E+02  0.11912799575E+03 -0.53513981697E+02  0.15474714676E+03  0.25500000920E-02 0. -1.
</event>
<event>
 5   0  0.7123340E-02  0.6000057E+03  0.7818609E-02  0.9905394E-01
       -1   -1    0    0    0  501  0.00000000000E+00  0.00000000000E+00  0.34406854238E+03  0.34406854242E+03  0.50400001928E-02 0. -1.
        1   -1    0    0  501    0  0.00000000000E+00  0.00000000000E+00 -0.26158073251E+03  0.26158073256E+03  0.50400001928E-02 0.  1.
    10030    2    1    2    0    0  0.00000000000E+00  0.00000000000E+00  0.82487809873E+02  0.60564927498E+03  0.60000567123E+03 0.  0.
        2    1    3    3  502    0  0.13216431142E+03  0.23951030528E+03 -0.83077495622E+02  0.28589239555E+03  0.25500000920E-02 0.  1.
       -2    1    3    3    0  502 -0.13216431142E+03 -0.23951030528E+03  0.16556530549E+03  0.31975687943E+03  0.25500000920E-02 0. -1.
</event>
<event>
 5   0  0.7221069E-02  0.6094006E+03  0.7818609E-02  0.9886093E-01
        1   -1    0    0  501    0  0.00000000000E+00  0.00000000000E+00  0.20982624765E+03  0.20982624771E+03  0.50400001928E-02 0. -1.
       -1   -1    0    0    0  501  0.00000000000E+00  0.00000000000E+00 -0.44247210516E+03  0.44247210519E+03  0.50400001928E-02 0.  1.
    10030    2    1    2    0    0  0.00000000000E+00  0.00000000000E+00 -0.23264585751E+03  0.65229835289E+03  0.60940056299E+03 0.  0.
        5    1    3    3  502    0  0.12532398694E+03 -0.16560975164E+03 -0.35492099327E+03  0.41124651124E+03  0.46999998093E+01 0.  1.
       -5    1    3    3    0  502 -0.12532398694E+03  0.16560975164E+03  0.12227513576E+03  0.24105184166E+03  0.46999998093E+01 0. -1.
</event>
<event>
 5   0  0.1166419E-01  0.6057374E+03  0.7818609E-02  0.9893574E-01
        2   -1    0    0  501    0  0.00000000000E+00  0.00000000000E+00  0.35533439339E+03  0.35533439340E+03  0.25500000920E-02 0.  1.
       -2   -1    0    0    0  501  0.00000000000E+00  0.00000000000E+00 -0.25814960957E+03  0.25814960958E+03  0.25500000920E-02 0. -1.
    10030    2    1    2    0    0  0.00000000000E+00  0.00000000000E+00  0.97184783826E+02  0.61348400298E+03  0.60573735208E+03 0.  0.
        1    1    3    3  502    0  0.55110908200E+02  0.11257172690E+03  0.32783541570E+03  0.35097815560E+03  0.50400001928E-02 0.  1.
       -1    1    3    3    0  502 -0.55110908200E+02 -0.11257172690E+03 -0.23065063187E+03  0.26250584738E+03  0.50400001928E-02 0. -1.
</event>
<event>
 5   0  0.1175861E-01  0.6175317E+03  0.7818609E-02  0.9869686E-01
        2   -1    0    0  501    0  0.00000000000E+00  0.00000000000E+00  0.15286138149E+04  0.15286138149E+04  0.25500000920E-02 0. -1.
       -2   -1    0    0    0  501  0.00000000000E+00  0.00000000000E+00 -0.62367837896E+02  0.62367837948E+02  0.25500000920E-02 0.  1.
    10030    2    1    2    0    0  0.00000000000E+00  0.00000000000E+00  0.14662459770E+04  0.15909816528E+04  0.61753166284E+03 0.  0.
        3    1    3    3  502    0 -0.12752054521E+03  0.19543950757E+02  0.14558489271E+04  0.14615538184E+04  0.10100000352E+00 0. -1.
       -3    1    3    3    0  502  0.12752054521E+03 -0.19543950757E+02  0.10397049862E+02  0.12942783437E+03  0.10100000352E+00 0.  1.
</event>
<event>
 5   0  0.4695625E-02  0.6076649E+03  0.7818609E-02  0.9889630E-01
        4   -1    0    0  501    0  0.00000000000E+00  0.00000000000E+00  0.13239123652E+03  0.13239732780E+03  0.12699999809E+01 0.  1.
       -4   -1    0    0    0  501  0.00000000000E+00  0.00000000000E+00 -0.69726029206E+03  0.69726144866E+03  0.12699999809E+01 0. -1.
    10030    2    1    2    0    0  0.00000000000E+00  0.00000000000E+00 -0.56486905554E+03  0.82965877645E+03  0.60766490391E+03 0.  0.
        1    1    3    3  502    0  0.28559361752E+03  0.99690687091E+02 -0.32134530362E+03  0.44132159662E+03  0.50400001928E-02 0. -1.
       -1    1    3    3    0  502 -0.28559361752E+03 -0.99690687091E+02 -0.24352375192E+03  0.38833717983E+03  0.50400001928E-02 0.  1.
</event>
<event>
 5   0  0.1175861E-01  0.6152407E+03  0.7818609E-02  0.9874281E-01
        2   -1    0    0  501    0  0.00000000000E+00  0.00000000000E+00  0.54640768813E+03  0.54640768813E+03  0.25500000920E-02 0.  1.
       -2   -1    0    0    0  501  0.00000000000E+00  0.00000000000E+00 -0.17318622806E+03  0.17318622808E+03  0.25500000920E-02 0. -1.
    10030    2    1    2    0    0  0.00000000000E+00  0.00000000000E+00  0.37322146007E+03  0.71959391621E+03  0.61524072199E+03 0.  0.
        3    1    3    3  502    0  0.15764776538E+03  0.26123794026E+03  0.23239325119E+03  0.38354232199E+03  0.10100000352E+00 0.  1.
       -3    1    3    3    0  502 -0.15764776538E+03 -0.26123794026E+03  0.14082820888E+03  0.33605159422E+03  0.10100000352E+00 0. -1.
</event>
<event>
 5   0  0.1219020E-01  0.6156366E+03  0.7818609E-02  0.9873486E-01
        2   -1    0    0  501    0  0.00000000000E+00  0.00000000000E+00  0.18072109180E+04  0.18072109180E+04  0.25500000920E-02 0.  1.
       -2   -1    0    0    0  501  0.00000000000E+00  0.00000000000E+00 -0.52430023818E+02  0.52430023880E+02  0.25500000920E-02 0. -1.
    10030    2    1    2    0    0  0.00000000000E+00  0.00000000000E+00  0.17547808942E+04  0.18596409419E+04  0.61563661858E+03 0.  0.
        2    1    3    3  502    0  0.19888444067E+03 -0.16329988659E+03  0.13876102972E+04  0.14112704244E+04  0.25500000920E-02 0.  1.
       -2    1    3    3    0  502 -0.19888444067E+03  0.16329988659E+03  0.36717059692E+03  0.44837051748E+03  0.25500000920E-02 0. -1.
</event>
<event>
 5   0  0.1206238E-01  0.5952548E+03  0.7818609E-02  0.9915300E-01
       -2   -1    0    0    0  501  0.00000000000E+00  0.00000000000E+00  0.12743058714E+03  0.12743058717E+03  0.25500000920E-02 0.  1.
        2   -1    0    0  501    0  0.00000000000E+00  0.00000000000E+00 -0.69513987999E+03  0.69513988000E+03  0.25500000920E-02 0. -1.
    10030    2    1    2    0    0  0.00000000000E+00  0.00000000000E+00 -0.56770929285E+03  0.82257046717E+03  0.59525484649E+03 0.  0.
        5    1    3    3  502    0  0.29275820251E+02  0.17659452431E+03 -0.61237391754E+03  0.63801771491E+03  0.46999998093E+01 0. -1.
       -5    1    3    3    0  502 -0.29275820251E+02 -0.17659452431E+03  0.44664624688E+02  0.18455275225E+03  0.46999998093E+01 0.  1.
</event>
<event>
 5   0  0.7424930E-02  0.5703760E+03  0.7818609E-02  0.9968847E-01
       -1   -1    0    0    0  501  0.00000000000E+00  0.00000000000E+00  0.78530804445E+02  0.78530804607E+02  0.50400001928E-02 0.  1.
        1   -1    0    0  501    0  0.00000000000E+00  0.00000000000E+00 -0.10356724949E+04  0.10356724949E+04  0.50400001928E-02 0. -1.
    10030    2    1    2    0    0  0.00000000000E+00  0.00000000000E+00 -0.95714169048E+03  0.11142032995E+04  0.57037599622E+03 0.  0.
        3    1    3    3  502    0  0.76117810862E+02 -0.17616838222E+03 -0.89066615207E+03  0.91110670323E+03  0.10100000352E+00 0. -1.
       -3    1    3    3    0  502 -0.76117810862E+02  0.17616838222E+03 -0.66475538406E+02  0.20309659631E+03  0.10100000352E+00 0.  1.
</event>
<event>
 5   0  0.7221069E-02  0.5969114E+03  0.7818609E-02  0.9911835E-01
       -1   -1    0    0    0  501  0.00000000000E+00  0.00000000000E+00  0.14105393940E+03  0.14105393949E+03  0.50400001928E-02 0. -1.
        1   -1    0    0  501    0  0.00000000000E+00  0.00000000000E+00 -0.63150175836E+03  0.63150175838E+03  0.50400001928E-02 0.  1.
    10030    2    1    2    0    0  0.00000000000E+00  0.00000000000E+00 -0.49044781897E+03  0.77255569787E+03  0.59691141988E+03 0.  0.
        5    1    3    3  502    0 -0.18099386317E+03  0.17429578912E+03 -0.45357857471E+03  0.51854933617E+03  0.46999998093E+01 0.  1.
       -5    1    3    3    0  502  0.18099386317E+03 -0.17429578912E+03 -0.36869244255E+02  0.25400636169E+03  0.46999998093E+01 0. -1.
</event>
<event>
 5   0  0.1166419E-01  0.6004390E+03  0.7818609E-02  0.9904496E-01
       -2   -1    0    0    0  501  0.00000000000E+00  0.00000000000E+00  0.31324529173E+03  0.31324529174E+03  0.25500000920E-02 0. -1.
        2   -1    0    0  501    0  0.00000000000E+00  0.00000000000E+00 -0.28773533168E+03  0.28773533169E+03  0.25500000920E-02 0.  1.
    10030    2    1    2    0    0  0.00000000000E+00  0.00000000000E+00  0.25509960048E+02  0.60098062343E+03  0.60043896582E+03 0.  0.
        1    1    3    3  502    0  0.16548992209E+03  0.22750853212E+02  0.26243386096E+03  0.31108848748E+03  0.50400001928E-02 0. -1.
       -1    1    3    3    0  502 -0.16548992209E+03 -0.22750853212E+02 -0.23692390091E+03  0.28989213595E+03  0.50400001928E-02 0.  1.
</event>
<event>
 5   0  0.7123340E-02  0.5996711E+03  0.7818609E-02  0.9906089E-01
       -1   -1    0    0    0  501  0.00000000000E+00  0.00000000000E+00  0.15021560883E+03  0.15021560892E+03  0.50400001928E-02 0.  1.
        1   -1    0    0  501    0  0.00000000000E+00  0.00000000000E+00 -0.59848208265E+03  0.59848208268E+03  0.50400001928E-02 0. -1.
    10030    2    1    2    0    0  0.00000000000E+00  0.00000000000E+00 -0.44826647382E+03  0.74869769159E+03  0.59967107805E+03 0.  0.
        2    1    3    3  502    0 -0.95312968377E+02  0.46045186249E+02  0.12611136973E+03  0.16464749830E+03  0.25500000920E-02 0.  1.
       -2    1    3    3    0  502  0.95312968377E+02 -0.46045186249E+02 -0.57437784355E+03  0.58405019329E+03  0.25500000920E-02 0. -1.
</event>
<event>
 5   0  0.1219020E-01  0.5911558E+03  0.7818609E-02  0.9923927E-01
        2   -1    0    0  501    0  0.00000000000E+00  0.00000000000E+00  0.56635994314E+03  0.56635994315E+03  0.25500000920E-02 0.  1.
       -2   -1    0    0    0  501  0.00000000000E+00  0.00000000000E+00 -0.15425928876E+03  0.15425928879E+03  0.25500000920E-02 0. -1.
    10030    2    1    2    0    0  0.00000000000E+00  0.00000000000E+00  0.41210065438E+03  0.72061923193E+03  0.59115575620E+03 0.  0.
        2    1    3    3  502    0 -0.21650771511E+03 -0.20120814849E+03  0.20902935536E+03  0.36201323336E+03  0.25500000920E-02 0. -1.
       -2    1    3    3    0  502  0.21650771511E+03  0.20120814849E+03  0.20307129902E+03  0.35860599857E+03  0.25500000920E-02 0.  1.
</event>
<event>
 5   0  0.7263385E-02  0.5901352E+03  0.7818609E-02  0.9926086E-01
        1   -1    0    0  501    0  0.00000000000E+00  0.00000000000E+00  0.12728262518E+04  0.12728262518E+04  0.50400001928E-02 0.  1.
       -1   -1    0    0    0  501  0.00000000000E+00  0.00000000000E+00 -0.68402813453E+02  0.68402813639E+02  0.50400001928E-02 0. -1.
    10030    2    1    2    0    0  0.00000000000E+00  0.00000000000E+00  0.12044234383E+04  0.13412290654E+04  0.59013522786E+03 0.  0.
        1    1    3    3  502    0  0.18338084828E+03  0.74853809678E+02  0.10992804508E+04  0.11169821564E+04  0.50400001928E-02 0.  1.
       -1    1    3    3    0  502 -0.18338084828E+03 -0.74853809678E+02  0.10514298758E+03  0.22424690901E+03  0.50400001928E-02 0. -1.
</event>
<event>
 5   0  0.1146468E-01  0.6020676E+03  0.7818609E-02  0.9901126E-01
        2   -1    0    0  501    0  0.00000000000E+00  0.00000000000E+00  0.12387567881E+03  0.12387567884E+03  0.25500000920E-02 0.  1.
       -2   -1    0    0    0  501  0.00000000000E+00  0.00000000000E+00 -0.73155074661E+03  0.73155074661E+03  0.25500000920E-02 0. -1.
    10030    2    1    2    0    0  0.00000000000E+00  0.00000000000E+00 -0.60767506780E+03  0.85542642545E+03  0.60206758868E+03 0.  0.
        4    1    3    3  502    0 -0.16895656565E+03 -0.23651529268E+03 -0.41511487498E+03  0.50676205173E+03  0.12699999809E+01 0. -1.
       -4    1    3    3    0  502  0.16895656565E+03  0.23651529268E+03 -0.19256019281E+03  0.34866437372E+03  0.12699999809E+01 0.  1.
</event>
<event>
 5   0  0.7266519E-02  0.6034465E+03  0.7818609E-02  0.9898281E-01
        1   -1    0    0  501    0  0.00000000000E+00  0.00000000000E+00  0.86867648015E+03  0.86867648017E+03  0.50400001928E-02 0. -1.
       -1   -1    0    0    0  501  0.00000000000E+00  0.00000000000E+00 -0.10479957167E+03  0.10479957179E+03  0.50400001928E-02 0.  1.
    10030    2    1    2    0    0  0.00000000000E+00  0.00000000000E+00  0.76387690849E+03  0.97347605196E+03  0.60344651164E+03 0.  0.
        4    1    3    3  502    0 -0.16563883869E+03 -0.22646115169E+03  0.20292169730E+03  0.34626536968E+03  0.12699999809E+01 0.  1.
       -4    1    3    3    0  502  0.16563883869E+03  0.22646115169E+03  0.56095521118E+03  0.62721068228E+03  0.12699999809E+01 0. -1.
</event>
<event>
 5   0  0.4695625E-02  0.5660698E+03  0.7818609E-02  0.9978413E-01
       -4   -1    0    0    0  501  0.00000000000E+00  0.00000000000E+00  0.57057477803E+03  0.57057619143E+03  0.12699999809E+01 0. -1.
        4   -1    0    0  501    0  0.00000000000E+00  0.00000000000E+00 -0.14039563628E+03  0.14040138029E+03  0.12699999809E+01 0.  1.
    10030    2    1    2    0    0  0.00000000000E+00  0.00000000000E+00  0.43017914175E+03  0.71097757171E+03  0.56606979560E+03 0.  0.
        2    1    3    3  502    0  0.94342084359E+02 -0.25565559731E+03  0.11903685421E+03  0.29737179756E+03  0.25500000920E-02 0. -1.
       -2    1    3    3    0  502 -0.94342084359E+02  0.25565559731E+03  0.31114228754E+03  0.41360577416E+03  0.25500000920E-02 0.  1.
</event>
<event>
 5   0  0.7123340E-02  0.6040056E+03  0.7818609E-02  0.9897130E-01
        1   -1    0    0  501    0  0.00000000000E+00  0.00000000000E+00  0.10316717065E+04  0.10316717065E+04  0.50400001928E-02 0.  1.
       -1   -1    0    0    0  501  0.00000000000E+00  0.00000000000E+00 -0.88405733530E+02  0.88405733673E+02  0.50400001928E-02 0. -1.
    10030    2    1    2    0    0  0.00000000000E+00  0.00000000000E+00  0.94326597296E+03  0.11200774402E+04  0.60400560945E+03 0.  0.
        2    1    3    3  502    0  0.12025294832E+03 -0.26227980281E+03  0.63702178131E+03  0.69931982412E+03  0.25500000920E-02 0.  1.
       -2    1    3    3    0  502 -0.12025294832E+03  0.26227980281E+03  0.30624419165E+03  0.42075761605E+03  0.25500000920E-02 0. -1.
</event>
<event>
 5   0  0.7424930E-02  0.5995627E+03  0.7818609E-02  0.9906314E-01
        1   -1    0    0  501    0  0.00000000000E+00  0.00000000000E+00  0.86739092144E+03  0.86739092146E+03  0.50400001928E-02 0.  1.
       -1   -1    0    0    0  501  0.00000000000E+00  0.00000000000E+00 -0.10360824124E+03  0.10360824137E+03  0.50400001928E-02 0. -1.
    10030    2    1    2    0    0  0.00000000000E+00  0.00000000000E+00  0.76378268020E+03  0.97099916282E+03  0.59956266698E+03 0.  0.
        3    1    3    3  502    0  0.11755865503E+03  0.23272124825E+03  0.62150048722E+03  0.67397483823E+03  0.10100000352E+00 0.  1.
       -3    1    3    3    0  502 -0.11755865503E+03 -0.23272124825E+03  0.14228219298E+03  0.29702432459E+03  0.10100000352E+00 0. -1.
</event>
<event>
 5   0  0.1166419E-01  0.5986580E+03  0.7818609E-02  0.9908194E-01
       -2   -1    0    0    0  501  0.00000000000E+00  0.00000000000E+00  0.13686179766E+03  0.13686179768E+03  0.25500000920E-02 0. -1.
        2   -1    0    0  501    0  0.00000000000E+00  0.00000000000E+00 -0.65465933892E+03  0.65465933892E+03  0.25500000920E-02 0.  1.
    10030    2    1    2    0    0  0.00000000000E+00  0.00000000000E+00 -0.51779754126E+03  0.79152113661E+03  0.59865801253E+03 0.  0.
        1    1    3    3  502    0  0.14072777957E+03  0.24450780043E+03 -0.12662019530E+03  0.30922652910E+03  0.50400001928E-02 0.  1.
       -1    1    3    3    0  502 -0.14072777957E+03 -0.24450780043E+03 -0.39117734595E+03  0.48229460751E+03  0.50400001928E-02 0. -1.
</event>
<event>
 5   0  0.7424930E-02  0.5957329E+03  0.7818609E-02  0.9914299E-01
       -1   -1    0    0    0  501  0.00000000000E+00  0.00000000000E+00  0.81696071352E+03  0.81696071354E+03  0.50400001928E-02 0.  1.
        1   -1    0    0  501    0  0.00000000000E+00  0.00000000000E+00 -0.10860304086E+03  0.10860304098E+03  0.50400001928E-02 0. -1.
    10030    2    1    2    0    0  0.00000000000E+00  0.00000000000E+00  0.70835767266E+03  0.92556375452E+03  0.59573288583E+03 0.  0.
        3    1    3    3  502    0 -0.16012488065E+03 -0.25076989778E+03  0.33226796325E+03  0.44601292430E+03  0.10100000352E+00 0. -1.
       -3    1    3    3    0  502  0.16012488065E+03  0.25076989778E+03  0.37608970941E+03  0.47955083022E+03  0.10100000352E+00 0.  1.
</event>
<event>
 5   0  0.1166419E-01  0.5967415E+03  0.7818609E-02  0.9912190E-01
        2   -1    0    0  501    0  0.00000000000E+00  0.00000000000E+00  0.10294284287E+03  0.10294284290E+03  0.25500000920E-02 0. -1.
       -2   -1    0    0    0  501  0.00000000000E+00  0.00000000000E+00 -0.86480118553E+03  0.86480118553E+03  0.25500000920E-02 0.  1.
    10030    2    1    2    0    0  0.00000000000E+00  0.00000000000E+00 -0.76185834266E+03  0.96774402843E+03  0.59674146018E+03 0.  0.
        1    1    3    3  502    0  0.26554801975E+03 -0.93387196558E+02 -0.54137377394E+03  0.61018233538E+03  0.50400001928E-02 0.  1.
       -1    1    3    3    0  502 -0.26554801975E+03  0.93387196558E+02 -0.22048456872E+03  0.35756169306E+03  0.50400001928E-02 0. -1.
</event>
<event>
 5   0  0.7424930E-02  0.6172129E+03  0.7818609E-02  0.9870325E-01
       -1   -1    0    0    0  501  0.00000000000E+00  0.00000000000E+00  0.53388895475E+03  0.53388895477E+03  0.50400001928E-02 0.  1.
        1   -1    0    0  501    0  0.00000000000E+00  0.00000000000E+00 -0.17838530211E+03  0.17838530218E+03  0.50400001928E-02 0. -1.
    10030    2    1    2    0    0  0.00000000000E+00  0.00000000000E+00  0.35550365264E+03  0.71227425696E+03  0.61721290499E+03 0.  0.
        3    1    3    3  502    0  0.10957354997E+03  0.23613569410E+03  0.36902473593E+03  0.45160347076E+03  0.10100000352E+00 0.  1.
       -3    1    3    3    0  502 -0.10957354997E+03 -0.23613569410E+03 -0.13521083290E+02  0.26067078619E+03  0.10100000352E+00 0. -1.
</event>
<event>
 5   0  0.7221069E-02  0.5934546E+03  0.7818609E-02  0.9919079E-01
       -1   -1    0    0    0  501  0.00000000000E+00  0.00000000000E+00  0.96130503048E+02  0.96130503180E+02  0.50400001928E-02 0.  1.
        1   -1    0    0  501    0  0.00000000000E+00  0.00000000000E+00 -0.91591214760E+03  0.91591214761E+03  0.50400001928E-02 0. -1.
    10030    2    1    2    0    0  0.00000000000E+00  0.00000000000E+00 -0.81978164455E+03  0.10120426508E+04  0.59345461687E+03 0.  0.
        5    1    3    3  502    0 -0.89414827220E+02 -0.90261750402E+02 -0.86710935710E+03  0.87638058061E+03  0.46999998093E+01 0. -1.
       -5    1    3    3    0  502  0.89414827220E+02  0.90261750402E+02  0.47327712546E+02  0.13566207018E+03  0.46999998093E+01 0.  1.
</event>
<event>
 5   0  0.1146468E-01  0.6038676E+03  0.7818609E-02  0.9897414E-01
        2   -1    0    0  501    0  0.00000000000E+00  0.00000000000E+00  0.32160981232E+03  0.32160981233E+03  0.25500000920E-02 0. -1.
       -2   -1    0    0    0  501  0.00000000000E+00  0.00000000000E+00 -0.28346160542E+03  0.28346160543E+03  0.25500000920E-02 0.  1.
    10030    2    1    2    0    0  0.00000000000E+00  0.00000000000E+00  0.38148206907E+02  0.60507141776E+03  0.60386764684E+03 0.  0.
        4    1    3    3  502    0  0.16324784935E+02 -0.20136253686E+02  0.32049007314E+03  0.32153921564E+03  0.12699999809E+01 0. -1.
       -4    1    3    3    0  502 -0.16324784935E+02  0.20136253686E+02 -0.28234186623E+03  0.28353220212E+03  0.12699999809E+01 0.  1.
</event>
<event>
 5   0  0.1219020E-01  0.6081902E+03  0.7818609E-02  0.9888558E-01
       -2   -1    0    0    0  501  0.00000000000E+00  0.00000000000E+00  0.12100190856E+03  0.12100190858E+03  0.25500000920E-02 0.  1.
        2   -1    0    0  501    0  0.00000000000E+00  0.00000000000E+00 -0.76423458062E+03  0.76423458063E+03  0.25500000920E-02 0. -1.
    10030    2    1    2    0    0  0.00000000000E+00  0.00000000000E+00 -0.64323267207E+03  0.88523648921E+03  0.60819024279E+03 0.  0.
        2    1    3    3  502    0 -0.27188900134E+03  0.13905616479E+02 -0.12441088731E+03  0.29932434600E+03  0.25500000920E-02 0.  1.
       -2    1    3    3    0  502  0.27188900134E+03 -0.13905616479E+02 -0.51882178475E+03  0.58591214321E+03  0.25500000920E-02 0. -1.
</event>
<event>
 5   0  0.7266519E-02  0.5732723E+03  0.7818609E-02  0.9962463E-01
       -1   -1    0    0    0  501  0.00000000000E+00  0.00000000000E+00  0.14370243212E+03  0.14370243221E+03  0.50400001928E-02 0. -1.
        1   -1    0    0  501    0  0.00000000000E+00  0.00000000000E+00 -0.57173903289E+03  0.57173903291E+03  0.50400001928E-02 0.  1.
    10030    2    1    2    0    0  0.00000000000E+00  0.00000000000E+00 -0.42803660077E+03  0.71544146513E+03  0.57327232484E+03 0.  0.
        4    1    3    3  502    0  0.85618851580E+02  0.26585313010E+03 -0.29441676551E+03  0.40582178261E+03  0.12699999809E+01 0.  1.
       -4    1    3    3    0  502 -0.85618851580E+02 -0.26585313010E+03 -0.13361983525E+03  0.30961968251E+03  0.12699999809E+01 0. -1.
</event>
<event>
 5   0  0.4695625E-02  0.5837468E+03  0.7818609E-02  0.9939712E-01
       -3   -1    0    0    0  501  0.00000000000E+00  0.00000000000E+00  0.28412925625E+03  0.28412927420E+03  0.10100000352E+00 0. -1.
        3   -1    0    0  501    0  0.00000000000E+00  0.00000000000E+00 -0.29982859487E+03  0.29982861188E+03  0.10100000352E+00 0.  1.
    10030    2    1    2    0    0  0.00000000000E+00  0.00000000000E+00 -0.15699338613E+02  0.58395788608E+03  0.58374681454E+03 0.  0.
        1    1    3    3  502    0  0.22388431818E+03 -0.14702082670E+02  0.17889869943E+03  0.28695833120E+03  0.50400001928E-02 0. -1.
       -1    1    3    3    0  502 -0.22388431818E+03  0.14702082670E+02 -0.19459803804E+03  0.29699955488E+03  0.50400001928E-02 0.  1.
</event>
<event>
 5   0  0.1206238E-01  0.6067682E+03  0.7818609E-02  0.9891463E-01
       -2   -1    0    0    0  501  0.00000000000E+00  0.00000000000E+00  0.57900220127E+02  0.57900220183E+02  0.25500000920E-02 0.  1.
        2   -1    0    0  501    0  0.00000000000E+00  0.00000000000E+00 -0.15896643310E+04  0.15896643310E+04  0.25500000920E-02 0. -1.
    10030    2    1    2    0    0  0.00000000000E+00  0.00000000000E+00 -0.15317641108E+04  0.16475645512E+04  0.60676820859E+03 0.  0.
        5    1    3    3  502    0  0.29027537890E+03 -0.34023455783E+02 -0.98651565092E+03  0.10289084559E+04  0.46999998093E+01 0. -1.
       -5    1    3    3    0  502 -0.29027537890E+03  0.34023455783E+02 -0.54524845992E+03  0.61865609525E+03  0.46999998093E+01 0.  1.
</event>
<event>
 5   0  0.7266519E-02  0.6077038E+03  0.7818609E-02  0.9889551E-01
       -1   -1    0    0    0  501  0.00000000000E+00  0.00000000000E+00  0.89430450718E+03  0.89430450719E+03  0.50400001928E-02 0. -1.
        1   -1    0    0  501    0  0.00000000000E+00  0.00000000000E+00 -0.10323773913E+03  0.10323773925E+03  0.50400001928E-02 0.  1.
    10030    2    1    2    0    0  0.00000000000E+00  0.00000000000E+00  0.79106676805E+03  0.99754224644E+03  0.60770379456E+03 0.  0.
        4    1    3    3  502    0 -0.29609938597E+03 -0.67093410191E+02  0.41550238300E+03  0.51460685503E+03  0.12699999809E+01 0.  1.
       -4    1    3    3    0  502  0.29609938597E+03  0.67093410191E+02  0.37556438505E+03  0.48293539142E+03  0.12699999809E+01 0. -1.
</event>
<event>
 5   0  0.1146468E-01  0.5912444E+03  0.7818609E-02  0.9923740E-01
        2   -1    0    0  501    0  0.00000000000E+00  0.00000000000E+00  0.11369690043E+04  0.11369690043E+04  0.25500000920E-02 0. -1.
       -2   -1    0    0    0  501  0.00000000000E+00  0.00000000000E+00 -0.76864430850E+02  0.76864430892E+02  0.25500000920E-02 0.  1.
    10030    2    1    2    0    0  0.00000000000E+00  0.00000000000E+00  0.10601045734E+04  0.12138334352E+04  0.59124436720E+03 0.  0.
        4    1    3    3  502    0  0.22067059705E+03 -0.56267945431E+02  0.91702933932E+03  0.94488412843E+03  0.12699999809E+01 0. -1.
       -4    1    3    3    0  502 -0.22067059705E+03  0.56267945431E+02  0.14307523412E+03  0.26894930676E+03  0.12699999809E+01 0.  1.
</event>
<event>
 5   0  0.7123340E-02  0.6091813E+03  0.7818609E-02  0.9886539E-01
       -1   -1    0    0    0  501  0.00000000000E+00  0.00000000000E+00  0.10107906183E+03  0.10107906196E+03  0.50400001928E-02 0.  1.
        1   -1    0    0  501    0  0.00000000000E+00  0.00000000000E+00 -0.91785039309E+03  0.91785039311E+03  0.50400001928E-02 0. -1.
    10030    2    1    2    0    0  0.00000000000E+00  0.00000000000E+00 -0.81677133126E+03  0.10189294551E+04  0.60918127584E+03 0.  0.
        2    1    3    3  502    0 -0.32177075396E+02 -0.17625194158E+03 -0.82039181698E+03  0.83972783952E+03  0.25500000920E-02 0. -1.
       -2    1    3    3    0  502  0.32177075396E+02  0.17625194158E+03  0.36204857179E+01  0.17920161555E+03  0.25500000920E-02 0.  1.
</event>
<event>
 5   0  0.7123340E-02  0.4805416E+03  0.7818609E-02  0.1018986E+00
        1   -1    0    0  501    0  0.00000000000E+00  0.00000000000E+00  0.19781699012E+03  0.19781699018E+03  0.50400001928E-02 0.  1.
       -1   -1    0    0    0  501  0.00000000000E+00  0.00000000000E+00 -0.29183563638E+03  0.29183563643E+03  0.50400001928E-02 0. -1.
    10030    2    1    2    0    0  0.00000000000E+00  0.00000000000E+00 -0.94018646264E+02  0.48965262661E+03  0.48054155794E+03 0.  0.
        2    1    3    3  502    0  0.19006734865E+03 -0.91701817622E+02 -0.16405774612E+03  0.26730088748E+03  0.25500000920E-02 0. -1.
       -2    1    3    3    0  502 -0.19006734865E+03  0.91701817622E+02  0.70039099860E+02  0.22235173913E+03  0.25500000920E-02 0.  1.
</event>
<event>
 5   0  0.1219020E-01  0.6077919E+03  0.7818609E-02  0.9889371E-01
        2   -1    0    0  501    0  0.00000000000E+00  0.00000000000E+00  0.63540312228E+03  0.63540312228E+03  0.25500000920E-02 0. -1.
       -2   -1    0    0    0  501  0.00000000000E+00  0.00000000000E+00 -0.14534513007E+03  0.14534513010E+03  0.25500000920E-02 0.  1.
    10030    2    1    2    0    0  0.00000000000E+00  0.00000000000E+00  0.49005799220E+03  0.78074825238E+03  0.60779190343E+03 0.  0.
        2    1    3    3  502    0 -0.18004947248E+03  0.15001583750E+03  0.49355228918E+03  0.54636656761E+03  0.25500000920E-02 0. -1.
       -2    1    3    3    0  502  0.18004947248E+03 -0.15001583750E+03 -0.34942969747E+01  0.23438168477E+03  0.25500000920E-02 0.  1.
</event>
<event>
 5   0  0.7221069E-02  0.6125006E+03  0.7818609E-02  0.9879805E-01
        1   -1    0    0  501    0  0.00000000000E+00  0.00000000000E+00  0.12684509631E+04  0.12684509631E+04  0.50400001928E-02 0. -1.
       -1   -1    0    0    0  501  0.00000000000E+00  0.00000000000E+00 -0.73939982718E+02  0.73939982890E+02  0.50400001928E-02 0.  1.
    10030    2    1    2    0    0  0.00000000000E+00  0.00000000000E+00  0.11945109804E+04  0.13423909460E+04  0.61250058747E+03 0.  0.
        5    1    3    3  502    0  0.19261823888E+03 -0.20533641425E+02  0.11170235466E+04  0.11337050366E+04  0.46999998093E+01 0. -1.
       -5    1    3    3    0  502 -0.19261823888E+03  0.20533641425E+02  0.77487433760E+02  0.20868590937E+03  0.46999998093E+01 0.  1.
</event>
<event>
 5   0  0.7266519E-02  0.5984587E+03  0.7818609E-02  0.9908609E-01
        1   -1    0    0  501    0  0.00000000000E+00  0.00000000000E+00  0.65880978521E+03  0.65880978523E+03  0.50400001928E-02 0. -1.
       -1   -1    0    0    0  501  0.00000000000E+00  0.00000000000E+00 -0.13590902083E+03  0.13590902092E+03  0.50400001928E-02 0.  1.
    10030    2    1    2    0    0  0.00000000000E+00  0.00000000000E+00  0.52290076438E+03  0.79471880615E+03  0.59845866312E+03 0.  0.
        4    1    3    3  502    0 -0.10233373397E+03 -0.10076974410E+02 -0.11170586442E+03  0.15183396052E+03  0.12699999809E+01 0.  1.
       -4    1    3    3    0  502  0.10233373397E+03  0.10076974410E+02  0.63460662880E+03  0.64288484563E+03  0.12699999809E+01 0. -1.
</event>
<event>
 5   0  0.7221069E-02  0.5958921E+03  0.7818609E-02  0.9913965E-01
       -1   -1    0    0    0  501  0.00000000000E+00  0.00000000000E+00  0.19988724675E+03  0.19988724681E+03  0.50400001928E-02 0. -1.
        1   -1    0    0  501    0  0.00000000000E+00  0.00000000000E+00 -0.44410962793E+03  0.44410962796E+03  0.50400001928E-02 0.  1.
    10030    2    1    2    0    0  0.00000000000E+00  0.00000000000E+00 -0.24422238118E+03  0.64399687477E+03  0.59589210705E+03 0.  0.
        5    1    3    3  502    0  0.28992750543E+03 -0.36366462532E+02 -0.18484257328E+03  0.34578800571E+03  0.46999998093E+01 0.  1.
       -5    1    3    3    0  502 -0.28992750543E+03  0.36366462532E+02 -0.59379807905E+02  0.29820886906E+03  0.46999998093E+01 0. -1.
</event>
<event>
 5   0  0.1219020E-01  0.6012251E+03  0.7818609E-02  0.9902868E-01
        2   -1    0    0  501    0  0.00000000000E+00  0.00000000000E+00  0.55437948672E+03  0.55437948673E+03  0.25500000920E-02 0. -1.
       -2   -1    0    0    0  501  0.00000000000E+00  0.00000000000E+00 -0.16300730276E+03  0.16300730278E+03  0.25500000920E-02 0.  1.
    10030    2    1    2    0    0  0.00000000000E+00  0.00000000000E+00  0.39137218395E+03  0.71738678951E+03  0.60122509877E+03 0.  0.
        2    1    3    3  502    0 -0.19459821920E+03  0.13761527175E+03 -0.22907180484E+02  0.23943928011E+03  0.25500000920E-02 0. -1.
       -2    1    3    3    0  502  0.19459821920E+03 -0.13761527175E+03  0.41427936444E+03  0.47794750940E+03  0.25500000920E-02 0.  1.
</event>
<event>
 5   0  0.1219020E-01  0.7624570E+03  0.7818609E-02  0.9616007E-01
        2   -1    0    0  501    0  0.00000000000E+00  0.00000000000E+00  0.62258082112E+03  0.62258082113E+03  0.25500000920E-02 0.  1.
       -2   -1    0    0    0  501  0.00000000000E+00  0.00000000000E+00 -0.23343986022E+03  0.23343986023E+03  0.25500000920E-02 0. -1.
    10030    2    1    2    0    0  0.00000000000E+00  0.00000000000E+00  0.38914096090E+03  0.85602068136E+03  0.76245702794E+03 0.  0.
        2    1    3    3  502    0 -0.45320979440E+02 -0.95627068600E+02  0.60576054962E+03  0.61493444440E+03  0.25500000920E-02 0.  1.
       -2    1    3    3    0  502  0.45320979440E+02  0.95627068600E+02 -0.21661958872E+03  0.24108623696E+03  0.25500000920E-02 0. -1.
</event>
<event>
 5   0  0.7266519E-02  0.5929168E+03  0.7818609E-02  0.9920211E-01
        1   -1    0    0  501    0  0.00000000000E+00  0.00000000000E+00  0.10021421671E+03  0.10021421684E+03  0.50400001928E-02 0.  1.
       -1   -1    0    0    0  501  0.00000000000E+00  0.00000000000E+00 -0.87699720315E+03  0.87699720317E+03  0.50400001928E-02 0. -1.
    10030    2    1    2    0    0  0.00000000000E+00  0.00000000000E+00 -0.77678298644E+03  0.97721142001E+03  0.59291681657E+03 0.  0.
        4    1    3    3  502    0 -0.11242222440E+03  0.14786085742E+03 -0.75871540436E+01  0.18590526486E+03  0.12699999809E+01 0.  1.
       -4    1    3    3    0  502  0.11242222440E+03 -0.14786085742E+03 -0.76919583239E+03  0.79130615514E+03  0.12699999809E+01 0. -1.
</event>
<event>
 5   0  0.1175861E-01  0.5889598E+03  0.7818609E-02  0.9928579E-01
        2   -1    0    0  501    0  0.00000000000E+00  0.00000000000E+00  0.52886121122E+03  0.52886121122E+03  0.25500000920E-02 0.  1.
       -2   -1    0    0    0  501  0.00000000000E+00  0.00000000000E+00 -0.16397197467E+03  0.16397197469E+03  0.25500000920E-02 0. -1.
    10030    2    1    2    0    0  0.00000000000E+00  0.00000000000E+00  0.36488923655E+03  0.69283318592E+03  0.58895981914E+03 0.  0.
        3    1    3    3  502    0 -0.41748459425E+02 -0.49580958266E+02  0.52036567980E+03  0.52438693367E+03  0.10100000352E+00 0.  1.
       -3    1    3    3    0  502  0.41748459425E+02  0.49580958266E+02 -0.15547644326E+03  0.16844625224E+03  0.10100000352E+00 0. -1.
</event>
<event>
 5   0  0.1175861E-01  0.6017717E+03  0.7818609E-02  0.9901737E-01
        2   -1    0    0  501    0  0.00000000000E+00  0.00000000000E+00  0.31968315591E+03  0.31968315592E+03  0.25500000920E-02 0.  1.
       -2   -1    0    0    0  501  0.00000000000E+00  0.00000000000E+00 -0.28319383904E+03  0.28319383905E+03  0.25500000920E-02 0. -1.
    10030    2    1    2    0    0  0.00000000000E+00  0.00000000000E+00  0.36489316871E+02  0.60287699497E+03  0.60177171819E+03 0.  0.
        3    1    3    3  502    0  0.69514723586E+02  0.18856246449E+03  0.24258493450E+03  0.31501676219E+03  0.10100000352E+00 0.  1.
       -3    1    3    3    0  502 -0.69514723586E+02 -0.18856246449E+03 -0.20609561763E+03  0.28786023278E+03  0.10100000352E+00 0. -1.
</event>
<event>
 5   0  0.1146468E-01  0.4380736E+03  0.7818609E-02  0.1031339E+00
        2   -1    0    0  501    0  0.00000000000E+00  0.00000000000E+00  0.38049086514E+03  0.38049086515E+03  0.25500000920E-02 0.  1.
       -2   -1    0    0    0  501  0.00000000000E+00  0.00000000000E+00 -0.12609271816E+03  0.12609271819E+03  0.25500000920E-02 0. -1.
    10030    2    1    2    0    0  0.00000000000E+00  0.00000000000E+00  0.25439814698E+03  0.50658358334E+03  0.43807363505E+03 0.  0.
        4    1    3    3  502    0 -0.15763401108E+03 -0.96385430749E+02  0.26322544425E+03  0.32160205240E+03  0.12699999809E+01 0.  1.
       -4    1    3    3    0  502  0.15763401108E+03  0.96385430749E+02 -0.88272972666E+01  0.18498153094E+03  0.12699999809E+01 0. -1.
</event>
<event>
 5   0  0.7266519E-02  0.6024446E+03  0.7818609E-02  0.9900347E-01
       -1   -1    0    0    0  501  0.00000000000E+00  0.00000000000E+00  0.13589064728E+03  0.13589064737E+03  0.50400001928E-02 0.  1.
        1   -1    0    0  501    0  0.00000000000E+00  0.00000000000E+00 -0.66770510905E+03  0.66770510907E+03  0.50400001928E-02 0. -1.
    10030    2    1    2    0    0  0.00000000000E+00  0.00000000000E+00 -0.53181446177E+03  0.80359575644E+03  0.60244461822E+03 0.  0.
        4    1    3    3  502    0 -0.13219114623E+03 -0.12327281578E+03 -0.58732410403E+03  0.61450948107E+03  0.12699999809E+01 0. -1.
       -4    1    3    3    0  502  0.13219114623E+03  0.12327281578E+03  0.55509642258E+02  0.18908627537E+03  0.12699999809E+01 0.  1.
</event>
<event>
 5   0  0.7266519E-02  0.6010140E+03  0.7818609E-02  0.9903305E-01
       -1   -1    0    0    0  501  0.00000000000E+00  0.00000000000E+00  0.29030939060E+03  0.29030939065E+03  0.50400001928E-02 0. -1.
        1   -1    0    0  501    0  0.00000000000E+00  0.00000000000E+00 -0.31106277336E+03  0.31106277340E+03  0.50400001928E-02 0.  1.
    10030    2    1    2    0    0  0.00000000000E+00  0.00000000000E+00 -0.20753382751E+02  0.60137216404E+03  0.60101395724E+03 0.  0.
        4    1    3    3  502    0 -0.64528903565E+02 -0.27999980797E+03 -0.98400478468E+02  0.30372378721E+03  0.12699999809E+01 0.  1.
       -4    1    3    3    0  502  0.64528903565E+02  0.27999980797E+03  0.77647095717E+02  0.29764837683E+03  0.12699999809E+01 0. -1.
</event>
<event>
 5   0  0.1206238E-01  0.6088413E+03  0.7818609E-02  0.9887231E-01
        2   -1    0    0  501    0  0.00000000000E+00  0.00000000000E+00  0.58788022630E+03  0.58788022631E+03  0.25500000920E-02 0. -1.
       -2   -1    0    0    0  501  0.00000000000E+00  0.00000000000E+00 -0.15763745245E+03  0.15763745247E+03  0.25500000920E-02 0.  1.
    10030    2    1    2    0    0  0.00000000000E+00  0.00000000000E+00  0.43024277386E+03  0.74551767878E+03  0.60884132984E+03 0.  0.
        5    1    3    3  502    0  0.78455987044E+02 -0.28377115739E+03  0.12052289329E+03  0.31816547499E+03  0.46999998093E+01 0.  1.
       -5    1    3    3    0  502 -0.78455987044E+02  0.28377115739E+03  0.30971988057E+03  0.42735220379E+03  0.46999998093E+01 0. -1.
</event>
<event>
 5   0  0.7266519E-02  0.6383846E+03  0.7818609E-02  0.9828822E-01
       -1   -1    0    0    0  501  0.00000000000E+00  0.00000000000E+00  0.34869466672E+02  0.34869467036E+02  0.50400001928E-02 0.  1.
        1   -1    0    0  501    0  0.00000000000E+00  0.00000000000E+00 -0.29218603742E+04  0.29218603742E+04  0.50400001928E-02 0. -1.
    10030    2    1    2    0    0  0.00000000000E+00  0.00000000000E+00 -0.28869909075E+04  0.29567298412E+04  0.63838456586E+03 0.  0.
        4    1    3    3  502    0 -0.27132115301E+02 -0.24938630637E+03 -0.52938961484E+03  0.58581964689E+03  0.12699999809E+01 0.  1.
       -4    1    3    3    0  502  0.27132115301E+02  0.24938630637E+03 -0.23576012927E+04  0.23709101943E+04  0.12699999809E+01 0. -1.
</event>
<event>
 5   0  0.1175861E-01  0.6095857E+03  0.7818609E-02  0.9885716E-01
        2   -1    0    0  501    0  0.00000000000E+00  0.00000000000E+00  0.65160269041E+03  0.65160269042E+03  0.25500000920E-02 0. -1.
       -2   -1    0    0    0  501  0.00000000000E+00  0.00000000000E+00 -0.14256953133E+03  0.14256953136E+03  0.25500000920E-02 0.  1.
    10030    2    1    2    0    0  0.00000000000E+00  0.00000000000E+00  0.50903315908E+03  0.79417222178E+03  0.60958572883E+03 0.  0.
        3    1    3    3  502    0 -0.48510259548E+02 -0.15892795326E+03  0.58740170515E+03  0.61045238391E+03  0.10100000352E+00 0. -1.
       -3    1    3    3    0  502  0.48510259548E+02  0.15892795326E+03 -0.78368546074E+02  0.18371983786E+03  0.10100000352E+00 0.  1.
</event>
<event>
 5   0  0.1175861E-01  0.6273609E+03  0.7818609E-02  0.9850212E-01
        2   -1    0    0  501    0  0.00000000000E+00  0.00000000000E+00  0.16486800024E+03  0.16486800026E+03  0.25500000920E-02 0. -1.
       -2   -1    0    0    0  501  0.00000000000E+00  0.00000000000E+00 -0.59681330960E+03  0.59681330960E+03  0.25500000920E-02 0.  1.
    10030    2    1    2    0    0  0.00000000000E+00  0.00000000000E+00 -0.43194530935E+03  0.76168130987E+03  0.62736087504E+03 0.  0.
        3    1    3    3  502    0  0.15470125245E+03 -0.11384644932E+03  0.85120018994E+02  0.21009264472E+03  0.10100000352E+00 0. -1.
       -3    1    3    3    0  502 -0.15470125245E+03  0.11384644932E+03 -0.51706532835E+03  0.55158866514E+03  0.10100000352E+00 0.  1.
</event>
<event>
 5   0  0.7266519E-02  0.6049129E+03  0.7818609E-02  0.9895265E-01
       -1   -1    0    0    0  501  0.00000000000E+00  0.00000000000E+00  0.13041048626E+03  0.13041048636E+03  0.50400001928E-02 0.  1.
        1   -1    0    0  501    0  0.00000000000E+00  0.00000000000E+00 -0.70147666729E+03  0.70147666731E+03  0.50400001928E-02 0. -1.
    10030    2    1    2    0    0  0.00000000000E+00  0.00000000000E+00 -0.57106618103E+03  0.83188715366E+03  0.60491293036E+03 0.  0.
        4    1    3    3  502    0  0.26845635282E+03 -0.12198208615E+03 -0.37809106255E+03  0.47948191539E+03  0.12699999809E+01 0. -1.
       -4    1    3    3    0  502 -0.26845635282E+03  0.12198208615E+03 -0.19297511847E+03  0.35240523827E+03  0.12699999809E+01 0.  1.
</event>
<event>
 5   0  0.7424930E-02  0.5987409E+03  0.7818609E-02  0.9908022E-01
        1   -1    0    0  501    0  0.00000000000E+00  0.00000000000E+00  0.99368203011E+03  0.99368203012E+03  0.50400001928E-02 0. -1.
       -1   -1    0    0    0  501  0.00000000000E+00  0.00000000000E+00 -0.90192503519E+02  0.90192503660E+02  0.50400001928E-02 0.  1.
    10030    2    1    2    0    0  0.00000000000E+00  0.00000000000E+00  0.90348952659E+03  0.10838745338E+04  0.59874091252E+03 0.  0.
        3    1    3    3  502    0 -0.19472422888E+03  0.15025929644E+03  0.76069606612E+03  0.79947101054E+03  0.10100000352E+00 0. -1.
       -3    1    3    3    0  502  0.19472422888E+03 -0.15025929644E+03  0.14279346047E+03  0.28440352324E+03  0.10100000352E+00 0.  1.
</event>
<event>
 5   0  0.7266519E-02  0.6028595E+03  0.7818609E-02  0.9899491E-01
       -1   -1    0    0    0  501  0.00000000000E+00  0.00000000000E+00  0.27090957064E+03  0.27090957069E+03  0.50400001928E-02 0. -1.
        1   -1    0    0  501    0  0.00000000000E+00  0.00000000000E+00 -0.33538828421E+03  0.33538828425E+03  0.50400001928E-02 0.  1.
    10030    2    1    2    0    0  0.00000000000E+00  0.00000000000E+00 -0.64478713571E+02  0.60629785494E+03  0.60285950635E+03 0.  0.
        4    1    3    3  502    0  0.10230111806E+03 -0.15630289198E+03 -0.27015181970E+03  0.32845050066E+03  0.12699999809E+01 0.  1.
       -4    1    3    3    0  502 -0.10230111806E+03  0.15630289198E+03  0.20567310612E+03  0.27784735428E+03  0.12699999809E+01 0. -1.
</event>
<event>
 5   0  0.1206238E-01  0.5783029E+03  0.7818609E-02  0.9951472E-01
       -2   -1    0    0    0  501  0.00000000000E+00  0.00000000000E+00  0.15932744226E+03  0.15932744228E+03  0.25500000920E-02 0.  1.
        2   -1    0    0  501    0  0.00000000000E+00  0.00000000000E+00 -0.52475939055E+03  0.52475939056E+03  0.25500000920E-02 0. -1.
    10030    2    1    2    0    0  0.00000000000E+00  0.00000000000E+00 -0.36543194829E+03  0.68408683283E+03  0.57830293620E+03 0.  0.
        5    1    3    3  502    0 -0.13012843342E+03  0.15840984436E+03 -0.42386773345E+03  0.47086413479E+03  0.46999998093E+01 0. -1.
       -5    1    3    3    0  502  0.13012843342E+03 -0.15840984436E+03  0.58435785154E+02  0.21322269804E+03  0.46999998093E+01 0.  1.
</event>
<event>
 5   0  0.7266519E-02  0.6177765E+03  0.7818609E-02  0.9869197E-01
        1   -1    0    0  501    0  0.00000000000E+00  0.00000000000E+00  0.47648910671E+03  0.47648910674E+03  0.50400001928E-02 0. -1.
       -1   -1    0    0    0  501  0.00000000000E+00  0.00000000000E+00 -0.20023955079E+03  0.20023955085E+03  0.50400001928E-02 0.  1.
    10030    2    1    2    0    0  0.00000000000E+00  0.00000000000E+00  0.27624955593E+03  0.67672865759E+03  0.61777654444E+03 0.  0.
        4    1    3    3  502    0 -0.36202327653E+02 -0.25647534139E+03 -0.46220013073E+02  0.26311235581E+03  0.12699999809E+01 0.  1.
       -4    1    3    3    0  502  0.36202327653E+02  0.25647534139E+03  0.32246956900E+03  0.41361630178E+03  0.12699999809E+01 0. -1.
</event>
<event>
 5   0  0.4695625E-02  0.5895528E+03  0.7818609E-02  0.9927321E-01
        3   -1    0    0  501    0  0.00000000000E+00  0.00000000000E+00  0.13426106423E+04  0.13426106461E+04  0.10100000352E+00 0. -1.
       -3   -1    0    0    0  501  0.00000000000E+00  0.00000000000E+00 -0.64719490051E+02  0.64719568861E+02  0.10100000352E+00 0.  1.
    10030    2    1    2    0    0  0.00000000000E+00  0.00000000000E+00  0.12778911522E+04  0.14073302149E+04  0.58955282794E+03 0.  0.
        4    1    3    3  502    0  0.13647608092E+03 -0.12760126686E+03  0.94684906803E+02  0.20946276147E+03  0.12699999809E+01 0.  1.
       -4    1    3    3    0  502 -0.13647608092E+03  0.12760126686E+03  0.11832062454E+04  0.11978674535E+04  0.12699999809E+01 0. -1.
</event>
<event>
 5   0  0.7123340E-02  0.5746995E+03  0.7818609E-02  0.9959333E-01
        1   -1    0    0  501    0  0.00000000000E+00  0.00000000000E+00  0.14411852763E+04  0.14411852763E+04  0.50400001928E-02 0.  1.
       -1   -1    0    0    0  501  0.00000000000E+00  0.00000000000E+00 -0.57293025659E+02  0.57293025881E+02  0.50400001928E-02 0. -1.
    10030    2    1    2    0    0  0.00000000000E+00  0.00000000000E+00  0.13838922506E+04  0.14984783022E+04  0.57469945253E+03 0.  0.
        2    1    3    3  502    0 -0.11572700007E+03 -0.26299436589E+03  0.70062929533E+03  0.75725833407E+03  0.25500000920E-02 0. -1.
       -2    1    3    3    0  502  0.11572700007E+03  0.26299436589E+03  0.68326295528E+03  0.74121996809E+03  0.25500000920E-02 0.  1.
</event>
<event>
 5   0  0.7221069E-02  0.5932528E+03  0.7818609E-02  0.9919504E-01
        1   -1    0    0  501    0  0.00000000000E+00  0.00000000000E+00  0.85307486555E+03  0.85307486556E+03  0.50400001928E-02 0. -1.
       -1   -1    0    0    0  501  0.00000000000E+00  0.00000000000E+00 -0.10314127429E+03  0.10314127441E+03  0.50400001928E-02 0.  1.
    10030    2    1    2    0    0  0.00000000000E+00  0.00000000000E+00  0.74993359126E+03  0.95621613998E+03  0.59325282557E+03 0.  0.
        5    1    3    3  502    0  0.17480340032E+03  0.14242674373E+02  0.76047822553E+03  0.78045390898E+03  0.46999998093E+01 0. -1.
       -5    1    3    3    0  502 -0.17480340032E+03 -0.14242674373E+02 -0.10544634265E+02  0.17576223100E+03  0.46999998093E+01 0.  1.
</event>
<event>
 5   0  0.1219020E-01  0.5976101E+03  0.7818609E-02  0.9910377E-01
       -2   -1    0    0    0  501  0.00000000000E+00  0.00000000000E+00  0.15650957717E+03  0.15650957719E+03  0.25500000920E-02 0.  1.
        2   -1    0    0  501    0  0.00000000000E+00  0.00000000000E+00 -0.57047280862E+03  0.57047280862E+03  0.25500000920E-02 0. -1.
    10030    2    1    2    0    0  0.00000000000E+00  0.00000000000E+00 -0.41396323145E+03  0.72698238581E+03  0.59761010056E+03 0.  0.
        2    1    3    3  502    0 -0.21217226922E+03 -0.19382458195E+03 -0.30655069395E+03  0.42018849146E+03  0.25500000920E-02 0. -1.
       -2    1    3    3    0  502  0.21217226922E+03  0.19382458195E+03 -0.10741253750E+03  0.30679389435E+03  0.25500000920E-02 0.  1.
</event>
<event>
 5   0  0.1146468E-01  0.6124995E+03  0.7818609E-02  0.9879808E-01
        2   -1    0    0  501    0  0.00000000000E+00  0.00000000000E+00  0.10149841714E+04  0.10149841714E+04  0.25500000920E-02 0.  1.
       -2   -1    0    0    0  501  0.00000000000E+00  0.00000000000E+00 -0.92404309456E+02  0.92404309491E+02  0.25500000920E-02 0. -1.
    10030    2    1    2    0    0  0.00000000000E+00  0.00000000000E+00  0.92257986196E+03  0.11073884809E+04  0.61249950690E+03 0.  0.
        4    1    3    3  502    0  0.94469163858E+01 -0.11515381759E+03 -0.51481655823E+02  0.12649750875E+03  0.12699999809E+01 0. -1.
       -4    1    3    3    0  502 -0.94469163858E+01  0.11515381759E+03  0.97406151779E+03  0.98089097216E+03  0.12699999809E+01 0.  1.
</event>
<event>
 5   0  0.1175861E-01  0.6038938E+03  0.7818609E-02  0.9897360E-01
       -2   -1    0    0    0  501  0.00000000000E+00  0.00000000000E+00  0.62271707448E+02  0.62271707500E+02  0.25500000920E-02 0.  1.
        2   -1    0    0  501    0  0.00000000000E+00  0.00000000000E+00 -0.14640988289E+04  0.14640988289E+04  0.25500000920E-02 0. -1.
    10030    2    1    2    0    0  0.00000000000E+00  0.00000000000E+00 -0.14018271215E+04  0.15263705364E+04  0.60389381183E+03 0.  0.
        3    1    3    3  502    0  0.16270520530E+03 -0.22209157223E+03 -0.10143119040E+04  0.10510120357E+04  0.10100000352E+00 0. -1.
       -3    1    3    3    0  502 -0.16270520530E+03  0.22209157223E+03 -0.38751521749E+03  0.47535850079E+03  0.10100000352E+00 0.  1.
</event>
<event>
 5   0  0.7266519E-02  0.6069458E+03  0.7818609E-02  0.9891100E-01
       -1   -1    0    0    0  501  0.00000000000E+00  0.00000000000E+00  0.71891829394E+02  0.71891829570E+02  0.50400001928E-02 0. -1.
        1   -1    0    0  501    0  0.00000000000E+00  0.00000000000E+00 -0.12810328163E+04  0.12810328163E+04  0.50400001928E-02 0.  1.
    10030    2    1    2    0    0  0.00000000000E+00  0.00000000000E+00 -0.12091409869E+04  0.13529246459E+04  0.60694577289E+03 0.  0.
        4    1    3    3  502    0 -0.16642331476E+03  0.17684508531E+03 -0.19888417748E+03  0.31389079764E+03  0.12699999809E+01 0. -1.
       -4    1    3    3    0  502  0.16642331476E+03 -0.17684508531E+03 -0.10102568095E+04  0.10390338483E+04  0.12699999809E+01 0.  1.
</event>
<event>
 5   0  0.7424930E-02  0.7347192E+03  0.7818609E-02  0.9659633E-01
        1   -1    0    0  501    0  0.00000000000E+00  0.00000000000E+00  0.94277368590E+03  0.94277368592E+03  0.50400001928E-02 0. -1.
       -1   -1    0    0    0  501  0.00000000000E+00  0.00000000000E+00 -0.14314473076E+03  0.14314473085E+03  0.50400001928E-02 0.  1.
    10030    2    1    2    0    0  0.00000000000E+00  0.00000000000E+00  0.79962895514E+03  0.10859184168E+04  0.73471922662E+03 0.  0.
        3    1    3    3  502    0 -0.19479385050E+02  0.29458011064E+03  0.72294086170E+03  0.78089716848E+03  0.10100000352E+00 0. -1.
       -3    1    3    3    0  502  0.19479385050E+02 -0.29458011064E+03  0.76688093444E+02  0.30502124828E+03  0.10100000352E+00 0.  1.
</event>
<event>
 5   0  0.7221069E-02  0.5891828E+03  0.7818609E-02  0.9928106E-01
       -1   -1    0    0    0  501  0.00000000000E+00  0.00000000000E+00  0.14775464870E+03  0.14775464878E+03  0.50400001928E-02 0. -1.
        1   -1    0    0  501    0  0.00000000000E+00  0.00000000000E+00 -0.58735265214E+03  0.58735265216E+03  0.50400001928E-02 0.  1.
    10030    2    1    2    0    0  0.00000000000E+00  0.00000000000E+00 -0.43959800344E+03  0.73510730095E+03  0.58918277238E+03 0.  0.
        5    1    3    3  502    0 -0.13848358904E+03 -0.25973362063E+03 -0.23362154370E+03  0.37581960273E+03  0.46999998093E+01 0.  1.
       -5    1    3    3    0  502  0.13848358904E+03  0.25973362063E+03 -0.20597645975E+03  0.35928769821E+03  0.46999998093E+01 0. -1.
</event>
<event>
 5   0  0.7221069E-02  0.5960864E+03  0.7818609E-02  0.9913559E-01
       -1   -1    0    0    0  501  0.00000000000E+00  0.00000000000E+00  0.87209018432E+02  0.87209018577E+02  0.50400001928E-02 0.  1.
        1   -1    0    0  501    0  0.00000000000E+00  0.00000000000E+00 -0.10185842905E+04  0.10185842905E+04  0.50400001928E-02 0. -1.
    10030    2    1    2    0    0  0.00000000000E+00  0.00000000000E+00 -0.93137527208E+03  0.11057933091E+04  0.59608635701E+03 0.  0.
        5    1    3    3  502    0 -0.60773847015E+02 -0.21488301755E+03 -0.99621277425E+02  0.24457035926E+03  0.46999998093E+01 0.  1.
       -5    1    3    3    0  502  0.60773847015E+02  0.21488301755E+03 -0.83175399465E+03  0.86122294984E+03  0.46999998093E+01 0. -1.
</event>
<event>
 5   0  0.1219020E-01  0.6403950E+03  0.7818609E-02  0.9824971E-01
        2   -1    0    0  501    0  0.00000000000E+00  0.00000000000E+00  0.39017898690E+03  0.39017898691E+03  0.25500000920E-02 0. -1.
       -2   -1    0    0    0  501  0.00000000000E+00  0.00000000000E+00 -0.26276773232E+03  0.26276773233E+03  0.25500000920E-02 0.  1.
    10030    2    1    2    0    0  0.00000000000E+00  0.00000000000E+00  0.12741125459E+03  0.65294671924E+03  0.64039502682E+03 0.  0.
        2    1    3    3  502    0 -0.26662880872E+02 -0.16172785074E+03 -0.21674856133E+03  0.27174757730E+03  0.25500000920E-02 0.  1.
       -2    1    3    3    0  502  0.26662880872E+02  0.16172785074E+03  0.34415981592E+03  0.38119914195E+03  0.25500000920E-02 0. -1.
</event>
<event>
 5   0  0.1219020E-01  0.6029506E+03  0.7818609E-02  0.9899303E-01
        2   -1    0    0  501    0  0.00000000000E+00  0.00000000000E+00  0.78670024620E+03  0.78670024621E+03  0.25500000920E-02 0. -1.
       -2   -1    0    0    0  501  0.00000000000E+00  0.00000000000E+00 -0.11552983152E+03  0.11552983154E+03  0.25500000920E-02 0.  1.
    10030    2    1    2    0    0  0.00000000000E+00  0.00000000000E+00  0.67117041469E+03  0.90223007775E+03  0.60295056816E+03 0.  0.
        2    1    3    3  502    0  0.10354308489E+03 -0.26385976246E+03  0.48923870680E+03  0.56541812574E+03  0.25500000920E-02 0. -1.
       -2    1    3    3    0  502 -0.10354308489E+03  0.26385976246E+03  0.18193170788E+03  0.33681195201E+03  0.25500000920E-02 0.  1.
</event>
<event>
 5   0  0.7424930E-02  0.6206690E+03  0.7818609E-02  0.9863429E-01
        1   -1    0    0  501    0  0.00000000000E+00  0.00000000000E+00  0.49445595550E+03  0.49445595552E+03  0.50400001928E-02 0.  1.
       -1   -1    0    0    0  501  0.00000000000E+00  0.00000000000E+00 -0.19477467407E+03  0.19477467413E+03  0.50400001928E-02 0. -1.
    10030    2    1    2    0    0  0.00000000000E+00  0.00000000000E+00  0.29968128143E+03  0.68923062966E+03  0.62066898619E+03 0.  0.
        3    1    3    3  502    0  0.28669546744E+03  0.11324661055E+03  0.18969998442E+03  0.36194637744E+03  0.10100000352E+00 0. -1.
       -3    1    3    3    0  502 -0.28669546744E+03 -0.11324661055E+03  0.10998129701E+03  0.32728425221E+03  0.10100000352E+00 0.  1.
</event>
<event>
 5   0  0.7263385E-02  0.6019162E+03  0.7818609E-02  0.9901439E-01
       -1   -1    0    0    0  501  0.00000000000E+00  0.00000000000E+00  0.15169607127E+03  0.15169607136E+03  0.50400001928E-02 0.  1.
        1   -1    0    0  501    0  0.00000000000E+00  0.00000000000E+00 -0.59708715907E+03  0.59708715909E+03  0.50400001928E-02 0. -1.
    10030    2    1    2    0    0  0.00000000000E+00  0.00000000000E+00 -0.44539108780E+03  0.74878323045E+03  0.60191619443E+03 0.  0.
        1    1    3    3  502    0 -0.23619772413E+03 -0.24811930612E+02 -0.45265301513E+03  0.51117487117E+03  0.50400001928E-02 0. -1.
       -1    1    3    3    0  502  0.23619772413E+03  0.24811930612E+02  0.72619273326E+01  0.23760835928E+03  0.50400001928E-02 0.  1.
</event>
<event>
 5   0  0.1166419E-01  0.6043410E+03  0.7818609E-02  0.9896441E-01
       -2   -1    0    0    0  501  0.00000000000E+00  0.00000000000E+00  0.12191034329E+04  0.12191034329E+04  0.25500000920E-02 0.  1.
        2   -1    0    0  501    0  0.00000000000E+00  0.00000000000E+00 -0.74896855892E+02  0.74896855935E+02  0.25500000920E-02 0. -1.
    10030    2    1    2    0    0  0.00000000000E+00  0.00000000000E+00  0.11442065770E+04  0.12940002889E+04  0.60434101023E+03 0.  0.
        1    1    3    3  502    0  0.21492266078E+03  0.31868239237E+00  0.11731049973E+03  0.24485425266E+03  0.50400001928E-02 0. -1.
       -1    1    3    3    0  502 -0.21492266078E+03 -0.31868239237E+00  0.10268960773E+04  0.10491460362E+04  0.50400001928E-02 0.  1.
</event>
<event>
 5   0  0.1206238E-01  0.5971886E+03  0.7818609E-02  0.9911256E-01
        2   -1    0    0  501    0  0.00000000000E+00  0.00000000000E+00  0.48063532653E+03  0.48063532654E+03  0.25500000920E-02 0. -1.
       -2   -1    0    0    0  501  0.00000000000E+00  0.00000000000E+00 -0.18550144741E+03  0.18550144743E+03  0.25500000920E-02 0.  1.
    10030    2    1    2    0    0  0.00000000000E+00  0.00000000000E+00  0.29513387912E+03  0.66613677396E+03  0.59718857576E+03 0.  0.
        5    1    3    3  502    0 -0.26810778393E+03 -0.12194452175E+03  0.93101120304E+02  0.30893714375E+03  0.46999998093E+01 0.  1.
       -5    1    3    3    0  502  0.26810778393E+03  0.12194452175E+03  0.20203275882E+03  0.35719963021E+03  0.46999998093E+01 0. -1.
</event>
<event>
 5   0  0.7123340E-02  0.6128137E+03  0.7818609E-02  0.9879173E-01
        1   -1    0    0  501    0  0.00000000000E+00  0.00000000000E+00  0.25939894206E+03  0.25939894211E+03  0.50400001928E-02 0.  1.
       -1   -1    0    0    0  501  0.00000000000E+00  0.00000000000E+00 -0.36193349903E+03  0.36193349906E+03  0.50400001928E-02 0. -1.
    10030    2    1    2    0    0  0.00000000000E+00  0.00000000000E+00 -0.10253455696E+03  0.62133244118E+03  0.61281372952E+03 0.  0.
        2    1    3    3  502    0 -0.22679866304E+03 -0.77246425781E+02  0.14238654249E+03  0.27870875721E+03  0.25500000920E-02 0.  1.
       -2    1    3    3    0  502  0.22679866304E+03  0.77246425781E+02 -0.24492109945E+03  0.34262368397E+03  0.25500000920E-02 0. -1.
</event>
<event>
 5   0  0.7123340E-02  0.5968695E+03  0.7818609E-02  0.9911922E-01
       -1   -1    0    0    0  501  0.00000000000E+00  0.00000000000E+00  0.63887820426E+02  0.63887820624E+02  0.50400001928E-02 0. -1.
        1   -1    0    0  501    0  0.00000000000E+00  0.00000000000E+00 -0.13940573927E+04  0.13940573927E+04  0.50400001928E-02 0.  1.
    10030    2    1    2    0    0  0.00000000000E+00  0.00000000000E+00 -0.13301695723E+04  0.14579452133E+04  0.59686946150E+03 0.  0.
        2    1    3    3  502    0  0.36582660885E+01 -0.17555188015E+03 -0.75643405541E+02  0.19119040337E+03  0.25500000920E-02 0. -1.
       -2    1    3    3    0  502 -0.36582660885E+01  0.17555188015E+03 -0.12545261667E+04  0.12667548099E+04  0.25500000920E-02 0.  1.
</event>
<event>
 5   0  0.7424930E-02  0.6315083E+03  0.7818609E-02  0.9842110E-01
       -1   -1    0    0    0  501  0.00000000000E+00  0.00000000000E+00  0.27213675395E+03  0.27213675399E+03  0.50400001928E-02 0. -1.
        1   -1    0    0  501    0  0.00000000000E+00  0.00000000000E+00 -0.36636245563E+03  0.36636245567E+03  0.50400001928E-02 0.  1.
    10030    2    1    2    0    0  0.00000000000E+00  0.00000000000E+00 -0.94225701683E+02  0.63849920966E+03  0.63150831972E+03 0.  0.
        3    1    3    3  502    0  0.30411248089E+03 -0.25459655135E+02 -0.12905373452E+03  0.33134192561E+03  0.10100000352E+00 0.  1.
       -3    1    3    3    0  502 -0.30411248089E+03  0.25459655135E+02  0.34828032838E+02  0.30715728405E+03  0.10100000352E+00 0. -1.
</event>
<event>
 5   0  0.1175861E-01  0.5969591E+03  0.7818609E-02  0.9911735E-01
        2   -1    0    0  501    0  0.00000000000E+00  0.00000000000E+00  0.40779900455E+03  0.40779900456E+03  0.25500000920E-02 0.  1.
       -2   -1    0    0    0  501  0.00000000000E+00  0.00000000000E+00 -0.21846557378E+03  0.21846557379E+03  0.25500000920E-02 0. -1.
    10030    2    1    2    0    0  0.00000000000E+00  0.00000000000E+00  0.18933343077E+03  0.62626457835E+03  0.59695910587E+03 0.  0.
        3    1    3    3  502    0  0.20003615760E+03 -0.70697821229E+02  0.31491938851E+03  0.37971947242E+03  0.10100000352E+00 0.  1.
       -3    1    3    3    0  502 -0.20003615760E+03  0.70697821229E+02 -0.12558595774E+03  0.24654510593E+03  0.10100000352E+00 0. -1.
</event>
<event>
 5   0  0.7221069E-02  0.5837522E+03  0.7818609E-02  0.9939700E-01
        1   -1    0    0  501    0  0.00000000000E+00  0.00000000000E+00  0.74469440603E+02  0.74469440774E+02  0.50400001928E-02 0. -1.
       -1   -1    0    0    0  501  0.00000000000E+00  0.00000000000E+00 -0.11439814533E+04  0.11439814533E+04  0.50400001928E-02 0.  1.
    10030    2    1    2    0    0  0.00000000000E+00  0.00000000000E+00 -0.10695120127E+04  0.12184508941E+04  0.58375220427E+03 0.  0.
        5    1    3    3  502    0  0.23801915697E+03  0.12168882909E+03 -0.77913898934E+03  0.82373596797E+03  0.46999998093E+01 0.  1.
       -5    1    3    3    0  502 -0.23801915697E+03 -0.12168882909E+03 -0.29037302336E+03  0.39471492613E+03  0.46999998093E+01 0. -1.
</event>
<event>
 5   0  0.7123340E-02  0.5974469E+03  0.7818609E-02  0.9910717E-01
        1   -1    0    0  501    0  0.00000000000E+00  0.00000000000E+00  0.94790591641E+03  0.94790591642E+03  0.50400001928E-02 0. -1.
       -1   -1    0    0    0  501  0.00000000000E+00  0.00000000000E+00 -0.94139817397E+02  0.94139817532E+02  0.50400001928E-02 0.  1.
    10030    2    1    2    0    0  0.00000000000E+00  0.00000000000E+00  0.85376609901E+03  0.10420457340E+04  0.59744686779E+03 0.  0.
        2    1    3    3  502    0 -0.14355654767E+03 -0.16344235482E+03  0.78396346514E+03  0.81358502961E+03  0.25500000920E-02 0. -1.
       -2    1    3    3    0  502  0.14355654767E+03  0.16344235482E+03  0.69802633868E+02  0.22846070434E+03  0.25500000920E-02 0.  1.
</event>
<event>
 5   0  0.1175861E-01  0.5548983E+03  0.7818609E-02  0.1000366E+00
        2   -1    0    0  501    0  0.00000000000E+00  0.00000000000E+00  0.36410993312E+03  0.36410993313E+03  0.25500000920E-02 0.  1.
       -2   -1    0    0    0  501  0.00000000000E+00  0.00000000000E+00 -0.21141427558E+03  0.21141427559E+03  0.25500000920E-02 0. -1.
    10030    2    1    2    0    0  0.00000000000E+00  0.00000000000E+00  0.15269565755E+03  0.57552420872E+03  0.55489832491E+03 0.  0.
        3    1    3    3  502    0 -0.14049291258E+03  0.22494243258E+03  0.16086718252E+03  0.31018642310E+03  0.10100000352E+00 0.  1.
       -3    1    3    3    0  502  0.14049291258E+03 -0.22494243258E+03 -0.81715249713E+01  0.26533778563E+03  0.10100000352E+00 0. -1.
</event>
<event>
 5   0  0.1206238E-01  0.5862628E+03  0.7818609E-02  0.9934324E-01
        2   -1    0    0  501    0  0.00000000000E+00  0.00000000000E+00  0.57399198433E+03  0.57399198433E+03  0.25500000920E-02 0.  1.
       -2   -1    0    0    0  501  0.00000000000E+00  0.00000000000E+00 -0.14969895999E+03  0.14969896001E+03  0.25500000920E-02 0. -1.
    10030    2    1    2    0    0  0.00000000000E+00  0.00000000000E+00  0.42429302434E+03  0.72369094434E+03  0.58626275032E+03 0.  0.
        5    1    3    3  502    0 -0.31404311306E+02 -0.12099579184E+03  0.53938894239E+03  0.55370455441E+03  0.46999998093E+01 0.  1.
       -5    1    3    3    0  502  0.31404311306E+02  0.12099579184E+03 -0.11509591805E+03  0.16998638993E+03  0.46999998093E+01 0. -1.
</event>
<event>
 5   0  0.1206238E-01  0.5975212E+03  0.7818609E-02  0.9910562E-01
        2   -1    0    0  501    0  0.00000000000E+00  0.00000000000E+00  0.68285700171E+03  0.68285700172E+03  0.25500000920E-02 0.  1.
       -2   -1    0    0    0  501  0.00000000000E+00  0.00000000000E+00 -0.13071244729E+03  0.13071244732E+03  0.25500000920E-02 0. -1.
    10030    2    1    2    0    0  0.00000000000E+00  0.00000000000E+00  0.55214455442E+03  0.81356944903E+03  0.59752124600E+03 0.  0.
        5    1    3    3  502    0  0.53354786594E+02  0.23563407493E+03  0.51528216608E+03  0.56912911645E+03  0.46999998093E+01 0.  1.
       -5    1    3    3    0  502 -0.53354786594E+02 -0.23563407493E+03  0.36862388344E+02  0.24444033258E+03  0.46999998093E+01 0. -1.
</event>
<event>
 5   0  0.1206238E-01  0.6085754E+03  0.7818609E-02  0.9887773E-01
        2   -1    0    0  501    0  0.00000000000E+00  0.00000000000E+00  0.31900553419E+03  0.31900553420E+03  0.25500000920E-02 0. -1.
       -2   -1    0    0    0  501  0.00000000000E+00  0.00000000000E+00 -0.29024885516E+03  0.29024885517E+03  0.25500000920E-02 0.  1.
    10030    2    1    2    0    0  0.00000000000E+00  0.00000000000E+00  0.28756679026E+02  0.60925438937E+03  0.60857535637E+03 0.  0.
        5    1    3    3  502    0 -0.35922505593E+02 -0.27146891659E+03  0.14712758233E+03  0.31089293102E+03  0.46999998093E+01 0.  1.
       -5    1    3    3    0  502  0.35922505593E+02  0.27146891659E+03 -0.11837090330E+03  0.29836145835E+03  0.46999998093E+01 0. -1.
</event>
<event>
 5   0  0.1219020E-01  0.5914828E+03  0.7818609E-02  0.9923236E-01
       -2   -1    0    0    0  501  0.00000000000E+00  0.00000000000E+00  0.26423593175E+03  0.26423593177E+03  0.25500000920E-02 0.  1.
        2   -1    0    0  501    0  0.00000000000E+00  0.00000000000E+00 -0.33100339298E+03  0.33100339299E+03  0.25500000920E-02 0. -1.
    10030    2    1    2    0    0  0.00000000000E+00  0.00000000000E+00 -0.66767461230E+02  0.59523932476E+03  0.59148284832E+03 0.  0.
        2    1    3    3  502    0 -0.12771757911E+03  0.24265248042E+03  0.78094264425E+02  0.28511527565E+03  0.25500000920E-02 0.  1.
       -2    1    3    3    0  502  0.12771757911E+03 -0.24265248042E+03 -0.14486172566E+03  0.31012404911E+03  0.25500000920E-02 0. -1.
</event>
<event>
 5   0  0.1146468E-01  0.5774890E+03  0.7818609E-02  0.9953242E-01
       -2   -1    0    0    0  501  0.00000000000E+00  0.00000000000E+00  0.12762287993E+03  0.12762287995E+03  0.25500000920E-02 0. -1.
        2   -1    0    0  501    0  0.00000000000E+00  0.00000000000E+00 -0.65327926747E+03  0.65327926747E+03  0.25500000920E-02 0.  1.
    10030    2    1    2    0    0  0.00000000000E+00  0.00000000000E+00 -0.52565638754E+03  0.78090214742E+03  0.57748898352E+03 0.  0.
        4    1    3    3  502    0 -0.20929502310E+03 -0.16725497668E+03 -0.11723088272E+03  0.29244371540E+03  0.12699999809E+01 0. -1.
       -4    1    3    3    0  502  0.20929502310E+03  0.16725497668E+03 -0.40842550482E+03  0.48845843202E+03  0.12699999809E+01 0.  1.
</event>
<event>
 5   0  0.1175861E-01  0.6701467E+03  0.7818609E-02  0.9769693E-01
       -2   -1    0    0    0  501  0.00000000000E+00  0.00000000000E+00  0.50343260140E+03  0.50343260141E+03  0.25500000920E-02 0.  1.
        2   -1    0    0  501    0  0.00000000000E+00  0.00000000000E+00 -0.22301724356E+03  0.22301724357E+03  0.25500000920E-02 0. -1.
    10030    2    1    2    0    0  0.00000000000E+00  0.00000000000E+00  0.28041535785E+03  0.72644984498E+03  0.67014670361E+03 0.  0.
        3    1    3    3  502    0 -0.28596032593E+03  0.13630470910E+03  0.21846919450E+02  0.31753673775E+03  0.10100000352E+00 0.  1.
       -3    1    3    3    0  502  0.28596032593E+03 -0.13630470910E+03  0.25856843840E+03  0.40891310723E+03  0.10100000352E+00 0. -1.
</event>
<event>
 5   0  0.1206238E-01  0.5866887E+03  0.7818609E-02  0.9933414E-01
        2   -1    0    0  501    0  0.00000000000E+00  0.00000000000E+00  0.66880438883E+03  0.66880438884E+03  0.25500000920E-02 0. -1.
       -2   -1    0    0    0  501  0.00000000000E+00  0.00000000000E+00 -0.12866376921E+03  0.12866376923E+03  0.25500000920E-02 0.  1.
    10030    2    1    2    0    0  0.00000000000E+00  0.00000000000E+00  0.54014061962E+03  0.79746815807E+03  0.58668865181E+03 0.  0.
        5    1    3    3  502    0  0.58016928509E+02 -0.13308943675E+03 -0.76343645614E+02  0.16410120168E+03  0.46999998093E+01 0.  1.
       -5    1    3    3    0  502 -0.58016928509E+02  0.13308943675E+03  0.61648426524E+03  0.63336695639E+03  0.46999998093E+01 0. -1.
</event>
<event>
 5   0  0.1166419E-01  0.5913013E+03  0.7818609E-02  0.9923619E-01
        2   -1    0    0  501    0  0.00000000000E+00  0.00000000000E+00  0.14645388950E+04  0.14645388950E+04  0.25500000920E-02 0. -1.
       -2   -1    0    0    0  501  0.00000000000E+00  0.00000000000E+00 -0.59683831389E+02  0.59683831443E+02  0.25500000920E-02 0.  1.
    10030    2    1    2    0    0  0.00000000000E+00  0.00000000000E+00  0.14048550636E+04  0.15242227264E+04  0.59130125152E+03 0.  0.
        1    1    3    3  502    0  0.24848271193E+03 -0.11667323131E+03  0.98542793797E+03  0.10229489342E+04  0.50400001928E-02 0. -1.
       -1    1    3    3    0  502 -0.24848271193E+03  0.11667323131E+03  0.41942712561E+03  0.50127379221E+03  0.50400001928E-02 0.  1.
</event>
<event>
 5   0  0.4695625E-02  0.5915585E+03  0.7818609E-02  0.9923076E-01
        3   -1    0    0  501    0  0.00000000000E+00  0.00000000000E+00  0.77961376505E+02  0.77961441928E+02  0.10100000352E+00 0. -1.
       -3   -1    0    0    0  501  0.00000000000E+00  0.00000000000E+00 -0.11221623337E+04  0.11221623383E+04  0.10100000352E+00 0.  1.
    10030    2    1    2    0    0  0.00000000000E+00  0.00000000000E+00 -0.10442009572E+04  0.12001237802E+04  0.59155849139E+03 0.  0.
        2    1    3    3  502    0  0.60182339372E+02  0.20453412537E+03 -0.10618592652E+03  0.23818390670E+03  0.25500000920E-02 0. -1.
       -2    1    3    3    0  502 -0.60182339372E+02 -0.20453412537E+03 -0.93801503069E+03  0.96193987350E+03  0.25500000920E-02 0.  1.
</event>
<event>
 5   0  0.1166419E-01  0.5579761E+03  0.7818609E-02  0.9996644E-01
        2   -1    0    0  501    0  0.00000000000E+00  0.00000000000E+00  0.12257103244E+03  0.12257103246E+03  0.25500000920E-02 0.  1.
       -2   -1    0    0    0  501  0.00000000000E+00  0.00000000000E+00 -0.63501414717E+03  0.63501414718E+03  0.25500000920E-02 0. -1.
    10030    2    1    2    0    0  0.00000000000E+00  0.00000000000E+00 -0.51244311473E+03  0.75758517964E+03  0.55797612724E+03 0.  0.
        1    1    3    3  502    0  0.18553962268E+03  0.11499368714E+03 -0.20327237050E+02  0.21922977959E+03  0.50400001928E-02 0. -1.
       -1    1    3    3    0  502 -0.18553962268E+03 -0.11499368714E+03 -0.49211587768E+03  0.53835540005E+03  0.50400001928E-02 0.  1.
</event>
<event>
 5   0  0.7123340E-02  0.6004712E+03  0.7818609E-02  0.9904429E-01
       -1   -1    0    0    0  501  0.00000000000E+00  0.00000000000E+00  0.56577391802E+03  0.56577391804E+03  0.50400001928E-02 0.  1.
        1   -1    0    0  501    0  0.00000000000E+00  0.00000000000E+00 -0.15932408065E+03  0.15932408073E+03  0.50400001928E-02 0. -1.
    10030    2    1    2    0    0  0.00000000000E+00  0.00000000000E+00  0.40644983737E+03  0.72509799877E+03  0.60047117959E+03 0.  0.
        2    1    3    3  502    0  0.55327432791E+01  0.14727140740E+03 -0.11264058706E+03  0.18549226546E+03  0.25500000920E-02 0. -1.
       -2    1    3    3    0  502 -0.55327432791E+01 -0.14727140740E+03  0.51909042442E+03  0.53960573331E+03  0.25500000920E-02 0.  1.
</event>
<event>
 5   0  0.1175861E-01  0.6008426E+03  0.7818609E-02  0.9903660E-01
        2   -1    0    0  501    0  0.00000000000E+00  0.00000000000E+00  0.70422165552E+03  0.70422165553E+03  0.25500000920E-02 0.  1.
       -2   -1    0    0    0  501  0.00000000000E+00  0.00000000000E+00 -0.12815985893E+03  0.12815985896E+03  0.25500000920E-02 0. -1.
    10030    2    1    2    0    0  0.00000000000E+00  0.00000000000E+00  0.57606179659E+03  0.83238151448E+03  0.60084256853E+03 0.  0.
        3    1    3    3  502    0 -0.12150670460E+03 -0.13056998553E+03  0.62293374068E+03  0.64796516562E+03  0.10100000352E+00 0.  1.
       -3    1    3    3    0  502  0.12150670460E+03  0.13056998553E+03 -0.46871944087E+02  0.18441634886E+03  0.10100000352E+00 0. -1.
</event>
<event>
 5   0  0.7266519E-02  0.5915819E+03  0.7818609E-02  0.9923026E-01
        1   -1    0    0  501    0  0.00000000000E+00  0.00000000000E+00  0.19710659854E+03  0.19710659860E+03  0.50400001928E-02 0.  1.
       -1   -1    0    0    0  501  0.00000000000E+00  0.00000000000E+00 -0.44388311426E+03  0.44388311429E+03  0.50400001928E-02 0. -1.
    10030    2    1    2    0    0  0.00000000000E+00  0.00000000000E+00 -0.24677651573E+03  0.64098971289E+03  0.59158191599E+03 0.  0.
        4    1    3    3  502    0  0.41458850306E+02 -0.71077561722E+02  0.18445260489E+03  0.20197829685E+03  0.12699999809E+01 0.  1.
       -4    1    3    3    0  502 -0.41458850306E+02  0.71077561722E+02 -0.43122912062E+03  0.43901141604E+03  0.12699999809E+01 0. -1.
</event>
<event>
 5   0  0.7263385E-02  0.5967372E+03  0.7818609E-02  0.9912199E-01
       -1   -1    0    0    0  501  0.00000000000E+00  0.00000000000E+00  0.52922107902E+02  0.52922108142E+02  0.50400001928E-02 0.  1.
        1   -1    0    0  501    0  0.00000000000E+00  0.00000000000E+00 -0.16821667383E+04  0.16821667384E+04  0.50400001928E-02 0. -1.
    10030    2    1    2    0    0  0.00000000000E+00  0.00000000000E+00 -0.16292446304E+04  0.17350888465E+04  0.59673716107E+03 0.  0.
        1    1    3    3  502    0  0.23323833887E+03  0.42521500969E+02 -0.13413411747E+04  0.13621322799E+04  0.50400001928E-02 0. -1.
       -1    1    3    3    0  502 -0.23323833887E+03 -0.42521500969E+02 -0.28790345571E+03  0.37295656664E+03  0.50400001928E-02 0.  1.
</event>
<event>
 5   0  0.7221069E-02  0.5916210E+03  0.7818609E-02  0.9922944E-01
        1   -1    0    0  501    0  0.00000000000E+00  0.00000000000E+00  0.11832774919E+04  0.11832774919E+04  0.50400001928E-02 0. -1.
       -1   -1    0    0    0  501  0.00000000000E+00  0.00000000000E+00 -0.73950401544E+02  0.73950401715E+02  0.50400001928E-02 0.  1.
    10030    2    1    2    0    0  0.00000000000E+00  0.00000000000E+00  0.11093270903E+04  0.12572278936E+04  0.59162097926E+03 0.  0.
        5    1    3    3  502    0  0.37903726964E+01  0.13751637277E+03  0.11110738848E+04  0.11195679466E+04  0.46999998093E+01 0. -1.
       -5    1    3    3    0  502 -0.37903726964E+01 -0.13751637277E+03 -0.17467944585E+01  0.13765994695E+03  0.46999998093E+01 0.  1.
</event>
<event>
 5   0  0.1146468E-01  0.5776420E+03  0.7818609E-02  0.9952909E-01
        2   -1    0    0  501    0  0.00000000000E+00  0.00000000000E+00  0.93475890276E+02  0.93475890311E+02  0.25500000920E-02 0. -1.
       -2   -1    0    0    0  501  0.00000000000E+00  0.00000000000E+00 -0.89239672537E+03  0.89239672538E+03  0.25500000920E-02 0.  1.
    10030    2    1    2    0    0  0.00000000000E+00  0.00000000000E+00 -0.79892083510E+03  0.98587261569E+03  0.57764202895E+03 0.  0.
        4    1    3    3  502    0 -0.54888524307E+02  0.16174161267E+03 -0.19638953100E+01  0.17081735612E+03  0.12699999809E+01 0. -1.
       -4    1    3    3    0  502  0.54888524307E+02 -0.16174161267E+03 -0.79695693979E+03  0.81505525956E+03  0.12699999809E+01 0.  1.
</event>
<event>
 5   0  0.7123340E-02  0.5964999E+03  0.7818609E-02  0.9912694E-01
       -1   -1    0    0    0  501  0.00000000000E+00  0.00000000000E+00  0.11040378653E+03  0.11040378664E+03  0.50400001928E-02 0. -1.
        1   -1    0    0  501    0  0.00000000000E+00  0.00000000000E+00 -0.80570627172E+03  0.80570627174E+03  0.50400001928E-02 0.  1.
    10030    2    1    2    0    0  0.00000000000E+00  0.00000000000E+00 -0.69530248519E+03  0.91611005838E+03  0.59649986852E+03 0.  0.
        2    1    3    3  502    0 -0.18706023913E+03 -0.20577899704E+03 -0.51318053040E+03  0.58368723258E+03  0.25500000920E-02 0.  1.
       -2    1    3    3    0  502  0.18706023913E+03  0.20577899704E+03 -0.18212195479E+03  0.33242282580E+03  0.25500000920E-02 0. -1.
</event>
<event>
 5   0  0.1219020E-01  0.5974230E+03  0.7818609E-02  0.9910767E-01
        2   -1    0    0  501    0  0.00000000000E+00  0.00000000000E+00  0.10547022289E+03  0.10547022292E+03  0.25500000920E-02 0.  1.
       -2   -1    0    0    0  501  0.00000000000E+00  0.00000000000E+00 -0.84600704338E+03  0.84600704338E+03  0.25500000920E-02 0. -1.
    10030    2    1    2    0    0  0.00000000000E+00  0.00000000000E+00 -0.74053682049E+03  0.95147726630E+03  0.59742297058E+03 0.  0.
        2    1    3    3  502    0 -0.13269739320E+03  0.39165138216E+02  0.51362339258E+02  0.14758250613E+03  0.25500000920E-02 0.  1.
       -2    1    3    3    0  502  0.13269739320E+03 -0.39165138216E+02 -0.79189915975E+03  0.80389476017E+03  0.25500000920E-02 0. -1.
</event>
<event>
 5   0  0.4695625E-02  0.5936388E+03  0.7818609E-02  0.9918692E-01
       -3   -1    0    0    0  501  0.00000000000E+00  0.00000000000E+00  0.77473121423E+02  0.77473187259E+02  0.10100000352E+00 0.  1.
        3   -1    0    0  501    0  0.00000000000E+00  0.00000000000E+00 -0.11371906736E+04  0.11371906781E+04  0.10100000352E+00 0. -1.
    10030    2    1    2    0    0  0.00000000000E+00  0.00000000000E+00 -0.10597175522E+04  0.12146638654E+04  0.59363879202E+03 0.  0.
        3    1    3    3  502    0  0.78274634531E+02 -0.18040371199E+03 -0.74948043294E+02  0.21045103256E+03  0.10100000352E+00 0.  1.
       -3    1    3    3    0  502 -0.78274634531E+02  0.18040371199E+03 -0.98476950892E+03  0.10042128328E+04  0.10100000352E+00 0. -1.
</event>
<event>
 5   0  0.1166419E-01  0.4225986E+03  0.7818609E-02  0.1036224E+00
        2   -1    0    0  501    0  0.00000000000E+00  0.00000000000E+00  0.20560270567E+03  0.20560270569E+03  0.25500000920E-02 0.  1.
       -2   -1    0    0    0  501  0.00000000000E+00  0.00000000000E+00 -0.21715377475E+03  0.21715377477E+03  0.25500000920E-02 0. -1.
    10030    2    1    2    0    0  0.00000000000E+00  0.00000000000E+00 -0.11551069082E+02  0.42275648045E+03  0.42259864478E+03 0.  0.
        1    1    3    3  502    0  0.10429260364E+03 -0.16970093000E+03 -0.76314640706E+02  0.21330559587E+03  0.50400001928E-02 0. -1.
       -1    1    3    3    0  502 -0.10429260364E+03  0.16970093000E+03  0.64763571624E+02  0.20945088458E+03  0.50400001928E-02 0.  1.
</event>
<event>
 5   0  0.1206238E-01  0.6130384E+03  0.7818609E-02  0.9878719E-01
       -2   -1    0    0    0  501  0.00000000000E+00  0.00000000000E+00  0.76924339101E+03  0.76924339102E+03  0.25500000920E-02 0.  1.
        2   -1    0    0  501    0  0.00000000000E+00  0.00000000000E+00 -0.12213824146E+03  0.12213824149E+03  0.25500000920E-02 0. -1.
    10030    2    1    2    0    0  0.00000000000E+00  0.00000000000E+00  0.64710514955E+03  0.89138163251E+03  0.61303844920E+03 0.  0.
        5    1    3    3  502    0  0.13755348095E+03  0.15575931571E+03  0.65111500008E+03  0.68348720389E+03  0.46999998093E+01 0.  1.
       -5    1    3    3    0  502 -0.13755348095E+03 -0.15575931571E+03 -0.40098505309E+01  0.20789442862E+03  0.46999998093E+01 0. -1.
</event>
<event>
 5   0  0.7123340E-02  0.6005721E+03  0.7818609E-02  0.9904220E-01
        1   -1    0    0  501    0  0.00000000000E+00  0.00000000000E+00  0.12588402165E+04  0.12588402165E+04  0.50400001928E-02 0. -1.
       -1   -1    0    0    0  501  0.00000000000E+00  0.00000000000E+00 -0.71630776232E+02  0.71630776409E+02  0.50400001928E-02 0.  1.
    10030    2    1    2    0    0  0.00000000000E+00  0.00000000000E+00  0.11872094403E+04  0.13304709929E+04  0.60057206724E+03 0.  0.
        2    1    3    3  502    0  0.98778460564E+02 -0.20112902756E+02  0.12202364563E+04  0.12243932058E+04  0.25500000920E-02 0. -1.
       -2    1    3    3    0  502 -0.98778460564E+02  0.20112902756E+02 -0.33027016017E+02  0.10607778713E+03  0.25500000920E-02 0.  1.
</event>
<event>
 5   0  0.7266519E-02  0.6050708E+03  0.7818609E-02  0.9894941E-01
       -1   -1    0    0    0  501  0.00000000000E+00  0.00000000000E+00  0.10416565153E+03  0.10416565165E+03  0.50400001928E-02 0. -1.
        1   -1    0    0  501    0  0.00000000000E+00  0.00000000000E+00 -0.87867419155E+03  0.87867419157E+03  0.50400001928E-02 0.  1.
    10030    2    1    2    0    0  0.00000000000E+00  0.00000000000E+00 -0.77450854003E+03  0.98283984322E+03  0.60507080482E+03 0.  0.
        4    1    3    3  502    0  0.18129366977E+03  0.19125269655E+03 -0.14588243346E+03  0.30121136421E+03  0.12699999809E+01 0. -1.
       -4    1    3    3    0  502 -0.18129366977E+03 -0.19125269655E+03 -0.62862610657E+03  0.68162847901E+03  0.12699999809E+01 0.  1.
</event>
<event>
 5   0  0.1146468E-01  0.5968337E+03  0.7818609E-02  0.9911997E-01
        2   -1    0    0  501    0  0.00000000000E+00  0.00000000000E+00  0.16824860321E+04  0.16824860321E+04  0.25500000920E-02 0.  1.
       -2   -1    0    0    0  501  0.00000000000E+00  0.00000000000E+00 -0.52929189056E+02  0.52929189118E+02  0.25500000920E-02 0. -1.
    10030    2    1    2    0    0  0.00000000000E+00  0.00000000000E+00  0.16295568430E+04  0.17354152212E+04  0.59683371664E+03 0.  0.
        4    1    3    3  502    0  0.27222901679E+03  0.13342199403E+02  0.46146729440E+03  0.53594806518E+03  0.12699999809E+01 0.  1.
       -4    1    3    3    0  502 -0.27222901679E+03 -0.13342199403E+02  0.11680895486E+04  0.11994671560E+04  0.12699999809E+01 0. -1.
</event>
<event>
 5   0  0.1175861E-01  0.5774160E+03  0.7818609E-02  0.9953401E-01
        2   -1    0    0  501    0  0.00000000000E+00  0.00000000000E+00  0.33186940300E+03  0.33186940301E+03  0.25500000920E-02 0.  1.
       -2   -1    0    0    0  501  0.00000000000E+00  0.00000000000E+00 -0.25115993278E+03  0.25115993280E+03  0.25500000920E-02 0. -1.
    10030    2    1    2    0    0  0.00000000000E+00  0.00000000000E+00  0.80709470221E+02  0.58302933581E+03  0.57741595737E+03 0.  0.
        3    1    3    3  502    0 -0.25948786350E+03  0.24057710703E+02  0.16581873053E+03  0.30888280357E+03  0.10100000352E+00 0.  1.
       -3    1    3    3    0  502  0.25948786350E+03 -0.24057710703E+02 -0.85109260305E+02  0.27414653224E+03  0.10100000352E+00 0. -1.
</event>
<event>
 5   0  0.7263385E-02  0.5030237E+03  0.7818609E-02  0.1012993E+00
       -1   -1    0    0    0  501  0.00000000000E+00  0.00000000000E+00  0.27566110388E+03  0.27566110393E+03  0.50400001928E-02 0. -1.
        1   -1    0    0  501    0  0.00000000000E+00  0.00000000000E+00 -0.22947821930E+03  0.22947821936E+03  0.50400001928E-02 0.  1.
    10030    2    1    2    0    0  0.00000000000E+00  0.00000000000E+00  0.46182884575E+02  0.50513932329E+03  0.50302373413E+03 0.  0.
        1    1    3    3  502    0 -0.21337450607E+03 -0.13235301621E+03  0.37720431818E+02  0.25390713213E+03  0.50400001928E-02 0. -1.
       -1    1    3    3    0  502  0.21337450607E+03  0.13235301621E+03  0.84624527571E+01  0.25123219116E+03  0.50400001928E-02 0.  1.
</event>
<event>
 5   0  0.7263385E-02  0.5936399E+03  0.7818609E-02  0.9918690E-01
        1   -1    0    0  501    0  0.00000000000E+00  0.00000000000E+00  0.11698586090E+04  0.11698586090E+04  0.50400001928E-02 0.  1.
       -1   -1    0    0    0  501  0.00000000000E+00  0.00000000000E+00 -0.75310023705E+02  0.75310023873E+02  0.50400001928E-02 0. -1.
    10030    2    1    2    0    0  0.00000000000E+00  0.00000000000E+00  0.10945485853E+04  0.12451686329E+04  0.59363988979E+03 0.  0.
        1    1    3    3  502    0  0.15269880882E+03 -0.70789332929E+02  0.10600900273E+04  0.10733680272E+04  0.50400001928E-02 0.  1.
       -1    1    3    3    0  502 -0.15269880882E+03  0.70789332929E+02  0.34458558045E+02  0.17180060570E+03  0.50400001928E-02 0. -1.
</event>
<event>
 5   0  0.7123340E-02  0.6146245E+03  0.7818609E-02  0.9875521E-01
       -1   -1    0    0    0  501  0.00000000000E+00  0.00000000000E+00  0.12066911591E+03  0.12066911601E+03  0.50400001928E-02 0. -1.
        1   -1    0    0  501    0  0.00000000000E+00  0.00000000000E+00 -0.78264287845E+03  0.78264287847E+03  0.50400001928E-02 0.  1.
    10030    2    1    2    0    0  0.00000000000E+00  0.00000000000E+00 -0.66197376255E+03  0.90331199448E+03  0.61462451714E+03 0.  0.
        2    1    3    3  502    0 -0.12327503676E+03 -0.14805147034E+03 -0.68287075706E+03  0.70952691522E+03  0.25500000920E-02 0.  1.
       -2    1    3    3    0  502  0.12327503676E+03  0.14805147034E+03  0.20896994516E+02  0.19378507926E+03  0.25500000920E-02 0. -1.
</event>
<event>
 5   0  0.7123340E-02  0.6060473E+03  0.7818609E-02  0.9892939E-01
       -1   -1    0    0    0  501  0.00000000000E+00  0.00000000000E+00  0.15917127104E+03  0.15917127112E+03  0.50400001928E-02 0.  1.
        1   -1    0    0  501    0  0.00000000000E+00  0.00000000000E+00 -0.57688379638E+03  0.57688379641E+03  0.50400001928E-02 0. -1.
    10030    2    1    2    0    0  0.00000000000E+00  0.00000000000E+00 -0.41771252535E+03  0.73605506753E+03  0.60604728248E+03 0.  0.
        2    1    3    3  502    0 -0.12701825462E+03 -0.10117345220E+03 -0.51957728935E+03  0.54436225443E+03  0.25500000920E-02 0. -1.
       -2    1    3    3    0  502  0.12701825462E+03  0.10117345220E+03  0.10186476400E+03  0.19169281309E+03  0.25500000920E-02 0.  1.
</event>
<event>
 5   0  0.1206238E-01  0.6649276E+03  0.7818609E-02  0.9779165E-01
        2   -1    0    0  501    0  0.00000000000E+00  0.00000000000E+00  0.91168624102E+03  0.91168624103E+03  0.25500000920E-02 0.  1.
       -2   -1    0    0    0  501  0.00000000000E+00  0.00000000000E+00 -0.12123929010E+03  0.12123929013E+03  0.25500000920E-02 0. -1.
    10030    2    1    2    0    0  0.00000000000E+00  0.00000000000E+00  0.79044695092E+03  0.10329255312E+04  0.66492764321E+03 0.  0.
        5    1    3    3  502    0  0.17983736533E+03 -0.18580868366E+03  0.71975410499E+03  0.76481004605E+03  0.46999998093E+01 0.  1.
       -5    1    3    3    0  502 -0.17983736533E+03  0.18580868366E+03  0.70692845928E+02  0.26811548511E+03  0.46999998093E+01 0. -1.
</event>
<event>
 5   0  0.7221069E-02  0.5992367E+03  0.7818609E-02  0.9906991E-01
        1   -1    0    0  501    0  0.00000000000E+00  0.00000000000E+00  0.54060603810E+03  0.54060603812E+03  0.50400001928E-02 0. -1.
       -1   -1    0    0    0  501  0.00000000000E+00  0.00000000000E+00 -0.16605652721E+03  0.16605652729E+03  0.50400001928E-02 0.  1.
    10030    2    1    2    0    0  0.00000000000E+00  0.00000000000E+00  0.37454951088E+03  0.70666256541E+03  0.59923671887E+03 0.  0.
        5    1    3    3  502    0  0.20258732379E+03  0.92778642144E+02 -0.48872842387E+02  0.22816692337E+03  0.46999998093E+01 0.  1.
       -5    1    3    3    0  502 -0.20258732379E+03 -0.92778642144E+02  0.42342235327E+03  0.47849564204E+03  0.46999998093E+01 0. -1.
</event>
<event>
 5   0  0.7424930E-02  0.6201320E+03  0.7818609E-02  0.9864497E-01
       -1   -1    0    0    0  501  0.00000000000E+00  0.00000000000E+00  0.21007210603E+03  0.21007210609E+03  0.50400001928E-02 0. -1.
        1   -1    0    0  501    0  0.00000000000E+00  0.00000000000E+00 -0.45765683892E+03  0.45765683895E+03  0.50400001928E-02 0.  1.
    10030    2    1    2    0    0  0.00000000000E+00  0.00000000000E+00 -0.24758473290E+03  0.66772894504E+03  0.62013203762E+03 0.  0.
        3    1    3    3  502    0  0.26628643185E+03  0.47249127958E+02  0.39505225847E+02  0.27331596542E+03  0.10100000352E+00 0. -1.
       -3    1    3    3    0  502 -0.26628643185E+03 -0.47249127958E+02 -0.28708995874E+03  0.39441297962E+03  0.10100000352E+00 0.  1.
</event>
<event>
 5   0  0.7221069E-02  0.5919058E+03  0.7818609E-02  0.9922343E-01
        1   -1    0    0  501    0  0.00000000000E+00  0.00000000000E+00  0.66533697401E+03  0.66533697403E+03  0.50400001928E-02 0.  1.
       -1   -1    0    0    0  501  0.00000000000E+00  0.00000000000E+00 -0.13164474864E+03  0.13164474874E+03  0.50400001928E-02 0. -1.
    10030    2    1    2    0    0  0.00000000000E+00  0.00000000000E+00  0.53369222537E+03  0.79698172276E+03  0.59190579909E+03 0.  0.
        5    1    3    3  502    0 -0.24951900017E+03 -0.15700128678E+03  0.23233625500E+03  0.37538162033E+03  0.46999998093E+01 0. -1.
       -5    1    3    3    0  502  0.24951900017E+03  0.15700128678E+03  0.30135597037E+03  0.42160010243E+03  0.46999998093E+01 0.  1.
</event>
<event>
 5   0  0.7266519E-02  0.5954569E+03  0.7818609E-02  0.9914877E-01
        1   -1    0    0  501    0  0.00000000000E+00  0.00000000000E+00  0.31370157701E+03  0.31370157705E+03  0.50400001928E-02 0.  1.
       -1   -1    0    0    0  501  0.00000000000E+00  0.00000000000E+00 -0.28256861773E+03  0.28256861778E+03  0.50400001928E-02 0. -1.
    10030    2    1    2    0    0  0.00000000000E+00  0.00000000000E+00  0.31132959282E+02  0.59627019483E+03  0.59545687005E+03 0.  0.
        4    1    3    3  502    0  0.15337795253E+03  0.11408928729E+03  0.24413127807E+03  0.31006911428E+03  0.12699999809E+01 0.  1.
       -4    1    3    3    0  502 -0.15337795253E+03 -0.11408928729E+03 -0.21299831879E+03  0.28620108055E+03  0.12699999809E+01 0. -1.
</event>
<event>
 5   0  0.1219020E-01  0.6056830E+03  0.7818609E-02  0.9893685E-01
       -2   -1    0    0    0  501  0.00000000000E+00  0.00000000000E+00  0.70433883007E+02  0.70433883053E+02  0.25500000920E-02 0. -1.
        2   -1    0    0  501    0  0.00000000000E+00  0.00000000000E+00 -0.13021144090E+04  0.13021144090E+04  0.25500000920E-02 0.  1.
    10030    2    1    2    0    0  0.00000000000E+00  0.00000000000E+00 -0.12316805260E+04  0.13725482920E+04  0.60568299952E+03 0.  0.
        2    1    3    3  502    0  0.13456706084E+03 -0.17308986590E+03 -0.10892611352E+04  0.11111067528E+04  0.25500000920E-02 0.  1.
       -2    1    3    3    0  502 -0.13456706084E+03  0.17308986590E+03 -0.14241939077E+03  0.26144153919E+03  0.25500000920E-02 0. -1.
</event>
<event>
 5   0  0.1166419E-01  0.6000216E+03  0.7818609E-02  0.9905361E-01
        2   -1    0    0  501    0  0.00000000000E+00  0.00000000000E+00  0.12371712970E+04  0.12371712970E+04  0.25500000920E-02 0.  1.
       -2   -1    0    0    0  501  0.00000000000E+00  0.00000000000E+00 -0.72751844484E+02  0.72751844529E+02  0.25500000920E-02 0. -1.
    10030    2    1    2    0    0  0.00000000000E+00  0.00000000000E+00  0.11644194525E+04  0.13099231415E+04  0.60002164571E+03 0.  0.
        1    1    3    3  502    0  0.13398644524E+03  0.23748082395E+03  0.85537969838E+03  0.89778835907E+03  0.50400001928E-02 0.  1.
       -1    1    3    3    0  502 -0.13398644524E+03 -0.23748082395E+03  0.30903975414E+03  0.41213478247E+03  0.50400001928E-02 0. -1.
</event>
<event>
 5   0  0.7221069E-02  0.6021889E+03  0.7818609E-02  0.9900875E-01
       -1   -1    0    0    0  501  0.00000000000E+00  0.00000000000E+00  0.62375606664E+03  0.62375606666E+03  0.50400001928E-02 0.  1.
        1   -1    0    0  501    0  0.00000000000E+00  0.00000000000E+00 -0.14534185791E+03  0.14534185800E+03  0.50400001928E-02 0. -1.
    10030    2    1    2    0    0  0.00000000000E+00  0.00000000000E+00  0.47841420872E+03  0.76909792466E+03  0.60218889279E+03 0.  0.
        5    1    3    3  502    0  0.94844670212E+02  0.58625699027E+02 -0.11795174500E+03  0.16237976537E+03  0.46999998093E+01 0. -1.
       -5    1    3    3    0  502 -0.94844670212E+02 -0.58625699027E+02  0.59636595372E+03  0.60671815929E+03  0.46999998093E+01 0.  1.
</event>
<event>
 5   0  0.7123340E-02  0.5886098E+03  0.7818609E-02  0.9929323E-01
       -1   -1    0    0    0  501  0.00000000000E+00  0.00000000000E+00  0.24320766361E+03  0.24320766366E+03  0.50400001928E-02 0.  1.
        1   -1    0    0  501    0  0.00000000000E+00  0.00000000000E+00 -0.35613750235E+03  0.35613750239E+03  0.50400001928E-02 0. -1.
    10030    2    1    2    0    0  0.00000000000E+00  0.00000000000E+00 -0.11292983874E+03  0.59934516605E+03  0.58860978550E+03 0.  0.
        2    1    3    3  502    0 -0.21779129209E+03 -0.17267406031E+03  0.42078225352E+02  0.28110488269E+03  0.25500000920E-02 0.  1.
       -2    1    3    3    0  502  0.21779129209E+03  0.17267406031E+03 -0.15500806409E+03  0.31824028336E+03  0.25500000920E-02 0. -1.
</event>
<event>
 5   0  0.7424930E-02  0.6184216E+03  0.7818609E-02  0.9867907E-01
       -1   -1    0    0    0  501  0.00000000000E+00  0.00000000000E+00  0.66212939042E+02  0.66212939234E+02  0.50400001928E-02 0.  1.
        1   -1    0    0  501    0  0.00000000000E+00  0.00000000000E+00 -0.14439973377E+04  0.14439973377E+04  0.50400001928E-02 0. -1.
    10030    2    1    2    0    0  0.00000000000E+00  0.00000000000E+00 -0.13777843986E+04  0.15102102769E+04  0.61842156446E+03 0.  0.
        3    1    3    3  502    0  0.23035320650E+03 -0.64061300867E+02 -0.21007265586E+03  0.31827186642E+03  0.10100000352E+00 0.  1.
       -3    1    3    3    0  502 -0.23035320650E+03  0.64061300867E+02 -0.11677117428E+04  0.11919384105E+04  0.10100000352E+00 0. -1.
</event>
<event>
 5   0  0.1219020E-01  0.5841577E+03  0.7818609E-02  0.9938830E-01
        2   -1    0    0  501    0  0.00000000000E+00  0.00000000000E+00  0.44856324573E+03  0.44856324574E+03  0.25500000920E-02 0.  1.
       -2   -1    0    0    0  501  0.00000000000E+00  0.00000000000E+00 -0.19018513965E+03  0.19018513966E+03  0.25500000920E-02 0. -1.
    10030    2    1    2    0    0  0.00000000000E+00  0.00000000000E+00  0.25837810608E+03  0.63874838540E+03  0.58415773054E+03 0.  0.
        2    1    3    3  502    0 -0.26415038537E+03  0.11164331590E+03  0.68599507785E+02  0.29486530578E+03  0.25500000920E-02 0.  1.
       -2    1    3    3    0  502  0.26415038537E+03 -0.11164331590E+03  0.18977859830E+03  0.34388307963E+03  0.25500000920E-02 0. -1.
</event>
<event>
 5   0  0.1166419E-01  0.5981466E+03  0.7818609E-02  0.9909259E-01
       -2   -1    0    0    0  501  0.00000000000E+00  0.00000000000E+00  0.80050446880E+02  0.80050446921E+02  0.25500000920E-02 0.  1.
        2   -1    0    0  501    0  0.00000000000E+00  0.00000000000E+00 -0.11173557466E+04  0.11173557466E+04  0.25500000920E-02 0. -1.
    10030    2    1    2    0    0  0.00000000000E+00  0.00000000000E+00 -0.10373052998E+04  0.11974061936E+04  0.59814656020E+03 0.  0.
        1    1    3    3  502    0 -0.24637625052E+03  0.10629442013E+03 -0.25424732178E+03  0.36965045817E+03  0.50400001928E-02 0.  1.
       -1    1    3    3    0  502  0.24637625052E+03 -0.10629442013E+03 -0.78305797798E+03  0.82775573539E+03  0.50400001928E-02 0. -1.
</event>
<event>
 5   0  0.7263385E-02  0.6192104E+03  0.7818609E-02  0.9866333E-01
       -1   -1    0    0    0  501  0.00000000000E+00  0.00000000000E+00  0.31540913096E+03  0.31540913100E+03  0.50400001928E-02 0. -1.
        1   -1    0    0  501    0  0.00000000000E+00  0.00000000000E+00 -0.30390806564E+03  0.30390806568E+03  0.50400001928E-02 0.  1.
    10030    2    1    2    0    0  0.00000000000E+00  0.00000000000E+00  0.11501065318E+02  0.61931719668E+03  0.61921039687E+03 0.  0.
        1    1    3    3  502    0  0.13399136495E+03 -0.19103059086E+03  0.20927766062E+03  0.31343821048E+03  0.50400001928E-02 0. -1.
       -1    1    3    3    0  502 -0.13399136495E+03  0.19103059086E+03 -0.19777659530E+03  0.30587898620E+03  0.50400001928E-02 0.  1.
</event>
<event>
 5   0  0.1219020E-01  0.6015216E+03  0.7818609E-02  0.9902254E-01
        2   -1    0    0  501    0  0.00000000000E+00  0.00000000000E+00  0.60450774669E+03  0.60450774670E+03  0.25500000920E-02 0. -1.
       -2   -1    0    0    0  501  0.00000000000E+00  0.00000000000E+00 -0.14963756476E+03  0.14963756478E+03  0.25500000920E-02 0.  1.
    10030    2    1    2    0    0  0.00000000000E+00  0.00000000000E+00  0.45487018193E+03  0.75414531148E+03  0.60152162755E+03 0.  0.
        2    1    3    3  502    0  0.15986295895E+03 -0.11644194089E+03 -0.56645081818E+02  0.20572689795E+03  0.25500000920E-02 0.  1.
       -2    1    3    3    0  502 -0.15986295895E+03  0.11644194089E+03  0.51151526375E+03  0.54841841353E+03  0.25500000920E-02 0. -1.
</event>
<event>
 5   0  0.7123340E-02  0.5962777E+03  0.7818609E-02  0.9913159E-01
       -1   -1    0    0    0  501  0.00000000000E+00  0.00000000000E+00  0.13127345256E+03  0.13127345266E+03  0.50400001928E-02 0. -1.
        1   -1    0    0  501    0  0.00000000000E+00  0.00000000000E+00 -0.67711162591E+03  0.67711162593E+03  0.50400001928E-02 0.  1.
    10030    2    1    2    0    0  0.00000000000E+00  0.00000000000E+00 -0.54583817335E+03  0.80838507859E+03  0.59627772371E+03 0.  0.
        2    1    3    3  502    0  0.29187209686E+01  0.81131435920E+02 -0.66183788998E+03  0.66679848639E+03  0.25500000920E-02 0.  1.
       -2    1    3    3    0  502 -0.29187209686E+01 -0.81131435920E+02  0.11599971663E+03  0.14158659220E+03  0.25500000920E-02 0. -1.
</event>
<event>
 5   0  0.4695625E-02  0.5944176E+03  0.7818609E-02  0.9917056E-01
        3   -1    0    0  501    0  0.00000000000E+00  0.00000000000E+00  0.24493089683E+03  0.24493091765E+03  0.10100000352E+00 0. -1.
       -3   -1    0    0    0  501  0.00000000000E+00  0.00000000000E+00 -0.36064488079E+03  0.36064489493E+03  0.10100000352E+00 0.  1.
    10030    2    1    2    0    0  0.00000000000E+00  0.00000000000E+00 -0.11571398396E+03  0.60557581258E+03  0.59441764669E+03 0.  0.
        4    1    3    3  502    0  0.18674885688E+02  0.18271686569E+03 -0.29590375486E+03  0.34827410097E+03  0.12699999809E+01 0.  1.
       -4    1    3    3    0  502 -0.18674885688E+02 -0.18271686569E+03  0.18018977090E+03  0.25730171162E+03  0.12699999809E+01 0. -1.
</event>
<event>
 5   0  0.7424930E-02  0.6084493E+03  0.7818609E-02  0.9888030E-01
        1   -1    0    0  501    0  0.00000000000E+00  0.00000000000E+00  0.34795916323E+03  0.34795916327E+03  0.50400001928E-02 0.  1.
       -1   -1    0    0    0  501  0.00000000000E+00  0.00000000000E+00 -0.26598709014E+03  0.26598709018E+03  0.50400001928E-02 0. -1.
    10030    2    1    2    0    0  0.00000000000E+00  0.00000000000E+00  0.81972073097E+02  0.61394625346E+03  0.60844932522E+03 0.  0.
        3    1    3    3  502    0  0.22124451041E+03  0.11535553848E+03  0.21661773327E+03  0.33042288996E+03  0.10100000352E+00 0.  1.
       -3    1    3    3    0  502 -0.22124451041E+03 -0.11535553848E+03 -0.13464566017E+03  0.28352336349E+03  0.10100000352E+00 0. -1.
</event>
<event>
 5   0  0.1206238E-01  0.6012271E+03  0.7818609E-02  0.9902863E-01
       -2   -1    0    0    0  501  0.00000000000E+00  0.00000000000E+00  0.18257077417E+03  0.18257077418E+03  0.25500000920E-02 0.  1.
        2   -1    0    0  501    0  0.00000000000E+00  0.00000000000E+00 -0.49497798544E+03  0.49497798544E+03  0.25500000920E-02 0. -1.
    10030    2    1    2    0    0  0.00000000000E+00  0.00000000000E+00 -0.31240721127E+03  0.67754875963E+03  0.60122712515E+03 0.  0.
        5    1    3    3  502    0  0.20050194830E+03 -0.89925119193E+02  0.74912795512E+02  0.23221019630E+03  0.46999998093E+01 0.  1.
       -5    1    3    3    0  502 -0.20050194830E+03  0.89925119193E+02 -0.38732000678E+03  0.44533856333E+03  0.46999998093E+01 0. -1.
</event>
<event>
 5   0  0.1219020E-01  0.6002094E+03  0.7818609E-02  0.9904972E-01
       -2   -1    0    0    0  501  0.00000000000E+00  0.00000000000E+00  0.63437674317E+02  0.63437674368E+02  0.25500000920E-02 0. -1.
        2   -1    0    0  501    0  0.00000000000E+00  0.00000000000E+00 -0.14197057741E+04  0.14197057741E+04  0.25500000920E-02 0.  1.
    10030    2    1    2    0    0  0.00000000000E+00  0.00000000000E+00 -0.13562680998E+04  0.14831434485E+04  0.60020940534E+03 0.  0.
        2    1    3    3  502    0  0.20724881664E+03 -0.51384878017E+02 -0.15704054659E+03  0.26505510930E+03  0.25500000920E-02 0. -1.
       -2    1    3    3    0  502 -0.20724881664E+03  0.51384878017E+02 -0.11992275532E+04  0.12180883392E+04  0.25500000920E-02 0.  1.
</event>
<event>
 5   0  0.7221069E-02  0.6354120E+03  0.7818609E-02  0.9834544E-01
       -1   -1    0    0    0  501  0.00000000000E+00  0.00000000000E+00  0.28409082107E+03  0.28409082112E+03  0.50400001928E-02 0.  1.
        1   -1    0    0  501    0  0.00000000000E+00  0.00000000000E+00 -0.35529874698E+03  0.35529874702E+03  0.50400001928E-02 0. -1.
    10030    2    1    2    0    0  0.00000000000E+00  0.00000000000E+00 -0.71207925910E+02  0.63938956813E+03  0.63541203256E+03 0.  0.
        5    1    3    3  502    0  0.28789941427E+03  0.12362063131E+03  0.17134893806E+02  0.31382133102E+03  0.46999998093E+01 0.  1.
       -5    1    3    3    0  502 -0.28789941427E+03 -0.12362063131E+03 -0.88342819717E+02  0.32556823711E+03  0.46999998093E+01 0. -1.
</event>
<event>
 5   0  0.7221069E-02  0.6000082E+03  0.7818609E-02  0.9905389E-01
        1   -1    0    0  501    0  0.00000000000E+00  0.00000000000E+00  0.32546537874E+03  0.32546537878E+03  0.50400001928E-02 0.  1.
       -1   -1    0    0    0  501  0.00000000000E+00  0.00000000000E+00 -0.27653462138E+03  0.27653462143E+03  0.50400001928E-02 0. -1.
    10030    2    1    2    0    0  0.00000000000E+00  0.00000000000E+00  0.48930757359E+02  0.60200000020E+03  0.60000815097E+03 0.  0.
        5    1    3    3  502    0  0.20489926358E+03 -0.12581504456E+03 -0.15548224546E+03  0.28637379822E+03  0.46999998093E+01 0. -1.
       -5    1    3    3    0  502 -0.20489926358E+03  0.12581504456E+03  0.20441300282E+03  0.31562620198E+03  0.46999998093E+01 0.  1.
</event>
<event>
 5   0  0.7123340E-02  0.5976650E+03  0.7818609E-02  0.9910262E-01
        1   -1    0    0  501    0  0.00000000000E+00  0.00000000000E+00  0.34214968974E+03  0.34214968978E+03  0.50400001928E-02 0. -1.
       -1   -1    0    0    0  501  0.00000000000E+00  0.00000000000E+00 -0.26099940082E+03  0.26099940087E+03  0.50400001928E-02 0.  1.
    10030    2    1    2    0    0  0.00000000000E+00  0.00000000000E+00  0.81150288917E+02  0.60314909065E+03  0.59766500329E+03 0.  0.
        2    1    3    3  502    0  0.26349082820E+02  0.28992684745E+03 -0.27490104890E+02  0.29241675211E+03  0.25500000920E-02 0. -1.
       -2    1    3    3    0  502 -0.26349082820E+02 -0.28992684745E+03  0.10864039381E+03  0.31073233854E+03  0.25500000920E-02 0.  1.
</event>
<event>
 5   0  0.7263385E-02  0.7148900E+03  0.7818609E-02  0.9692102E-01
       -1   -1    0    0    0  501  0.00000000000E+00  0.00000000000E+00  0.34554552618E+03  0.34554552621E+03  0.50400001928E-02 0.  1.
        1   -1    0    0  501    0  0.00000000000E+00  0.00000000000E+00 -0.36975427178E+03  0.36975427182E+03  0.50400001928E-02 0. -1.
    10030    2    1    2    0    0  0.00000000000E+00  0.00000000000E+00 -0.24208745606E+02  0.71529979803E+03  0.71489001790E+03 0.  0.
        1    1    3    3  502    0  0.15077628554E+03  0.22185194996E+03  0.22428336813E+03  0.34964954629E+03  0.50400001928E-02 0.  1.
       -1    1    3    3    0  502 -0.15077628554E+03 -0.22185194996E+03 -0.24849211373E+03  0.36565025173E+03  0.50400001928E-02 0. -1.
</event>
<event>
 5   0  0.1219020E-01  0.5973403E+03  0.7818609E-02  0.9910940E-01
       -2   -1    0    0    0  501  0.00000000000E+00  0.00000000000E+00  0.49206099701E+02  0.49206099767E+02  0.25500000920E-02 0. -1.
        2   -1    0    0  501    0  0.00000000000E+00  0.00000000000E+00 -0.18128615320E+04  0.18128615320E+04  0.25500000920E-02 0.  1.
    10030    2    1    2    0    0  0.00000000000E+00  0.00000000000E+00 -0.17636554323E+04  0.18620676318E+04  0.59734025597E+03 0.  0.
        2    1    3    3  502    0  0.46965729232E+02 -0.28766975035E+03 -0.10849093190E+04  0.11233823461E+04  0.25500000920E-02 0.  1.
       -2    1    3    3    0  502 -0.46965729232E+02  0.28766975035E+03 -0.67874611330E+03  0.73868528570E+03  0.25500000920E-02 0. -1.
</event>
<event>
 5   0  0.7263385E-02  0.6090137E+03  0.7818609E-02  0.9886880E-01
        1   -1    0    0  501    0  0.00000000000E+00  0.00000000000E+00  0.25615141084E+03  0.25615141089E+03  0.50400001928E-02 0.  1.
       -1   -1    0    0    0  501  0.00000000000E+00  0.00000000000E+00 -0.36199062066E+03  0.36199062069E+03  0.50400001928E-02 0. -1.
    10030    2    1    2    0    0  0.00000000000E+00  0.00000000000E+00 -0.10583920982E+03  0.61814203158E+03  0.60901365573E+03 0.  0.
        1    1    3    3  502    0 -0.96274848027E+02 -0.78692335774E+02 -0.33504829176E+03  0.35737751455E+03  0.50400001928E-02 0. -1.
       -1    1    3    3    0  502  0.96274848027E+02  0.78692335774E+02  0.22920908194E+03  0.26076451703E+03  0.50400001928E-02 0.  1.
</event>
<event>
 5   0  0.4695625E-02  0.5636696E+03  0.7818609E-02  0.9983786E-01
       -3   -1    0    0    0  501  0.00000000000E+00  0.00000000000E+00  0.78855412350E+02  0.78855477032E+02  0.10100000352E+00 0.  1.
        3   -1    0    0  501    0  0.00000000000E+00  0.00000000000E+00 -0.10072969870E+04  0.10072969921E+04  0.10100000352E+00 0. -1.
    10030    2    1    2    0    0  0.00000000000E+00  0.00000000000E+00 -0.92844157469E+03  0.10861524691E+04  0.56366960943E+03 0.  0.
        3    1    3    3  502    0 -0.85712264387E+02  0.18984016996E+03 -0.83005850164E+03  0.85579378868E+03  0.10100000352E+00 0. -1.
       -3    1    3    3    0  502  0.85712264387E+02 -0.18984016996E+03 -0.98383073045E+02  0.23035868045E+03  0.10100000352E+00 0.  1.
</event>
<event>
 5   0  0.1206238E-01  0.5907702E+03  0.7818609E-02  0.9924742E-01
       -2   -1    0    0    0  501  0.00000000000E+00  0.00000000000E+00  0.10885252270E+03  0.10885252273E+03  0.25500000920E-02 0.  1.
        2   -1    0    0  501    0  0.00000000000E+00  0.00000000000E+00 -0.80156494700E+03  0.80156494701E+03  0.25500000920E-02 0. -1.
    10030    2    1    2    0    0  0.00000000000E+00  0.00000000000E+00 -0.69271242430E+03  0.91041746974E+03  0.59077023150E+03 0.  0.
        5    1    3    3  502    0  0.15674968449E+03  0.22455899577E+03 -0.17590907250E+03  0.32552004233E+03  0.46999998093E+01 0.  1.
       -5    1    3    3    0  502 -0.15674968449E+03 -0.22455899577E+03 -0.51680335179E+03  0.58489742741E+03  0.46999998093E+01 0. -1.
</event>
<event>
 5   0  0.7424930E-02  0.6026835E+03  0.7818609E-02  0.9899854E-01
       -1   -1    0    0    0  501  0.00000000000E+00  0.00000000000E+00  0.30215888240E+03  0.30215888245E+03  0.50400001928E-02 0. -1.
        1   -1    0    0  501    0  0.00000000000E+00  0.00000000000E+00 -0.30052685639E+03  0.30052685643E+03  0.50400001928E-02 0.  1.
    10030    2    1    2    0    0  0.00000000000E+00  0.00000000000E+00  0.16320260106E+01  0.60268573888E+03  0.60268352918E+03 0.  0.
        3    1    3    3  502    0  0.41927521814E+02  0.13369797727E+03 -0.26596911511E+03  0.30062043610E+03  0.10100000352E+00 0.  1.
       -3    1    3    3    0  502 -0.41927521814E+02 -0.13369797727E+03  0.26760114112E+03  0.30206530277E+03  0.10100000352E+00 0. -1.
</event>
<event>
 5   0  0.7221069E-02  0.5972397E+03  0.7818609E-02  0.9911149E-01
        1   -1    0    0  501    0  0.00000000000E+00  0.00000000000E+00  0.53318956848E+03  0.53318956851E+03  0.50400001928E-02 0. -1.
       -1   -1    0    0    0  501  0.00000000000E+00  0.00000000000E+00 -0.16724596330E+03  0.16724596338E+03  0.50400001928E-02 0.  1.
    10030    2    1    2    0    0  0.00000000000E+00  0.00000000000E+00  0.36594360518E+03  0.70043553188E+03  0.59723966057E+03 0.  0.
        5    1    3    3  502    0  0.31181747472E+02 -0.21759869187E+03 -0.54007487482E+02  0.22640757669E+03  0.46999998093E+01 0.  1.
       -5    1    3    3    0  502 -0.31181747472E+02  0.21759869187E+03  0.41995109266E+03  0.47402795519E+03  0.46999998093E+01 0. -1.
</event>
<event>
 5   0  0.7221069E-02  0.6037806E+03  0.7818609E-02  0.9897593E-01
       -1   -1    0    0    0  501  0.00000000000E+00  0.00000000000E+00  0.19095555522E+03  0.19095555528E+03  0.50400001928E-02 0.  1.
        1   -1    0    0  501    0  0.00000000000E+00  0.00000000000E+00 -0.47727213357E+03  0.47727213360E+03  0.50400001928E-02 0. -1.
    10030    2    1    2    0    0  0.00000000000E+00  0.00000000000E+00 -0.28631657835E+03  0.66822768888E+03  0.60378063992E+03 0.  0.
        5    1    3    3  502    0 -0.92103645373E+02  0.97506107938E+02  0.15612238733E+03  0.20588057801E+03  0.46999998093E+01 0.  1.
       -5    1    3    3    0  502  0.92103645373E+02 -0.97506107938E+02 -0.44243896569E+03  0.46234711087E+03  0.46999998093E+01 0. -1.
</event>
<event>
 5   0  0.1219020E-01  0.6151776E+03  0.7818609E-02  0.9874408E-01
        2   -1    0    0  501    0  0.00000000000E+00  0.00000000000E+00  0.80731329588E+03  0.80731329589E+03  0.25500000920E-02 0. -1.
       -2   -1    0    0    0  501  0.00000000000E+00  0.00000000000E+00 -0.11719224452E+03  0.11719224455E+03  0.25500000920E-02 0.  1.
    10030    2    1    2    0    0  0.00000000000E+00  0.00000000000E+00  0.69012105136E+03  0.92450554044E+03  0.61517755873E+03 0.  0.
        2    1    3    3  502    0  0.15593809710E+03  0.14563260508E+03  0.12106086871E+02  0.21371032529E+03  0.25500000920E-02 0.  1.
       -2    1    3    3    0  502 -0.15593809710E+03 -0.14563260508E+03  0.67801496449E+03  0.71079521514E+03  0.25500000920E-02 0. -1.
</event>
<event>
 5   0  0.7221069E-02  0.6152908E+03  0.7818609E-02  0.9874181E-01
       -1   -1    0    0    0  501  0.00000000000E+00  0.00000000000E+00  0.39435368891E+03  0.39435368894E+03  0.50400001928E-02 0. -1.
        1   -1    0    0  501    0  0.00000000000E+00  0.00000000000E+00 -0.24000207164E+03  0.24000207169E+03  0.50400001928E-02 0.  1.
    10030    2    1    2    0    0  0.00000000000E+00  0.00000000000E+00  0.15435161727E+03  0.63435576063E+03  0.61529083310E+03 0.  0.
        5    1    3    3  502    0  0.14517826888E+02  0.25015123918E+03 -0.10678270574E+03  0.27241704426E+03  0.46999998093E+01 0.  1.
       -5    1    3    3    0  502 -0.14517826888E+02 -0.25015123918E+03  0.26113432301E+03  0.36193871637E+03  0.46999998093E+01 0. -1.
</event>
<event>
 5   0  0.7263385E-02  0.5947720E+03  0.7818609E-02  0.9916312E-01
        1   -1    0    0  501    0  0.00000000000E+00  0.00000000000E+00  0.17063810396E+03  0.17063810403E+03  0.50400001928E-02 0.  1.
       -1   -1    0    0    0  501  0.00000000000E+00  0.00000000000E+00 -0.51828073689E+03  0.51828073691E+03  0.50400001928E-02 0. -1.
    10030    2    1    2    0    0  0.00000000000E+00  0.00000000000E+00 -0.34764263293E+03  0.68891884095E+03  0.59477203127E+03 0.  0.
        1    1    3    3  502    0  0.26057241694E+03 -0.14278346157E+03 -0.18816453232E+03  0.35169730254E+03  0.50400001928E-02 0.  1.
       -1    1    3    3    0  502 -0.26057241694E+03  0.14278346157E+03 -0.15947810061E+03  0.33722153840E+03  0.50400001928E-02 0. -1.
</event>
<event>
 5   0  0.1219020E-01  0.5992437E+03  0.7818609E-02  0.9906976E-01
        2   -1    0    0  501    0  0.00000000000E+00  0.00000000000E+00  0.31044051326E+03  0.31044051328E+03  0.25500000920E-02 0. -1.
       -2   -1    0    0    0  501  0.00000000000E+00  0.00000000000E+00 -0.28918020628E+03  0.28918020629E+03  0.25500000920E-02 0.  1.
    10030    2    1    2    0    0  0.00000000000E+00  0.00000000000E+00  0.21260306984E+02  0.59962071957E+03  0.59924369557E+03 0.  0.
        2    1    3    3  502    0  0.26909807720E+03  0.51771839994E+02 -0.11060362962E+03  0.29551186348E+03  0.25500000920E-02 0.  1.
       -2    1    3    3    0  502 -0.26909807720E+03 -0.51771839994E+02  0.13186393660E+03  0.30410885609E+03  0.25500000920E-02 0. -1.
</event>
<event>
 5   0  0.4695625E-02  0.6154369E+03  0.7818609E-02  0.9873887E-01
       -4   -1    0    0    0  501  0.00000000000E+00  0.00000000000E+00  0.29528078676E+03  0.29528351787E+03  0.12699999809E+01 0. -1.
        4   -1    0    0  501    0  0.00000000000E+00  0.00000000000E+00 -0.32067456986E+03  0.32067708471E+03  0.12699999809E+01 0.  1.
    10030    2    1    2    0    0  0.00000000000E+00  0.00000000000E+00 -0.25393783106E+02  0.61596060258E+03  0.61543693399E+03 0.  0.
        3    1    3    3  502    0 -0.12590557507E+03  0.27985506557E+03 -0.35510434551E+02  0.30892081950E+03  0.10100000352E+00 0.  1.
       -3    1    3    3    0  502  0.12590557507E+03 -0.27985506557E+03  0.10116651445E+02  0.30703978308E+03  0.10100000352E+00 0. -1.
</event>
<event>
 5   0  0.7123340E-02  0.5995643E+03  0.7818609E-02  0.9906310E-01
       -1   -1    0    0    0  501  0.00000000000E+00  0.00000000000E+00  0.56811128060E+03  0.56811128063E+03  0.50400001928E-02 0.  1.
        1   -1    0    0  501    0  0.00000000000E+00  0.00000000000E+00 -0.15818967103E+03  0.15818967111E+03  0.50400001928E-02 0. -1.
    10030    2    1    2    0    0  0.00000000000E+00  0.00000000000E+00  0.40992160957E+03  0.72630095174E+03  0.59956429722E+03 0.  0.
        2    1    3    3  502    0 -0.16836466246E+03 -0.24470956274E+03  0.15590499444E+03  0.33546355533E+03  0.25500000920E-02 0.  1.
       -2    1    3    3    0  502  0.16836466246E+03  0.24470956274E+03  0.25401661513E+03  0.39083739640E+03  0.25500000920E-02 0. -1.
</event>
<event>
 5   0  0.7266519E-02  0.5350961E+03  0.7818609E-02  0.1005004E+00
       -1   -1    0    0    0  501  0.00000000000E+00  0.00000000000E+00  0.13473622368E+03  0.13473622377E+03  0.50400001928E-02 0. -1.
        1   -1    0    0  501    0  0.00000000000E+00  0.00000000000E+00 -0.53127469304E+03  0.53127469306E+03  0.50400001928E-02 0.  1.
    10030    2    1    2    0    0  0.00000000000E+00  0.00000000000E+00 -0.39653846936E+03  0.66601091683E+03  0.53509605087E+03 0.  0.
        4    1    3    3  502    0  0.14192109323E+03  0.20041038723E+02  0.82916035967E+02  0.16558961881E+03  0.12699999809E+01 0. -1.
       -4    1    3    3    0  502 -0.14192109323E+03 -0.20041038723E+02 -0.47945450533E+03  0.50042129802E+03  0.12699999809E+01 0.  1.
</event>
<event>
 5   0  0.7266519E-02  0.6067818E+03  0.7818609E-02  0.9891435E-01
        1   -1    0    0  501    0  0.00000000000E+00  0.00000000000E+00  0.10660533423E+03  0.10660533435E+03  0.50400001928E-02 0. -1.
       -1   -1    0    0    0  501  0.00000000000E+00  0.00000000000E+00 -0.86342795905E+03  0.86342795906E+03  0.50400001928E-02 0.  1.
    10030    2    1    2    0    0  0.00000000000E+00  0.00000000000E+00 -0.75682262482E+03  0.97003329342E+03  0.60678176052E+03 0.  0.
        4    1    3    3  502    0 -0.19745168996E+03 -0.22490595754E+03 -0.29888651601E+03  0.42297118336E+03  0.12699999809E+01 0.  1.
       -4    1    3    3    0  502  0.19745168996E+03  0.22490595754E+03 -0.45793610881E+03  0.54706211005E+03  0.12699999809E+01 0. -1.
</event>
<event>
 5   0  0.7221069E-02  0.6023454E+03  0.7818609E-02  0.9900552E-01
        1   -1    0    0  501    0  0.00000000000E+00  0.00000000000E+00  0.51361687690E+03  0.51361687692E+03  0.50400001928E-02 0. -1.
       -1   -1    0    0    0  501  0.00000000000E+00  0.00000000000E+00 -0.17660049058E+03  0.17660049065E+03  0.50400001928E-02 0.  1.
    10030    2    1    2    0    0  0.00000000000E+00  0.00000000000E+00  0.33701638632E+03  0.69021736757E+03  0.60234539082E+03 0.  0.
        5    1    3    3  502    0  0.17106713296E+03 -0.56450665973E+02  0.44502537193E+03  0.48012531003E+03  0.46999998093E+01 0. -1.
       -5    1    3    3    0  502 -0.17106713296E+03  0.56450665973E+02 -0.10800898561E+03  0.21009205754E+03  0.46999998093E+01 0.  1.
</event>
<event>
 5   0  0.7424930E-02  0.6039529E+03  0.7818609E-02  0.9897239E-01
        1   -1    0    0  501    0  0.00000000000E+00  0.00000000000E+00  0.34641086643E+03  0.34641086647E+03  0.50400001928E-02 0. -1.
       -1   -1    0    0    0  501  0.00000000000E+00  0.00000000000E+00 -0.26324167546E+03  0.26324167551E+03  0.50400001928E-02 0.  1.
    10030    2    1    2    0    0  0.00000000000E+00  0.00000000000E+00  0.83169190968E+02  0.60965254198E+03  0.60395290182E+03 0.  0.
        3    1    3    3  502    0  0.13115785428E+03 -0.20850118158E+03 -0.13474834546E+03  0.28077081804E+03  0.10100000352E+00 0.  1.
       -3    1    3    3    0  502 -0.13115785428E+03  0.20850118158E+03  0.21791753643E+03  0.32888172394E+03  0.10100000352E+00 0. -1.
</event>
<event>
 5   0  0.1206238E-01  0.5995579E+03  0.7818609E-02  0.9906324E-01
        2   -1    0    0  501    0  0.00000000000E+00  0.00000000000E+00  0.50818009833E+03  0.50818009834E+03  0.25500000920E-02 0.  1.
       -2   -1    0    0    0  501  0.00000000000E+00  0.00000000000E+00 -0.17684166010E+03  0.17684166012E+03  0.25500000920E-02 0. -1.
    10030    2    1    2    0    0  0.00000000000E+00  0.00000000000E+00  0.33133843823E+03  0.68502175846E+03  0.59955787787E+03 0.  0.
        5    1    3    3  502    0 -0.14967363977E+03  0.25799573940E+03  0.19958802989E+03  0.35891708188E+03  0.46999998093E+01 0.  1.
       -5    1    3    3    0  502  0.14967363977E+03 -0.25799573940E+03  0.13175040834E+03  0.32610467658E+03  0.46999998093E+01 0. -1.
</event>
<event>
 5   0  0.7221069E-02  0.5910827E+03  0.7818609E-02  0.9924081E-01
        1   -1    0    0  501    0  0.00000000000E+00  0.00000000000E+00  0.89429078924E+03  0.89429078925E+03  0.50400001928E-02 0. -1.
       -1   -1    0    0    0  501  0.00000000000E+00  0.00000000000E+00 -0.97669220748E+02  0.97669220878E+02  0.50400001928E-02 0.  1.
    10030    2    1    2    0    0  0.00000000000E+00  0.00000000000E+00  0.79662156849E+03  0.99196001013E+03  0.59108268315E+03 0.  0.
        5    1    3    3  502    0  0.28216035191E+00  0.23724074084E+03  0.10264422434E+03  0.25853660382E+03  0.46999998093E+01 0.  1.
       -5    1    3    3    0  502 -0.28216035191E+00 -0.23724074084E+03  0.69397734416E+03  0.73342340631E+03  0.46999998093E+01 0. -1.
</event>
<event>
 5   0  0.1166419E-01  0.6126552E+03  0.7818609E-02  0.9879493E-01
       -2   -1    0    0    0  501  0.00000000000E+00  0.00000000000E+00  0.77129694750E+02  0.77129694792E+02  0.25500000920E-02 0.  1.
        2   -1    0    0  501    0  0.00000000000E+00  0.00000000000E+00 -0.12166081006E+04  0.12166081006E+04  0.25500000920E-02 0. -1.
    10030    2    1    2    0    0  0.00000000000E+00  0.00000000000E+00 -0.11394784059E+04  0.12937377954E+04  0.61265524223E+03 0.  0.
        1    1    3    3  502    0 -0.22529735128E+02 -0.64435067208E+02 -0.12003434525E+04  0.12022827749E+04  0.50400001928E-02 0. -1.
       -1    1    3    3    0  502  0.22529735128E+02  0.64435067208E+02  0.60865046625E+02  0.91455020513E+02  0.50400001928E-02 0.  1.
</event>
<event>
 5   0  0.7424930E-02  0.6043683E+03  0.7818609E-02  0.9896385E-01
       -1   -1    0    0    0  501  0.00000000000E+00  0.00000000000E+00  0.47310238079E+03  0.47310238082E+03  0.50400001928E-02 0.  1.
        1   -1    0    0  501    0  0.00000000000E+00  0.00000000000E+00 -0.19301371389E+03  0.19301371396E+03  0.50400001928E-02 0. -1.
    10030    2    1    2    0    0  0.00000000000E+00  0.00000000000E+00  0.28008866690E+03  0.66611609478E+03  0.60436825727E+03 0.  0.
        3    1    3    3  502    0  0.24875039202E+03  0.83324842411E+02 -0.25264335328E+02  0.26354901581E+03  0.10100000352E+00 0. -1.
       -3    1    3    3    0  502 -0.24875039202E+03 -0.83324842411E+02  0.30535300223E+03  0.40256707896E+03  0.10100000352E+00 0.  1.
</event>
<event>
 5   0  0.7123340E-02  0.6060762E+03  0.7818609E-02  0.9892879E-01
       -1   -1    0    0    0  501  0.00000000000E+00  0.00000000000E+00  0.20004951318E+03  0.20004951325E+03  0.50400001928E-02 0. -1.
        1   -1    0    0  501    0  0.00000000000E+00  0.00000000000E+00 -0.45904685555E+03  0.45904685558E+03  0.50400001928E-02 0.  1.
    10030    2    1    2    0    0  0.00000000000E+00  0.00000000000E+00 -0.25899734237E+03  0.65909636883E+03  0.60607623287E+03 0.  0.
        2    1    3    3  502    0 -0.78170784330E+02 -0.21806642709E+03 -0.34195711436E+03  0.41303547815E+03  0.25500000920E-02 0.  1.
       -2    1    3    3    0  502  0.78170784330E+02  0.21806642709E+03  0.82959771990E+02  0.24606089068E+03  0.25500000920E-02 0. -1.
</event>
<event>
 5   0  0.4695625E-02  0.6004637E+03  0.7818609E-02  0.9904445E-01
        3   -1    0    0  501    0  0.00000000000E+00  0.00000000000E+00  0.12077324531E+03  0.12077328754E+03  0.10100000352E+00 0. -1.
       -3   -1    0    0    0  501  0.00000000000E+00  0.00000000000E+00 -0.74635018380E+03  0.74635019064E+03  0.10100000352E+00 0.  1.
    10030    2    1    2    0    0  0.00000000000E+00  0.00000000000E+00 -0.62557693849E+03  0.86712347818E+03  0.60046367120E+03 0.  0.
        4    1    3    3  502    0 -0.16918289140E+03  0.16716230414E+02  0.44562519473E+02  0.17575469878E+03  0.12699999809E+01 0. -1.
       -4    1    3    3    0  502  0.16918289140E+03 -0.16716230414E+02 -0.67013945797E+03  0.69136877940E+03  0.12699999809E+01 0.  1.
</event>
<event>
 5   0  0.1166419E-01  0.6269561E+03  0.7818609E-02  0.9851007E-01
       -2   -1    0    0    0  501  0.00000000000E+00  0.00000000000E+00  0.32438561013E+02  0.32438561114E+02  0.25500000920E-02 0. -1.
        2   -1    0    0  501    0  0.00000000000E+00  0.00000000000E+00 -0.30293721108E+04  0.30293721108E+04  0.25500000920E-02 0.  1.
    10030    2    1    2    0    0  0.00000000000E+00  0.00000000000E+00 -0.29969335498E+04  0.30618106719E+04  0.62695605015E+03 0.  0.
        1    1    3    3  502    0 -0.21945263295E+03 -0.12956273500E+03 -0.60698986343E+03  0.65831804983E+03  0.50400001928E-02 0. -1.
       -1    1    3    3    0  502  0.21945263295E+03  0.12956273500E+03 -0.23899436864E+04  0.24034926221E+04  0.50400001928E-02 0.  1.
</event>
<event>
 5   0  0.1175861E-01  0.6206880E+03  0.7818609E-02  0.9863391E-01
       -2   -1    0    0    0  501  0.00000000000E+00  0.00000000000E+00  0.50779446108E+02  0.50779446173E+02  0.25500000920E-02 0. -1.
        2   -1    0    0  501    0  0.00000000000E+00  0.00000000000E+00 -0.18967003649E+04  0.18967003649E+04  0.25500000920E-02 0.  1.
    10030    2    1    2    0    0  0.00000000000E+00  0.00000000000E+00 -0.18459209188E+04  0.19474798111E+04  0.62068798611E+03 0.  0.
        3    1    3    3  502    0  0.22639568963E+03 -0.11610902413E+03 -0.14805126675E+04  0.15022163901E+04  0.10100000352E+00 0.  1.
       -3    1    3    3    0  502 -0.22639568963E+03  0.11610902413E+03 -0.36540825126E+03  0.44526342097E+03  0.10100000352E+00 0. -1.
</event>
<event>
 5   0  0.1166419E-01  0.6095851E+03  0.7818609E-02  0.9885717E-01
        2   -1    0    0  501    0  0.00000000000E+00  0.00000000000E+00  0.19256313047E+04  0.19256313047E+04  0.25500000920E-02 0. -1.
       -2   -1    0    0    0  501  0.00000000000E+00  0.00000000000E+00 -0.48243138104E+02  0.48243138172E+02  0.25500000920E-02 0.  1.
    10030    2    1    2    0    0  0.00000000000E+00  0.00000000000E+00  0.18773881666E+04  0.19738744429E+04  0.60958509509E+03 0.  0.
        1    1    3    3  502    0  0.31028435390E+02  0.13810681219E+03  0.18127444283E+04  0.18182625272E+04  0.50400001928E-02 0. -1.
       -1    1    3    3    0  502 -0.31028435390E+02 -0.13810681219E+03  0.64643738276E+02  0.15561191568E+03  0.50400001928E-02 0.  1.
</event>
<event>
 5   0  0.1175861E-01  0.6321430E+03  0.7818609E-02  0.9840876E-01
        2   -1    0    0  501    0  0.00000000000E+00  0.00000000000E+00  0.12257408278E+04  0.12257408278E+04  0.25500000920E-02 0.  1.
       -2   -1    0    0    0  501  0.00000000000E+00  0.00000000000E+00 -0.81502701921E+02  0.81502701960E+02  0.25500000920E-02 0. -1.
    10030    2    1    2    0    0  0.00000000000E+00  0.00000000000E+00  0.11442381259E+04  0.13072435298E+04  0.63214298810E+03 0.  0.
        3    1    3    3  502    0 -0.15387282848E+03 -0.17524395797E+03  0.13094178229E+03  0.26745663704E+03  0.10100000352E+00 0. -1.
       -3    1    3    3    0  502  0.15387282848E+03  0.17524395797E+03  0.10132963436E+04  0.10397868927E+04  0.10100000352E+00 0.  1.
</event>
<event>
 5   0  0.1219020E-01  0.5920897E+03  0.7818609E-02  0.9921955E-01
        2   -1    0    0  501    0  0.00000000000E+00  0.00000000000E+00  0.33633063624E+03  0.33633063625E+03  0.25500000920E-02 0.  1.
       -2   -1    0    0    0  501  0.00000000000E+00  0.00000000000E+00 -0.26058451580E+03  0.26058451582E+03  0.25500000920E-02 0. -1.
    10030    2    1    2    0    0  0.00000000000E+00  0.00000000000E+00  0.75746120438E+02  0.59691515207E+03  0.59208970943E+03 0.  0.
        2    1    3    3  502    0  0.54555204872E+02  0.27526040288E+03 -0.57224899325E+02  0.28639002929E+03  0.25500000920E-02 0.  1.
       -2    1    3    3    0  502 -0.54555204872E+02 -0.27526040288E+03  0.13297101976E+03  0.31052512277E+03  0.25500000920E-02 0. -1.
</event>
<event>
 5   0  0.1166419E-01  0.6005504E+03  0.7818609E-02  0.9904265E-01
        2   -1    0    0  501    0  0.00000000000E+00  0.00000000000E+00  0.11962513526E+03  0.11962513528E+03  0.25500000920E-02 0.  1.
       -2   -1    0    0    0  501  0.00000000000E+00  0.00000000000E+00 -0.75373115740E+03  0.75373115740E+03  0.25500000920E-02 0. -1.
    10030    2    1    2    0    0  0.00000000000E+00  0.00000000000E+00 -0.63410602214E+03  0.87335629268E+03  0.60055038644E+03 0.  0.
        1    1    3    3  502    0  0.60637032989E+02 -0.19784831660E+02 -0.74376590501E+03  0.74649582103E+03  0.50400001928E-02 0. -1.
       -1    1    3    3    0  502 -0.60637032989E+02  0.19784831660E+02  0.10965988287E+03  0.12686047166E+03  0.50400001928E-02 0.  1.
</event>
<event>
 5   0  0.7221069E-02  0.6378385E+03  0.7818609E-02  0.9829871E-01
        1   -1    0    0  501    0  0.00000000000E+00  0.00000000000E+00  0.23409000175E+03  0.23409000181E+03  0.50400001928E-02 0.  1.
       -1   -1    0    0    0  501  0.00000000000E+00  0.00000000000E+00 -0.43448875763E+03  0.43448875766E+03  0.50400001928E-02 0. -1.
    10030    2    1    2    0    0  0.00000000000E+00  0.00000000000E+00 -0.20039875587E+03  0.66857875946E+03  0.63783845623E+03 0.  0.
        5    1    3    3  502    0 -0.26548019739E+03  0.17127665944E+03 -0.54848097530E+02  0.32069585759E+03  0.46999998093E+01 0. -1.
       -5    1    3    3    0  502  0.26548019739E+03 -0.17127665944E+03 -0.14555065834E+03  0.34788290187E+03  0.46999998093E+01 0.  1.
</event>
<event>
 5   0  0.7221069E-02  0.5804977E+03  0.7818609E-02  0.9946714E-01
        1   -1    0    0  501    0  0.00000000000E+00  0.00000000000E+00  0.26533366580E+03  0.26533366585E+03  0.50400001928E-02 0. -1.
       -1   -1    0    0    0  501  0.00000000000E+00  0.00000000000E+00 -0.31750360435E+03  0.31750360439E+03  0.50400001928E-02 0.  1.
    10030    2    1    2    0    0  0.00000000000E+00  0.00000000000E+00 -0.52169938553E+02  0.58283727024E+03  0.58049770120E+03 0.  0.
        5    1    3    3  502    0  0.13058482715E+03 -0.22877600768E+03  0.96190282583E+02  0.28047374072E+03  0.46999998093E+01 0. -1.
       -5    1    3    3    0  502 -0.13058482715E+03  0.22877600768E+03 -0.14836022114E+03  0.30236352952E+03  0.46999998093E+01 0.  1.
</event>
<event>
 5   0  0.1219020E-01  0.5942114E+03  0.7818609E-02  0.9917489E-01
       -2   -1    0    0    0  501  0.00000000000E+00  0.00000000000E+00  0.66402417246E+02  0.66402417295E+02  0.25500000920E-02 0. -1.
        2   -1    0    0  501    0  0.00000000000E+00  0.00000000000E+00 -0.13293462919E+04  0.13293462919E+04  0.25500000920E-02 0.  1.
    10030    2    1    2    0    0  0.00000000000E+00  0.00000000000E+00 -0.12629438747E+04  0.13957487092E+04  0.59421143435E+03 0.  0.
        2    1    3    3  502    0  0.57499408175E+02  0.68876052391E+02 -0.12967637829E+04  0.12998639934E+04  0.25500000920E-02 0.  1.
       -2    1    3    3    0  502 -0.57499408175E+02 -0.68876052391E+02  0.33819908252E+02  0.95884715852E+02  0.25500000920E-02 0. -1.
</event>
<event>
 5   0  0.7424930E-02  0.5970115E+03  0.7818609E-02  0.9911626E-01
        1   -1    0    0  501    0  0.00000000000E+00  0.00000000000E+00  0.21050771831E+03  0.21050771837E+03  0.50400001928E-02 0. -1.
       -1   -1    0    0    0  501  0.00000000000E+00  0.00000000000E+00 -0.42328942598E+03  0.42328942601E+03  0.50400001928E-02 0.  1.
    10030    2    1    2    0    0  0.00000000000E+00  0.00000000000E+00 -0.21278170766E+03  0.63379714438E+03  0.59701152845E+03 0.  0.
        3    1    3    3  502    0  0.21767453458E+03 -0.20280475785E+03 -0.13225833300E+03  0.32558293822E+03  0.10100000352E+00 0.  1.
       -3    1    3    3    0  502 -0.21767453458E+03  0.20280475785E+03 -0.80523374666E+02  0.30821420616E+03  0.10100000352E+00 0. -1.
</event>
<event>
 5   0  0.7221069E-02  0.6032943E+03  0.7818609E-02  0.9898595E-01
        1   -1    0    0  501    0  0.00000000000E+00  0.00000000000E+00  0.70105097058E+03  0.70105097060E+03  0.50400001928E-02 0.  1.
       -1   -1    0    0    0  501  0.00000000000E+00  0.00000000000E+00 -0.12979226999E+03  0.12979227009E+03  0.50400001928E-02 0. -1.
    10030    2    1    2    0    0  0.00000000000E+00  0.00000000000E+00  0.57125870059E+03  0.83084324069E+03  0.60329427943E+03 0.  0.
        5    1    3    3  502    0 -0.17281801310E+03  0.24614377927E+03  0.25434343306E+03  0.39391051987E+03  0.46999998093E+01 0. -1.
       -5    1    3    3    0  502  0.17281801310E+03 -0.24614377927E+03  0.31691526753E+03  0.43693272081E+03  0.46999998093E+01 0.  1.
</event>
<event>
 5   0  0.4695625E-02  0.6033611E+03  0.7818609E-02  0.9898457E-01
       -4   -1    0    0    0  501  0.00000000000E+00  0.00000000000E+00  0.77428475696E+03  0.77428579851E+03  0.12699999809E+01 0.  1.
        4   -1    0    0  501    0  0.00000000000E+00  0.00000000000E+00 -0.11753769213E+03  0.11754455314E+03  0.12699999809E+01 0. -1.
    10030    2    1    2    0    0  0.00000000000E+00  0.00000000000E+00  0.65674706483E+03  0.89183035164E+03  0.60336114305E+03 0.  0.
        2    1    3    3  502    0  0.25315004549E+03 -0.94013164937E+02  0.52716472647E+03  0.59230572305E+03  0.25500000920E-02 0.  1.
       -2    1    3    3    0  502 -0.25315004549E+03  0.94013164937E+02  0.12958233836E+03  0.29952462859E+03  0.25500000920E-02 0. -1.
</event>
<event>
 5   0  0.1175861E-01  0.6111982E+03  0.7818609E-02  0.9882442E-01
        2   -1    0    0  501    0  0.00000000000E+00  0.00000000000E+00  0.40133483187E+03  0.40133483188E+03  0.25500000920E-02 0. -1.
       -2   -1    0    0    0  501  0.00000000000E+00  0.00000000000E+00 -0.23270052265E+03  0.23270052267E+03  0.25500000920E-02 0.  1.
    10030    2    1    2    0    0  0.00000000000E+00  0.00000000000E+00  0.16863430922E+03  0.63403535455E+03  0.61119824981E+03 0.  0.
        3    1    3    3  502    0 -0.20931027424E+03 -0.19265129087E+03  0.20013788449E+03  0.34782250328E+03  0.10100000352E+00 0. -1.
       -3    1    3    3    0  502  0.20931027424E+03  0.19265129087E+03 -0.31503575272E+02  0.28621285127E+03  0.10100000352E+00 0.  1.
</event>
<event>
 5   0  0.7221069E-02  0.5982444E+03  0.7818609E-02  0.9909055E-01
       -1   -1    0    0    0  501  0.00000000000E+00  0.00000000000E+00  0.29474397440E+03  0.29474397444E+03  0.50400001928E-02 0.  1.
        1   -1    0    0  501    0  0.00000000000E+00  0.00000000000E+00 -0.30356547032E+03  0.30356547036E+03  0.50400001928E-02 0. -1.
    10030    2    1    2    0    0  0.00000000000E+00  0.00000000000E+00 -0.88214959166E+01  0.59830944480E+03  0.59824440904E+03 0.  0.
        5    1    3    3  502    0  0.14130204770E+03  0.11830549155E+03  0.23117704996E+03  0.29568120746E+03  0.46999998093E+01 0.  1.
       -5    1    3    3    0  502 -0.14130204770E+03 -0.11830549155E+03 -0.23999854588E+03  0.30262823734E+03  0.46999998093E+01 0. -1.
</event>
<event>
 5   0  0.1219020E-01  0.6044580E+03  0.7818609E-02  0.9896200E-01
       -2   -1    0    0    0  501  0.00000000000E+00  0.00000000000E+00  0.84992009277E+02  0.84992009315E+02  0.25500000920E-02 0. -1.
        2   -1    0    0  501    0  0.00000000000E+00  0.00000000000E+00 -0.10747169868E+04  0.10747169868E+04  0.25500000920E-02 0.  1.
    10030    2    1    2    0    0  0.00000000000E+00  0.00000000000E+00 -0.98972497751E+03  0.11597089961E+04  0.60445795928E+03 0.  0.
        2    1    3    3  502    0 -0.49942770549E+02  0.10787033973E+03 -0.10279831463E+04  0.10348331457E+04  0.25500000920E-02 0.  1.
       -2    1    3    3    0  502  0.49942770549E+02 -0.10787033973E+03  0.38258168746E+02  0.12487585037E+03  0.25500000920E-02 0. -1.
</event>
<event>
 5   0  0.7263385E-02  0.6007061E+03  0.7818609E-02  0.9903942E-01
        1   -1    0    0  501    0  0.00000000000E+00  0.00000000000E+00  0.55585041204E+03  0.55585041207E+03  0.50400001928E-02 0. -1.
       -1   -1    0    0    0  501  0.00000000000E+00  0.00000000000E+00 -0.16229537968E+03  0.16229537975E+03  0.50400001928E-02 0.  1.
    10030    2    1    2    0    0  0.00000000000E+00  0.00000000000E+00  0.39355503237E+03  0.71814579182E+03  0.60070609686E+03 0.  0.
        1    1    3    3  502    0 -0.52851571843E+02  0.26354534140E+03  0.36551074129E+02  0.27126632055E+03  0.50400001928E-02 0.  1.
       -1    1    3    3    0  502  0.52851571843E+02 -0.26354534140E+03  0.35700395824E+03  0.44687947127E+03  0.50400001928E-02 0. -1.
</event>
<event>
 5   0  0.4695625E-02  0.6203577E+03  0.7818609E-02  0.9864048E-01
       -3   -1    0    0    0  501  0.00000000000E+00  0.00000000000E+00  0.99831337461E+02  0.99831388552E+02  0.10100000352E+00 0.  1.
        3   -1    0    0  501    0  0.00000000000E+00  0.00000000000E+00 -0.96373446035E+03  0.96373446564E+03  0.10100000352E+00 0. -1.
    10030    2    1    2    0    0  0.00000000000E+00  0.00000000000E+00 -0.86390312289E+03  0.10635658542E+04  0.62035773588E+03 0.  0.
        4    1    3    3  502    0 -0.18949020378E+03 -0.24469492918E+03 -0.39651730446E+03  0.50300072697E+03  0.12699999809E+01 0. -1.
       -4    1    3    3    0  502  0.18949020378E+03  0.24469492918E+03 -0.46738581843E+03  0.56056512723E+03  0.12699999809E+01 0.  1.
</event>
<event>
 5   0  0.1175861E-01  0.5823479E+03  0.7818609E-02  0.9942721E-01
        2   -1    0    0  501    0  0.00000000000E+00  0.00000000000E+00  0.26290831279E+03  0.26290831280E+03  0.25500000920E-02 0.  1.
       -2   -1    0    0    0  501  0.00000000000E+00  0.00000000000E+00 -0.32247843248E+03  0.32247843249E+03  0.25500000920E-02 0. -1.
    10030    2    1    2    0    0  0.00000000000E+00  0.00000000000E+00 -0.59570119691E+02  0.58538674529E+03  0.58234787060E+03 0.  0.
        3    1    3    3  502    0 -0.13960935447E+01  0.29057888944E+03 -0.11135338591E+02  0.29079553991E+03  0.10100000352E+00 0. -1.
       -3    1    3    3    0  502  0.13960935447E+01 -0.29057888944E+03 -0.48434781100E+02  0.29459120538E+03  0.10100000352E+00 0.  1.
</event>
<event>
 5   0  0.7123340E-02  0.6122183E+03  0.7818609E-02  0.9880376E-01
       -1   -1    0    0    0  501  0.00000000000E+00  0.00000000000E+00  0.43320334739E+02  0.43320335032E+02  0.50400001928E-02 0.  1.
        1   -1    0    0  501    0  0.00000000000E+00  0.00000000000E+00 -0.21630216583E+04  0.21630216583E+04  0.50400001928E-02 0. -1.
    10030    2    1    2    0    0  0.00000000000E+00  0.00000000000E+00 -0.21197013235E+04  0.22063419933E+04  0.61221833561E+03 0.  0.
        2    1    3    3  502    0  0.16452391268E+03  0.17716670245E+03 -0.17364405607E+04  0.17531919402E+04  0.25500000920E-02 0. -1.
       -2    1    3    3    0  502 -0.16452391268E+03 -0.17716670245E+03 -0.38326076277E+03  0.45315005306E+03  0.25500000920E-02 0.  1.
</event>
<event>
 5   0  0.7424930E-02  0.5950125E+03  0.7818609E-02  0.9915808E-01
        1   -1    0    0  501    0  0.00000000000E+00  0.00000000000E+00  0.12488453288E+04  0.12488453288E+04  0.50400001928E-02 0.  1.
       -1   -1    0    0    0  501  0.00000000000E+00  0.00000000000E+00 -0.70873435026E+02  0.70873435206E+02  0.50400001928E-02 0. -1.
    10030    2    1    2    0    0  0.00000000000E+00  0.00000000000E+00  0.11779718938E+04  0.13197187640E+04  0.59501246506E+03 0.  0.
        3    1    3    3  502    0 -0.14876809966E+03  0.25137214292E+03  0.71425789555E+03  0.77167626196E+03  0.10100000352E+00 0.  1.
       -3    1    3    3    0  502  0.14876809966E+03 -0.25137214292E+03  0.46371399824E+03  0.54804250207E+03  0.10100000352E+00 0. -1.
</event>
<event>
 5   0  0.7221069E-02  0.6005343E+03  0.7818609E-02  0.9904298E-01
       -1   -1    0    0    0  501  0.00000000000E+00  0.00000000000E+00  0.17075481876E+03  0.17075481883E+03  0.50400001928E-02 0. -1.
        1   -1    0    0  501    0  0.00000000000E+00  0.00000000000E+00 -0.52801057640E+03  0.52801057642E+03  0.50400001928E-02 0.  1.
    10030    2    1    2    0    0  0.00000000000E+00  0.00000000000E+00 -0.35725575764E+03  0.69876539526E+03  0.60053426317E+03 0.  0.
        5    1    3    3  502    0  0.60541976714E+02  0.17312971321E+03  0.97947872731E+02  0.20797861503E+03  0.46999998093E+01 0. -1.
       -5    1    3    3    0  502 -0.60541976714E+02 -0.17312971321E+03 -0.45520363037E+03  0.49078678022E+03  0.46999998093E+01 0.  1.
</event>
<event>
 5   0  0.7123340E-02  0.5924317E+03  0.7818609E-02  0.9921233E-01
       -1   -1    0    0    0  501  0.00000000000E+00  0.00000000000E+00  0.61979234428E+03  0.61979234430E+03  0.50400001928E-02 0.  1.
        1   -1    0    0  501    0  0.00000000000E+00  0.00000000000E+00 -0.14156971395E+03  0.14156971404E+03  0.50400001928E-02 0. -1.
    10030    2    1    2    0    0  0.00000000000E+00  0.00000000000E+00  0.47822263033E+03  0.76136205833E+03  0.59243168358E+03 0.  0.
        2    1    3    3  502    0  0.18212185552E+03 -0.22301123828E+03  0.14969014843E+03  0.32451428813E+03  0.25500000920E-02 0. -1.
       -2    1    3    3    0  502 -0.18212185552E+03  0.22301123828E+03  0.32853248190E+03  0.43684777020E+03  0.25500000920E-02 0.  1.
</event>
<event>
 5   0  0.4695625E-02  0.6437201E+03  0.7818609E-02  0.9818635E-01
       -3   -1    0    0    0  501  0.00000000000E+00  0.00000000000E+00  0.32346776537E+03  0.32346778114E+03  0.10100000352E+00 0. -1.
        3   -1    0    0  501    0  0.00000000000E+00  0.00000000000E+00 -0.32026028116E+03  0.32026029709E+03  0.10100000352E+00 0.  1.
    10030    2    1    2    0    0  0.00000000000E+00  0.00000000000E+00  0.32074842074E+01  0.64372807823E+03  0.64372008726E+03 0.  0.
        5    1    3    3  502    0  0.11424373815E+03 -0.46288891785E+02  0.29889097473E+03  0.32334532311E+03  0.46999998093E+01 0. -1.
       -5    1    3    3    0  502 -0.11424373815E+03  0.46288891785E+02 -0.29568349052E+03  0.32038275511E+03  0.46999998093E+01 0.  1.
</event>
<event>
 5   0  0.1146468E-01  0.6286447E+03  0.7818609E-02  0.9847697E-01
        2   -1    0    0  501    0  0.00000000000E+00  0.00000000000E+00  0.97707201562E+03  0.97707201562E+03  0.25500000920E-02 0.  1.
       -2   -1    0    0    0  501  0.00000000000E+00  0.00000000000E+00 -0.10111696080E+03  0.10111696083E+03  0.25500000920E-02 0. -1.
    10030    2    1    2    0    0  0.00000000000E+00  0.00000000000E+00  0.87595505481E+03  0.10781889765E+04  0.62864474140E+03 0.  0.
        4    1    3    3  502    0 -0.53757485450E+02 -0.28283182739E+03  0.65433344095E+03  0.71486892132E+03  0.12699999809E+01 0.  1.
       -4    1    3    3    0  502  0.53757485450E+02  0.28283182739E+03  0.22162161386E+03  0.36332005513E+03  0.12699999809E+01 0. -1.
</event>
<event>
 5   0  0.7266519E-02  0.6086515E+03  0.7818609E-02  0.9887618E-01
       -1   -1    0    0    0  501  0.00000000000E+00  0.00000000000E+00  0.78396186086E+02  0.78396186248E+02  0.50400001928E-02 0.  1.
        1   -1    0    0  501    0  0.00000000000E+00  0.00000000000E+00 -0.11813607413E+04  0.11813607414E+04  0.50400001928E-02 0. -1.
    10030    2    1    2    0    0  0.00000000000E+00  0.00000000000E+00 -0.11029645553E+04  0.12597569276E+04  0.60865154767E+03 0.  0.
        4    1    3    3  502    0 -0.18663318600E+03  0.19836649860E+03 -0.83247598594E+03  0.87589902041E+03  0.12699999809E+01 0. -1.
       -4    1    3    3    0  502  0.18663318600E+03 -0.19836649860E+03 -0.27048856932E+03  0.38385790719E+03  0.12699999809E+01 0.  1.
</event>
<event>
 5   0  0.7424930E-02  0.6138678E+03  0.7818609E-02  0.9877045E-01
       -1   -1    0    0    0  501  0.00000000000E+00  0.00000000000E+00  0.15148768316E+03  0.15148768324E+03  0.50400001928E-02 0.  1.
        1   -1    0    0  501    0  0.00000000000E+00  0.00000000000E+00 -0.62188826922E+03  0.62188826924E+03  0.50400001928E-02 0. -1.
    10030    2    1    2    0    0  0.00000000000E+00  0.00000000000E+00 -0.47040058606E+03  0.77337595248E+03  0.61386778097E+03 0.  0.
        3    1    3    3  502    0  0.57460295195E+02 -0.23330019314E+02  0.14351231943E+03  0.15633864319E+03  0.10100000352E+00 0.  1.
       -3    1    3    3    0  502 -0.57460295195E+02  0.23330019314E+02 -0.61391290549E+03  0.61703730929E+03  0.10100000352E+00 0. -1.
</event>
<event>
 5   0  0.4695625E-02  0.6042074E+03  0.7818609E-02  0.9896715E-01
       -4   -1    0    0    0  501  0.00000000000E+00  0.00000000000E+00  0.15927218287E+03  0.15927724613E+03  0.12699999809E+01 0.  1.
        4   -1    0    0  501    0  0.00000000000E+00  0.00000000000E+00 -0.57300821673E+03  0.57300962413E+03  0.12699999809E+01 0. -1.
    10030    2    1    2    0    0  0.00000000000E+00  0.00000000000E+00 -0.41373603386E+03  0.73228687026E+03  0.60420737718E+03 0.  0.
        4    1    3    3  502    0  0.12443723771E+03 -0.27403612499E+03 -0.23857933194E+03  0.38406006621E+03  0.12699999809E+01 0. -1.
       -4    1    3    3    0  502 -0.12443723771E+03  0.27403612499E+03 -0.17515670192E+03  0.34822680405E+03  0.12699999809E+01 0.  1.
</event>
<event>
 5   0  0.1166419E-01  0.6127325E+03  0.7818609E-02  0.9879337E-01
       -2   -1    0    0    0  501  0.00000000000E+00  0.00000000000E+00  0.13352020489E+03  0.13352020492E+03  0.25500000920E-02 0.  1.
        2   -1    0    0  501    0  0.00000000000E+00  0.00000000000E+00 -0.70296681167E+03  0.70296681167E+03  0.25500000920E-02 0. -1.
    10030    2    1    2    0    0  0.00000000000E+00  0.00000000000E+00 -0.56944660677E+03  0.83648701659E+03  0.61273247911E+03 0.  0.
        1    1    3    3  502    0  0.11027161397E+03  0.30276152189E+02  0.10329341460E+03  0.15409738403E+03  0.50400001928E-02 0.  1.
       -1    1    3    3    0  502 -0.11027161397E+03 -0.30276152189E+02 -0.67274002138E+03  0.68238963256E+03  0.50400001928E-02 0. -1.
</event>
<event>
 5   0  0.1175861E-01  0.5755398E+03  0.7818609E-02  0.9957494E-01
       -2   -1    0    0    0  501  0.00000000000E+00  0.00000000000E+00  0.66800967158E+02  0.66800967206E+02  0.25500000920E-02 0.  1.
        2   -1    0    0  501    0  0.00000000000E+00  0.00000000000E+00 -0.12396751830E+04  0.12396751830E+04  0.25500000920E-02 0. -1.
    10030    2    1    2    0    0  0.00000000000E+00  0.00000000000E+00 -0.11728742159E+04  0.13064761503E+04  0.57553975092E+03 0.  0.
        3    1    3    3  502    0  0.69591151527E+02  0.15163936040E+03 -0.54200067650E+02  0.17542828030E+03  0.10100000352E+00 0.  1.
       -3    1    3    3    0  502 -0.69591151527E+02 -0.15163936040E+03 -0.11186741482E+04  0.11310478700E+04  0.10100000352E+00 0. -1.
</event>
<event>
 5   0  0.1175861E-01  0.6106899E+03  0.7818609E-02  0.9883473E-01
        2   -1    0    0  501    0  0.00000000000E+00  0.00000000000E+00  0.41943880435E+03  0.41943880435E+03  0.25500000920E-02 0.  1.
       -2   -1    0    0    0  501  0.00000000000E+00  0.00000000000E+00 -0.22228636468E+03  0.22228636469E+03  0.25500000920E-02 0. -1.
    10030    2    1    2    0    0  0.00000000000E+00  0.00000000000E+00  0.19715243967E+03  0.64172516905E+03  0.61068986247E+03 0.  0.
        3    1    3    3  502    0 -0.92411553729E+02 -0.22652681039E+03  0.29056661486E+03  0.37984636231E+03  0.10100000352E+00 0.  1.
       -3    1    3    3    0  502  0.92411553729E+02  0.22652681039E+03 -0.93414175190E+02  0.26187880674E+03  0.10100000352E+00 0. -1.
</event>
<event>
 5   0  0.7266519E-02  0.6119842E+03  0.7818609E-02  0.9880850E-01
        1   -1    0    0  501    0  0.00000000000E+00  0.00000000000E+00  0.10428494860E+04  0.10428494861E+04  0.50400001928E-02 0.  1.
       -1   -1    0    0    0  501  0.00000000000E+00  0.00000000000E+00 -0.89783971849E+02  0.89783971991E+02  0.50400001928E-02 0. -1.
    10030    2    1    2    0    0  0.00000000000E+00  0.00000000000E+00  0.95306551420E+03  0.11326334581E+04  0.61198421217E+03 0.  0.
        4    1    3    3  502    0 -0.13093272361E+03 -0.11744186133E+03  0.93993777060E+03  0.95625341537E+03  0.12699999809E+01 0.  1.
       -4    1    3    3    0  502  0.13093272361E+03  0.11744186133E+03  0.13127743603E+02  0.17638004269E+03  0.12699999809E+01 0. -1.
</event>
<event>
 5   0  0.1166419E-01  0.5918757E+03  0.7818609E-02  0.9922406E-01
       -2   -1    0    0    0  501  0.00000000000E+00  0.00000000000E+00  0.73461381443E+03  0.73461381444E+03  0.25500000920E-02 0.  1.
        2   -1    0    0  501    0  0.00000000000E+00  0.00000000000E+00 -0.11921804328E+03  0.11921804331E+03  0.25500000920E-02 0. -1.
    10030    2    1    2    0    0  0.00000000000E+00  0.00000000000E+00  0.61539577115E+03  0.85383185775E+03  0.59187573540E+03 0.  0.
        1    1    3    3  502    0  0.49566024382E+01 -0.22553764458E+03  0.58401032136E+03  0.62606697126E+03  0.50400001928E-02 0.  1.
       -1    1    3    3    0  502 -0.49566024382E+01  0.22553764458E+03  0.31385449795E+02  0.22776488648E+03  0.50400001928E-02 0. -1.
</event>
<event>
 5   0  0.7123340E-02  0.6147899E+03  0.7818609E-02  0.9875188E-01
       -1   -1    0    0    0  501  0.00000000000E+00  0.00000000000E+00  0.97283950462E+02  0.97283950593E+02  0.50400001928E-02 0. -1.
        1   -1    0    0  501    0  0.00000000000E+00  0.00000000000E+00 -0.97129743366E+03  0.97129743367E+03  0.50400001928E-02 0.  1.
    10030    2    1    2    0    0  0.00000000000E+00  0.00000000000E+00 -0.87401348320E+03  0.10685813843E+04  0.61478988767E+03 0.  0.
        2    1    3    3  502    0  0.16976778655E+03 -0.36457620267E+02 -0.87789254541E+03  0.89489976015E+03  0.25500000920E-02 0.  1.
       -2    1    3    3    0  502 -0.16976778655E+03  0.36457620267E+02  0.38790622097E+01  0.17368162412E+03  0.25500000920E-02 0. -1.
</event>
<event>
 5   0  0.7263385E-02  0.8252461E+03  0.7818609E-02  0.9524177E-01
        1   -1    0    0  501    0  0.00000000000E+00  0.00000000000E+00  0.11416233911E+04  0.11416233911E+04  0.50400001928E-02 0.  1.
       -1   -1    0    0    0  501  0.00000000000E+00  0.00000000000E+00 -0.14913654733E+03  0.14913654741E+03  0.50400001928E-02 0. -1.
    10030    2    1    2    0    0  0.00000000000E+00  0.00000000000E+00  0.99248684376E+03  0.12907599385E+04  0.82524607472E+03 0.  0.
        1    1    3    3  502    0  0.24704593377E+02 -0.33778269432E+03  0.86488578035E+03  0.92883522683E+03  0.50400001928E-02 0.  1.
       -1    1    3    3    0  502 -0.24704593377E+02  0.33778269432E+03  0.12760106340E+03  0.36192471168E+03  0.50400001928E-02 0. -1.
</event>
<event>
 5   0  0.7221069E-02  0.5915712E+03  0.7818609E-02  0.9923049E-01
        1   -1    0    0  501    0  0.00000000000E+00  0.00000000000E+00  0.37313508159E+03  0.37313508163E+03  0.50400001928E-02 0. -1.
       -1   -1    0    0    0  501  0.00000000000E+00  0.00000000000E+00 -0.23447038411E+03  0.23447038417E+03  0.50400001928E-02 0.  1.
    10030    2    1    2    0    0  0.00000000000E+00  0.00000000000E+00  0.13866469748E+03  0.60760546579E+03  0.59157121611E+03 0.  0.
        5    1    3    3  502    0 -0.28697713120E+03  0.71209693885E+02  0.75856006885E+02  0.30529152971E+03  0.46999998093E+01 0.  1.
       -5    1    3    3    0  502  0.28697713120E+03 -0.71209693885E+02  0.62808690598E+02  0.30231393608E+03  0.46999998093E+01 0. -1.
</event>
<event>
 5   0  0.1219020E-01  0.5901414E+03  0.7818609E-02  0.9926073E-01
       -2   -1    0    0    0  501  0.00000000000E+00  0.00000000000E+00  0.90090968645E+02  0.90090968682E+02  0.25500000920E-02 0. -1.
        2   -1    0    0  501    0  0.00000000000E+00  0.00000000000E+00 -0.96643124088E+03  0.96643124088E+03  0.25500000920E-02 0.  1.
    10030    2    1    2    0    0  0.00000000000E+00  0.00000000000E+00 -0.87634027223E+03  0.10565222096E+04  0.59014142929E+03 0.  0.
        2    1    3    3  502    0 -0.85839272323E+02 -0.58115280438E+02  0.56418848274E+02  0.11802056152E+03  0.25500000920E-02 0. -1.
       -2    1    3    3    0  502  0.85839272323E+02  0.58115280438E+02 -0.93275912051E+03  0.93850164805E+03  0.25500000920E-02 0.  1.
</event>
<event>
 5   0  0.1166419E-01  0.6045465E+03  0.7818609E-02  0.9896018E-01
        2   -1    0    0  501    0  0.00000000000E+00  0.00000000000E+00  0.70737751507E+03  0.70737751508E+03  0.25500000920E-02 0.  1.
       -2   -1    0    0    0  501  0.00000000000E+00  0.00000000000E+00 -0.12916597384E+03  0.12916597387E+03  0.25500000920E-02 0. -1.
    10030    2    1    2    0    0  0.00000000000E+00  0.00000000000E+00  0.57821154123E+03  0.83654348895E+03  0.60454646016E+03 0.  0.
        1    1    3    3  502    0 -0.18993682375E+03 -0.40097349315E+02 -0.31511252967E+02  0.19666406263E+03  0.50400001928E-02 0. -1.
       -1    1    3    3    0  502  0.18993682375E+03  0.40097349315E+02  0.60972279420E+03  0.63987942632E+03  0.50400001928E-02 0.  1.
</event>
<event>
 5   0  0.1206238E-01  0.5917669E+03  0.7818609E-02  0.9922636E-01
       -2   -1    0    0    0  501  0.00000000000E+00  0.00000000000E+00  0.15990255159E+03  0.15990255161E+03  0.25500000920E-02 0.  1.
        2   -1    0    0  501    0  0.00000000000E+00  0.00000000000E+00 -0.54750221566E+03  0.54750221566E+03  0.25500000920E-02 0. -1.
    10030    2    1    2    0    0  0.00000000000E+00  0.00000000000E+00 -0.38759966407E+03  0.70740476727E+03  0.59176685035E+03 0.  0.
        5    1    3    3  502    0 -0.11728889667E+03 -0.25623909714E+03 -0.86148077602E+02  0.29471807114E+03  0.46999998093E+01 0.  1.
       -5    1    3    3    0  502  0.11728889667E+03  0.25623909714E+03 -0.30145158647E+03  0.41268669613E+03  0.46999998093E+01 0. -1.
</event>
<event>
 5   0  0.4695625E-02  0.6052416E+03  0.7818609E-02  0.9894591E-01
        3   -1    0    0  501    0  0.00000000000E+00  0.00000000000E+00  0.12080248798E+03  0.12080253020E+03  0.10100000352E+00 0.  1.
       -3   -1    0    0    0  501  0.00000000000E+00  0.00000000000E+00 -0.75809144191E+03  0.75809144864E+03  0.10100000352E+00 0. -1.
    10030    2    1    2    0    0  0.00000000000E+00  0.00000000000E+00 -0.63728895393E+03  0.87889397884E+03  0.60524161724E+03 0.  0.
        2    1    3    3  502    0  0.20130814593E+03 -0.20780713583E+03 -0.44747270493E+03  0.53286076698E+03  0.25500000920E-02 0. -1.
       -2    1    3    3    0  502 -0.20130814593E+03  0.20780713583E+03 -0.18981624900E+03  0.34603321186E+03  0.25500000920E-02 0.  1.
</event>
<event>
 5   0  0.4695625E-02  0.5971367E+03  0.7818609E-02  0.9911364E-01
        4   -1    0    0  501    0  0.00000000000E+00  0.00000000000E+00  0.26329954140E+03  0.26330260424E+03  0.12699999809E+01 0.  1.
       -4   -1    0    0    0  501  0.00000000000E+00  0.00000000000E+00 -0.33855522683E+03  0.33855760885E+03  0.12699999809E+01 0. -1.
    10030    2    1    2    0    0  0.00000000000E+00  0.00000000000E+00 -0.75255685425E+02  0.60186021309E+03  0.59713674976E+03 0.  0.
        4    1    3    3  502    0  0.14978759534E+03 -0.21599911726E+03 -0.18034422095E+03  0.31877514536E+03  0.12699999809E+01 0.  1.
       -4    1    3    3    0  502 -0.14978759534E+03  0.21599911726E+03  0.10508853552E+03  0.28308506773E+03  0.12699999809E+01 0. -1.
</event>
<event>
 5   0  0.1146468E-01  0.5856808E+03  0.7818609E-02  0.9935567E-01
        2   -1    0    0  501    0  0.00000000000E+00  0.00000000000E+00  0.54599510775E+03  0.54599510776E+03  0.25500000920E-02 0.  1.
       -2   -1    0    0    0  501  0.00000000000E+00  0.00000000000E+00 -0.15706274278E+03  0.15706274280E+03  0.25500000920E-02 0. -1.
    10030    2    1    2    0    0  0.00000000000E+00  0.00000000000E+00  0.38893236497E+03  0.70305785055E+03  0.58568076347E+03 0.  0.
        4    1    3    3  502    0 -0.63966916996E+02  0.28296707819E+03  0.14657379326E+03  0.32503480365E+03  0.12699999809E+01 0. -1.
       -4    1    3    3    0  502  0.63966916996E+02 -0.28296707819E+03  0.24235857171E+03  0.37802304690E+03  0.12699999809E+01 0.  1.
</event>
<event>
 5   0  0.1166419E-01  0.5908178E+03  0.7818609E-02  0.9924641E-01
        2   -1    0    0  501    0  0.00000000000E+00  0.00000000000E+00  0.52749267960E+03  0.52749267961E+03  0.25500000920E-02 0. -1.
       -2   -1    0    0    0  501  0.00000000000E+00  0.00000000000E+00 -0.16543626001E+03  0.16543626003E+03  0.25500000920E-02 0.  1.
    10030    2    1    2    0    0  0.00000000000E+00  0.00000000000E+00  0.36205641960E+03  0.69292893964E+03  0.59081779291E+03 0.  0.
        1    1    3    3  502    0 -0.23811434342E+03 -0.61297222452E+02  0.37306684526E+03  0.44680494747E+03  0.50400001928E-02 0. -1.
       -1    1    3    3    0  502  0.23811434342E+03  0.61297222452E+02 -0.11010425661E+02  0.24612399217E+03  0.50400001928E-02 0.  1.
</event>
<event>
 5   0  0.7266519E-02  0.6278264E+03  0.7818609E-02  0.9849300E-01
        1   -1    0    0  501    0  0.00000000000E+00  0.00000000000E+00  0.11327692609E+03  0.11327692620E+03  0.50400001928E-02 0.  1.
       -1   -1    0    0    0  501  0.00000000000E+00  0.00000000000E+00 -0.86991686740E+03  0.86991686741E+03  0.50400001928E-02 0. -1.
    10030    2    1    2    0    0  0.00000000000E+00  0.00000000000E+00 -0.75663994131E+03  0.98319379361E+03  0.62782643701E+03 0.  0.
        4    1    3    3  502    0 -0.32390379175E+01 -0.94726197648E+02  0.90329063472E+02  0.13093699437E+03  0.12699999809E+01 0.  1.
       -4    1    3    3    0  502  0.32390379175E+01  0.94726197648E+02 -0.84696900478E+03  0.85225679924E+03  0.12699999809E+01 0. -1.
</event>
<event>
 5   0  0.7221069E-02  0.5958512E+03  0.7818609E-02  0.9914051E-01
        1   -1    0    0  501    0  0.00000000000E+00  0.00000000000E+00  0.11503356490E+04  0.11503356490E+04  0.50400001928E-02 0. -1.
       -1   -1    0    0    0  501  0.00000000000E+00  0.00000000000E+00 -0.77159795583E+02  0.77159795748E+02  0.50400001928E-02 0.  1.
    10030    2    1    2    0    0  0.00000000000E+00  0.00000000000E+00  0.10731758534E+04  0.12274954448E+04  0.59585120168E+03 0.  0.
        5    1    3    3  502    0 -0.23420343646E+03 -0.60010786715E+02  0.89509363070E+03  0.92718242104E+03  0.46999998093E+01 0. -1.
       -5    1    3    3    0  502  0.23420343646E+03  0.60010786715E+02  0.17808222272E+03  0.30031302372E+03  0.46999998093E+01 0.  1.
</event>
<event>
 5   0  0.1206238E-01  0.6544356E+03  0.7818609E-02  0.9798491E-01
       -2   -1    0    0    0  501  0.00000000000E+00  0.00000000000E+00  0.48672621909E+02  0.48672621976E+02  0.25500000920E-02 0.  1.
        2   -1    0    0  501    0  0.00000000000E+00  0.00000000000E+00 -0.21998300347E+04  0.21998300347E+04  0.25500000920E-02 0. -1.
    10030    2    1    2    0    0  0.00000000000E+00  0.00000000000E+00 -0.21511574128E+04  0.22485026567E+04  0.65443562134E+03 0.  0.
        5    1    3    3  502    0 -0.27195844537E+03  0.32644846038E+02 -0.46075175616E+03  0.53604230504E+03  0.46999998093E+01 0.  1.
       -5    1    3    3    0  502  0.27195844537E+03 -0.32644846038E+02 -0.16904056567E+04  0.17124603517E+04  0.46999998093E+01 0. -1.
</event>
<event>
 5   0  0.1206238E-01  0.5894797E+03  0.7818609E-02  0.9927476E-01
        2   -1    0    0  501    0  0.00000000000E+00  0.00000000000E+00  0.85814211795E+03  0.85814211795E+03  0.25500000920E-02 0.  1.
       -2   -1    0    0    0  501  0.00000000000E+00  0.00000000000E+00 -0.10123216671E+03  0.10123216674E+03  0.25500000920E-02 0. -1.
    10030    2    1    2    0    0  0.00000000000E+00  0.00000000000E+00  0.75690995124E+03  0.95937428469E+03  0.58947972301E+03 0.  0.
        5    1    3    3  502    0 -0.23565502465E+03  0.17004848141E+03  0.29872907689E+03  0.41678642978E+03  0.46999998093E+01 0.  1.
       -5    1    3    3    0  502  0.23565502465E+03 -0.17004848141E+03  0.45818087435E+03  0.54258785491E+03  0.46999998093E+01 0. -1.
</event>
<event>
 5   0  0.1206238E-01  0.6067073E+03  0.7818609E-02  0.9891587E-01
        2   -1    0    0  501    0  0.00000000000E+00  0.00000000000E+00  0.18720924619E+04  0.18720924619E+04  0.25500000920E-02 0. -1.
       -2   -1    0    0    0  501  0.00000000000E+00  0.00000000000E+00 -0.49155389590E+02  0.49155389656E+02  0.25500000920E-02 0.  1.
    10030    2    1    2    0    0  0.00000000000E+00  0.00000000000E+00  0.18229370723E+04  0.19212478515E+04  0.60670729146E+03 0.  0.
        5    1    3    3  502    0  0.14664710605E+03  0.15794158540E+03  0.23561840367E+03  0.31935722985E+03  0.46999998093E+01 0.  1.
       -5    1    3    3    0  502 -0.14664710605E+03 -0.15794158540E+03  0.15873186686E+04  0.16018906217E+04  0.46999998093E+01 0. -1.
</event>
<event>
 5   0  0.1146468E-01  0.6045218E+03  0.7818609E-02  0.9896069E-01
       -2   -1    0    0    0  501  0.00000000000E+00  0.00000000000E+00  0.15624124208E+03  0.15624124210E+03  0.25500000920E-02 0.  1.
        2   -1    0    0  501    0  0.00000000000E+00  0.00000000000E+00 -0.58474732781E+03  0.58474732782E+03  0.25500000920E-02 0. -1.
    10030    2    1    2    0    0  0.00000000000E+00  0.00000000000E+00 -0.42850608573E+03  0.74098856992E+03  0.60452179055E+03 0.  0.
        4    1    3    3  502    0  0.27292703487E+03  0.58799617938E+02 -0.72291669408E+02  0.28839947954E+03  0.12699999809E+01 0. -1.
       -4    1    3    3    0  502 -0.27292703487E+03 -0.58799617938E+02 -0.35621441632E+03  0.45258909038E+03  0.12699999809E+01 0.  1.
</event>
<event>
 5   0  0.1146468E-01  0.6084667E+03  0.7818609E-02  0.9887994E-01
       -2   -1    0    0    0  501  0.00000000000E+00  0.00000000000E+00  0.79820227810E+02  0.79820227851E+02  0.25500000920E-02 0.  1.
        2   -1    0    0  501    0  0.00000000000E+00  0.00000000000E+00 -0.11595800787E+04  0.11595800787E+04  0.25500000920E-02 0. -1.
    10030    2    1    2    0    0  0.00000000000E+00  0.00000000000E+00 -0.10797598509E+04  0.12394003066E+04  0.60846674872E+03 0.  0.
        4    1    3    3  502    0  0.27884210999E+03  0.66444939813E+01 -0.78734109660E+03  0.83528718828E+03  0.12699999809E+01 0. -1.
       -4    1    3    3    0  502 -0.27884210999E+03 -0.66444939813E+01 -0.29241875429E+03  0.40411311828E+03  0.12699999809E+01 0.  1.
</event>
<event>
 5   0  0.7221069E-02  0.6363599E+03  0.7818609E-02  0.9832716E-01
        1   -1    0    0  501    0  0.00000000000E+00  0.00000000000E+00  0.80550867425E+03  0.80550867426E+03  0.50400001928E-02 0.  1.
       -1   -1    0    0    0  501  0.00000000000E+00  0.00000000000E+00 -0.12568268603E+03  0.12568268613E+03  0.50400001928E-02 0. -1.
    10030    2    1    2    0    0  0.00000000000E+00  0.00000000000E+00  0.67982598822E+03  0.93119136039E+03  0.63635994171E+03 0.  0.
        5    1    3    3  502    0  0.28747685853E+03 -0.10921180885E+03  0.22061747539E+03  0.37850273952E+03  0.46999998093E+01 0. -1.
       -5    1    3    3    0  502 -0.28747685853E+03  0.10921180885E+03  0.45920851283E+03  0.55268862087E+03  0.46999998093E+01 0.  1.
</event>
<event>
 5   0  0.1175861E-01  0.6004908E+03  0.7818609E-02  0.9904388E-01
        2   -1    0    0  501    0  0.00000000000E+00  0.00000000000E+00  0.55110672478E+03  0.55110672479E+03  0.25500000920E-02 0. -1.
       -2   -1    0    0    0  501  0.00000000000E+00  0.00000000000E+00 -0.16357501722E+03  0.16357501724E+03  0.25500000920E-02 0.  1.
    10030    2    1    2    0    0  0.00000000000E+00  0.00000000000E+00  0.38753170756E+03  0.71468174203E+03  0.60049077264E+03 0.  0.
        3    1    3    3  502    0 -0.88144499654E+02  0.27450097438E+03  0.29353418017E+03  0.41143962241E+03  0.10100000352E+00 0.  1.
       -3    1    3    3    0  502  0.88144499654E+02 -0.27450097438E+03  0.93997527391E+02  0.30324211962E+03  0.10100000352E+00 0. -1.
</event>
<event>
 5   0  0.1146468E-01  0.4253559E+03  0.7818609E-02  0.1035337E+00
        2   -1    0    0  501    0  0.00000000000E+00  0.00000000000E+00  0.22470320482E+03  0.22470320484E+03  0.25500000920E-02 0. -1.
       -2   -1    0    0    0  501  0.00000000000E+00  0.00000000000E+00 -0.20129619622E+03  0.20129619623E+03  0.25500000920E-02 0.  1.
    10030    2    1    2    0    0  0.00000000000E+00  0.00000000000E+00  0.23407008604E+02  0.42599940107E+03  0.42535585297E+03 0.  0.
        4    1    3    3  502    0  0.41301541110E+02  0.11590696623E+02 -0.19691461737E+03  0.20153694693E+03  0.12699999809E+01 0.  1.
       -4    1    3    3    0  502 -0.41301541110E+02 -0.11590696623E+02  0.22032162597E+03  0.22446245414E+03  0.12699999809E+01 0. -1.
</event>
<event>
 5   0  0.7263385E-02  0.5624179E+03  0.7818609E-02  0.9986598E-01
        1   -1    0    0  501    0  0.00000000000E+00  0.00000000000E+00  0.11746023013E+04  0.11746023013E+04  0.50400001928E-02 0. -1.
       -1   -1    0    0    0  501  0.00000000000E+00  0.00000000000E+00 -0.67323620317E+02  0.67323620506E+02  0.50400001928E-02 0.  1.
    10030    2    1    2    0    0  0.00000000000E+00  0.00000000000E+00  0.11072786810E+04  0.12419259218E+04  0.56241792106E+03 0.  0.
        1    1    3    3  502    0  0.23398923868E+03  0.42529676931E+01  0.89792894544E+03  0.92792534324E+03  0.50400001928E-02 0. -1.
       -1    1    3    3    0  502 -0.23398923868E+03 -0.42529676931E+01  0.20934973557E+03  0.31400057860E+03  0.50400001928E-02 0.  1.
</event>
<event>
 5   0  0.1206238E-01  0.6061698E+03  0.7818609E-02  0.9892688E-01
        2   -1    0    0  501    0  0.00000000000E+00  0.00000000000E+00  0.44607285486E+03  0.44607285486E+03  0.25500000920E-02 0. -1.
       -2   -1    0    0    0  501  0.00000000000E+00  0.00000000000E+00 -0.20593150598E+03  0.20593150600E+03  0.25500000920E-02 0.  1.
    10030    2    1    2    0    0  0.00000000000E+00  0.00000000000E+00  0.24014134888E+03  0.65200436086E+03  0.60616979398E+03 0.  0.
        5    1    3    3  502    0  0.12377555016E+02  0.62808533889E+02  0.43867791445E+03  0.44334920596E+03  0.46999998093E+01 0. -1.
       -5    1    3    3    0  502 -0.12377555016E+02 -0.62808533889E+02 -0.19853656558E+03  0.20865515490E+03  0.46999998093E+01 0.  1.
</event>
<event>
 5   0  0.1219020E-01  0.5836537E+03  0.7818609E-02  0.9939912E-01
       -2   -1    0    0    0  501  0.00000000000E+00  0.00000000000E+00  0.17398940808E+03  0.17398940810E+03  0.25500000920E-02 0. -1.
        2   -1    0    0  501    0  0.00000000000E+00  0.00000000000E+00 -0.48947187661E+03  0.48947187661E+03  0.25500000920E-02 0.  1.
    10030    2    1    2    0    0  0.00000000000E+00  0.00000000000E+00 -0.31548246853E+03  0.66346128471E+03  0.58365374013E+03 0.  0.
        2    1    3    3  502    0  0.35183722818E+02 -0.24253148276E+03 -0.33784695862E+03  0.41737271345E+03  0.25500000920E-02 0.  1.
       -2    1    3    3    0  502 -0.35183722818E+02  0.24253148276E+03  0.22364490093E+02  0.24608857126E+03  0.25500000920E-02 0. -1.
</event>
<event>
 5   0  0.7263385E-02  0.5959471E+03  0.7818609E-02  0.9913850E-01
       -1   -1    0    0    0  501  0.00000000000E+00  0.00000000000E+00  0.17665380909E+03  0.17665380917E+03  0.50400001928E-02 0. -1.
        1   -1    0    0  501    0  0.00000000000E+00  0.00000000000E+00 -0.50261154834E+03  0.50261154836E+03  0.50400001928E-02 0.  1.
    10030    2    1    2    0    0  0.00000000000E+00  0.00000000000E+00 -0.32595773924E+03  0.67926535753E+03  0.59594712699E+03 0.  0.
        1    1    3    3  502    0 -0.12878339539E+03 -0.21165636336E+03 -0.35166674223E+03  0.43017795933E+03  0.50400001928E-02 0.  1.
       -1    1    3    3    0  502  0.12878339539E+03  0.21165636336E+03  0.25709002986E+02  0.24908739819E+03  0.50400001928E-02 0. -1.
</event>
<event>
 5   0  0.1206238E-01  0.6070480E+03  0.7818609E-02  0.9890891E-01
        2   -1    0    0  501    0  0.00000000000E+00  0.00000000000E+00  0.10883244924E+04  0.10883244924E+04  0.25500000920E-02 0.  1.
       -2   -1    0    0    0  501  0.00000000000E+00  0.00000000000E+00 -0.84650150859E+02  0.84650150897E+02  0.25500000920E-02 0. -1.
    10030    2    1    2    0    0  0.00000000000E+00  0.00000000000E+00  0.10036743416E+04  0.11729746433E+04  0.60704804585E+03 0.  0.
        5    1    3    3  502    0  0.24855180785E+03 -0.47261853328E+02  0.82570295680E+03  0.86360821374E+03  0.46999998093E+01 0.  1.
       -5    1    3    3    0  502 -0.24855180785E+03  0.47261853328E+02  0.17797138477E+03  0.30936642960E+03  0.46999998093E+01 0. -1.
</event>
<event>
 5   0  0.4695625E-02  0.6185202E+03  0.7818609E-02  0.9867710E-01
        4   -1    0    0  501    0  0.00000000000E+00  0.00000000000E+00  0.65405802209E+03  0.65405925508E+03  0.12699999809E+01 0. -1.
       -4   -1    0    0    0  501  0.00000000000E+00  0.00000000000E+00 -0.14622421593E+03  0.14622973099E+03  0.12699999809E+01 0.  1.
    10030    2    1    2    0    0  0.00000000000E+00  0.00000000000E+00  0.50783380615E+03  0.80028898607E+03  0.61852023941E+03 0.  0.
        2    1    3    3  502    0 -0.21276536807E+02  0.30512665924E+03  0.31302388642E+03  0.43765159965E+03  0.25500000920E-02 0. -1.
       -2    1    3    3    0  502  0.21276536807E+02 -0.30512665924E+03  0.19480991974E+03  0.36263738642E+03  0.25500000920E-02 0.  1.
</event>
<event>
 5   0  0.1175861E-01  0.6036255E+03  0.7818609E-02  0.9897913E-01
       -2   -1    0    0    0  501  0.00000000000E+00  0.00000000000E+00  0.52076481729E+03  0.52076481729E+03  0.25500000920E-02 0.  1.
        2   -1    0    0  501    0  0.00000000000E+00  0.00000000000E+00 -0.17491759024E+03  0.17491759026E+03  0.25500000920E-02 0. -1.
    10030    2    1    2    0    0  0.00000000000E+00  0.00000000000E+00  0.34584722704E+03  0.69568240755E+03  0.60362546975E+03 0.  0.
        3    1    3    3  502    0 -0.18554887743E+03 -0.18904393376E+03  0.62083405880E+01  0.26496140946E+03  0.10100000352E+00 0. -1.
       -3    1    3    3    0  502  0.18554887743E+03  0.18904393376E+03  0.33963888646E+03  0.43072099810E+03  0.10100000352E+00 0.  1.
</event>
<event>
 5   0  0.4695625E-02  0.6076165E+03  0.7818609E-02  0.9889729E-01
       -4   -1    0    0    0  501  0.00000000000E+00  0.00000000000E+00  0.24276398934E+03  0.24276731126E+03  0.12699999809E+01 0.  1.
        4   -1    0    0  501    0  0.00000000000E+00  0.00000000000E+00 -0.38019548105E+03  0.38019760219E+03  0.12699999809E+01 0. -1.
    10030    2    1    2    0    0  0.00000000000E+00  0.00000000000E+00 -0.13743149171E+03  0.62296491345E+03  0.60761654724E+03 0.  0.
        3    1    3    3  502    0  0.20022220239E+03 -0.22295146880E+03 -0.17420266447E+02  0.30016622671E+03  0.10100000352E+00 0. -1.
       -3    1    3    3    0  502 -0.20022220239E+03  0.22295146880E+03 -0.12001122526E+03  0.32279868674E+03  0.10100000352E+00 0.  1.
</event>
<event>
 5   0  0.7221069E-02  0.5965250E+03  0.7818609E-02  0.9912642E-01
       -1   -1    0    0    0  501  0.00000000000E+00  0.00000000000E+00  0.26851874031E+03  0.26851874036E+03  0.50400001928E-02 0.  1.
        1   -1    0    0  501    0  0.00000000000E+00  0.00000000000E+00 -0.33130101417E+03  0.33130101421E+03  0.50400001928E-02 0. -1.
    10030    2    1    2    0    0  0.00000000000E+00  0.00000000000E+00 -0.62782273858E+02  0.59981975456E+03  0.59652504059E+03 0.  0.
        5    1    3    3  502    0 -0.37274202558E+01 -0.29817939858E+03 -0.27683821084E+02  0.29952183785E+03  0.46999998093E+01 0. -1.
       -5    1    3    3    0  502  0.37274202558E+01  0.29817939858E+03 -0.35098452774E+02  0.30029791672E+03  0.46999998093E+01 0.  1.
</event>
<event>
 5   0  0.1219020E-01  0.4315290E+03  0.7818609E-02  0.1033378E+00
       -2   -1    0    0    0  501  0.00000000000E+00  0.00000000000E+00  0.23837049118E+02  0.23837049254E+02  0.25500000920E-02 0.  1.
        2   -1    0    0  501    0  0.00000000000E+00  0.00000000000E+00 -0.19530234429E+04  0.19530234429E+04  0.25500000920E-02 0. -1.
    10030    2    1    2    0    0  0.00000000000E+00  0.00000000000E+00 -0.19291863938E+04  0.19768604921E+04  0.43152898337E+03 0.  0.
        2    1    3    3  502    0 -0.15414228373E+03  0.14868508669E+03 -0.84450147511E+03  0.87123466420E+03  0.25500000920E-02 0.  1.
       -2    1    3    3    0  502  0.15414228373E+03 -0.14868508669E+03 -0.10846849186E+04  0.11056258279E+04  0.25500000920E-02 0. -1.
</event>
<event>
 5   0  0.1166419E-01  0.6054901E+03  0.7818609E-02  0.9894081E-01
       -2   -1    0    0    0  501  0.00000000000E+00  0.00000000000E+00  0.35144183712E+03  0.35144183713E+03  0.25500000920E-02 0. -1.
        2   -1    0    0  501    0  0.00000000000E+00  0.00000000000E+00 -0.26079587216E+03  0.26079587217E+03  0.25500000920E-02 0.  1.
    10030    2    1    2    0    0  0.00000000000E+00  0.00000000000E+00  0.90645964962E+02  0.61223770930E+03  0.60549014998E+03 0.  0.
        1    1    3    3  502    0 -0.98239393898E+02 -0.27311788554E+03 -0.41718968482E+02  0.29323170066E+03  0.50400001928E-02 0.  1.
       -1    1    3    3    0  502  0.98239393898E+02  0.27311788554E+03  0.13236493344E+03  0.31900600864E+03  0.50400001928E-02 0. -1.
</event>
<event>
 5   0  0.7123340E-02  0.5672868E+03  0.7818609E-02  0.9975701E-01
       -1   -1    0    0    0  501  0.00000000000E+00  0.00000000000E+00  0.61205376303E+02  0.61205376511E+02  0.50400001928E-02 0.  1.
        1   -1    0    0  501    0  0.00000000000E+00  0.00000000000E+00 -0.13144854897E+04  0.13144854897E+04  0.50400001928E-02 0. -1.
    10030    2    1    2    0    0  0.00000000000E+00  0.00000000000E+00 -0.12532801134E+04  0.13756908662E+04  0.56728680291E+03 0.  0.
        2    1    3    3  502    0 -0.26091725627E+03  0.31606314300E+02 -0.36798061293E+03  0.45220184124E+03  0.25500000920E-02 0. -1.
       -2    1    3    3    0  502  0.26091725627E+03 -0.31606314300E+02 -0.88529950044E+03  0.92348902495E+03  0.25500000920E-02 0.  1.
</event>
<event>
 5   0  0.7424930E-02  0.6065460E+03  0.7818609E-02  0.9891917E-01
        1   -1    0    0  501    0  0.00000000000E+00  0.00000000000E+00  0.62062367971E+03  0.62062367973E+03  0.50400001928E-02 0. -1.
       -1   -1    0    0    0  501  0.00000000000E+00  0.00000000000E+00 -0.14819691383E+03  0.14819691392E+03  0.50400001928E-02 0.  1.
    10030    2    1    2    0    0  0.00000000000E+00  0.00000000000E+00  0.47242676588E+03  0.76882059364E+03  0.60654600493E+03 0.  0.
        3    1    3    3  502    0  0.58618977064E+02 -0.24146728081E+03  0.45660434404E+03  0.51983667567E+03  0.10100000352E+00 0. -1.
       -3    1    3    3    0  502 -0.58618977064E+02  0.24146728081E+03  0.15822421840E+02  0.24898391797E+03  0.10100000352E+00 0.  1.
</event>
<event>
 5   0  0.1219020E-01  0.6099762E+03  0.7818609E-02  0.9884922E-01
        2   -1    0    0  501    0  0.00000000000E+00  0.00000000000E+00  0.10160046171E+04  0.10160046171E+04  0.25500000920E-02 0. -1.
       -2   -1    0    0    0  501  0.00000000000E+00  0.00000000000E+00 -0.91552481804E+02  0.91552481840E+02  0.25500000920E-02 0.  1.
    10030    2    1    2    0    0  0.00000000000E+00  0.00000000000E+00  0.92445213531E+03  0.11075570990E+04  0.60997621017E+03 0.  0.
        2    1    3    3  502    0  0.38071895038E+02 -0.17023747036E+03  0.79739546333E+01  0.17462488214E+03  0.25500000920E-02 0.  1.
       -2    1    3    3    0  502 -0.38071895038E+02  0.17023747036E+03  0.91647818068E+03  0.93293221681E+03  0.25500000920E-02 0. -1.
</event>
<event>
 5   0  0.7263385E-02  0.6018684E+03  0.7818609E-02  0.9901537E-01
       -1   -1    0    0    0  501  0.00000000000E+00  0.00000000000E+00  0.56287345461E+03  0.56287345464E+03  0.50400001928E-02 0. -1.
        1   -1    0    0  501    0  0.00000000000E+00  0.00000000000E+00 -0.16089120157E+03  0.16089120165E+03  0.50400001928E-02 0.  1.
    10030    2    1    2    0    0  0.00000000000E+00  0.00000000000E+00  0.40198225305E+03  0.72376465628E+03  0.60186837923E+03 0.  0.
        1    1    3    3  502    0 -0.18544977416E+03  0.49517888415E+02 -0.77720275968E+02  0.20708472017E+03  0.50400001928E-02 0.  1.
       -1    1    3    3    0  502  0.18544977416E+03 -0.49517888415E+02  0.47970252901E+03  0.51667993611E+03  0.50400001928E-02 0. -1.
</event>
<event>
 5   0  0.7263385E-02  0.6002963E+03  0.7818609E-02  0.9904791E-01
        1   -1    0    0  501    0  0.00000000000E+00  0.00000000000E+00  0.64776266375E+03  0.64776266377E+03  0.50400001928E-02 0.  1.
       -1   -1    0    0    0  501  0.00000000000E+00  0.00000000000E+00 -0.13907704701E+03  0.13907704710E+03  0.50400001928E-02 0. -1.
    10030    2    1    2    0    0  0.00000000000E+00  0.00000000000E+00  0.50868561674E+03  0.78683971087E+03  0.60029632176E+03 0.  0.
        1    1    3    3  502    0  0.33918397845E+02 -0.22396064967E+03  0.51246478595E+03  0.56029366156E+03  0.50400001928E-02 0.  1.
       -1    1    3    3    0  502 -0.33918397845E+02  0.22396064967E+03 -0.37791692087E+01  0.22654604931E+03  0.50400001928E-02 0. -1.
</event>
<event>
 5   0  0.7123340E-02  0.5933800E+03  0.7818609E-02  0.9919236E-01
       -1   -1    0    0    0  501  0.00000000000E+00  0.00000000000E+00  0.20215135626E+03  0.20215135632E+03  0.50400001928E-02 0. -1.
        1   -1    0    0  501    0  0.00000000000E+00  0.00000000000E+00 -0.43544078466E+03  0.43544078469E+03  0.50400001928E-02 0.  1.
    10030    2    1    2    0    0  0.00000000000E+00  0.00000000000E+00 -0.23328942840E+03  0.63759214102E+03  0.59337996333E+03 0.  0.
        2    1    3    3  502    0  0.21510365982E+03 -0.16403509477E+03  0.14286091592E+02  0.27088962550E+03  0.25500000920E-02 0. -1.
       -2    1    3    3    0  502 -0.21510365982E+03  0.16403509477E+03 -0.24757551999E+03  0.36670251552E+03  0.25500000920E-02 0.  1.
</event>
<event>
 5   0  0.1146468E-01  0.6128024E+03  0.7818609E-02  0.9879195E-01
       -2   -1    0    0    0  501  0.00000000000E+00  0.00000000000E+00  0.13045051995E+03  0.13045051997E+03  0.25500000920E-02 0. -1.
        2   -1    0    0  501    0  0.00000000000E+00  0.00000000000E+00 -0.71967290333E+03  0.71967290333E+03  0.25500000920E-02 0.  1.
    10030    2    1    2    0    0  0.00000000000E+00  0.00000000000E+00 -0.58922238338E+03  0.85012342331E+03  0.61280242965E+03 0.  0.
        4    1    3    3  502    0  0.17734635524E+03  0.57742885227E+02  0.42624585519E+02  0.19132286508E+03  0.12699999809E+01 0. -1.
       -4    1    3    3    0  502 -0.17734635524E+03 -0.57742885227E+02 -0.63184696890E+03  0.65880055822E+03  0.12699999809E+01 0.  1.
</event>
<event>
 5   0  0.4695625E-02  0.5957361E+03  0.7818609E-02  0.9914292E-01
        4   -1    0    0  501    0  0.00000000000E+00  0.00000000000E+00  0.31995337880E+03  0.31995589932E+03  0.12699999809E+01 0.  1.
       -4   -1    0    0    0  501  0.00000000000E+00  0.00000000000E+00 -0.27730210190E+03  0.27730501009E+03  0.12699999809E+01 0. -1.
    10030    2    1    2    0    0  0.00000000000E+00  0.00000000000E+00  0.42651276901E+02  0.59726090940E+03  0.59573606780E+03 0.  0.
        2    1    3    3  502    0  0.17528463037E+03  0.13453874396E+03  0.22158673598E+03  0.31293139318E+03  0.25500000920E-02 0.  1.
       -2    1    3    3    0  502 -0.17528463037E+03 -0.13453874396E+03 -0.17893545908E+03  0.28432951622E+03  0.25500000920E-02 0. -1.
</event>
<event>
 5   0  0.1146468E-01  0.5961988E+03  0.7818609E-02  0.9913324E-01
       -2   -1    0    0    0  501  0.00000000000E+00  0.00000000000E+00  0.68071704357E+02  0.68071704405E+02  0.25500000920E-02 0. -1.
        2   -1    0    0  501    0  0.00000000000E+00  0.00000000000E+00 -0.13054361887E+04  0.13054361887E+04  0.25500000920E-02 0.  1.
    10030    2    1    2    0    0  0.00000000000E+00  0.00000000000E+00 -0.12373644844E+04  0.13735078931E+04  0.59619884713E+03 0.  0.
        4    1    3    3  502    0 -0.17070659200E+03 -0.68019939266E+02 -0.77936671011E+02  0.19960759073E+03  0.12699999809E+01 0. -1.
       -4    1    3    3    0  502  0.17070659200E+03  0.68019939266E+02 -0.11594278134E+04  0.11739003024E+04  0.12699999809E+01 0.  1.
</event>
<event>
 5   0  0.1166419E-01  0.5797498E+03  0.7818609E-02  0.9948333E-01
        2   -1    0    0  501    0  0.00000000000E+00  0.00000000000E+00  0.90551162517E+03  0.90551162517E+03  0.25500000920E-02 0.  1.
       -2   -1    0    0    0  501  0.00000000000E+00  0.00000000000E+00 -0.92795546864E+02  0.92795546899E+02  0.25500000920E-02 0. -1.
    10030    2    1    2    0    0  0.00000000000E+00  0.00000000000E+00  0.81271607831E+03  0.99830717207E+03  0.57974976143E+03 0.  0.
        1    1    3    3  502    0  0.11173419680E+03  0.26742643655E+03  0.39757489436E+03  0.49200327880E+03  0.50400001928E-02 0.  1.
       -1    1    3    3    0  502 -0.11173419680E+03 -0.26742643655E+03  0.41514118395E+03  0.50630389327E+03  0.50400001928E-02 0. -1.
</event>
<event>
 5   0  0.4695625E-02  0.5997547E+03  0.7818609E-02  0.9905915E-01
       -4   -1    0    0    0  501  0.00000000000E+00  0.00000000000E+00  0.29710687791E+03  0.29710959224E+03  0.12699999809E+01 0.  1.
        4   -1    0    0  501    0  0.00000000000E+00  0.00000000000E+00 -0.30266822944E+03  0.30267089390E+03  0.12699999809E+01 0. -1.
    10030    2    1    2    0    0  0.00000000000E+00  0.00000000000E+00 -0.55613515257E+01  0.59978048614E+03  0.59975470229E+03 0.  0.
        2    1    3    3  502    0  0.91270847882E+02  0.22862541673E+03  0.16847643638E+03  0.29830229377E+03  0.25500000920E-02 0.  1.
       -2    1    3    3    0  502 -0.91270847882E+02 -0.22862541673E+03 -0.17403778791E+03  0.30147819237E+03  0.25500000920E-02 0. -1.
</event>
<event>
 5   0  0.1175861E-01  0.5937389E+03  0.7818609E-02  0.9918482E-01
        2   -1    0    0  501    0  0.00000000000E+00  0.00000000000E+00  0.71770169106E+03  0.71770169106E+03  0.25500000920E-02 0.  1.
       -2   -1    0    0    0  501  0.00000000000E+00  0.00000000000E+00 -0.12279679715E+03  0.12279679718E+03  0.25500000920E-02 0. -1.
    10030    2    1    2    0    0  0.00000000000E+00  0.00000000000E+00  0.59490489391E+03  0.84049848824E+03  0.59373889543E+03 0.  0.
        3    1    3    3  502    0 -0.22990343915E+03 -0.76484611236E+02  0.54619929126E+02  0.24837236953E+03  0.10100000352E+00 0. -1.
       -3    1    3    3    0  502  0.22990343915E+03  0.76484611236E+02  0.54028496478E+03  0.59212611871E+03  0.10100000352E+00 0.  1.
</event>
<event>
 5   0  0.1146468E-01  0.6018112E+03  0.7818609E-02  0.9901656E-01
       -2   -1    0    0    0  501  0.00000000000E+00  0.00000000000E+00  0.11169229548E+03  0.11169229551E+03  0.25500000920E-02 0. -1.
        2   -1    0    0  501    0  0.00000000000E+00  0.00000000000E+00 -0.81065722744E+03  0.81065722744E+03  0.25500000920E-02 0.  1.
    10030    2    1    2    0    0  0.00000000000E+00  0.00000000000E+00 -0.69896493195E+03  0.92234952295E+03  0.60181115509E+03 0.  0.
        4    1    3    3  502    0  0.21344815387E+03 -0.19976679439E+03 -0.45867221350E+03  0.54391975407E+03  0.12699999809E+01 0.  1.
       -4    1    3    3    0  502 -0.21344815387E+03  0.19976679439E+03 -0.24029271845E+03  0.37842976888E+03  0.12699999809E+01 0. -1.
</event>
<event>
 5   0  0.7424930E-02  0.5937530E+03  0.7818609E-02  0.9918452E-01
       -1   -1    0    0    0  501  0.00000000000E+00  0.00000000000E+00  0.30312969216E+03  0.30312969220E+03  0.50400001928E-02 0.  1.
        1   -1    0    0  501    0  0.00000000000E+00  0.00000000000E+00 -0.29075225919E+03  0.29075225923E+03  0.50400001928E-02 0. -1.
    10030    2    1    2    0    0  0.00000000000E+00  0.00000000000E+00  0.12377432971E+02  0.59388195144E+03  0.59375295485E+03 0.  0.
        3    1    3    3  502    0 -0.28745164404E+02  0.18892094024E+03  0.23343452551E+03  0.30167713543E+03  0.10100000352E+00 0.  1.
       -3    1    3    3    0  502  0.28745164404E+02 -0.18892094024E+03 -0.22105709254E+03  0.29220481601E+03  0.10100000352E+00 0. -1.
</event>
<event>
 5   0  0.7123340E-02  0.5916523E+03  0.7818609E-02  0.9922878E-01
        1   -1    0    0  501    0  0.00000000000E+00  0.00000000000E+00  0.57488394234E+03  0.57488394236E+03  0.50400001928E-02 0.  1.
       -1   -1    0    0    0  501  0.00000000000E+00  0.00000000000E+00 -0.15222745807E+03  0.15222745815E+03  0.50400001928E-02 0. -1.
    10030    2    1    2    0    0  0.00000000000E+00  0.00000000000E+00  0.42265648427E+03  0.72711140052E+03  0.59165233462E+03 0.  0.
        2    1    3    3  502    0 -0.76266583267E+02 -0.28702752169E+01 -0.13992009494E+03  0.15938150199E+03  0.25500000920E-02 0. -1.
       -2    1    3    3    0  502  0.76266583267E+02  0.28702752169E+01  0.56257657921E+03  0.56772989853E+03  0.25500000920E-02 0.  1.
</event>
<event>
 5   0  0.7424930E-02  0.6034351E+03  0.7818609E-02  0.9898305E-01
        1   -1    0    0  501    0  0.00000000000E+00  0.00000000000E+00  0.91138863873E+03  0.91138863874E+03  0.50400001928E-02 0. -1.
       -1   -1    0    0    0  501  0.00000000000E+00  0.00000000000E+00 -0.99884362867E+02  0.99884362995E+02  0.50400001928E-02 0.  1.
    10030    2    1    2    0    0  0.00000000000E+00  0.00000000000E+00  0.81150427586E+03  0.10112730017E+04  0.60343507878E+03 0.  0.
        3    1    3    3  502    0 -0.28789234075E+03 -0.66270243178E+02  0.50851010835E+03  0.58809547310E+03  0.10100000352E+00 0.  1.
       -3    1    3    3    0  502  0.28789234075E+03  0.66270243178E+02  0.30299416751E+03  0.42317752863E+03  0.10100000352E+00 0. -1.
</event>
<event>
 5   0  0.1146468E-01  0.5952537E+03  0.7818609E-02  0.9915302E-01
        2   -1    0    0  501    0  0.00000000000E+00  0.00000000000E+00  0.67080392339E+03  0.67080392340E+03  0.25500000920E-02 0.  1.
       -2   -1    0    0    0  501  0.00000000000E+00  0.00000000000E+00 -0.13205308984E+03  0.13205308986E+03  0.25500000920E-02 0. -1.
    10030    2    1    2    0    0  0.00000000000E+00  0.00000000000E+00  0.53875083355E+03  0.80285701326E+03  0.59525366281E+03 0.  0.
        4    1    3    3  502    0  0.26290793509E+03  0.95470810197E+02  0.13219300416E+03  0.30937333625E+03  0.12699999809E+01 0. -1.
       -4    1    3    3    0  502 -0.26290793509E+03 -0.95470810197E+02  0.40655782939E+03  0.49348367701E+03  0.12699999809E+01 0.  1.
</event>
<event>
 5   0  0.7263385E-02  0.5884039E+03  0.7818609E-02  0.9929761E-01
       -1   -1    0    0    0  501  0.00000000000E+00  0.00000000000E+00  0.16112985514E+03  0.16112985522E+03  0.50400001928E-02 0.  1.
        1   -1    0    0  501    0  0.00000000000E+00  0.00000000000E+00 -0.53717410978E+03  0.53717410981E+03  0.50400001928E-02 0. -1.
    10030    2    1    2    0    0  0.00000000000E+00  0.00000000000E+00 -0.37604425464E+03  0.69830396503E+03  0.58840389710E+03 0.  0.
        1    1    3    3  502    0 -0.41074319701E+02 -0.95411668655E+02 -0.51468612739E+03  0.52506408752E+03  0.50400001928E-02 0. -1.
       -1    1    3    3    0  502  0.41074319701E+02  0.95411668655E+02  0.13864187275E+03  0.17323987751E+03  0.50400001928E-02 0.  1.
</event>
<event>
 5   0  0.7221069E-02  0.5809435E+03  0.7818609E-02  0.9945750E-01
       -1   -1    0    0    0  501  0.00000000000E+00  0.00000000000E+00  0.10591728855E+03  0.10591728867E+03  0.50400001928E-02 0. -1.
        1   -1    0    0  501    0  0.00000000000E+00  0.00000000000E+00 -0.79660122552E+03  0.79660122553E+03  0.50400001928E-02 0.  1.
    10030    2    1    2    0    0  0.00000000000E+00  0.00000000000E+00 -0.69068393697E+03  0.90251851420E+03  0.58094351506E+03 0.  0.
        5    1    3    3  502    0 -0.50651551317E+02  0.28593504399E+03 -0.35346251991E+03  0.45747379380E+03  0.46999998093E+01 0. -1.
       -5    1    3    3    0  502  0.50651551317E+02 -0.28593504399E+03 -0.33722141706E+03  0.44504472040E+03  0.46999998093E+01 0.  1.
</event>
<event>
 5   0  0.7263385E-02  0.6050235E+03  0.7818609E-02  0.9895038E-01
        1   -1    0    0  501    0  0.00000000000E+00  0.00000000000E+00  0.31772052853E+03  0.31772052857E+03  0.50400001928E-02 0.  1.
       -1   -1    0    0    0  501  0.00000000000E+00  0.00000000000E+00 -0.28803101318E+03  0.28803101322E+03  0.50400001928E-02 0. -1.
    10030    2    1    2    0    0  0.00000000000E+00  0.00000000000E+00  0.29689515348E+02  0.60575154179E+03  0.60502352273E+03 0.  0.
        1    1    3    3  502    0 -0.19106131139E+03 -0.40225125845E+02 -0.21649794712E+03  0.29153704155E+03  0.50400001928E-02 0. -1.
       -1    1    3    3    0  502  0.19106131139E+03  0.40225125845E+02  0.24618746247E+03  0.31421450024E+03  0.50400001928E-02 0.  1.
</event>
<event>
 5   0  0.7123340E-02  0.4825961E+03  0.7818609E-02  0.1018424E+00
       -1   -1    0    0    0  501  0.00000000000E+00  0.00000000000E+00  0.99777630672E+02  0.99777630799E+02  0.50400001928E-02 0.  1.
        1   -1    0    0  501    0  0.00000000000E+00  0.00000000000E+00 -0.58354519715E+03  0.58354519717E+03  0.50400001928E-02 0. -1.
    10030    2    1    2    0    0  0.00000000000E+00  0.00000000000E+00 -0.48376756648E+03  0.68332282797E+03  0.48259613431E+03 0.  0.
        2    1    3    3  502    0  0.60900361093E+02 -0.12600076238E+03  0.36445580053E+02  0.14461440597E+03  0.25500000920E-02 0.  1.
       -2    1    3    3    0  502 -0.60900361093E+02  0.12600076238E+03 -0.52021314653E+03  0.53870842200E+03  0.25500000920E-02 0. -1.
</event>
<event>
 5   0  0.1206238E-01  0.6060657E+03  0.7818609E-02  0.9892901E-01
        2   -1    0    0  501    0  0.00000000000E+00  0.00000000000E+00  0.52189586102E+03  0.52189586102E+03  0.25500000920E-02 0.  1.
       -2   -1    0    0    0  501  0.00000000000E+00  0.00000000000E+00 -0.17595252347E+03  0.17595252349E+03  0.25500000920E-02 0. -1.
    10030    2    1    2    0    0  0.00000000000E+00  0.00000000000E+00  0.34594333755E+03  0.69784838451E+03  0.60606565236E+03 0.  0.
        5    1    3    3  502    0 -0.14829574793E+03  0.83962382911E+02  0.46144248162E+03  0.49192739753E+03  0.46999998093E+01 0.  1.
       -5    1    3    3    0  502  0.14829574793E+03 -0.83962382911E+02 -0.11549914407E+03  0.20592098698E+03  0.46999998093E+01 0. -1.
</event>
<event>
 5   0  0.1146468E-01  0.6027243E+03  0.7818609E-02  0.9899770E-01
        2   -1    0    0  501    0  0.00000000000E+00  0.00000000000E+00  0.85691295379E+02  0.85691295417E+02  0.25500000920E-02 0.  1.
       -2   -1    0    0    0  501  0.00000000000E+00  0.00000000000E+00 -0.10598410201E+04  0.10598410201E+04  0.25500000920E-02 0. -1.
    10030    2    1    2    0    0  0.00000000000E+00  0.00000000000E+00 -0.97414972472E+03  0.11455323155E+04  0.60272431486E+03 0.  0.
        4    1    3    3  502    0  0.82545218593E+02 -0.28967518276E+03 -0.46883390180E+03  0.55725421936E+03  0.12699999809E+01 0. -1.
       -4    1    3    3    0  502 -0.82545218593E+02  0.28967518276E+03 -0.50531582292E+03  0.58827809615E+03  0.12699999809E+01 0.  1.
</event>
<event>
 5   0  0.7424930E-02  0.4670270E+03  0.7818609E-02  0.1022763E+00
        1   -1    0    0  501    0  0.00000000000E+00  0.00000000000E+00  0.37904816114E+03  0.37904816117E+03  0.50400001928E-02 0. -1.
       -1   -1    0    0    0  501  0.00000000000E+00  0.00000000000E+00 -0.14385653632E+03  0.14385653641E+03  0.50400001928E-02 0.  1.
    10030    2    1    2    0    0  0.00000000000E+00  0.00000000000E+00  0.23519162482E+03  0.52290469758E+03  0.46702700389E+03 0.  0.
        3    1    3    3  502    0 -0.16373544835E+03  0.61157738167E+02  0.29097457465E+03  0.33943449924E+03  0.10100000352E+00 0. -1.
       -3    1    3    3    0  502  0.16373544835E+03 -0.61157738167E+02 -0.55782949825E+02  0.18347019833E+03  0.10100000352E+00 0.  1.
</event>
<event>
 5   0  0.4695625E-02  0.5935713E+03  0.7818609E-02  0.9918834E-01
        4   -1    0    0  501    0  0.00000000000E+00  0.00000000000E+00  0.22753348188E+03  0.22753702617E+03  0.12699999809E+01 0. -1.
       -4   -1    0    0    0  501  0.00000000000E+00  0.00000000000E+00 -0.38710784932E+03  0.38710993259E+03  0.12699999809E+01 0.  1.
    10030    2    1    2    0    0  0.00000000000E+00  0.00000000000E+00 -0.15957436744E+03  0.61464695876E+03  0.59357131431E+03 0.  0.
        5    1    3    3  502    0  0.24238606828E+03  0.82999871886E+02 -0.23483557373E+03  0.34757707277E+03  0.46999998093E+01 0.  1.
       -5    1    3    3    0  502 -0.24238606828E+03 -0.82999871886E+02  0.75261206286E+02  0.26706988599E+03  0.46999998093E+01 0. -1.
</event>
<event>
 5   0  0.1146468E-01  0.6026179E+03  0.7818609E-02  0.9899990E-01
        2   -1    0    0  501    0  0.00000000000E+00  0.00000000000E+00  0.19394964832E+04  0.19394964832E+04  0.25500000920E-02 0.  1.
       -2   -1    0    0    0  501  0.00000000000E+00  0.00000000000E+00 -0.46809610506E+02  0.46809610576E+02  0.25500000920E-02 0. -1.
    10030    2    1    2    0    0  0.00000000000E+00  0.00000000000E+00  0.18926868727E+04  0.19863060938E+04  0.60261787238E+03 0.  0.
        4    1    3    3  502    0  0.93309043761E+02 -0.27031342952E+03  0.63347961988E+03  0.69503522899E+03  0.12699999809E+01 0. -1.
       -4    1    3    3    0  502 -0.93309043761E+02  0.27031342952E+03  0.12592072528E+04  0.12912708648E+04  0.12699999809E+01 0.  1.
</event>
<event>
 5   0  0.7263385E-02  0.6044363E+03  0.7818609E-02  0.9896245E-01
       -1   -1    0    0    0  501  0.00000000000E+00  0.00000000000E+00  0.92688168577E+02  0.92688168714E+02  0.50400001928E-02 0.  1.
        1   -1    0    0  501    0  0.00000000000E+00  0.00000000000E+00 -0.98540959646E+03  0.98540959647E+03  0.50400001928E-02 0. -1.
    10030    2    1    2    0    0  0.00000000000E+00  0.00000000000E+00 -0.89272142788E+03  0.10780977652E+04  0.60443630227E+03 0.  0.
        1    1    3    3  502    0 -0.22421930016E+03 -0.13083566808E+03 -0.17036532627E+03  0.31051024303E+03  0.50400001928E-02 0.  1.
       -1    1    3    3    0  502  0.22421930016E+03  0.13083566808E+03 -0.72235610161E+03  0.76758752215E+03  0.50400001928E-02 0. -1.
</event>
<event>
 5   0  0.1166419E-01  0.5913649E+03  0.7818609E-02  0.9923485E-01
        2   -1    0    0  501    0  0.00000000000E+00  0.00000000000E+00  0.10222940329E+04  0.10222940329E+04  0.25500000920E-02 0.  1.
       -2   -1    0    0    0  501  0.00000000000E+00  0.00000000000E+00 -0.85521484547E+02  0.85521484585E+02  0.25500000920E-02 0. -1.
    10030    2    1    2    0    0  0.00000000000E+00  0.00000000000E+00  0.93677254839E+03  0.11078155175E+04  0.59136487337E+03 0.  0.
        1    1    3    3  502    0  0.10312018639E+03  0.26107253058E+03  0.29430391414E+03  0.40670312633E+03  0.50400001928E-02 0. -1.
       -1    1    3    3    0  502 -0.10312018639E+03 -0.26107253058E+03  0.64246863426E+03  0.70111239120E+03  0.50400001928E-02 0.  1.
</event>
<event>
 5   0  0.7266519E-02  0.5964697E+03  0.7818609E-02  0.9912757E-01
       -1   -1    0    0    0  501  0.00000000000E+00  0.00000000000E+00  0.62674389555E+03  0.62674389557E+03  0.50400001928E-02 0.  1.
        1   -1    0    0  501    0  0.00000000000E+00  0.00000000000E+00 -0.14191448521E+03  0.14191448530E+03  0.50400001928E-02 0. -1.
    10030    2    1    2    0    0  0.00000000000E+00  0.00000000000E+00  0.48482941034E+03  0.76865838087E+03  0.59646973883E+03 0.  0.
        4    1    3    3  502    0 -0.21554996874E+03  0.16727531675E+03  0.39759015734E+03  0.48220573071E+03  0.12699999809E+01 0.  1.
       -4    1    3    3    0  502  0.21554996874E+03 -0.16727531675E+03  0.87239253002E+02  0.28645265016E+03  0.12699999809E+01 0. -1.
</event>
<event>
 5   0  0.7263385E-02  0.6077721E+03  0.7818609E-02  0.9889411E-01
        1   -1    0    0  501    0  0.00000000000E+00  0.00000000000E+00  0.59213144776E+03  0.59213144778E+03  0.50400001928E-02 0.  1.
       -1   -1    0    0    0  501  0.00000000000E+00  0.00000000000E+00 -0.15595649447E+03  0.15595649455E+03  0.50400001928E-02 0. -1.
    10030    2    1    2    0    0  0.00000000000E+00  0.00000000000E+00  0.43617495330E+03  0.74808794233E+03  0.60777214446E+03 0.  0.
        1    1    3    3  502    0  0.10248592520E+03  0.17074057668E+03  0.50062766479E+03  0.53877988842E+03  0.50400001928E-02 0.  1.
       -1    1    3    3    0  502 -0.10248592520E+03 -0.17074057668E+03 -0.64452711494E+02  0.20930805391E+03  0.50400001928E-02 0. -1.
</event>
<event>
 5   0  0.1175861E-01  0.5998310E+03  0.7818609E-02  0.9905757E-01
        2   -1    0    0  501    0  0.00000000000E+00  0.00000000000E+00  0.38199533076E+03  0.38199533077E+03  0.25500000920E-02 0.  1.
       -2   -1    0    0    0  501  0.00000000000E+00  0.00000000000E+00 -0.23547228900E+03  0.23547228901E+03  0.25500000920E-02 0. -1.
    10030    2    1    2    0    0  0.00000000000E+00  0.00000000000E+00  0.14652304176E+03  0.61746761978E+03  0.59983102596E+03 0.  0.
        3    1    3    3  502    0 -0.11474669014E+03 -0.27557684840E+03  0.10309471044E+03  0.31581312796E+03  0.10100000352E+00 0. -1.
       -3    1    3    3    0  502  0.11474669014E+03  0.27557684840E+03  0.43428331324E+02  0.30165449182E+03  0.10100000352E+00 0.  1.
</event>
<event>
 5   0  0.7221069E-02  0.6119993E+03  0.7818609E-02  0.9880819E-01
       -1   -1    0    0    0  501  0.00000000000E+00  0.00000000000E+00  0.30761061197E+03  0.30761061201E+03  0.50400001928E-02 0.  1.
        1   -1    0    0  501    0  0.00000000000E+00  0.00000000000E+00 -0.30439707672E+03  0.30439707676E+03  0.50400001928E-02 0. -1.
    10030    2    1    2    0    0  0.00000000000E+00  0.00000000000E+00  0.32135352504E+01  0.61200768878E+03  0.61199925189E+03 0.  0.
        5    1    3    3  502    0  0.28910439438E+03 -0.74581139721E+02  0.68465626975E+02  0.30635490746E+03  0.46999998093E+01 0.  1.
       -5    1    3    3    0  502 -0.28910439438E+03  0.74581139721E+02 -0.65252091725E+02  0.30565278131E+03  0.46999998093E+01 0. -1.
</event>
<event>
 5   0  0.1175861E-01  0.6130443E+03  0.7818609E-02  0.9878707E-01
        2   -1    0    0  501    0  0.00000000000E+00  0.00000000000E+00  0.90025272324E+02  0.90025272360E+02  0.25500000920E-02 0.  1.
       -2   -1    0    0    0  501  0.00000000000E+00  0.00000000000E+00 -0.10436606818E+04  0.10436606818E+04  0.25500000920E-02 0. -1.
    10030    2    1    2    0    0  0.00000000000E+00  0.00000000000E+00 -0.95363540952E+03  0.11336859542E+04  0.61304432831E+03 0.  0.
        3    1    3    3  502    0  0.98167135453E+02 -0.23205112389E+03 -0.79962734444E+03  0.83838440512E+03  0.10100000352E+00 0. -1.
       -3    1    3    3    0  502 -0.98167135453E+02  0.23205112389E+03 -0.15400806509E+03  0.29530154909E+03  0.10100000352E+00 0.  1.
</event>
<event>
 5   0  0.1146468E-01  0.5958544E+03  0.7818609E-02  0.9914044E-01
        2   -1    0    0  501    0  0.00000000000E+00  0.00000000000E+00  0.36063793565E+03  0.36063793566E+03  0.25500000920E-02 0. -1.
       -2   -1    0    0    0  501  0.00000000000E+00  0.00000000000E+00 -0.24612112899E+03  0.24612112900E+03  0.25500000920E-02 0.  1.
    10030    2    1    2    0    0  0.00000000000E+00  0.00000000000E+00  0.11451680666E+03  0.60675906466E+03  0.59585439793E+03 0.  0.
        4    1    3    3  502    0 -0.70752502477E+02  0.13083996526E+03 -0.20560131200E+03  0.25376864565E+03  0.12699999809E+01 0.  1.
       -4    1    3    3    0  502  0.70752502477E+02 -0.13083996526E+03  0.32011811866E+03  0.35299041901E+03  0.12699999809E+01 0. -1.
</event>
<event>
 5   0  0.1175861E-01  0.5990656E+03  0.7818609E-02  0.9907347E-01
       -2   -1    0    0    0  501  0.00000000000E+00  0.00000000000E+00  0.10310585677E+03  0.10310585680E+03  0.25500000920E-02 0. -1.
        2   -1    0    0  501    0  0.00000000000E+00  0.00000000000E+00 -0.87017260666E+03  0.87017260666E+03  0.25500000920E-02 0.  1.
    10030    2    1    2    0    0  0.00000000000E+00  0.00000000000E+00 -0.76706674989E+03  0.97327846346E+03  0.59906557959E+03 0.  0.
        3    1    3    3  502    0  0.13786842061E+03 -0.12978787701E+03 -0.76060625674E+03  0.78382044016E+03  0.10100000352E+00 0.  1.
       -3    1    3    3    0  502 -0.13786842061E+03  0.12978787701E+03 -0.64604931459E+01  0.18945802330E+03  0.10100000352E+00 0. -1.
</event>
<event>
 5   0  0.1166419E-01  0.5892422E+03  0.7818609E-02  0.9927980E-01
       -2   -1    0    0    0  501  0.00000000000E+00  0.00000000000E+00  0.80847653914E+03  0.80847653914E+03  0.25500000920E-02 0.  1.
        2   -1    0    0  501    0  0.00000000000E+00  0.00000000000E+00 -0.10736439634E+03  0.10736439637E+03  0.25500000920E-02 0. -1.
    10030    2    1    2    0    0  0.00000000000E+00  0.00000000000E+00  0.70111214280E+03  0.91584093551E+03  0.58924221027E+03 0.  0.
        1    1    3    3  502    0 -0.76204106187E+02 -0.93233219939E+02  0.76848424266E+03  0.77786086824E+03  0.50400001928E-02 0.  1.
       -1    1    3    3    0  502  0.76204106187E+02  0.93233219939E+02 -0.67372099853E+02  0.13798006727E+03  0.50400001928E-02 0. -1.
</event>
<event>
 5   0  0.4695625E-02  0.5936123E+03  0.7818609E-02  0.9918748E-01
        4   -1    0    0  501    0  0.00000000000E+00  0.00000000000E+00  0.21893611435E+03  0.21893979782E+03  0.12699999809E+01 0. -1.
       -4   -1    0    0    0  501  0.00000000000E+00  0.00000000000E+00 -0.40236453348E+03  0.40236653775E+03  0.12699999809E+01 0.  1.
    10030    2    1    2    0    0  0.00000000000E+00  0.00000000000E+00 -0.18342841913E+03  0.62130633557E+03  0.59361231260E+03 0.  0.
        5    1    3    3  502    0  0.32209187910E+01 -0.12098918838E+03 -0.37532260431E+03  0.39438294249E+03  0.46999998093E+01 0.  1.
       -5    1    3    3    0  502 -0.32209187910E+01  0.12098918838E+03  0.19189418518E+03  0.22692339308E+03  0.46999998093E+01 0. -1.
</event>
<event>
 5   0  0.7266519E-02  0.6016032E+03  0.7818609E-02  0.9902085E-01
       -1   -1    0    0    0  501  0.00000000000E+00  0.00000000000E+00  0.14240138723E+03  0.14240138732E+03  0.50400001928E-02 0.  1.
        1   -1    0    0  501    0  0.00000000000E+00  0.00000000000E+00 -0.63539835492E+03  0.63539835494E+03  0.50400001928E-02 0. -1.
    10030    2    1    2    0    0  0.00000000000E+00  0.00000000000E+00 -0.49299696769E+03  0.77779974225E+03  0.60160321550E+03 0.  0.
        4    1    3    3  502    0 -0.17371056973E+03 -0.20079950632E+03 -0.42926680691E+03  0.50474489416E+03  0.12699999809E+01 0. -1.
       -4    1    3    3    0  502  0.17371056973E+03  0.20079950632E+03 -0.63730160785E+02  0.27305484809E+03  0.12699999809E+01 0.  1.
</event>
<event>
 5   0  0.1206238E-01  0.6032576E+03  0.7818609E-02  0.9898671E-01
       -2   -1    0    0    0  501  0.00000000000E+00  0.00000000000E+00  0.36871534502E+03  0.36871534503E+03  0.25500000920E-02 0.  1.
        2   -1    0    0  501    0  0.00000000000E+00  0.00000000000E+00 -0.24674840230E+03  0.24674840231E+03  0.25500000920E-02 0. -1.
    10030    2    1    2    0    0  0.00000000000E+00  0.00000000000E+00  0.12196694272E+03  0.61546374734E+03  0.60325756454E+03 0.  0.
        5    1    3    3  502    0 -0.19385254643E+03  0.90321119884E+02  0.27793881292E+03  0.35072608711E+03  0.46999998093E+01 0.  1.
       -5    1    3    3    0  502  0.19385254643E+03 -0.90321119884E+02 -0.15597187019E+03  0.26473766023E+03  0.46999998093E+01 0. -1.
</event>
<event>
 5   0  0.7263385E-02  0.6088202E+03  0.7818609E-02  0.9887274E-01
       -1   -1    0    0    0  501  0.00000000000E+00  0.00000000000E+00  0.64475904233E+03  0.64475904235E+03  0.50400001928E-02 0. -1.
        1   -1    0    0  501    0  0.00000000000E+00  0.00000000000E+00 -0.14372114123E+03  0.14372114132E+03  0.50400001928E-02 0.  1.
    10030    2    1    2    0    0  0.00000000000E+00  0.00000000000E+00  0.50103790110E+03  0.78848018367E+03  0.60882018832E+03 0.  0.
        1    1    3    3  502    0 -0.17491630489E+03  0.24909901567E+03  0.24480406049E+03  0.39060857823E+03  0.50400001928E-02 0.  1.
       -1    1    3    3    0  502  0.17491630489E+03 -0.24909901567E+03  0.25623384061E+03  0.39787160545E+03  0.50400001928E-02 0. -1.
</event>
<event>
 5   0  0.7266519E-02  0.5929945E+03  0.7818609E-02  0.9920048E-01
        1   -1    0    0  501    0  0.00000000000E+00  0.00000000000E+00  0.10960725602E+04  0.10960725602E+04  0.50400001928E-02 0.  1.
       -1   -1    0    0    0  501  0.00000000000E+00  0.00000000000E+00 -0.80205106121E+02  0.80205106280E+02  0.50400001928E-02 0. -1.
    10030    2    1    2    0    0  0.00000000000E+00  0.00000000000E+00  0.10158674541E+04  0.11762776665E+04  0.59299448938E+03 0.  0.
        4    1    3    3  502    0 -0.56884594863E+02  0.27306433335E+03  0.70737435559E+03  0.76038153523E+03  0.12699999809E+01 0. -1.
       -4    1    3    3    0  502  0.56884594863E+02 -0.27306433335E+03  0.30849309851E+03  0.41589613128E+03  0.12699999809E+01 0.  1.
</event>
<event>
 5   0  0.7221069E-02  0.5992762E+03  0.7818609E-02  0.9906909E-01
       -1   -1    0    0    0  501  0.00000000000E+00  0.00000000000E+00  0.20327953479E+03  0.20327953485E+03  0.50400001928E-02 0. -1.
        1   -1    0    0  501    0  0.00000000000E+00  0.00000000000E+00 -0.44167252471E+03  0.44167252474E+03  0.50400001928E-02 0.  1.
    10030    2    1    2    0    0  0.00000000000E+00  0.00000000000E+00 -0.23839298992E+03  0.64495205959E+03  0.59927618135E+03 0.  0.
        5    1    3    3  502    0  0.19995727231E+03 -0.97237340513E+02  0.96914176053E+02  0.24259525688E+03  0.46999998093E+01 0. -1.
       -5    1    3    3    0  502 -0.19995727231E+03  0.97237340513E+02 -0.33530716597E+03  0.40235680271E+03  0.46999998093E+01 0.  1.
</event>
<event>
 5   0  0.1146468E-01  0.6005596E+03  0.7818609E-02  0.9904246E-01
        2   -1    0    0  501    0  0.00000000000E+00  0.00000000000E+00  0.74910727714E+03  0.74910727714E+03  0.25500000920E-02 0.  1.
       -2   -1    0    0    0  501  0.00000000000E+00  0.00000000000E+00 -0.12036720151E+03  0.12036720153E+03  0.25500000920E-02 0. -1.
    10030    2    1    2    0    0  0.00000000000E+00  0.00000000000E+00  0.62874007563E+03  0.86947447867E+03  0.60055956105E+03 0.  0.
        4    1    3    3  502    0 -0.51358810853E+02 -0.36110886591E+02  0.73949477167E+03  0.74215621927E+03  0.12699999809E+01 0.  1.
       -4    1    3    3    0  502  0.51358810853E+02  0.36110886591E+02 -0.11075469604E+03  0.12731825940E+03  0.12699999809E+01 0. -1.
</event>
<event>
 5   0  0.7263385E-02  0.6036924E+03  0.7818609E-02  0.9897775E-01
       -1   -1    0    0    0  501  0.00000000000E+00  0.00000000000E+00  0.20682163584E+03  0.20682163590E+03  0.50400001928E-02 0. -1.
        1   -1    0    0  501    0  0.00000000000E+00  0.00000000000E+00 -0.44053003525E+03  0.44053003527E+03  0.50400001928E-02 0.  1.
    10030    2    1    2    0    0  0.00000000000E+00  0.00000000000E+00 -0.23370839941E+03  0.64735167117E+03  0.60369244671E+03 0.  0.
        1    1    3    3  502    0  0.13963170945E+03  0.47733386249E+01  0.17006181358E+03  0.22009275206E+03  0.50400001928E-02 0. -1.
       -1    1    3    3    0  502 -0.13963170945E+03 -0.47733386249E+01 -0.40377021299E+03  0.42725891912E+03  0.50400001928E-02 0.  1.
</event>
<event>
 5   0  0.1219020E-01  0.6044649E+03  0.7818609E-02  0.9896186E-01
        2   -1    0    0  501    0  0.00000000000E+00  0.00000000000E+00  0.69642939153E+03  0.69642939153E+03  0.25500000920E-02 0. -1.
       -2   -1    0    0    0  501  0.00000000000E+00  0.00000000000E+00 -0.13116112606E+03  0.13116112609E+03  0.25500000920E-02 0.  1.
    10030    2    1    2    0    0  0.00000000000E+00  0.00000000000E+00  0.56526826547E+03  0.82759051762E+03  0.60446493109E+03 0.  0.
        2    1    3    3  502    0  0.84558825112E+02 -0.28806738884E+03  0.23498041915E+03  0.38124639383E+03  0.25500000920E-02 0. -1.
       -2    1    3    3    0  502 -0.84558825112E+02  0.28806738884E+03  0.33028784632E+03  0.44634412379E+03  0.25500000920E-02 0.  1.
</event>
<event>
 5   0  0.1206238E-01  0.5890317E+03  0.7818609E-02  0.9928427E-01
       -2   -1    0    0    0  501  0.00000000000E+00  0.00000000000E+00  0.34187186613E+03  0.34187186614E+03  0.25500000920E-02 0.  1.
        2   -1    0    0  501    0  0.00000000000E+00  0.00000000000E+00 -0.25371960584E+03  0.25371960585E+03  0.25500000920E-02 0. -1.
    10030    2    1    2    0    0  0.00000000000E+00  0.00000000000E+00  0.88152260290E+02  0.59559147199E+03  0.58903173133E+03 0.  0.
        5    1    3    3  502    0 -0.10886167154E+03  0.24205169000E+03 -0.84928484384E+02  0.27870203017E+03  0.46999998093E+01 0. -1.
       -5    1    3    3    0  502  0.10886167154E+03 -0.24205169000E+03  0.17308074467E+03  0.31688944182E+03  0.46999998093E+01 0.  1.
</event>
<event>
 5   0  0.7424930E-02  0.5894695E+03  0.7818609E-02  0.9927498E-01
       -1   -1    0    0    0  501  0.00000000000E+00  0.00000000000E+00  0.26341191925E+03  0.26341191930E+03  0.50400001928E-02 0. -1.
        1   -1    0    0  501    0  0.00000000000E+00  0.00000000000E+00 -0.32978225990E+03  0.32978225993E+03  0.50400001928E-02 0.  1.
    10030    2    1    2    0    0  0.00000000000E+00  0.00000000000E+00 -0.66370340644E+02  0.59319417923E+03  0.58946951758E+03 0.  0.
        3    1    3    3  502    0  0.12653205994E+03  0.49519834683E+02 -0.29638317971E+03  0.32604535825E+03  0.10100000352E+00 0.  1.
       -3    1    3    3    0  502 -0.12653205994E+03 -0.49519834683E+02  0.23001283906E+03  0.26714882099E+03  0.10100000352E+00 0. -1.
</event>
<event>
 5   0  0.4695625E-02  0.5882103E+03  0.7818609E-02  0.9930172E-01
       -3   -1    0    0    0  501  0.00000000000E+00  0.00000000000E+00  0.31887170675E+03  0.31887172274E+03  0.10100000352E+00 0. -1.
        3   -1    0    0  501    0  0.00000000000E+00  0.00000000000E+00 -0.27126216179E+03  0.27126218059E+03  0.10100000352E+00 0.  1.
    10030    2    1    2    0    0  0.00000000000E+00  0.00000000000E+00  0.47609544960E+02  0.59013390334E+03  0.58821029836E+03 0.  0.
        1    1    3    3  502    0 -0.20734135835E+03 -0.11940548402E+03  0.19538959682E+03  0.30890970051E+03  0.50400001928E-02 0. -1.
       -1    1    3    3    0  502  0.20734135835E+03  0.11940548402E+03 -0.14778005186E+03  0.28122420282E+03  0.50400001928E-02 0.  1.
</event>
<event>
 5   0  0.7221069E-02  0.6068158E+03  0.7818609E-02  0.9891365E-01
       -1   -1    0    0    0  501  0.00000000000E+00  0.00000000000E+00  0.24355219899E+03  0.24355219904E+03  0.50400001928E-02 0. -1.
        1   -1    0    0  501    0  0.00000000000E+00  0.00000000000E+00 -0.37797387162E+03  0.37797387165E+03  0.50400001928E-02 0.  1.
    10030    2    1    2    0    0  0.00000000000E+00  0.00000000000E+00 -0.13442167263E+03  0.62152607070E+03  0.60681584561E+03 0.  0.
        5    1    3    3  502    0 -0.13940450992E+03  0.18818768956E+03  0.13030070758E+03  0.26804586974E+03  0.46999998093E+01 0. -1.
       -5    1    3    3    0  502  0.13940450992E+03 -0.18818768956E+03 -0.26472238021E+03  0.35348020096E+03  0.46999998093E+01 0.  1.
</event>
<event>
 5   0  0.1219020E-01  0.6025407E+03  0.7818609E-02  0.9900149E-01
       -2   -1    0    0    0  501  0.00000000000E+00  0.00000000000E+00  0.43649633710E+02  0.43649633785E+02  0.25500000920E-02 0.  1.
        2   -1    0    0  501    0  0.00000000000E+00  0.00000000000E+00 -0.20793722652E+04  0.20793722652E+04  0.25500000920E-02 0. -1.
    10030    2    1    2    0    0  0.00000000000E+00  0.00000000000E+00 -0.20357226315E+04  0.21230218990E+04  0.60254074651E+03 0.  0.
        2    1    3    3  502    0 -0.15122520077E+03 -0.56670865768E+02 -0.19139763545E+04  0.19207774816E+04  0.25500000920E-02 0. -1.
       -2    1    3    3    0  502  0.15122520077E+03  0.56670865768E+02 -0.12174627695E+03  0.20224441731E+03  0.25500000920E-02 0.  1.
</event>
<event>
 5   0  0.7266519E-02  0.6152804E+03  0.7818609E-02  0.9874202E-01
        1   -1    0    0  501    0  0.00000000000E+00  0.00000000000E+00  0.22776989353E+03  0.22776989358E+03  0.50400001928E-02 0. -1.
       -1   -1    0    0    0  501  0.00000000000E+00  0.00000000000E+00 -0.41551798121E+03  0.41551798124E+03  0.50400001928E-02 0.  1.
    10030    2    1    2    0    0  0.00000000000E+00  0.00000000000E+00 -0.18774808768E+03  0.64328787482E+03  0.61528037955E+03 0.  0.
        4    1    3    3  502    0 -0.23544034140E+03  0.16131426915E+03  0.26185266667E+02  0.28660378379E+03  0.12699999809E+01 0. -1.
       -4    1    3    3    0  502  0.23544034140E+03 -0.16131426915E+03 -0.21393335435E+03  0.35668409103E+03  0.12699999809E+01 0.  1.
</event>
<event>
 5   0  0.1175861E-01  0.6060317E+03  0.7818609E-02  0.9892971E-01
       -2   -1    0    0    0  501  0.00000000000E+00  0.00000000000E+00  0.69508911896E+02  0.69508911943E+02  0.25500000920E-02 0. -1.
        2   -1    0    0  501    0  0.00000000000E+00  0.00000000000E+00 -0.13209614238E+04  0.13209614238E+04  0.25500000920E-02 0.  1.
    10030    2    1    2    0    0  0.00000000000E+00  0.00000000000E+00 -0.12514525119E+04  0.13904703357E+04  0.60603165349E+03 0.  0.
        3    1    3    3  502    0  0.85840005421E+01  0.27809724946E+03 -0.35033482539E+03  0.44737709519E+03  0.10100000352E+00 0. -1.
       -3    1    3    3    0  502 -0.85840005421E+01 -0.27809724946E+03 -0.90111768648E+03  0.94309324052E+03  0.10100000352E+00 0.  1.
</event>
<event>
 5   0  0.1206238E-01  0.5972917E+03  0.7818609E-02  0.9911041E-01
        2   -1    0    0  501    0  0.00000000000E+00  0.00000000000E+00  0.71447561506E+03  0.71447561507E+03  0.25500000920E-02 0. -1.
       -2   -1    0    0    0  501  0.00000000000E+00  0.00000000000E+00 -0.12483188324E+03  0.12483188327E+03  0.25500000920E-02 0.  1.
    10030    2    1    2    0    0  0.00000000000E+00  0.00000000000E+00  0.58964373182E+03  0.83930749833E+03  0.59729167605E+03 0.  0.
        5    1    3    3  502    0  0.10571575024E+03  0.37709280888E+02 -0.94010463591E+02  0.14648504011E+03  0.46999998093E+01 0.  1.
       -5    1    3    3    0  502 -0.10571575024E+03 -0.37709280888E+02  0.68365419541E+03  0.69282245822E+03  0.46999998093E+01 0. -1.
</event>
<event>
 5   0  0.1166419E-01  0.5985054E+03  0.7818609E-02  0.9908512E-01
        2   -1    0    0  501    0  0.00000000000E+00  0.00000000000E+00  0.45141704645E+03  0.45141704645E+03  0.25500000920E-02 0. -1.
       -2   -1    0    0    0  501  0.00000000000E+00  0.00000000000E+00 -0.19838015883E+03  0.19838015885E+03  0.25500000920E-02 0.  1.
    10030    2    1    2    0    0  0.00000000000E+00  0.00000000000E+00  0.25303688761E+03  0.64979720530E+03  0.59850542313E+03 0.  0.
        1    1    3    3  502    0  0.16579164789E+03  0.22715957263E+03  0.15459033006E+02  0.28165106723E+03  0.50400001928E-02 0.  1.
       -1    1    3    3    0  502 -0.16579164789E+03 -0.22715957263E+03  0.23757785461E+03  0.36814613807E+03  0.50400001928E-02 0. -1.
</event>
<event>
 5   0  0.7266519E-02  0.6029716E+03  0.7818609E-02  0.9899260E-01
        1   -1    0    0  501    0  0.00000000000E+00  0.00000000000E+00  0.27267915953E+03  0.27267915958E+03  0.50400001928E-02 0.  1.
       -1   -1    0    0    0  501  0.00000000000E+00  0.00000000000E+00 -0.33333561164E+03  0.33333561168E+03  0.50400001928E-02 0. -1.
    10030    2    1    2    0    0  0.00000000000E+00  0.00000000000E+00 -0.60656452114E+02  0.60601477126E+03  0.60297155638E+03 0.  0.
        4    1    3    3  502    0  0.22004142490E+03  0.77066847037E+02 -0.22243300551E+03  0.32223529047E+03  0.12699999809E+01 0. -1.
       -4    1    3    3    0  502 -0.22004142490E+03 -0.77066847037E+02  0.16177655340E+03  0.28377948078E+03  0.12699999809E+01 0.  1.
</event>
<event>
 5   0  0.1166419E-01  0.5887331E+03  0.7818609E-02  0.9929061E-01
       -2   -1    0    0    0  501  0.00000000000E+00  0.00000000000E+00  0.67934481418E+02  0.67934481466E+02  0.25500000920E-02 0. -1.
        2   -1    0    0  501    0  0.00000000000E+00  0.00000000000E+00 -0.12755181307E+04  0.12755181307E+04  0.25500000920E-02 0.  1.
    10030    2    1    2    0    0  0.00000000000E+00  0.00000000000E+00 -0.12075836492E+04  0.13434526121E+04  0.58873308988E+03 0.  0.
        1    1    3    3  502    0  0.56340603909E+02 -0.12724148702E+03 -0.11862986612E+02  0.13966169892E+03  0.50400001928E-02 0. -1.
       -1    1    3    3    0  502 -0.56340603909E+02  0.12724148702E+03 -0.11957206626E+04  0.12037909132E+04  0.50400001928E-02 0.  1.
</event>
<event>
 5   0  0.7266519E-02  0.6068805E+03  0.7818609E-02  0.9891233E-01
        1   -1    0    0  501    0  0.00000000000E+00  0.00000000000E+00  0.66567387937E+03  0.66567387939E+03  0.50400001928E-02 0.  1.
       -1   -1    0    0    0  501  0.00000000000E+00  0.00000000000E+00 -0.13831994075E+03  0.13831994084E+03  0.50400001928E-02 0. -1.
    10030    2    1    2    0    0  0.00000000000E+00  0.00000000000E+00  0.52735393862E+03  0.80399382023E+03  0.60688045477E+03 0.  0.
        4    1    3    3  502    0  0.22136243114E+03 -0.19601371949E+02  0.53739703140E+03  0.58153479858E+03  0.12699999809E+01 0.  1.
       -4    1    3    3    0  502 -0.22136243114E+03  0.19601371949E+02 -0.10043092780E+02  0.22245902165E+03  0.12699999809E+01 0. -1.
</event>
<event>
 5   0  0.1146468E-01  0.6019809E+03  0.7818609E-02  0.9901305E-01
        2   -1    0    0  501    0  0.00000000000E+00  0.00000000000E+00  0.37713147501E+03  0.37713147502E+03  0.25500000920E-02 0. -1.
       -2   -1    0    0    0  501  0.00000000000E+00  0.00000000000E+00 -0.24022189084E+03  0.24022189085E+03  0.25500000920E-02 0.  1.
    10030    2    1    2    0    0  0.00000000000E+00  0.00000000000E+00  0.13690958417E+03  0.61735336587E+03  0.60198085029E+03 0.  0.
        4    1    3    3  502    0  0.18888728011E+03 -0.80863061598E+02  0.29401778313E+03  0.35869946894E+03  0.12699999809E+01 0. -1.
       -4    1    3    3    0  502 -0.18888728011E+03  0.80863061598E+02 -0.15710819896E+03  0.25865389693E+03  0.12699999809E+01 0.  1.
</event>
<event>
 5   0  0.7263385E-02  0.6036071E+03  0.7818609E-02  0.9897951E-01
       -1   -1    0    0    0  501  0.00000000000E+00  0.00000000000E+00  0.81523620411E+02  0.81523620567E+02  0.50400001928E-02 0.  1.
        1   -1    0    0  501    0  0.00000000000E+00  0.00000000000E+00 -0.11172882528E+04  0.11172882528E+04  0.50400001928E-02 0. -1.
    10030    2    1    2    0    0  0.00000000000E+00  0.00000000000E+00 -0.10357646324E+04  0.11988118734E+04  0.60360710239E+03 0.  0.
        1    1    3    3  502    0 -0.79276362043E+02  0.34439816051E+02 -0.10921807070E+04  0.10955955181E+04  0.50400001928E-02 0. -1.
       -1    1    3    3    0  502  0.79276362043E+02 -0.34439816051E+02  0.56416074576E+02  0.10321635531E+03  0.50400001928E-02 0.  1.
</event>
<event>
 5   0  0.1206238E-01  0.5943696E+03  0.7818609E-02  0.9917157E-01
        2   -1    0    0  501    0  0.00000000000E+00  0.00000000000E+00  0.64741766818E+03  0.64741766819E+03  0.25500000920E-02 0. -1.
       -2   -1    0    0    0  501  0.00000000000E+00  0.00000000000E+00 -0.13641705015E+03  0.13641705018E+03  0.25500000920E-02 0.  1.
    10030    2    1    2    0    0  0.00000000000E+00  0.00000000000E+00  0.51100061803E+03  0.78383471836E+03  0.59436961067E+03 0.  0.
        5    1    3    3  502    0 -0.47122666412E+02 -0.16263251002E+03  0.57752472002E+03  0.60185278203E+03  0.46999998093E+01 0. -1.
       -5    1    3    3    0  502  0.47122666412E+02  0.16263251002E+03 -0.66524101993E+02  0.18198193633E+03  0.46999998093E+01 0.  1.
</event>
<event>
 5   0  0.1206238E-01  0.5969865E+03  0.7818609E-02  0.9911678E-01
       -2   -1    0    0    0  501  0.00000000000E+00  0.00000000000E+00  0.10226561105E+03  0.10226561108E+03  0.25500000920E-02 0. -1.
        2   -1    0    0  501    0  0.00000000000E+00  0.00000000000E+00 -0.87124313849E+03  0.87124313850E+03  0.25500000920E-02 0.  1.
    10030    2    1    2    0    0  0.00000000000E+00  0.00000000000E+00 -0.76897752745E+03  0.97350874958E+03  0.59698647203E+03 0.  0.
        5    1    3    3  502    0 -0.93921007663E+02 -0.14414053592E+03 -0.78218847102E+03  0.80089858532E+03  0.46999998093E+01 0.  1.
       -5    1    3    3    0  502  0.93921007663E+02  0.14414053592E+03  0.13210943570E+02  0.17261016426E+03  0.46999998093E+01 0. -1.
</event>
<event>
 5   0  0.1219020E-01  0.5655675E+03  0.7818609E-02  0.9979535E-01
        2   -1    0    0  501    0  0.00000000000E+00  0.00000000000E+00  0.33672796052E+03  0.33672796053E+03  0.25500000920E-02 0.  1.
       -2   -1    0    0    0  501  0.00000000000E+00  0.00000000000E+00 -0.23748144779E+03  0.23748144780E+03  0.25500000920E-02 0. -1.
    10030    2    1    2    0    0  0.00000000000E+00  0.00000000000E+00  0.99246512738E+02  0.57420940833E+03  0.56556747991E+03 0.  0.
        2    1    3    3  502    0 -0.18684234223E+03 -0.18280242464E+03  0.15915996404E+03  0.30603705898E+03  0.25500000920E-02 0.  1.
       -2    1    3    3    0  502  0.18684234223E+03  0.18280242464E+03 -0.59913451307E+02  0.26817234936E+03  0.25500000920E-02 0. -1.
</event>
<event>
 5   0  0.1219020E-01  0.6003485E+03  0.7818609E-02  0.9904683E-01
        2   -1    0    0  501    0  0.00000000000E+00  0.00000000000E+00  0.10323220234E+04  0.10323220234E+04  0.25500000920E-02 0.  1.
       -2   -1    0    0    0  501  0.00000000000E+00  0.00000000000E+00 -0.87283413222E+02  0.87283413260E+02  0.25500000920E-02 0. -1.
    10030    2    1    2    0    0  0.00000000000E+00  0.00000000000E+00  0.94503861013E+03  0.11196054366E+04  0.60034853132E+03 0.  0.
        2    1    3    3  502    0 -0.24463747465E+03 -0.17073039920E+03  0.53460275182E+03  0.61220622789E+03  0.25500000920E-02 0.  1.
       -2    1    3    3    0  502  0.24463747465E+03  0.17073039920E+03  0.41043585831E+03  0.50739920872E+03  0.25500000920E-02 0. -1.
</event>
<event>
 5   0  0.1166419E-01  0.5863157E+03  0.7818609E-02  0.9934210E-01
        2   -1    0    0  501    0  0.00000000000E+00  0.00000000000E+00  0.25591557991E+04  0.25591557991E+04  0.25500000920E-02 0.  1.
       -2   -1    0    0    0  501  0.00000000000E+00  0.00000000000E+00 -0.33581984373E+02  0.33581984470E+02  0.25500000920E-02 0. -1.
    10030    2    1    2    0    0  0.00000000000E+00  0.00000000000E+00  0.25255738147E+04  0.25927377835E+04  0.58631571761E+03 0.  0.
        1    1    3    3  502    0 -0.90808492752E+01  0.60163820368E+02  0.25309262661E+04  0.25316575423E+04  0.50400001928E-02 0.  1.
       -1    1    3    3    0  502  0.90808492752E+01 -0.60163820368E+02 -0.53524514173E+01  0.61080241211E+02  0.50400001928E-02 0. -1.
</event>
<event>
 5   0  0.7424930E-02  0.5773347E+03  0.7818609E-02  0.9953578E-01
        1   -1    0    0  501    0  0.00000000000E+00  0.00000000000E+00  0.15334994575E+03  0.15334994583E+03  0.50400001928E-02 0.  1.
       -1   -1    0    0    0  501  0.00000000000E+00  0.00000000000E+00 -0.54339000336E+03  0.54339000339E+03  0.50400001928E-02 0. -1.
    10030    2    1    2    0    0  0.00000000000E+00  0.00000000000E+00 -0.39004005762E+03  0.69673994922E+03  0.57733466056E+03 0.  0.
        3    1    3    3  502    0  0.55643769957E+01 -0.81343178107E+02  0.13916529129E+03  0.16129061788E+03  0.10100000352E+00 0.  1.
       -3    1    3    3    0  502 -0.55643769957E+01  0.81343178107E+02 -0.52920534891E+03  0.53544933134E+03  0.10100000352E+00 0. -1.
</event>
<event>
 5   0  0.7424930E-02  0.5831285E+03  0.7818609E-02  0.9941041E-01
        1   -1    0    0  501    0  0.00000000000E+00  0.00000000000E+00  0.70602412613E+03  0.70602412615E+03  0.50400001928E-02 0. -1.
       -1   -1    0    0    0  501  0.00000000000E+00  0.00000000000E+00 -0.12040625940E+03  0.12040625950E+03  0.50400001928E-02 0.  1.
    10030    2    1    2    0    0  0.00000000000E+00  0.00000000000E+00  0.58561786674E+03  0.82643038565E+03  0.58312854199E+03 0.  0.
        3    1    3    3  502    0 -0.11393688227E+03 -0.23007678265E+03  0.96980160082E+02  0.27444872145E+03  0.10100000352E+00 0.  1.
       -3    1    3    3    0  502  0.11393688227E+03  0.23007678265E+03  0.48863770665E+03  0.55198166421E+03  0.10100000352E+00 0. -1.
</event>
<event>
 5   0  0.4695625E-02  0.5934929E+03  0.7818609E-02  0.9918999E-01
        3   -1    0    0  501    0  0.00000000000E+00  0.00000000000E+00  0.26221629951E+03  0.26221631896E+03  0.10100000352E+00 0. -1.
       -3   -1    0    0    0  501  0.00000000000E+00  0.00000000000E+00 -0.33582373534E+03  0.33582375053E+03  0.10100000352E+00 0.  1.
    10030    2    1    2    0    0  0.00000000000E+00  0.00000000000E+00 -0.73607435831E+02  0.59804006949E+03  0.59349294023E+03 0.  0.
        4    1    3    3  502    0 -0.27275514656E+03 -0.77101574143E+02 -0.12532225876E+03  0.30991499504E+03  0.12699999809E+01 0.  1.
       -4    1    3    3    0  502  0.27275514656E+03  0.77101574143E+02  0.51714822933E+02  0.28812507444E+03  0.12699999809E+01 0. -1.
</event>
<event>
 5   0  0.1175861E-01  0.6047341E+03  0.7818609E-02  0.9895633E-01
        2   -1    0    0  501    0  0.00000000000E+00  0.00000000000E+00  0.14859646951E+03  0.14859646953E+03  0.25500000920E-02 0.  1.
       -2   -1    0    0    0  501  0.00000000000E+00  0.00000000000E+00 -0.61526255145E+03  0.61526255145E+03  0.25500000920E-02 0. -1.
    10030    2    1    2    0    0  0.00000000000E+00  0.00000000000E+00 -0.46666608194E+03  0.76385902098E+03  0.60473413324E+03 0.  0.
        3    1    3    3  502    0  0.42922532257E+02 -0.28843319631E+03 -0.33430288639E+03  0.44361524158E+03  0.10100000352E+00 0.  1.
       -3    1    3    3    0  502 -0.42922532257E+02  0.28843319631E+03 -0.13236319555E+03  0.32024377940E+03  0.10100000352E+00 0. -1.
</event>
<event>
 5   0  0.7263385E-02  0.6097359E+03  0.7818609E-02  0.9885411E-01
       -1   -1    0    0    0  501  0.00000000000E+00  0.00000000000E+00  0.11966246801E+03  0.11966246811E+03  0.50400001928E-02 0.  1.
        1   -1    0    0  501    0  0.00000000000E+00  0.00000000000E+00 -0.77672188903E+03  0.77672188905E+03  0.50400001928E-02 0. -1.
    10030    2    1    2    0    0  0.00000000000E+00  0.00000000000E+00 -0.65705942102E+03  0.89638435716E+03  0.60973587151E+03 0.  0.
        1    1    3    3  502    0  0.21386423323E+03 -0.47010729267E+02 -0.64037707630E+03  0.67677966784E+03  0.50400001928E-02 0. -1.
       -1    1    3    3    0  502 -0.21386423323E+03  0.47010729267E+02 -0.16682344719E+02  0.21960468932E+03  0.50400001928E-02 0.  1.
</event>
<event>
 5   0  0.1219020E-01  0.5927627E+03  0.7818609E-02  0.9920536E-01
        2   -1    0    0  501    0  0.00000000000E+00  0.00000000000E+00  0.11700153231E+04  0.11700153231E+04  0.25500000920E-02 0.  1.
       -2   -1    0    0    0  501  0.00000000000E+00  0.00000000000E+00 -0.75077565647E+02  0.75077565690E+02  0.25500000920E-02 0. -1.
    10030    2    1    2    0    0  0.00000000000E+00  0.00000000000E+00  0.10949377574E+04  0.12450928888E+04  0.59276269199E+03 0.  0.
        2    1    3    3  502    0  0.29040688258E+03 -0.59734327254E+01  0.42373473293E+03  0.51373433139E+03  0.25500000920E-02 0.  1.
       -2    1    3    3    0  502 -0.29040688258E+03  0.59734327254E+01  0.67120302449E+03  0.73135855737E+03  0.25500000920E-02 0. -1.
</event>
<event>
 5   0  0.7266519E-02  0.6045497E+03  0.7818609E-02  0.9896012E-01
        1   -1    0    0  501    0  0.00000000000E+00  0.00000000000E+00  0.10425566354E+04  0.10425566354E+04  0.50400001928E-02 0. -1.
       -1   -1    0    0    0  501  0.00000000000E+00  0.00000000000E+00 -0.87640407677E+02  0.87640407822E+02  0.50400001928E-02 0.  1.
    10030    2    1    2    0    0  0.00000000000E+00  0.00000000000E+00  0.95491622770E+03  0.11301970432E+04  0.60454971223E+03 0.  0.
        4    1    3    3  502    0 -0.29808274669E+03 -0.47522921484E+02  0.50741214047E+03  0.59040701651E+03  0.12699999809E+01 0. -1.
       -4    1    3    3    0  502  0.29808274669E+03  0.47522921484E+02  0.44750408723E+03  0.53979002670E+03  0.12699999809E+01 0.  1.
</event>
<event>
 5   0  0.7263385E-02  0.5820877E+03  0.7818609E-02  0.9943281E-01
       -1   -1    0    0    0  501  0.00000000000E+00  0.00000000000E+00  0.20447279706E+03  0.20447279712E+03  0.50400001928E-02 0.  1.
        1   -1    0    0  501    0  0.00000000000E+00  0.00000000000E+00 -0.41426798886E+03  0.41426798889E+03  0.50400001928E-02 0. -1.
    10030    2    1    2    0    0  0.00000000000E+00  0.00000000000E+00 -0.20979519180E+03  0.61874078601E+03  0.58208774061E+03 0.  0.
        1    1    3    3  502    0 -0.12992296890E+03 -0.52092570395E+02 -0.37613768613E+03  0.40133922396E+03  0.50400001928E-02 0. -1.
       -1    1    3    3    0  502  0.12992296890E+03  0.52092570395E+02  0.16634249433E+03  0.21740156205E+03  0.50400001928E-02 0.  1.
</event>
<event>
 5   0  0.7123340E-02  0.5956967E+03  0.7818609E-02  0.9914374E-01
       -1   -1    0    0    0  501  0.00000000000E+00  0.00000000000E+00  0.67089237875E+03  0.67089237877E+03  0.50400001928E-02 0. -1.
        1   -1    0    0  501    0  0.00000000000E+00  0.00000000000E+00 -0.13223229712E+03  0.13223229722E+03  0.50400001928E-02 0.  1.
    10030    2    1    2    0    0  0.00000000000E+00  0.00000000000E+00  0.53866008162E+03  0.80312467599E+03  0.59569670273E+03 0.  0.
        2    1    3    3  502    0  0.24637609207E+03 -0.14427215691E+03  0.15494640740E+03  0.32484461390E+03  0.25500000920E-02 0. -1.
       -2    1    3    3    0  502 -0.24637609207E+03  0.14427215691E+03  0.38371367422E+03  0.47828006209E+03  0.25500000920E-02 0.  1.
</event>
<event>
 5   0  0.7424930E-02  0.5814245E+03  0.7818609E-02  0.9944712E-01
       -1   -1    0    0    0  501  0.00000000000E+00  0.00000000000E+00  0.15673442598E+03  0.15673442606E+03  0.50400001928E-02 0. -1.
        1   -1    0    0  501    0  0.00000000000E+00  0.00000000000E+00 -0.53921543539E+03  0.53921543541E+03  0.50400001928E-02 0.  1.
    10030    2    1    2    0    0  0.00000000000E+00  0.00000000000E+00 -0.38248100941E+03  0.69594986147E+03  0.58142453261E+03 0.  0.
        3    1    3    3  502    0  0.18442933656E+03 -0.79438274542E+02  0.60377461358E+02  0.20969040915E+03  0.10100000352E+00 0. -1.
       -3    1    3    3    0  502 -0.18442933656E+03  0.79438274542E+02 -0.44285847077E+03  0.48625945233E+03  0.10100000352E+00 0.  1.
</event>
<event>
 5   0  0.1146468E-01  0.5883692E+03  0.7818609E-02  0.9929835E-01
        2   -1    0    0  501    0  0.00000000000E+00  0.00000000000E+00  0.66705711995E+03  0.66705711996E+03  0.25500000920E-02 0.  1.
       -2   -1    0    0    0  501  0.00000000000E+00  0.00000000000E+00 -0.12974086515E+03  0.12974086518E+03  0.25500000920E-02 0. -1.
    10030    2    1    2    0    0  0.00000000000E+00  0.00000000000E+00  0.53731625480E+03  0.79679798513E+03  0.58836916255E+03 0.  0.
        4    1    3    3  502    0 -0.13411645029E+03  0.25766910443E+03  0.20568389811E+03  0.35593267405E+03  0.12699999809E+01 0. -1.
       -4    1    3    3    0  502  0.13411645029E+03 -0.25766910443E+03  0.33163235669E+03  0.44086531109E+03  0.12699999809E+01 0.  1.
</event>
<event>
 5   0  0.1146468E-01  0.6395999E+03  0.7818609E-02  0.9826492E-01
       -2   -1    0    0    0  501  0.00000000000E+00  0.00000000000E+00  0.76827590461E+02  0.76827590504E+02  0.25500000920E-02 0. -1.
        2   -1    0    0  501    0  0.00000000000E+00  0.00000000000E+00 -0.13311887356E+04  0.13311887356E+04  0.25500000920E-02 0.  1.
    10030    2    1    2    0    0  0.00000000000E+00  0.00000000000E+00 -0.12543611451E+04  0.14080163261E+04  0.63959994695E+03 0.  0.
        4    1    3    3  502    0  0.15742000910E+03 -0.21981038318E+03 -0.25118049961E+03  0.36904053991E+03  0.12699999809E+01 0. -1.
       -4    1    3    3    0  502 -0.15742000910E+03  0.21981038318E+03 -0.10031806455E+04  0.10389757862E+04  0.12699999809E+01 0.  1.
</event>
<event>
 5   0  0.7123340E-02  0.5865891E+03  0.7818609E-02  0.9933627E-01
        1   -1    0    0  501    0  0.00000000000E+00  0.00000000000E+00  0.14252849975E+03  0.14252849984E+03  0.50400001928E-02 0. -1.
       -1   -1    0    0    0  501  0.00000000000E+00  0.00000000000E+00 -0.60354030034E+03  0.60354030036E+03  0.50400001928E-02 0.  1.
    10030    2    1    2    0    0  0.00000000000E+00  0.00000000000E+00 -0.46101180059E+03  0.74606880020E+03  0.58658910180E+03 0.  0.
        2    1    3    3  502    0 -0.25489675805E+02  0.94595709915E+02  0.12110205778E+03  0.15576835465E+03  0.25500000920E-02 0. -1.
       -2    1    3    3    0  502  0.25489675805E+02 -0.94595709915E+02 -0.58211385837E+03  0.59030044555E+03  0.25500000920E-02 0.  1.
</event>
<event>
 5   0  0.1146468E-01  0.5962510E+03  0.7818609E-02  0.9913215E-01
        2   -1    0    0  501    0  0.00000000000E+00  0.00000000000E+00  0.13793126201E+04  0.13793126201E+04  0.25500000920E-02 0. -1.
       -2   -1    0    0    0  501  0.00000000000E+00  0.00000000000E+00 -0.64437043785E+02  0.64437043836E+02  0.25500000920E-02 0.  1.
    10030    2    1    2    0    0  0.00000000000E+00  0.00000000000E+00  0.13148755763E+04  0.14437496639E+04  0.59625104690E+03 0.  0.
        4    1    3    3  502    0  0.23007387131E+03  0.18894949920E+03  0.61982329683E+03  0.68761794021E+03  0.12699999809E+01 0.  1.
       -4    1    3    3    0  502 -0.23007387131E+03 -0.18894949920E+03  0.69505227947E+03  0.75613172371E+03  0.12699999809E+01 0. -1.
</event>
<event>
 5   0  0.1166419E-01  0.5979307E+03  0.7818609E-02  0.9909709E-01
        2   -1    0    0  501    0  0.00000000000E+00  0.00000000000E+00  0.52563863245E+03  0.52563863246E+03  0.25500000920E-02 0. -1.
       -2   -1    0    0    0  501  0.00000000000E+00  0.00000000000E+00 -0.17004128729E+03  0.17004128731E+03  0.25500000920E-02 0.  1.
    10030    2    1    2    0    0  0.00000000000E+00  0.00000000000E+00  0.35559734515E+03  0.69567991977E+03  0.59793066395E+03 0.  0.
        1    1    3    3  502    0  0.24164200375E+02  0.41971605245E+02  0.52104426851E+03  0.52329021967E+03  0.50400001928E-02 0. -1.
       -1    1    3    3    0  502 -0.24164200375E+02 -0.41971605245E+02 -0.16544692336E+03  0.17238970010E+03  0.50400001928E-02 0.  1.
</event>
<event>
 5   0  0.4695625E-02  0.5948853E+03  0.7818609E-02  0.9916075E-01
       -3   -1    0    0    0  501  0.00000000000E+00  0.00000000000E+00  0.36482720836E+03  0.36482722234E+03  0.10100000352E+00 0. -1.
        3   -1    0    0  501    0  0.00000000000E+00  0.00000000000E+00 -0.24250419470E+03  0.24250421574E+03  0.10100000352E+00 0.  1.
    10030    2    1    2    0    0  0.00000000000E+00  0.00000000000E+00  0.12232301365E+03  0.60733143807E+03  0.59488533013E+03 0.  0.
        3    1    3    3  502    0  0.19753551915E+03  0.76289586358E+02  0.27441384514E+03  0.34661700898E+03  0.10100000352E+00 0. -1.
       -3    1    3    3    0  502 -0.19753551915E+03 -0.76289586358E+02 -0.15209083149E+03  0.26071442909E+03  0.10100000352E+00 0.  1.
</event>
<event>
 5   0  0.1146468E-01  0.5865724E+03  0.7818609E-02  0.9933662E-01
        2   -1    0    0  501    0  0.00000000000E+00  0.00000000000E+00  0.14975310963E+04  0.14975310963E+04  0.25500000920E-02 0. -1.
       -2   -1    0    0    0  501  0.00000000000E+00  0.00000000000E+00 -0.57439063944E+02  0.57439064000E+02  0.25500000920E-02 0.  1.
    10030    2    1    2    0    0  0.00000000000E+00  0.00000000000E+00  0.14400920323E+04  0.15549701603E+04  0.58657236363E+03 0.  0.
        4    1    3    3  502    0 -0.14747030587E+02 -0.23303121098E+03  0.24959391007E+03  0.34178904758E+03  0.12699999809E+01 0.  1.
       -4    1    3    3    0  502  0.14747030587E+02  0.23303121098E+03  0.11904981223E+04  0.12131811127E+04  0.12699999809E+01 0. -1.
</event>
<event>
 5   0  0.7424930E-02  0.5360012E+03  0.7818609E-02  0.1004787E+00
        1   -1    0    0  501    0  0.00000000000E+00  0.00000000000E+00  0.86457075443E+03  0.86457075444E+03  0.50400001928E-02 0.  1.
       -1   -1    0    0    0  501  0.00000000000E+00  0.00000000000E+00 -0.83075126365E+02  0.83075126518E+02  0.50400001928E-02 0. -1.
    10030    2    1    2    0    0  0.00000000000E+00  0.00000000000E+00  0.78149562806E+03  0.94764588096E+03  0.53600121177E+03 0.  0.
        3    1    3    3  502    0 -0.22017475199E+03  0.14961795236E+03  0.33591550027E+03  0.42860434740E+03  0.10100000352E+00 0. -1.
       -3    1    3    3    0  502  0.22017475199E+03 -0.14961795236E+03  0.44558012779E+03  0.51904153356E+03  0.10100000352E+00 0.  1.
</event>
<event>
 5   0  0.1206238E-01  0.6029811E+03  0.7818609E-02  0.9899240E-01
       -2   -1    0    0    0  501  0.00000000000E+00  0.00000000000E+00  0.19113426011E+03  0.19113426013E+03  0.25500000920E-02 0. -1.
        2   -1    0    0  501    0  0.00000000000E+00  0.00000000000E+00 -0.47556386907E+03  0.47556386908E+03  0.25500000920E-02 0.  1.
    10030    2    1    2    0    0  0.00000000000E+00  0.00000000000E+00 -0.28442960896E+03  0.66669812920E+03  0.60298108845E+03 0.  0.
        5    1    3    3  502    0  0.18858127928E+02  0.16177996861E+03  0.13825529083E+03  0.21369371229E+03  0.46999998093E+01 0. -1.
       -5    1    3    3    0  502 -0.18858127928E+02 -0.16177996861E+03 -0.42268489979E+03  0.45300441691E+03  0.46999998093E+01 0.  1.
</event>
<event>
 5   0  0.7424930E-02  0.5949461E+03  0.7818609E-02  0.9915947E-01
       -1   -1    0    0    0  501  0.00000000000E+00  0.00000000000E+00  0.39565475177E+02  0.39565475498E+02  0.50400001928E-02 0. -1.
        1   -1    0    0  501    0  0.00000000000E+00  0.00000000000E+00 -0.22365512950E+04  0.22365512950E+04  0.50400001928E-02 0.  1.
    10030    2    1    2    0    0  0.00000000000E+00  0.00000000000E+00 -0.21969858198E+04  0.22761167705E+04  0.59494609879E+03 0.  0.
        3    1    3    3  502    0  0.21170404970E+02  0.25358506839E+03 -0.16879150781E+04  0.17069888382E+04  0.10100000352E+00 0.  1.
       -3    1    3    3    0  502 -0.21170404970E+02 -0.25358506839E+03 -0.50907074177E+03  0.56912793227E+03  0.10100000352E+00 0. -1.
</event>
<event>
 5   0  0.7424930E-02  0.5926343E+03  0.7818609E-02  0.9920806E-01
       -1   -1    0    0    0  501  0.00000000000E+00  0.00000000000E+00  0.15925459193E+03  0.15925459201E+03  0.50400001928E-02 0.  1.
        1   -1    0    0  501    0  0.00000000000E+00  0.00000000000E+00 -0.55134270997E+03  0.55134270999E+03  0.50400001928E-02 0. -1.
    10030    2    1    2    0    0  0.00000000000E+00  0.00000000000E+00 -0.39208811804E+03  0.71059730201E+03  0.59263431668E+03 0.  0.
        3    1    3    3  502    0 -0.80755140984E+02 -0.18834092461E+03  0.60591967308E+02  0.21369392453E+03  0.10100000352E+00 0.  1.
       -3    1    3    3    0  502  0.80755140984E+02  0.18834092461E+03 -0.45268008535E+03  0.49690337748E+03  0.10100000352E+00 0. -1.
</event>
<event>
 5   0  0.1175861E-01  0.6008919E+03  0.7818609E-02  0.9903557E-01
        2   -1    0    0  501    0  0.00000000000E+00  0.00000000000E+00  0.18109082157E+04  0.18109082157E+04  0.25500000920E-02 0.  1.
       -2   -1    0    0    0  501  0.00000000000E+00  0.00000000000E+00 -0.49846678025E+02  0.49846678091E+02  0.25500000920E-02 0. -1.
    10030    2    1    2    0    0  0.00000000000E+00  0.00000000000E+00  0.17610615377E+04  0.18607548938E+04  0.60089186656E+03 0.  0.
        3    1    3    3  502    0 -0.23227462488E+03  0.16483637081E+03  0.11766658636E+04  0.12106465608E+04  0.10100000352E+00 0.  1.
       -3    1    3    3    0  502  0.23227462488E+03 -0.16483637081E+03  0.58439567412E+03  0.65010833300E+03  0.10100000352E+00 0. -1.
</event>
<event>
 5   0  0.7263385E-02  0.5848827E+03  0.7818609E-02  0.9937276E-01
       -1   -1    0    0    0  501  0.00000000000E+00  0.00000000000E+00  0.29008583158E+03  0.29008583162E+03  0.50400001928E-02 0.  1.
        1   -1    0    0  501    0  0.00000000000E+00  0.00000000000E+00 -0.29481595622E+03  0.29481595626E+03  0.50400001928E-02 0. -1.
    10030    2    1    2    0    0  0.00000000000E+00  0.00000000000E+00 -0.47301246380E+01  0.58490178788E+03  0.58488266122E+03 0.  0.
        1    1    3    3  502    0  0.13930409990E+03  0.17341697955E+03 -0.19222081846E+03  0.29398626519E+03  0.50400001928E-02 0. -1.
       -1    1    3    3    0  502 -0.13930409990E+03 -0.17341697955E+03  0.18749069383E+03  0.29091552269E+03  0.50400001928E-02 0.  1.
</event>
<event>
 5   0  0.7266519E-02  0.6016952E+03  0.7818609E-02  0.9901895E-01
       -1   -1    0    0    0  501  0.00000000000E+00  0.00000000000E+00  0.21304810654E+03  0.21304810660E+03  0.50400001928E-02 0.  1.
        1   -1    0    0  501    0  0.00000000000E+00  0.00000000000E+00 -0.42483026258E+03  0.42483026261E+03  0.50400001928E-02 0. -1.
    10030    2    1    2    0    0  0.00000000000E+00  0.00000000000E+00 -0.21178215604E+03  0.63787836920E+03  0.60169521544E+03 0.  0.
        4    1    3    3  502    0 -0.25907595710E+03 -0.86114296235E+02 -0.23986990259E+03  0.36342152747E+03  0.12699999809E+01 0.  1.
       -4    1    3    3    0  502  0.25907595710E+03  0.86114296235E+02  0.28087746548E+02  0.27445684173E+03  0.12699999809E+01 0. -1.
</event>
<event>
 5   0  0.7221069E-02  0.6110848E+03  0.7818609E-02  0.9882672E-01
       -1   -1    0    0    0  501  0.00000000000E+00  0.00000000000E+00  0.13736830644E+03  0.13736830653E+03  0.50400001928E-02 0.  1.
        1   -1    0    0  501    0  0.00000000000E+00  0.00000000000E+00 -0.67960486386E+03  0.67960486388E+03  0.50400001928E-02 0. -1.
    10030    2    1    2    0    0  0.00000000000E+00  0.00000000000E+00 -0.54223655742E+03  0.81697317041E+03  0.61108483614E+03 0.  0.
        5    1    3    3  502    0 -0.85041432029E+02  0.84691741238E+02  0.10448167621E+03  0.15919562449E+03  0.46999998093E+01 0.  1.
       -5    1    3    3    0  502  0.85041432029E+02 -0.84691741238E+02 -0.64671823363E+03  0.65777754591E+03  0.46999998093E+01 0. -1.
</event>
<event>
 5   0  0.4695625E-02  0.6003003E+03  0.7818609E-02  0.9904783E-01
        3   -1    0    0  501    0  0.00000000000E+00  0.00000000000E+00  0.34827446828E+03  0.34827448293E+03  0.10100000352E+00 0.  1.
       -3   -1    0    0    0  501  0.00000000000E+00  0.00000000000E+00 -0.25867562667E+03  0.25867564639E+03  0.10100000352E+00 0. -1.
    10030    2    1    2    0    0  0.00000000000E+00  0.00000000000E+00  0.89598841609E+02  0.60695012932E+03  0.60030034738E+03 0.  0.
        5    1    3    3  502    0 -0.15422734943E+03 -0.11123424377E+03  0.27955432121E+03  0.33812991705E+03  0.46999998093E+01 0.  1.
       -5    1    3    3    0  502  0.15422734943E+03  0.11123424377E+03 -0.18995547960E+03  0.26882021227E+03  0.46999998093E+01 0. -1.
</event>
<event>
 5   0  0.7266519E-02  0.5945940E+03  0.7818609E-02  0.9916686E-01
       -1   -1    0    0    0  501  0.00000000000E+00  0.00000000000E+00  0.31527124733E+03  0.31527124737E+03  0.50400001928E-02 0.  1.
        1   -1    0    0  501    0  0.00000000000E+00  0.00000000000E+00 -0.28034747216E+03  0.28034747221E+03  0.50400001928E-02 0. -1.
    10030    2    1    2    0    0  0.00000000000E+00  0.00000000000E+00  0.34923775172E+02  0.59561871958E+03  0.59459396990E+03 0.  0.
        4    1    3    3  502    0  0.12984807360E+02  0.20982956951E+03  0.22803080561E+03  0.31015595218E+03  0.12699999809E+01 0.  1.
       -4    1    3    3    0  502 -0.12984807360E+02 -0.20982956951E+03 -0.19310703044E+03  0.28546276740E+03  0.12699999809E+01 0. -1.
</event>
<event>
 5   0  0.7263385E-02  0.5895460E+03  0.7818609E-02  0.9927335E-01
       -1   -1    0    0    0  501  0.00000000000E+00  0.00000000000E+00  0.30138546495E+03  0.30138546500E+03  0.50400001928E-02 0. -1.
        1   -1    0    0  501    0  0.00000000000E+00  0.00000000000E+00 -0.28830556766E+03  0.28830556770E+03  0.50400001928E-02 0.  1.
    10030    2    1    2    0    0  0.00000000000E+00  0.00000000000E+00  0.13079897296E+02  0.58969103270E+03  0.58954595269E+03 0.  0.
        1    1    3    3  502    0  0.18962739442E+03  0.22426834253E+03  0.31770536827E+02  0.29540515434E+03  0.50400001928E-02 0. -1.
       -1    1    3    3    0  502 -0.18962739442E+03 -0.22426834253E+03 -0.18690639530E+02  0.29428587836E+03  0.50400001928E-02 0.  1.
</event>
<event>
 5   0  0.1146468E-01  0.5834420E+03  0.7818609E-02  0.9940367E-01
       -2   -1    0    0    0  501  0.00000000000E+00  0.00000000000E+00  0.88763785280E+02  0.88763785316E+02  0.25500000920E-02 0.  1.
        2   -1    0    0  501    0  0.00000000000E+00  0.00000000000E+00 -0.95873712152E+03  0.95873712153E+03  0.25500000920E-02 0. -1.
    10030    2    1    2    0    0  0.00000000000E+00  0.00000000000E+00 -0.86997333625E+03  0.10475009068E+04  0.58344198003E+03 0.  0.
        4    1    3    3  502    0 -0.19379278571E+03 -0.17323298821E+02 -0.82522422548E+03  0.84785162363E+03  0.12699999809E+01 0. -1.
       -4    1    3    3    0  502  0.19379278571E+03  0.17323298821E+02 -0.44749110769E+02  0.19964928322E+03  0.12699999809E+01 0.  1.
</event>
<event>
 5   0  0.7266519E-02  0.5997675E+03  0.7818609E-02  0.9905888E-01
       -1   -1    0    0    0  501  0.00000000000E+00  0.00000000000E+00  0.13723977000E+03  0.13723977009E+03  0.50400001928E-02 0. -1.
        1   -1    0    0  501    0  0.00000000000E+00  0.00000000000E+00 -0.65527852344E+03  0.65527852346E+03  0.50400001928E-02 0.  1.
    10030    2    1    2    0    0  0.00000000000E+00  0.00000000000E+00 -0.51803875344E+03  0.79251829355E+03  0.59976753459E+03 0.  0.
        4    1    3    3  502    0  0.26559772688E+03  0.50752015824E+02 -0.87694757533E+02  0.28427082691E+03  0.12699999809E+01 0. -1.
       -4    1    3    3    0  502 -0.26559772688E+03 -0.50752015824E+02 -0.43034399591E+03  0.50824746664E+03  0.12699999809E+01 0.  1.
</event>
<event>
 5   0  0.7266519E-02  0.6095489E+03  0.7818609E-02  0.9885791E-01
       -1   -1    0    0    0  501  0.00000000000E+00  0.00000000000E+00  0.13896345746E+03  0.13896345756E+03  0.50400001928E-02 0. -1.
        1   -1    0    0  501    0  0.00000000000E+00  0.00000000000E+00 -0.66843087872E+03  0.66843087873E+03  0.50400001928E-02 0.  1.
    10030    2    1    2    0    0  0.00000000000E+00  0.00000000000E+00 -0.52946742125E+03  0.80739433629E+03  0.60954890214E+03 0.  0.
        4    1    3    3  502    0 -0.22592599702E+03  0.26448938665E+02 -0.53340984106E+03  0.57988772527E+03  0.12699999809E+01 0.  1.
       -4    1    3    3    0  502  0.22592599702E+03 -0.26448938665E+02  0.39424198046E+01  0.22750661102E+03  0.12699999809E+01 0. -1.
</event>
<event>
 5   0  0.7424930E-02  0.6017540E+03  0.7818609E-02  0.9901774E-01
        1   -1    0    0  501    0  0.00000000000E+00  0.00000000000E+00  0.42263409235E+03  0.42263409238E+03  0.50400001928E-02 0. -1.
       -1   -1    0    0    0  501  0.00000000000E+00  0.00000000000E+00 -0.21419701732E+03  0.21419701738E+03  0.50400001928E-02 0.  1.
    10030    2    1    2    0    0  0.00000000000E+00  0.00000000000E+00  0.20843707503E+03  0.63683110976E+03  0.60175397640E+03 0.  0.
        3    1    3    3  502    0  0.11930424822E+03 -0.18969308436E+03  0.31669537998E+03  0.38795997706E+03  0.10100000352E+00 0. -1.
       -3    1    3    3    0  502 -0.11930424822E+03  0.18969308436E+03 -0.10825830495E+03  0.24887113270E+03  0.10100000352E+00 0.  1.
</event>
<event>
 5   0  0.7424930E-02  0.5956829E+03  0.7818609E-02  0.9914403E-01
        1   -1    0    0  501    0  0.00000000000E+00  0.00000000000E+00  0.58603311256E+03  0.58603311259E+03  0.50400001928E-02 0. -1.
       -1   -1    0    0    0  501  0.00000000000E+00  0.00000000000E+00 -0.15137289449E+03  0.15137289458E+03  0.50400001928E-02 0.  1.
    10030    2    1    2    0    0  0.00000000000E+00  0.00000000000E+00  0.43466021807E+03  0.73740600716E+03  0.59568289738E+03 0.  0.
        3    1    3    3  502    0 -0.29400004636E+03 -0.42287022767E+02  0.24460080053E+03  0.38477757390E+03  0.10100000352E+00 0. -1.
       -3    1    3    3    0  502  0.29400004636E+03  0.42287022767E+02  0.19005941754E+03  0.35262843327E+03  0.10100000352E+00 0.  1.
</event>
<event>
 5   0  0.4695625E-02  0.6063902E+03  0.7818609E-02  0.9892237E-01
        3   -1    0    0  501    0  0.00000000000E+00  0.00000000000E+00  0.67912025871E+03  0.67912026622E+03  0.10100000352E+00 0.  1.
       -3   -1    0    0    0  501  0.00000000000E+00  0.00000000000E+00 -0.13536223517E+03  0.13536227285E+03  0.10100000352E+00 0. -1.
    10030    2    1    2    0    0  0.00000000000E+00  0.00000000000E+00  0.54375802354E+03  0.81448253908E+03  0.60639015353E+03 0.  0.
        5    1    3    3  502    0 -0.16545857224E+03  0.24947298712E+03  0.33618081106E+03  0.45016989920E+03  0.46999998093E+01 0.  1.
       -5    1    3    3    0  502  0.16545857224E+03 -0.24947298712E+03  0.20757721249E+03  0.36431263987E+03  0.46999998093E+01 0. -1.
</event>
<event>
 5   0  0.1146468E-01  0.5931866E+03  0.7818609E-02  0.9919643E-01
       -2   -1    0    0    0  501  0.00000000000E+00  0.00000000000E+00  0.19947320584E+03  0.19947320585E+03  0.25500000920E-02 0. -1.
        2   -1    0    0  501    0  0.00000000000E+00  0.00000000000E+00 -0.44099944492E+03  0.44099944493E+03  0.25500000920E-02 0.  1.
    10030    2    1    2    0    0  0.00000000000E+00  0.00000000000E+00 -0.24152623909E+03  0.64047265078E+03  0.59318655770E+03 0.  0.
        4    1    3    3  502    0 -0.12052406495E+03 -0.21903456816E+03  0.51531066188E+02  0.25526311124E+03  0.12699999809E+01 0. -1.
       -4    1    3    3    0  502  0.12052406495E+03  0.21903456816E+03 -0.29305730527E+03  0.38520953954E+03  0.12699999809E+01 0.  1.
</event>
<event>
 5   0  0.7123340E-02  0.5859481E+03  0.7818609E-02  0.9934996E-01
        1   -1    0    0  501    0  0.00000000000E+00  0.00000000000E+00  0.15405714864E+04  0.15405714864E+04  0.50400001928E-02 0.  1.
       -1   -1    0    0    0  501  0.00000000000E+00  0.00000000000E+00 -0.55715562981E+02  0.55715563209E+02  0.50400001928E-02 0. -1.
    10030    2    1    2    0    0  0.00000000000E+00  0.00000000000E+00  0.14848559234E+04  0.15962870496E+04  0.58594814742E+03 0.  0.
        2    1    3    3  502    0  0.18769599559E+02  0.12572497657E+03  0.23327638426E+02  0.12924103962E+03  0.25500000920E-02 0. -1.
       -2    1    3    3    0  502 -0.18769599559E+02 -0.12572497657E+03  0.14615282850E+04  0.14670460100E+04  0.25500000920E-02 0.  1.
</event>
<event>
 5   0  0.7266519E-02  0.6004542E+03  0.7818609E-02  0.9904464E-01
       -1   -1    0    0    0  501  0.00000000000E+00  0.00000000000E+00  0.93970306717E+02  0.93970306852E+02  0.50400001928E-02 0. -1.
        1   -1    0    0  501    0  0.00000000000E+00  0.00000000000E+00 -0.95919987776E+03  0.95919987777E+03  0.50400001928E-02 0.  1.
    10030    2    1    2    0    0  0.00000000000E+00  0.00000000000E+00 -0.86522957104E+03  0.10531701846E+04  0.60045418408E+03 0.  0.
        4    1    3    3  502    0 -0.14351694372E+03 -0.21782629546E+03 -0.17193370225E+03  0.31242314094E+03  0.12699999809E+01 0. -1.
       -4    1    3    3    0  502  0.14351694372E+03  0.21782629546E+03 -0.69329586879E+03  0.74074704368E+03  0.12699999809E+01 0.  1.
</event>
<event>
 5   0  0.1146468E-01  0.5136237E+03  0.7818609E-02  0.1010283E+00
       -2   -1    0    0    0  501  0.00000000000E+00  0.00000000000E+00  0.10209316187E+03  0.10209316190E+03  0.25500000920E-02 0.  1.
        2   -1    0    0  501    0  0.00000000000E+00  0.00000000000E+00 -0.64600144559E+03  0.64600144560E+03  0.25500000920E-02 0. -1.
    10030    2    1    2    0    0  0.00000000000E+00  0.00000000000E+00 -0.54390828372E+03  0.74809460750E+03  0.51362371505E+03 0.  0.
        4    1    3    3  502    0 -0.25350607925E+03 -0.40964371726E+02 -0.27589082450E+03  0.37690950095E+03  0.12699999809E+01 0. -1.
       -4    1    3    3    0  502  0.25350607925E+03  0.40964371726E+02 -0.26801745923E+03  0.37118510654E+03  0.12699999809E+01 0.  1.
</event>
<event>
 5   0  0.1206238E-01  0.6067886E+03  0.7818609E-02  0.9891421E-01
       -2   -1    0    0    0  501  0.00000000000E+00  0.00000000000E+00  0.30915166644E+03  0.30915166645E+03  0.25500000920E-02 0. -1.
        2   -1    0    0  501    0  0.00000000000E+00  0.00000000000E+00 -0.29774417624E+03  0.29774417625E+03  0.25500000920E-02 0.  1.
    10030    2    1    2    0    0  0.00000000000E+00  0.00000000000E+00  0.11407490204E+02  0.60689584270E+03  0.60678862304E+03 0.  0.
        5    1    3    3  502    0  0.12746543287E+03 -0.85044181899E+02 -0.25615555903E+03  0.29852589481E+03  0.46999998093E+01 0.  1.
       -5    1    3    3    0  502 -0.12746543287E+03  0.85044181899E+02  0.26756304923E+03  0.30836994789E+03  0.46999998093E+01 0. -1.
</event>
<event>
 5   0  0.7266519E-02  0.6099358E+03  0.7818609E-02  0.9885004E-01
       -1   -1    0    0    0  501  0.00000000000E+00  0.00000000000E+00  0.30079169724E+03  0.30079169728E+03  0.50400001928E-02 0.  1.
        1   -1    0    0  501    0  0.00000000000E+00  0.00000000000E+00 -0.30920208825E+03  0.30920208829E+03  0.50400001928E-02 0. -1.
    10030    2    1    2    0    0  0.00000000000E+00  0.00000000000E+00 -0.84103910097E+01  0.60999378556E+03  0.60993580297E+03 0.  0.
        4    1    3    3  502    0  0.13797252457E+01  0.20731878586E+03  0.21946942572E+03  0.30191294165E+03  0.12699999809E+01 0.  1.
       -4    1    3    3    0  502 -0.13797252457E+01 -0.20731878586E+03 -0.22787981673E+03  0.30808084391E+03  0.12699999809E+01 0. -1.
</event>
<event>
 5   0  0.1146468E-01  0.6115639E+03  0.7818609E-02  0.9881701E-01
        2   -1    0    0  501    0  0.00000000000E+00  0.00000000000E+00  0.15763800281E+04  0.15763800281E+04  0.25500000920E-02 0.  1.
       -2   -1    0    0    0  501  0.00000000000E+00  0.00000000000E+00 -0.59314750394E+02  0.59314750449E+02  0.25500000920E-02 0. -1.
    10030    2    1    2    0    0  0.00000000000E+00  0.00000000000E+00  0.15170652777E+04  0.16356947786E+04  0.61156385746E+03 0.  0.
        4    1    3    3  502    0  0.27834919676E+03 -0.77013025553E+02  0.48984821889E+03  0.56864942793E+03  0.12699999809E+01 0. -1.
       -4    1    3    3    0  502 -0.27834919676E+03  0.77013025553E+02  0.10272170588E+04  0.10670453506E+04  0.12699999809E+01 0.  1.
</event>
<event>
 5   0  0.1175861E-01  0.5632692E+03  0.7818609E-02  0.9984685E-01
        2   -1    0    0  501    0  0.00000000000E+00  0.00000000000E+00  0.27105307092E+03  0.27105307093E+03  0.25500000920E-02 0.  1.
       -2   -1    0    0    0  501  0.00000000000E+00  0.00000000000E+00 -0.29262918124E+03  0.29262918125E+03  0.25500000920E-02 0. -1.
    10030    2    1    2    0    0  0.00000000000E+00  0.00000000000E+00 -0.21576110319E+02  0.56368225219E+03  0.56326916558E+03 0.  0.
        3    1    3    3  502    0  0.85137412185E+02 -0.12633741271E+03 -0.24783411475E+03  0.29091455694E+03  0.10100000352E+00 0. -1.
       -3    1    3    3    0  502 -0.85137412185E+02  0.12633741271E+03  0.22625800443E+03  0.27276769525E+03  0.10100000352E+00 0.  1.
</event>
<event>
 5   0  0.7221069E-02  0.5977022E+03  0.7818609E-02  0.9910185E-01
       -1   -1    0    0    0  501  0.00000000000E+00  0.00000000000E+00  0.15317496915E+04  0.15317496915E+04  0.50400001928E-02 0. -1.
        1   -1    0    0  501    0  0.00000000000E+00  0.00000000000E+00 -0.58307167714E+02  0.58307167932E+02  0.50400001928E-02 0.  1.
    10030    2    1    2    0    0  0.00000000000E+00  0.00000000000E+00  0.14734425238E+04  0.15900568595E+04  0.59770222131E+03 0.  0.
        5    1    3    3  502    0 -0.24549794756E+03  0.10476170510E+03  0.10940878289E+04  0.11261858304E+04  0.46999998093E+01 0. -1.
       -5    1    3    3    0  502  0.24549794756E+03 -0.10476170510E+03  0.37935469489E+03  0.46387102911E+03  0.46999998093E+01 0.  1.
</event>
<event>
 5   0  0.1219020E-01  0.5575005E+03  0.7818609E-02  0.9997726E-01
       -2   -1    0    0    0  501  0.00000000000E+00  0.00000000000E+00  0.20792858219E+03  0.20792858221E+03  0.25500000920E-02 0. -1.
        2   -1    0    0  501    0  0.00000000000E+00  0.00000000000E+00 -0.37369413776E+03  0.37369413776E+03  0.25500000920E-02 0.  1.
    10030    2    1    2    0    0  0.00000000000E+00  0.00000000000E+00 -0.16576555556E+03  0.58162271997E+03  0.55750046545E+03 0.  0.
        2    1    3    3  502    0 -0.34725540476E+02 -0.19920123615E+03  0.11729079539E+03  0.23376083148E+03  0.25500000920E-02 0. -1.
       -2    1    3    3    0  502  0.34725540476E+02  0.19920123615E+03 -0.28305635096E+03  0.34786188849E+03  0.25500000920E-02 0.  1.
</event>
<event>
 5   0  0.7221069E-02  0.5990993E+03  0.7818609E-02  0.9907276E-01
       -1   -1    0    0    0  501  0.00000000000E+00  0.00000000000E+00  0.36945263791E+03  0.36945263795E+03  0.50400001928E-02 0.  1.
        1   -1    0    0  501    0  0.00000000000E+00  0.00000000000E+00 -0.24287280172E+03  0.24287280177E+03  0.50400001928E-02 0. -1.
    10030    2    1    2    0    0  0.00000000000E+00  0.00000000000E+00  0.12657983619E+03  0.61232543972E+03  0.59909931497E+03 0.  0.
        5    1    3    3  502    0  0.63979527107E+02  0.17286746450E+03  0.30457658734E+03  0.35604146911E+03  0.46999998093E+01 0.  1.
       -5    1    3    3    0  502 -0.63979527107E+02 -0.17286746450E+03 -0.17799675115E+03  0.25628397061E+03  0.46999998093E+01 0. -1.
</event>
<event>
 5   0  0.1219020E-01  0.6205303E+03  0.7818609E-02  0.9863705E-01
        2   -1    0    0  501    0  0.00000000000E+00  0.00000000000E+00  0.17757254707E+04  0.17757254707E+04  0.25500000920E-02 0.  1.
       -2   -1    0    0    0  501  0.00000000000E+00  0.00000000000E+00 -0.54211334845E+02  0.54211334904E+02  0.25500000920E-02 0. -1.
    10030    2    1    2    0    0  0.00000000000E+00  0.00000000000E+00  0.17215141359E+04  0.18299368056E+04  0.62053025113E+03 0.  0.
        2    1    3    3  502    0 -0.14745909449E+03  0.21125948262E+03  0.13705970294E+04  0.13946006491E+04  0.25500000920E-02 0.  1.
       -2    1    3    3    0  502  0.14745909449E+03 -0.21125948262E+03  0.35091710654E+03  0.43533615657E+03  0.25500000920E-02 0. -1.
</event>
<event>
 5   0  0.7424930E-02  0.5760730E+03  0.7818609E-02  0.9956329E-01
       -1   -1    0    0    0  501  0.00000000000E+00  0.00000000000E+00  0.17079110152E+03  0.17079110160E+03  0.50400001928E-02 0. -1.
        1   -1    0    0  501    0  0.00000000000E+00  0.00000000000E+00 -0.48576906238E+03  0.48576906240E+03  0.50400001928E-02 0.  1.
    10030    2    1    2    0    0  0.00000000000E+00  0.00000000000E+00 -0.31497796085E+03  0.65656016400E+03  0.57607302760E+03 0.  0.
        3    1    3    3  502    0  0.25160761815E+03  0.92055330865E+02 -0.36956465382E+02  0.27045585219E+03  0.10100000352E+00 0. -1.
       -3    1    3    3    0  502 -0.25160761815E+03 -0.92055330865E+02 -0.27802149547E+03  0.38610431181E+03  0.10100000352E+00 0.  1.
</event>
<event>
 5   0  0.1175861E-01  0.5962894E+03  0.7818609E-02  0.9913134E-01
        2   -1    0    0  501    0  0.00000000000E+00  0.00000000000E+00  0.83949218876E+03  0.83949218877E+03  0.25500000920E-02 0. -1.
       -2   -1    0    0    0  501  0.00000000000E+00  0.00000000000E+00 -0.10588573735E+03  0.10588573738E+03  0.25500000920E-02 0.  1.
    10030    2    1    2    0    0  0.00000000000E+00  0.00000000000E+00  0.73360645141E+03  0.94537792615E+03  0.59628935736E+03 0.  0.
        3    1    3    3  502    0  0.18817860044E+03  0.27065998949E+02  0.26826987881E+01  0.19013406069E+03  0.10100000352E+00 0.  1.
       -3    1    3    3    0  502 -0.18817860044E+03 -0.27065998949E+02  0.73092375262E+03  0.75524386546E+03  0.10100000352E+00 0. -1.
</event>
<event>
 5   0  0.7123340E-02  0.6040135E+03  0.7818609E-02  0.9897114E-01
       -1   -1    0    0    0  501  0.00000000000E+00  0.00000000000E+00  0.53875737340E+02  0.53875737576E+02  0.50400001928E-02 0.  1.
        1   -1    0    0  501    0  0.00000000000E+00  0.00000000000E+00 -0.16929342246E+04  0.16929342246E+04  0.50400001928E-02 0. -1.
    10030    2    1    2    0    0  0.00000000000E+00  0.00000000000E+00 -0.16390584872E+04  0.17468099622E+04  0.60401350922E+03 0.  0.
        2    1    3    3  502    0 -0.18788420191E+03  0.23442581829E+03 -0.73029122521E+03  0.78967158442E+03  0.25500000920E-02 0.  1.
       -2    1    3    3    0  502  0.18788420191E+03 -0.23442581829E+03 -0.90876726203E+03  0.95713837775E+03  0.25500000920E-02 0. -1.
</event>
<event>
 5   0  0.7263385E-02  0.5991822E+03  0.7818609E-02  0.9907104E-01
       -1   -1    0    0    0  501  0.00000000000E+00  0.00000000000E+00  0.44969166676E+03  0.44969166678E+03  0.50400001928E-02 0.  1.
        1   -1    0    0  501    0  0.00000000000E+00  0.00000000000E+00 -0.19959194612E+03  0.19959194618E+03  0.50400001928E-02 0. -1.
    10030    2    1    2    0    0  0.00000000000E+00  0.00000000000E+00  0.25009972064E+03  0.64928361296E+03  0.59918222587E+03 0.  0.
        1    1    3    3  502    0 -0.19624100355E+03  0.15034639514E+03  0.30843495568E+03  0.39528052307E+03  0.50400001928E-02 0.  1.
       -1    1    3    3    0  502  0.19624100355E+03 -0.15034639514E+03 -0.58335235039E+02  0.25400308990E+03  0.50400001928E-02 0. -1.
</event>
<event>
 5   0  0.1219020E-01  0.6015716E+03  0.7818609E-02  0.9902151E-01
       -2   -1    0    0    0  501  0.00000000000E+00  0.00000000000E+00  0.28100876198E+03  0.28100876199E+03  0.25500000920E-02 0. -1.
        2   -1    0    0  501    0  0.00000000000E+00  0.00000000000E+00 -0.32195469996E+03  0.32195469997E+03  0.25500000920E-02 0.  1.
    10030    2    1    2    0    0  0.00000000000E+00  0.00000000000E+00 -0.40945937979E+02  0.60296346196E+03  0.60157158063E+03 0.  0.
        2    1    3    3  502    0  0.15134804540E+02 -0.28572003112E+03  0.72516107872E+02  0.29516704491E+03  0.25500000920E-02 0.  1.
       -2    1    3    3    0  502 -0.15134804540E+02  0.28572003112E+03 -0.11346204585E+03  0.30779641705E+03  0.25500000920E-02 0. -1.
</event>
<event>
 5   0  0.7424930E-02  0.5298228E+03  0.7818609E-02  0.1006275E+00
       -1   -1    0    0    0  501  0.00000000000E+00  0.00000000000E+00  0.96337084103E+02  0.96337084235E+02  0.50400001928E-02 0.  1.
        1   -1    0    0  501    0  0.00000000000E+00  0.00000000000E+00 -0.72846359099E+03  0.72846359101E+03  0.50400001928E-02 0. -1.
    10030    2    1    2    0    0  0.00000000000E+00  0.00000000000E+00 -0.63212650689E+03  0.82480067524E+03  0.52982283187E+03 0.  0.
        3    1    3    3  502    0  0.20931823529E+03 -0.32569143394E+02 -0.56369473210E+03  0.60218488351E+03  0.10100000352E+00 0. -1.
       -3    1    3    3    0  502 -0.20931823529E+03  0.32569143394E+02 -0.68431774784E+02  0.22261579173E+03  0.10100000352E+00 0.  1.
</event>
<event>
 5   0  0.1146468E-01  0.5949585E+03  0.7818609E-02  0.9915921E-01
       -2   -1    0    0    0  501  0.00000000000E+00  0.00000000000E+00  0.61516580394E+02  0.61516580447E+02  0.25500000920E-02 0. -1.
        2   -1    0    0  501    0  0.00000000000E+00  0.00000000000E+00 -0.14385374589E+04  0.14385374589E+04  0.25500000920E-02 0.  1.
    10030    2    1    2    0    0  0.00000000000E+00  0.00000000000E+00 -0.13770208785E+04  0.15000540393E+04  0.59495850370E+03 0.  0.
        4    1    3    3  502    0  0.17291894849E+02 -0.12320266691E+03 -0.13697885668E+04  0.13754272926E+04  0.12699999809E+01 0.  1.
       -4    1    3    3    0  502 -0.17291894849E+02  0.12320266691E+03 -0.72323117222E+01  0.12462674670E+03  0.12699999809E+01 0. -1.
</event>
<event>
 5   0  0.1175861E-01  0.6704072E+03  0.7818609E-02  0.9769223E-01
       -2   -1    0    0    0  501  0.00000000000E+00  0.00000000000E+00  0.89770181058E+02  0.89770181095E+02  0.25500000920E-02 0. -1.
        2   -1    0    0  501    0  0.00000000000E+00  0.00000000000E+00 -0.12516565990E+04  0.12516565990E+04  0.25500000920E-02 0.  1.
    10030    2    1    2    0    0  0.00000000000E+00  0.00000000000E+00 -0.11618864180E+04  0.13414267801E+04  0.67040715850E+03 0.  0.
        3    1    3    3  502    0 -0.16886282434E+03 -0.65160073624E+02 -0.11454737334E+04  0.11596855491E+04  0.10100000352E+00 0.  1.
       -3    1    3    3    0  502  0.16886282434E+03  0.65160073624E+02 -0.16412684548E+02  0.18174123102E+03  0.10100000352E+00 0. -1.
</event>
<event>
 5   0  0.1206238E-01  0.6311338E+03  0.7818609E-02  0.9842839E-01
       -2   -1    0    0    0  501  0.00000000000E+00  0.00000000000E+00  0.53860719286E+03  0.53860719286E+03  0.25500000920E-02 0. -1.
        2   -1    0    0  501    0  0.00000000000E+00  0.00000000000E+00 -0.18488885547E+03  0.18488885549E+03  0.25500000920E-02 0.  1.
    10030    2    1    2    0    0  0.00000000000E+00  0.00000000000E+00  0.35371833738E+03  0.72349604835E+03  0.63113379705E+03 0.  0.
        5    1    3    3  502    0  0.84120551018E+02  0.29055550943E+03  0.27978526897E+03  0.41206875384E+03  0.46999998093E+01 0. -1.
       -5    1    3    3    0  502 -0.84120551018E+02 -0.29055550943E+03  0.73933068409E+02  0.31142729451E+03  0.46999998093E+01 0.  1.
</event>
<event>
 5   0  0.7266519E-02  0.6102977E+03  0.7818609E-02  0.9884269E-01
        1   -1    0    0  501    0  0.00000000000E+00  0.00000000000E+00  0.71722657620E+03  0.71722657622E+03  0.50400001928E-02 0. -1.
       -1   -1    0    0    0  501  0.00000000000E+00  0.00000000000E+00 -0.12982763909E+03  0.12982763919E+03  0.50400001928E-02 0.  1.
    10030    2    1    2    0    0  0.00000000000E+00  0.00000000000E+00  0.58739893711E+03  0.84705421541E+03  0.61029774088E+03 0.  0.
        4    1    3    3  502    0  0.33215024085E+02 -0.18547828188E+03 -0.39430589174E+02  0.19251445436E+03  0.12699999809E+01 0.  1.
       -4    1    3    3    0  502 -0.33215024085E+02  0.18547828188E+03  0.62682952628E+03  0.65453976105E+03  0.12699999809E+01 0. -1.
</event>
<event>
 5   0  0.7263385E-02  0.6031442E+03  0.7818609E-02  0.9898904E-01
        1   -1    0    0  501    0  0.00000000000E+00  0.00000000000E+00  0.81808197402E+03  0.81808197403E+03  0.50400001928E-02 0.  1.
       -1   -1    0    0    0  501  0.00000000000E+00  0.00000000000E+00 -0.11116944440E+03  0.11116944452E+03  0.50400001928E-02 0. -1.
    10030    2    1    2    0    0  0.00000000000E+00  0.00000000000E+00  0.70691252961E+03  0.92925141855E+03  0.60314415719E+03 0.  0.
        1    1    3    3  502    0  0.13825019302E+03 -0.12304668264E+03  0.72029352694E+03  0.74369104268E+03  0.50400001928E-02 0.  1.
       -1    1    3    3    0  502 -0.13825019302E+03  0.12304668264E+03 -0.13380997332E+02  0.18556037587E+03  0.50400001928E-02 0. -1.
</event>
<event>
 5   0  0.7221069E-02  0.5523529E+03  0.7818609E-02  0.1000951E+00
       -1   -1    0    0    0  501  0.00000000000E+00  0.00000000000E+00  0.11919375180E+03  0.11919375190E+03  0.50400001928E-02 0.  1.
        1   -1    0    0  501    0  0.00000000000E+00  0.00000000000E+00 -0.63991140805E+03  0.63991140807E+03  0.50400001928E-02 0. -1.
    10030    2    1    2    0    0  0.00000000000E+00  0.00000000000E+00 -0.52071765625E+03  0.75910515997E+03  0.55235293641E+03 0.  0.
        5    1    3    3  502    0 -0.24304061798E+03 -0.67523527719E+02 -0.10595085852E+03  0.27363450660E+03  0.46999998093E+01 0.  1.
       -5    1    3    3    0  502  0.24304061798E+03  0.67523527719E+02 -0.41476679773E+03  0.48547065337E+03  0.46999998093E+01 0. -1.
</event>
<event>
 5   0  0.1146468E-01  0.5986988E+03  0.7818609E-02  0.9908109E-01
       -2   -1    0    0    0  501  0.00000000000E+00  0.00000000000E+00  0.14720286261E+03  0.14720286263E+03  0.25500000920E-02 0. -1.
        2   -1    0    0  501    0  0.00000000000E+00  0.00000000000E+00 -0.60875215897E+03  0.60875215897E+03  0.25500000920E-02 0.  1.
    10030    2    1    2    0    0  0.00000000000E+00  0.00000000000E+00 -0.46154929636E+03  0.75595502160E+03  0.59869879048E+03 0.  0.
        4    1    3    3  502    0 -0.42211337755E+02  0.19978993730E+03 -0.50715268201E+03  0.54672046957E+03  0.12699999809E+01 0.  1.
       -4    1    3    3    0  502  0.42211337755E+02 -0.19978993730E+03  0.45603385647E+02  0.20923455203E+03  0.12699999809E+01 0. -1.
</event>
<event>
 5   0  0.1166419E-01  0.4779413E+03  0.7818609E-02  0.1019702E+00
        2   -1    0    0  501    0  0.00000000000E+00  0.00000000000E+00  0.70553877824E+03  0.70553877824E+03  0.25500000920E-02 0. -1.
       -2   -1    0    0    0  501  0.00000000000E+00  0.00000000000E+00 -0.80940953681E+02  0.80940953722E+02  0.25500000920E-02 0.  1.
    10030    2    1    2    0    0  0.00000000000E+00  0.00000000000E+00  0.62459782455E+03  0.78647973196E+03  0.47794134195E+03 0.  0.
        1    1    3    3  502    0  0.46349059771E+02 -0.13707417323E+03 -0.65738316016E+00  0.14469967687E+03  0.50400001928E-02 0.  1.
       -1    1    3    3    0  502 -0.46349059771E+02  0.13707417323E+03  0.62525520771E+03  0.64178005509E+03  0.50400001928E-02 0. -1.
</event>
<event>
 5   0  0.1206238E-01  0.5918024E+03  0.7818609E-02  0.9922561E-01
       -2   -1    0    0    0  501  0.00000000000E+00  0.00000000000E+00  0.60169356856E+03  0.60169356856E+03  0.25500000920E-02 0. -1.
        2   -1    0    0  501    0  0.00000000000E+00  0.00000000000E+00 -0.14551847819E+03  0.14551847822E+03  0.25500000920E-02 0.  1.
    10030    2    1    2    0    0  0.00000000000E+00  0.00000000000E+00  0.45617509036E+03  0.74721204678E+03  0.59180244152E+03 0.  0.
        5    1    3    3  502    0 -0.25185293670E+03  0.15493031553E+03  0.21532724486E+03  0.36581582357E+03  0.46999998093E+01 0. -1.
       -5    1    3    3    0  502  0.25185293670E+03 -0.15493031553E+03  0.24084784550E+03  0.38139622321E+03  0.46999998093E+01 0.  1.
</event>
<event>
 5   0  0.1146468E-01  0.6046301E+03  0.7818609E-02  0.9895846E-01
        2   -1    0    0  501    0  0.00000000000E+00  0.00000000000E+00  0.13490357658E+04  0.13490357658E+04  0.25500000920E-02 0.  1.
       -2   -1    0    0    0  501  0.00000000000E+00  0.00000000000E+00 -0.67747939826E+02  0.67747939874E+02  0.25500000920E-02 0. -1.
    10030    2    1    2    0    0  0.00000000000E+00  0.00000000000E+00  0.12812878260E+04  0.14167837057E+04  0.60463011477E+03 0.  0.
        4    1    3    3  502    0 -0.24549259115E+03  0.23922762865E+02  0.10502316008E+04  0.10788081105E+04  0.12699999809E+01 0.  1.
       -4    1    3    3    0  502  0.24549259115E+03 -0.23922762865E+02  0.23105622515E+03  0.33797559523E+03  0.12699999809E+01 0. -1.
</event>
<event>
 5   0  0.1219020E-01  0.5582057E+03  0.7818609E-02  0.9996123E-01
       -2   -1    0    0    0  501  0.00000000000E+00  0.00000000000E+00  0.53971673045E+02  0.53971673105E+02  0.25500000920E-02 0. -1.
        2   -1    0    0  501    0  0.00000000000E+00  0.00000000000E+00 -0.14433198761E+04  0.14433198761E+04  0.25500000920E-02 0.  1.
    10030    2    1    2    0    0  0.00000000000E+00  0.00000000000E+00 -0.13893482031E+04  0.14972915492E+04  0.55820565565E+03 0.  0.
        2    1    3    3  502    0 -0.24992095085E+03 -0.90687420812E+02 -0.46685447518E+03  0.53725021263E+03  0.25500000920E-02 0. -1.
       -2    1    3    3    0  502  0.24992095085E+03  0.90687420812E+02 -0.92249372789E+03  0.96004133659E+03  0.25500000920E-02 0.  1.
</event>
<event>
 5   0  0.1206238E-01  0.6167118E+03  0.7818609E-02  0.9871328E-01
        2   -1    0    0  501    0  0.00000000000E+00  0.00000000000E+00  0.29882498611E+03  0.29882498613E+03  0.25500000920E-02 0. -1.
       -2   -1    0    0    0  501  0.00000000000E+00  0.00000000000E+00 -0.31819084323E+03  0.31819084324E+03  0.25500000920E-02 0.  1.
    10030    2    1    2    0    0  0.00000000000E+00  0.00000000000E+00 -0.19365857112E+02  0.61701582936E+03  0.61671184297E+03 0.  0.
        5    1    3    3  502    0 -0.28210544985E+02  0.17745098349E+03 -0.26035901479E+03  0.31637571488E+03  0.46999998093E+01 0.  1.
       -5    1    3    3    0  502  0.28210544985E+02 -0.17745098349E+03  0.24099315768E+03  0.30064011448E+03  0.46999998093E+01 0. -1.
</event>
<event>
 5   0  0.1206238E-01  0.5865050E+03  0.7818609E-02  0.9933806E-01
        2   -1    0    0  501    0  0.00000000000E+00  0.00000000000E+00  0.38119162035E+03  0.38119162036E+03  0.25500000920E-02 0.  1.
       -2   -1    0    0    0  501  0.00000000000E+00  0.00000000000E+00 -0.22560054803E+03  0.22560054805E+03  0.25500000920E-02 0. -1.
    10030    2    1    2    0    0  0.00000000000E+00  0.00000000000E+00  0.15559107232E+03  0.60679216840E+03  0.58650503310E+03 0.  0.
        5    1    3    3  502    0  0.11700529224E+03  0.20914617402E+03 -0.96993785725E+02  0.25857734817E+03  0.46999998093E+01 0. -1.
       -5    1    3    3    0  502 -0.11700529224E+03 -0.20914617402E+03  0.25258485804E+03  0.34821482023E+03  0.46999998093E+01 0.  1.
</event>
<event>
 5   0  0.4695625E-02  0.5940058E+03  0.7818609E-02  0.9917921E-01
       -4   -1    0    0    0  501  0.00000000000E+00  0.00000000000E+00  0.66260171168E+03  0.66260292877E+03  0.12699999809E+01 0. -1.
        4   -1    0    0  501    0  0.00000000000E+00  0.00000000000E+00 -0.13312343931E+03  0.13312949709E+03  0.12699999809E+01 0.  1.
    10030    2    1    2    0    0  0.00000000000E+00  0.00000000000E+00  0.52947827237E+03  0.79573242586E+03  0.59400576820E+03 0.  0.
        5    1    3    3  502    0 -0.11584401420E+03  0.26080532104E+03  0.37479370536E+03  0.47109623505E+03  0.46999998093E+01 0. -1.
       -5    1    3    3    0  502  0.11584401420E+03 -0.26080532104E+03  0.15468456701E+03  0.32463619080E+03  0.46999998093E+01 0.  1.
</event>
<event>
 5   0  0.7123340E-02  0.6074948E+03  0.7818609E-02  0.9889977E-01
       -1   -1    0    0    0  501  0.00000000000E+00  0.00000000000E+00  0.10208146650E+03  0.10208146662E+03  0.50400001928E-02 0.  1.
        1   -1    0    0  501    0  0.00000000000E+00  0.00000000000E+00 -0.90381241776E+03  0.90381241778E+03  0.50400001928E-02 0. -1.
    10030    2    1    2    0    0  0.00000000000E+00  0.00000000000E+00 -0.80173095127E+03  0.10058938844E+04  0.60749484644E+03 0.  0.
        2    1    3    3  502    0  0.15917386261E+03 -0.25724366155E+03 -0.44626831528E+03  0.53913451863E+03  0.25500000920E-02 0.  1.
       -2    1    3    3    0  502 -0.15917386261E+03  0.25724366155E+03 -0.35546263598E+03  0.46675936577E+03  0.25500000920E-02 0. -1.
</event>
<event>
 5   0  0.4695625E-02  0.5901688E+03  0.7818609E-02  0.9926015E-01
        4   -1    0    0  501    0  0.00000000000E+00  0.00000000000E+00  0.29607628042E+03  0.29607900420E+03  0.12699999809E+01 0.  1.
       -4   -1    0    0    0  501  0.00000000000E+00  0.00000000000E+00 -0.29409041201E+03  0.29409315418E+03  0.12699999809E+01 0. -1.
    10030    2    1    2    0    0  0.00000000000E+00  0.00000000000E+00  0.19858684143E+01  0.59017215838E+03  0.59016881725E+03 0.  0.
        1    1    3    3  502    0 -0.13797725090E+03  0.25163931567E+03 -0.67671427820E+02  0.29485503070E+03  0.50400001928E-02 0. -1.
       -1    1    3    3    0  502  0.13797725090E+03 -0.25163931567E+03  0.69657296234E+02  0.29531712768E+03  0.50400001928E-02 0.  1.
</event>
<event>
 5   0  0.7221069E-02  0.5955493E+03  0.7818609E-02  0.9914683E-01
       -1   -1    0    0    0  501  0.00000000000E+00  0.00000000000E+00  0.53042405562E+03  0.53042405565E+03  0.50400001928E-02 0. -1.
        1   -1    0    0  501    0  0.00000000000E+00  0.00000000000E+00 -0.16716767390E+03  0.16716767398E+03  0.50400001928E-02 0.  1.
    10030    2    1    2    0    0  0.00000000000E+00  0.00000000000E+00  0.36325638172E+03  0.69759172963E+03  0.59554934504E+03 0.  0.
        5    1    3    3  502    0  0.22183796158E+01 -0.62861915850E+02 -0.15925259307E+03  0.17128928767E+03  0.46999998093E+01 0.  1.
       -5    1    3    3    0  502 -0.22183796158E+01  0.62861915850E+02  0.52250897479E+03  0.52630244196E+03  0.46999998093E+01 0. -1.
</event>
<event>
 5   0  0.1175861E-01  0.5955652E+03  0.7818609E-02  0.9914650E-01
       -2   -1    0    0    0  501  0.00000000000E+00  0.00000000000E+00  0.19190313250E+03  0.19190313251E+03  0.25500000920E-02 0.  1.
        2   -1    0    0  501    0  0.00000000000E+00  0.00000000000E+00 -0.46207940012E+03  0.46207940013E+03  0.25500000920E-02 0. -1.
    10030    2    1    2    0    0  0.00000000000E+00  0.00000000000E+00 -0.27017626763E+03  0.65398253264E+03  0.59556522515E+03 0.  0.
        3    1    3    3  502    0 -0.29454549428E+03  0.35798464050E+02 -0.16277857262E+03  0.33843086758E+03  0.10100000352E+00 0.  1.
       -3    1    3    3    0  502  0.29454549428E+03 -0.35798464050E+02 -0.10739769501E+03  0.31555166506E+03  0.10100000352E+00 0. -1.
</event>
<event>
 5   0  0.7263385E-02  0.5489841E+03  0.7818609E-02  0.1001729E+00
       -1   -1    0    0    0  501  0.00000000000E+00  0.00000000000E+00  0.82404790232E+02  0.82404790386E+02  0.50400001928E-02 0. -1.
        1   -1    0    0  501    0  0.00000000000E+00  0.00000000000E+00 -0.91433877178E+03  0.91433877180E+03  0.50400001928E-02 0.  1.
    10030    2    1    2    0    0  0.00000000000E+00  0.00000000000E+00 -0.83193398155E+03  0.99674356218E+03  0.54898413374E+03 0.  0.
        1    1    3    3  502    0 -0.25394569164E+02 -0.26705846933E+03 -0.31039896626E+03  0.41025922106E+03  0.50400001928E-02 0. -1.
       -1    1    3    3    0  502  0.25394569164E+02  0.26705846933E+03 -0.52153501529E+03  0.58648434113E+03  0.50400001928E-02 0.  1.
</event>
<event>
 5   0  0.7123340E-02  0.5902348E+03  0.7818609E-02  0.9925875E-01
       -1   -1    0    0    0  501  0.00000000000E+00  0.00000000000E+00  0.13584373421E+03  0.13584373430E+03  0.50400001928E-02 0.  1.
        1   -1    0    0  501    0  0.00000000000E+00  0.00000000000E+00 -0.64113572014E+03  0.64113572016E+03  0.50400001928E-02 0. -1.
    10030    2    1    2    0    0  0.00000000000E+00  0.00000000000E+00 -0.50529198594E+03  0.77697945446E+03  0.59023476821E+03 0.  0.
        2    1    3    3  502    0 -0.16872901122E+03  0.42345650755E+02  0.61173437317E+02  0.18440396635E+03  0.25500000920E-02 0.  1.
       -2    1    3    3    0  502  0.16872901122E+03 -0.42345650755E+02 -0.56646542325E+03  0.59257548812E+03  0.25500000920E-02 0. -1.
</event>
<event>
 5   0  0.7221069E-02  0.6134865E+03  0.7818609E-02  0.9877814E-01
        1   -1    0    0  501    0  0.00000000000E+00  0.00000000000E+00  0.72895692695E+03  0.72895692697E+03  0.50400001928E-02 0.  1.
       -1   -1    0    0    0  501  0.00000000000E+00  0.00000000000E+00 -0.12907680399E+03  0.12907680409E+03  0.50400001928E-02 0. -1.
    10030    2    1    2    0    0  0.00000000000E+00  0.00000000000E+00  0.59988012296E+03  0.85803373106E+03  0.61348652937E+03 0.  0.
        5    1    3    3  502    0 -0.20707559754E+03  0.18452707714E+03  0.11683958526E+03  0.30100518929E+03  0.46999998093E+01 0. -1.
       -5    1    3    3    0  502  0.20707559754E+03 -0.18452707714E+03  0.48304053770E+03  0.55702854178E+03  0.46999998093E+01 0.  1.
</event>
<event>
 5   0  0.1219020E-01  0.5956379E+03  0.7818609E-02  0.9914497E-01
        2   -1    0    0  501    0  0.00000000000E+00  0.00000000000E+00  0.17894496737E+03  0.17894496739E+03  0.25500000920E-02 0. -1.
       -2   -1    0    0    0  501  0.00000000000E+00  0.00000000000E+00 -0.49566153622E+03  0.49566153622E+03  0.25500000920E-02 0.  1.
    10030    2    1    2    0    0  0.00000000000E+00  0.00000000000E+00 -0.31671656885E+03  0.67460650361E+03  0.59563793510E+03 0.  0.
        2    1    3    3  502    0 -0.11991852447E+03 -0.26071606486E+03 -0.68157707711E+02  0.29495557651E+03  0.25500000920E-02 0. -1.
       -2    1    3    3    0  502  0.11991852447E+03  0.26071606486E+03 -0.24855886114E+03  0.37965092710E+03  0.25500000920E-02 0.  1.
</event>
<event>
 5   0  0.1146468E-01  0.6131014E+03  0.7818609E-02  0.9878592E-01
        2   -1    0    0  501    0  0.00000000000E+00  0.00000000000E+00  0.99140301805E+03  0.99140301806E+03  0.25500000920E-02 0.  1.
       -2   -1    0    0    0  501  0.00000000000E+00  0.00000000000E+00 -0.94788225191E+02  0.94788225225E+02  0.25500000920E-02 0. -1.
    10030    2    1    2    0    0  0.00000000000E+00  0.00000000000E+00  0.89661479286E+03  0.10861912433E+04  0.61310140287E+03 0.  0.
        4    1    3    3  502    0  0.17919176407E+03  0.13664877917E+03  0.81648831598E+03  0.84701674138E+03  0.12699999809E+01 0.  1.
       -4    1    3    3    0  502 -0.17919176407E+03 -0.13664877917E+03  0.80126476887E+02  0.23917450190E+03  0.12699999809E+01 0. -1.
</event>
<event>
 5   0  0.7424930E-02  0.4313207E+03  0.7818609E-02  0.1033444E+00
       -1   -1    0    0    0  501  0.00000000000E+00  0.00000000000E+00  0.66964814638E+02  0.66964814828E+02  0.50400001928E-02 0.  1.
        1   -1    0    0  501    0  0.00000000000E+00  0.00000000000E+00 -0.69453458904E+03  0.69453458906E+03  0.50400001928E-02 0. -1.
    10030    2    1    2    0    0  0.00000000000E+00  0.00000000000E+00 -0.62756977440E+03  0.76149940389E+03  0.43132067001E+03 0.  0.
        3    1    3    3  502    0 -0.17358469050E+03 -0.36417786480E+02 -0.97184736515E+02  0.20224436496E+03  0.10100000352E+00 0.  1.
       -3    1    3    3    0  502  0.17358469050E+03  0.36417786480E+02 -0.53038503789E+03  0.55925503892E+03  0.10100000352E+00 0. -1.
</event>
<event>
 5   0  0.1219020E-01  0.5953633E+03  0.7818609E-02  0.9915073E-01
        2   -1    0    0  501    0  0.00000000000E+00  0.00000000000E+00  0.30705622843E+03  0.30705622844E+03  0.25500000920E-02 0.  1.
       -2   -1    0    0    0  501  0.00000000000E+00  0.00000000000E+00 -0.28859331854E+03  0.28859331855E+03  0.25500000920E-02 0. -1.
    10030    2    1    2    0    0  0.00000000000E+00  0.00000000000E+00  0.18462909896E+02  0.59564954699E+03  0.59536333763E+03 0.  0.
        2    1    3    3  502    0  0.81097653068E+02 -0.14258073344E+03  0.25776238951E+03  0.30552830366E+03  0.25500000920E-02 0.  1.
       -2    1    3    3    0  502 -0.81097653068E+02  0.14258073344E+03 -0.23929947962E+03  0.29012124333E+03  0.25500000920E-02 0. -1.
</event>
<event>
 5   0  0.7221069E-02  0.6064242E+03  0.7818609E-02  0.9892167E-01
        1   -1    0    0  501    0  0.00000000000E+00  0.00000000000E+00  0.62001152944E+03  0.62001152946E+03  0.50400001928E-02 0.  1.
       -1   -1    0    0    0  501  0.00000000000E+00  0.00000000000E+00 -0.14828366332E+03  0.14828366341E+03  0.50400001928E-02 0. -1.
    10030    2    1    2    0    0  0.00000000000E+00  0.00000000000E+00  0.47172786611E+03  0.76829519287E+03  0.60642421102E+03 0.  0.
        5    1    3    3  502    0  0.29236086617E+03  0.70467369714E+02  0.18720726194E+03  0.35427274123E+03  0.46999998093E+01 0. -1.
       -5    1    3    3    0  502 -0.29236086617E+03 -0.70467369714E+02  0.28452060417E+03  0.41402245163E+03  0.46999998093E+01 0.  1.
</event>
<event>
 5   0  0.4695625E-02  0.6067075E+03  0.7818609E-02  0.9891587E-01
        3   -1    0    0  501    0  0.00000000000E+00  0.00000000000E+00  0.92667943062E+03  0.92667943612E+03  0.10100000352E+00 0. -1.
       -3   -1    0    0    0  501  0.00000000000E+00  0.00000000000E+00 -0.99304523714E+02  0.99304575076E+02  0.10100000352E+00 0.  1.
    10030    2    1    2    0    0  0.00000000000E+00  0.00000000000E+00  0.82737490690E+03  0.10259840112E+04  0.60670747042E+03 0.  0.
        4    1    3    3  502    0  0.27683133300E+03  0.48549094509E+02  0.22065898571E+03  0.35732982297E+03  0.12699999809E+01 0.  1.
       -4    1    3    3    0  502 -0.27683133300E+03 -0.48549094509E+02  0.60671592119E+03  0.66865418823E+03  0.12699999809E+01 0. -1.
</event>
<event>
 5   0  0.7266519E-02  0.6066468E+03  0.7818609E-02  0.9891711E-01
        1   -1    0    0  501    0  0.00000000000E+00  0.00000000000E+00  0.72349367375E+03  0.72349367376E+03  0.50400001928E-02 0.  1.
       -1   -1    0    0    0  501  0.00000000000E+00  0.00000000000E+00 -0.12716778758E+03  0.12716778768E+03  0.50400001928E-02 0. -1.
    10030    2    1    2    0    0  0.00000000000E+00  0.00000000000E+00  0.59632588616E+03  0.85066146145E+03  0.60664681610E+03 0.  0.
        4    1    3    3  502    0 -0.19970336380E+03  0.50510696105E+02 -0.14037430380E+02  0.20647379080E+03  0.12699999809E+01 0. -1.
       -4    1    3    3    0  502  0.19970336380E+03 -0.50510696105E+02  0.61036331654E+03  0.64418767065E+03  0.12699999809E+01 0.  1.
</event>
<event>
 5   0  0.7123340E-02  0.5971654E+03  0.7818609E-02  0.9911305E-01
        1   -1    0    0  501    0  0.00000000000E+00  0.00000000000E+00  0.15305864435E+03  0.15305864443E+03  0.50400001928E-02 0.  1.
       -1   -1    0    0    0  501  0.00000000000E+00  0.00000000000E+00 -0.58246708576E+03  0.58246708578E+03  0.50400001928E-02 0. -1.
    10030    2    1    2    0    0  0.00000000000E+00  0.00000000000E+00 -0.42940844141E+03  0.73552573021E+03  0.59716537931E+03 0.  0.
        2    1    3    3  502    0  0.27881788229E+02  0.97661537236E+02  0.13112906060E+03  0.16586138945E+03  0.25500000920E-02 0.  1.
       -2    1    3    3    0  502 -0.27881788229E+02 -0.97661537236E+02 -0.56053750201E+03  0.56966434076E+03  0.25500000920E-02 0. -1.
</event>
<event>
 5   0  0.7221069E-02  0.5995174E+03  0.7818609E-02  0.9906408E-01
        1   -1    0    0  501    0  0.00000000000E+00  0.00000000000E+00  0.82050880048E+03  0.82050880050E+03  0.50400001928E-02 0.  1.
       -1   -1    0    0    0  501  0.00000000000E+00  0.00000000000E+00 -0.10951165266E+03  0.10951165278E+03  0.50400001928E-02 0. -1.
    10030    2    1    2    0    0  0.00000000000E+00  0.00000000000E+00  0.71099714782E+03  0.93002045328E+03  0.59951738866E+03 0.  0.
        5    1    3    3  502    0  0.28365968427E+03  0.70766489391E+01  0.50526187844E+03  0.57950371115E+03  0.46999998093E+01 0. -1.
       -5    1    3    3    0  502 -0.28365968427E+03 -0.70766489391E+01  0.20573526939E+03  0.35051674212E+03  0.46999998093E+01 0.  1.
</event>
<event>
 5   0  0.7263385E-02  0.6179570E+03  0.7818609E-02  0.9868836E-01
        1   -1    0    0  501    0  0.00000000000E+00  0.00000000000E+00  0.56397789375E+03  0.56397789378E+03  0.50400001928E-02 0. -1.
       -1   -1    0    0    0  501  0.00000000000E+00  0.00000000000E+00 -0.16927563676E+03  0.16927563683E+03  0.50400001928E-02 0.  1.
    10030    2    1    2    0    0  0.00000000000E+00  0.00000000000E+00  0.39470225700E+03  0.73325353061E+03  0.61795701183E+03 0.  0.
        1    1    3    3  502    0  0.29702984730E+03 -0.84071927614E+02  0.18174875212E+03  0.35822817885E+03  0.50400001928E-02 0. -1.
       -1    1    3    3    0  502 -0.29702984730E+03  0.84071927614E+02  0.21295350488E+03  0.37502535176E+03  0.50400001928E-02 0.  1.
</event>
<event>
 5   0  0.1175861E-01  0.5991194E+03  0.7818609E-02  0.9907235E-01
        2   -1    0    0  501    0  0.00000000000E+00  0.00000000000E+00  0.73968257494E+02  0.73968257538E+02  0.25500000920E-02 0. -1.
       -2   -1    0    0    0  501  0.00000000000E+00  0.00000000000E+00 -0.12131693571E+04  0.12131693571E+04  0.25500000920E-02 0.  1.
    10030    2    1    2    0    0  0.00000000000E+00  0.00000000000E+00 -0.11392010996E+04  0.12871376146E+04  0.59911943189E+03 0.  0.
        3    1    3    3  502    0 -0.32041580996E+02 -0.91616186345E+02 -0.11784531118E+04  0.11824432060E+04  0.10100000352E+00 0.  1.
       -3    1    3    3    0  502  0.32041580996E+02  0.91616186345E+02  0.39252012279E+02  0.10469440855E+03  0.10100000352E+00 0. -1.
</event>
<event>
 5   0  0.1175861E-01  0.5956621E+03  0.7818609E-02  0.9914447E-01
       -2   -1    0    0    0  501  0.00000000000E+00  0.00000000000E+00  0.10338775392E+03  0.10338775395E+03  0.25500000920E-02 0. -1.
        2   -1    0    0  501    0  0.00000000000E+00  0.00000000000E+00 -0.85796751864E+03  0.85796751864E+03  0.25500000920E-02 0.  1.
    10030    2    1    2    0    0  0.00000000000E+00  0.00000000000E+00 -0.75457976472E+03  0.96135527259E+03  0.59566210121E+03 0.  0.
        3    1    3    3  502    0  0.22838310469E+03  0.16225342624E+03 -0.21414500910E+03  0.35262318693E+03  0.10100000352E+00 0. -1.
       -3    1    3    3    0  502 -0.22838310469E+03 -0.16225342624E+03 -0.54043475562E+03  0.60873208567E+03  0.10100000352E+00 0.  1.
</event>
<event>
 5   0  0.7221069E-02  0.6015669E+03  0.7818609E-02  0.9902160E-01
        1   -1    0    0  501    0  0.00000000000E+00  0.00000000000E+00  0.21769772639E+03  0.21769772645E+03  0.50400001928E-02 0.  1.
       -1   -1    0    0    0  501  0.00000000000E+00  0.00000000000E+00 -0.41557942732E+03  0.41557942736E+03  0.50400001928E-02 0. -1.
    10030    2    1    2    0    0  0.00000000000E+00  0.00000000000E+00 -0.19788170093E+03  0.63327715381E+03  0.60156694222E+03 0.  0.
        5    1    3    3  502    0  0.13027703216E+03  0.18582600831E+03  0.10880712736E+03  0.25172304510E+03  0.46999998093E+01 0.  1.
       -5    1    3    3    0  502 -0.13027703216E+03 -0.18582600831E+03 -0.30668882829E+03  0.38155410871E+03  0.46999998093E+01 0. -1.
</event>
<event>
 5   0  0.7424930E-02  0.6063208E+03  0.7818609E-02  0.9892378E-01
       -1   -1    0    0    0  501  0.00000000000E+00  0.00000000000E+00  0.44980867223E+03  0.44980867226E+03  0.50400001928E-02 0. -1.
        1   -1    0    0  501    0  0.00000000000E+00  0.00000000000E+00 -0.20432293778E+03  0.20432293785E+03  0.50400001928E-02 0.  1.
    10030    2    1    2    0    0  0.00000000000E+00  0.00000000000E+00  0.24548573445E+03  0.65413161011E+03  0.60632080413E+03 0.  0.
        3    1    3    3  502    0 -0.14250313526E+03  0.19477409913E+03 -0.75197073794E+02  0.25278192847E+03  0.10100000352E+00 0.  1.
       -3    1    3    3    0  502  0.14250313526E+03 -0.19477409913E+03  0.32068280824E+03  0.40134968164E+03  0.10100000352E+00 0. -1.
</event>
<event>
 5   0  0.7424930E-02  0.6082105E+03  0.7818609E-02  0.9888517E-01
       -1   -1    0    0    0  501  0.00000000000E+00  0.00000000000E+00  0.53539425915E+03  0.53539425918E+03  0.50400001928E-02 0.  1.
        1   -1    0    0  501    0  0.00000000000E+00  0.00000000000E+00 -0.17273250630E+03  0.17273250637E+03  0.50400001928E-02 0. -1.
    10030    2    1    2    0    0  0.00000000000E+00  0.00000000000E+00  0.36266175286E+03  0.70812676555E+03  0.60821046448E+03 0.  0.
        3    1    3    3  502    0 -0.28560944102E+02  0.30138305354E+03  0.21492410483E+03  0.37126789994E+03  0.10100000352E+00 0. -1.
       -3    1    3    3    0  502  0.28560944102E+02 -0.30138305354E+03  0.14773764803E+03  0.33685886560E+03  0.10100000352E+00 0.  1.
</event>
<event>
 5   0  0.1219020E-01  0.5821054E+03  0.7818609E-02  0.9943243E-01
       -2   -1    0    0    0  501  0.00000000000E+00  0.00000000000E+00  0.35934303086E+03  0.35934303087E+03  0.25500000920E-02 0.  1.
        2   -1    0    0  501    0  0.00000000000E+00  0.00000000000E+00 -0.23574041840E+03  0.23574041842E+03  0.25500000920E-02 0. -1.
    10030    2    1    2    0    0  0.00000000000E+00  0.00000000000E+00  0.12360261246E+03  0.59508344929E+03  0.58210540782E+03 0.  0.
        2    1    3    3  502    0  0.20832928674E+03  0.52207082395E+02 -0.13900877865E+03  0.25583219445E+03  0.25500000920E-02 0.  1.
       -2    1    3    3    0  502 -0.20832928674E+03 -0.52207082395E+02  0.26261139111E+03  0.33925125484E+03  0.25500000920E-02 0. -1.
</event>
<event>
 5   0  0.1219020E-01  0.5946028E+03  0.7818609E-02  0.9916667E-01
        2   -1    0    0  501    0  0.00000000000E+00  0.00000000000E+00  0.64014961836E+03  0.64014961836E+03  0.25500000920E-02 0.  1.
       -2   -1    0    0    0  501  0.00000000000E+00  0.00000000000E+00 -0.13807417312E+03  0.13807417314E+03  0.25500000920E-02 0. -1.
    10030    2    1    2    0    0  0.00000000000E+00  0.00000000000E+00  0.50207544524E+03  0.77822379151E+03  0.59460282286E+03 0.  0.
        2    1    3    3  502    0 -0.10441635276E+03 -0.11302819952E+03  0.58397557358E+03  0.60390861822E+03  0.25500000920E-02 0.  1.
       -2    1    3    3    0  502  0.10441635276E+03  0.11302819952E+03 -0.81900128342E+02  0.17431517329E+03  0.25500000920E-02 0. -1.
</event>
<event>
 5   0  0.7266519E-02  0.6010088E+03  0.7818609E-02  0.9903315E-01
        1   -1    0    0  501    0  0.00000000000E+00  0.00000000000E+00  0.21131613387E+03  0.21131613393E+03  0.50400001928E-02 0. -1.
       -1   -1    0    0    0  501  0.00000000000E+00  0.00000000000E+00 -0.42733549945E+03  0.42733549948E+03  0.50400001928E-02 0.  1.
    10030    2    1    2    0    0  0.00000000000E+00  0.00000000000E+00 -0.21601936558E+03  0.63865163340E+03  0.60100877077E+03 0.  0.
        4    1    3    3  502    0 -0.29576132788E+03  0.50854675750E+02 -0.12448260327E+03  0.32489766471E+03  0.12699999809E+01 0.  1.
       -4    1    3    3    0  502  0.29576132788E+03 -0.50854675750E+02 -0.91536762303E+02  0.31375396869E+03  0.12699999809E+01 0. -1.
</event>
<event>
 5   0  0.1166419E-01  0.5963810E+03  0.7818609E-02  0.9912943E-01
       -2   -1    0    0    0  501  0.00000000000E+00  0.00000000000E+00  0.14895140180E+03  0.14895140182E+03  0.25500000920E-02 0.  1.
        2   -1    0    0  501    0  0.00000000000E+00  0.00000000000E+00 -0.59695688526E+03  0.59695688527E+03  0.25500000920E-02 0. -1.
    10030    2    1    2    0    0  0.00000000000E+00  0.00000000000E+00 -0.44800548346E+03  0.74590828709E+03  0.59638096845E+03 0.  0.
        1    1    3    3  502    0  0.18868272187E+03  0.22401871190E+03 -0.15400671827E+03  0.33091331510E+03  0.50400001928E-02 0.  1.
       -1    1    3    3    0  502 -0.18868272187E+03 -0.22401871190E+03 -0.29399876520E+03  0.41499497199E+03  0.50400001928E-02 0. -1.
</event>
<event>
 5   0  0.4695625E-02  0.5999229E+03  0.7818609E-02  0.9905566E-01
       -3   -1    0    0    0  501  0.00000000000E+00  0.00000000000E+00  0.21902338155E+03  0.21902340484E+03  0.10100000352E+00 0. -1.
        3   -1    0    0  501    0  0.00000000000E+00  0.00000000000E+00 -0.41080941914E+03  0.41080943155E+03  0.10100000352E+00 0.  1.
    10030    2    1    2    0    0  0.00000000000E+00  0.00000000000E+00 -0.19178603758E+03  0.62983283639E+03  0.59992292637E+03 0.  0.
        4    1    3    3  502    0  0.10980871539E+03 -0.44056504026E+02  0.19348731645E+03  0.22679921528E+03  0.12699999809E+01 0. -1.
       -4    1    3    3    0  502 -0.10980871539E+03  0.44056504026E+02 -0.38527335403E+03  0.40303362112E+03  0.12699999809E+01 0.  1.
</event>
<event>
 5   0  0.1206238E-01  0.5668949E+03  0.7818609E-02  0.9976573E-01
       -2   -1    0    0    0  501  0.00000000000E+00  0.00000000000E+00  0.31030285322E+02  0.31030285426E+02  0.25500000920E-02 0. -1.
        2   -1    0    0  501    0  0.00000000000E+00  0.00000000000E+00 -0.25891624540E+04  0.25891624540E+04  0.25500000920E-02 0.  1.
    10030    2    1    2    0    0  0.00000000000E+00  0.00000000000E+00 -0.25581321687E+04  0.26201927394E+04  0.56689487502E+03 0.  0.
        5    1    3    3  502    0  0.39596241195E+02  0.24695277395E+03 -0.18951439699E+04  0.19115821436E+04  0.46999998093E+01 0.  1.
       -5    1    3    3    0  502 -0.39596241195E+02 -0.24695277395E+03 -0.66298819876E+03  0.70861059587E+03  0.46999998093E+01 0. -1.
</event>
<event>
 5   0  0.1206238E-01  0.5792528E+03  0.7818609E-02  0.9949410E-01
        2   -1    0    0  501    0  0.00000000000E+00  0.00000000000E+00  0.11967006362E+03  0.11967006365E+03  0.25500000920E-02 0.  1.
       -2   -1    0    0    0  501  0.00000000000E+00  0.00000000000E+00 -0.70095613579E+03  0.70095613580E+03  0.25500000920E-02 0. -1.
    10030    2    1    2    0    0  0.00000000000E+00  0.00000000000E+00 -0.58128607217E+03  0.82062619945E+03  0.57925284766E+03 0.  0.
        5    1    3    3  502    0  0.21823972551E+03 -0.91381504854E+02 -0.52720279080E+03  0.57787890586E+03  0.46999998093E+01 0. -1.
       -5    1    3    3    0  502 -0.21823972551E+03  0.91381504854E+02 -0.54083281370E+02  0.24274729358E+03  0.46999998093E+01 0.  1.
</event>
<event>
 5   0  0.4695625E-02  0.6016605E+03  0.7818609E-02  0.9901967E-01
       -3   -1    0    0    0  501  0.00000000000E+00  0.00000000000E+00  0.42789824314E+03  0.42789825506E+03  0.10100000352E+00 0. -1.
        3   -1    0    0  501    0  0.00000000000E+00  0.00000000000E+00 -0.21149613915E+03  0.21149616327E+03  0.10100000352E+00 0.  1.
    10030    2    1    2    0    0  0.00000000000E+00  0.00000000000E+00  0.21640210399E+03  0.63939441833E+03  0.60166049528E+03 0.  0.
        3    1    3    3  502    0  0.18792231039E+03  0.20663492084E+03  0.22694999353E+03  0.35988761443E+03  0.10100000352E+00 0. -1.
       -3    1    3    3    0  502 -0.18792231039E+03 -0.20663492084E+03 -0.10547889543E+02  0.27950680390E+03  0.10100000352E+00 0.  1.
</event>
<event>
 5   0  0.1219020E-01  0.6159562E+03  0.7818609E-02  0.9872844E-01
        2   -1    0    0  501    0  0.00000000000E+00  0.00000000000E+00  0.49605854579E+03  0.49605854580E+03  0.25500000920E-02 0.  1.
       -2   -1    0    0    0  501  0.00000000000E+00  0.00000000000E+00 -0.19120832442E+03  0.19120832444E+03  0.25500000920E-02 0. -1.
    10030    2    1    2    0    0  0.00000000000E+00  0.00000000000E+00  0.30485022137E+03  0.68726687024E+03  0.61595624314E+03 0.  0.
        2    1    3    3  502    0  0.18241725218E+03 -0.14055343574E+03 -0.75747448815E+02  0.24242318000E+03  0.25500000920E-02 0. -1.
       -2    1    3    3    0  502 -0.18241725218E+03  0.14055343574E+03  0.38059767018E+03  0.44484369024E+03  0.25500000920E-02 0.  1.
</event>
<event>
 5   0  0.7221069E-02  0.6059044E+03  0.7818609E-02  0.9893231E-01
       -1   -1    0    0    0  501  0.00000000000E+00  0.00000000000E+00  0.30452322550E+03  0.30452322554E+03  0.50400001928E-02 0.  1.
        1   -1    0    0  501    0  0.00000000000E+00  0.00000000000E+00 -0.30138926547E+03  0.30138926552E+03  0.50400001928E-02 0. -1.
    10030    2    1    2    0    0  0.00000000000E+00  0.00000000000E+00  0.31339600278E+01  0.60591249106E+03  0.60590438612E+03 0.  0.
        5    1    3    3  502    0  0.30131028179E+03 -0.10707490249E+02 -0.27680719178E+02  0.30280496771E+03  0.46999998093E+01 0. -1.
       -5    1    3    3    0  502 -0.30131028179E+03  0.10707490249E+02  0.30814679205E+02  0.30310752335E+03  0.46999998093E+01 0.  1.
</event>
<event>
 5   0  0.1175861E-01  0.6007597E+03  0.7818609E-02  0.9903831E-01
        2   -1    0    0  501    0  0.00000000000E+00  0.00000000000E+00  0.55279732483E+03  0.55279732483E+03  0.25500000920E-02 0. -1.
       -2   -1    0    0    0  501  0.00000000000E+00  0.00000000000E+00 -0.16322087191E+03  0.16322087193E+03  0.25500000920E-02 0.  1.
    10030    2    1    2    0    0  0.00000000000E+00  0.00000000000E+00  0.38957645292E+03  0.71601819676E+03  0.60075972353E+03 0.  0.
        3    1    3    3  502    0  0.24179292641E+03  0.69976305412E+02 -0.57250474775E+00  0.25171579320E+03  0.10100000352E+00 0.  1.
       -3    1    3    3    0  502 -0.24179292641E+03 -0.69976305412E+02  0.39014895767E+03  0.46430240356E+03  0.10100000352E+00 0. -1.
</event>
<event>
 5   0  0.7424930E-02  0.6024688E+03  0.7818609E-02  0.9900297E-01
       -1   -1    0    0    0  501  0.00000000000E+00  0.00000000000E+00  0.37634440137E+03  0.37634440141E+03  0.50400001928E-02 0.  1.
        1   -1    0    0  501    0  0.00000000000E+00  0.00000000000E+00 -0.24111465559E+03  0.24111465564E+03  0.50400001928E-02 0. -1.
    10030    2    1    2    0    0  0.00000000000E+00  0.00000000000E+00  0.13522974579E+03  0.61745905705E+03  0.60246875685E+03 0.  0.
        3    1    3    3  502    0 -0.17774609228E+03 -0.20757035423E+03  0.19750829884E+03  0.33717749567E+03  0.10100000352E+00 0.  1.
       -3    1    3    3    0  502  0.17774609228E+03  0.20757035423E+03 -0.62278553054E+02  0.28028156137E+03  0.10100000352E+00 0. -1.
</event>
<event>
 5   0  0.1146468E-01  0.5994070E+03  0.7818609E-02  0.9906637E-01
       -2   -1    0    0    0  501  0.00000000000E+00  0.00000000000E+00  0.14827784705E+04  0.14827784706E+04  0.25500000920E-02 0.  1.
        2   -1    0    0  501    0  0.00000000000E+00  0.00000000000E+00 -0.60576949948E+02  0.60576950002E+02  0.25500000920E-02 0. -1.
    10030    2    1    2    0    0  0.00000000000E+00  0.00000000000E+00  0.14222015206E+04  0.15433554206E+04  0.59940703111E+03 0.  0.
        4    1    3    3  502    0 -0.14701105739E+03 -0.20291771993E+03  0.28776097001E+03  0.38157023052E+03  0.12699999809E+01 0. -1.
       -4    1    3    3    0  502  0.14701105739E+03  0.20291771993E+03  0.11344405506E+04  0.11617851900E+04  0.12699999809E+01 0.  1.
</event>
<event>
 5   0  0.7123340E-02  0.5858620E+03  0.7818609E-02  0.9935180E-01
        1   -1    0    0  501    0  0.00000000000E+00  0.00000000000E+00  0.17685347028E+04  0.17685347028E+04  0.50400001928E-02 0.  1.
       -1   -1    0    0    0  501  0.00000000000E+00  0.00000000000E+00 -0.48519578200E+02  0.48519578462E+02  0.50400001928E-02 0. -1.
    10030    2    1    2    0    0  0.00000000000E+00  0.00000000000E+00  0.17200151246E+04  0.18170542812E+04  0.58586195662E+03 0.  0.
        2    1    3    3  502    0 -0.10848111964E+03 -0.24177400147E+03  0.47280673680E+03  0.54200464156E+03  0.25500000920E-02 0. -1.
       -2    1    3    3    0  502  0.10848111964E+03  0.24177400147E+03  0.12472083878E+04  0.12750496397E+04  0.25500000920E-02 0.  1.
</event>
<event>
 5   0  0.7263385E-02  0.5887108E+03  0.7818609E-02  0.9929108E-01
       -1   -1    0    0    0  501  0.00000000000E+00  0.00000000000E+00  0.26455926004E+03  0.26455926009E+03  0.50400001928E-02 0. -1.
        1   -1    0    0  501    0  0.00000000000E+00  0.00000000000E+00 -0.32750732895E+03  0.32750732899E+03  0.50400001928E-02 0.  1.
    10030    2    1    2    0    0  0.00000000000E+00  0.00000000000E+00 -0.62948068903E+02  0.59206658908E+03  0.58871078343E+03 0.  0.
        1    1    3    3  502    0  0.19054547134E+03  0.62228964997E+02  0.18531229322E+03  0.27298473726E+03  0.50400001928E-02 0. -1.
       -1    1    3    3    0  502 -0.19054547134E+03 -0.62228964997E+02 -0.24826036213E+03  0.31908185182E+03  0.50400001928E-02 0.  1.
</event>
<event>
 5   0  0.1206238E-01  0.5989636E+03  0.7818609E-02  0.9907559E-01
       -2   -1    0    0    0  501  0.00000000000E+00  0.00000000000E+00  0.18793890984E+03  0.18793890985E+03  0.25500000920E-02 0. -1.
        2   -1    0    0  501    0  0.00000000000E+00  0.00000000000E+00 -0.47722600617E+03  0.47722600618E+03  0.25500000920E-02 0.  1.
    10030    2    1    2    0    0  0.00000000000E+00  0.00000000000E+00 -0.28928709633E+03  0.66516491603E+03  0.59896355600E+03 0.  0.
        5    1    3    3  502    0 -0.27314453796E+03 -0.78703102404E+02 -0.24920496301E+03  0.37805729795E+03  0.46999998093E+01 0. -1.
       -5    1    3    3    0  502  0.27314453796E+03  0.78703102404E+02 -0.40082133321E+02  0.28710761808E+03  0.46999998093E+01 0.  1.
</event>
<event>
 5   0  0.7221069E-02  0.5847987E+03  0.7818609E-02  0.9937456E-01
        1   -1    0    0  501    0  0.00000000000E+00  0.00000000000E+00  0.23946949233E+03  0.23946949238E+03  0.50400001928E-02 0.  1.
       -1   -1    0    0    0  501  0.00000000000E+00  0.00000000000E+00 -0.35702825159E+03  0.35702825163E+03  0.50400001928E-02 0. -1.
    10030    2    1    2    0    0  0.00000000000E+00  0.00000000000E+00 -0.11755875927E+03  0.59649774401E+03  0.58479868051E+03 0.  0.
        5    1    3    3  502    0 -0.19400313535E+03 -0.20596323716E+03  0.16294759565E+02  0.28345313682E+03  0.46999998093E+01 0. -1.
       -5    1    3    3    0  502  0.19400313535E+03  0.20596323716E+03 -0.13385351883E+03  0.31304460719E+03  0.46999998093E+01 0.  1.
</event>
<event>
 5   0  0.1175861E-01  0.5866483E+03  0.7818609E-02  0.9933500E-01
       -2   -1    0    0    0  501  0.00000000000E+00  0.00000000000E+00  0.43821465931E+02  0.43821466005E+02  0.25500000920E-02 0. -1.
        2   -1    0    0  501    0  0.00000000000E+00  0.00000000000E+00 -0.19634001104E+04  0.19634001104E+04  0.25500000920E-02 0.  1.
    10030    2    1    2    0    0  0.00000000000E+00  0.00000000000E+00 -0.19195786445E+04  0.20072215764E+04  0.58664834824E+03 0.  0.
        3    1    3    3  502    0 -0.18219604261E+03  0.14973309845E+03 -0.15565816204E+04  0.15743448637E+04  0.10100000352E+00 0.  1.
       -3    1    3    3    0  502  0.18219604261E+03 -0.14973309845E+03 -0.36299702408E+03  0.43287671271E+03  0.10100000352E+00 0. -1.
</event>
<event>
 5   0  0.1166419E-01  0.5979465E+03  0.7818609E-02  0.9909676E-01
       -2   -1    0    0    0  501  0.00000000000E+00  0.00000000000E+00  0.19017358779E+03  0.19017358781E+03  0.25500000920E-02 0. -1.
        2   -1    0    0  501    0  0.00000000000E+00  0.00000000000E+00 -0.47001803621E+03  0.47001803622E+03  0.25500000920E-02 0.  1.
    10030    2    1    2    0    0  0.00000000000E+00  0.00000000000E+00 -0.27984444842E+03  0.66019162403E+03  0.59794654035E+03 0.  0.
        1    1    3    3  502    0 -0.18522972883E+03  0.21444087498E+03 -0.34655433048E+02  0.28547493826E+03  0.50400001928E-02 0. -1.
       -1    1    3    3    0  502  0.18522972883E+03 -0.21444087498E+03 -0.24518901538E+03  0.37471668577E+03  0.50400001928E-02 0.  1.
</event>
<event>
 5   0  0.7123340E-02  0.5952544E+03  0.7818609E-02  0.9915301E-01
        1   -1    0    0  501    0  0.00000000000E+00  0.00000000000E+00  0.64785606380E+03  0.64785606382E+03  0.50400001928E-02 0. -1.
       -1   -1    0    0    0  501  0.00000000000E+00  0.00000000000E+00 -0.13673089992E+03  0.13673090001E+03  0.50400001928E-02 0.  1.
    10030    2    1    2    0    0  0.00000000000E+00  0.00000000000E+00  0.51112516388E+03  0.78458696384E+03  0.59525437476E+03 0.  0.
        2    1    3    3  502    0 -0.12557057824E+03  0.18365571076E+03 -0.50174084073E+01  0.22253665902E+03  0.25500000920E-02 0.  1.
       -2    1    3    3    0  502  0.12557057824E+03 -0.18365571076E+03  0.51614257229E+03  0.56205030482E+03  0.25500000920E-02 0. -1.
</event>
<event>
 5   0  0.4695625E-02  0.6029232E+03  0.7818609E-02  0.9899360E-01
       -4   -1    0    0    0  501  0.00000000000E+00  0.00000000000E+00  0.57165949494E+03  0.57166090566E+03  0.12699999809E+01 0. -1.
        4   -1    0    0  501    0  0.00000000000E+00  0.00000000000E+00 -0.15897005405E+03  0.15897512694E+03  0.12699999809E+01 0.  1.
    10030    2    1    2    0    0  0.00000000000E+00  0.00000000000E+00  0.41268944089E+03  0.73063603260E+03  0.60292324346E+03 0.  0.
        5    1    3    3  502    0  0.19484830438E+03 -0.59313786276E+01  0.48494792635E+03  0.52268310116E+03  0.46999998093E+01 0. -1.
       -5    1    3    3    0  502 -0.19484830438E+03  0.59313786276E+01 -0.72258485456E+02  0.20795293143E+03  0.46999998093E+01 0.  1.
</event>
<event>
 5   0  0.1175861E-01  0.4793437E+03  0.7818609E-02  0.1019316E+00
       -2   -1    0    0    0  501  0.00000000000E+00  0.00000000000E+00  0.17375733065E+03  0.17375733067E+03  0.25500000920E-02 0.  1.
        2   -1    0    0  501    0  0.00000000000E+00  0.00000000000E+00 -0.33059092338E+03  0.33059092339E+03  0.25500000920E-02 0. -1.
    10030    2    1    2    0    0  0.00000000000E+00  0.00000000000E+00 -0.15683359273E+03  0.50434825406E+03  0.47934370296E+03 0.  0.
        3    1    3    3  502    0 -0.92844991559E+01  0.21754460692E+03  0.26961149348E+02  0.21940549605E+03  0.10100000352E+00 0.  1.
       -3    1    3    3    0  502  0.92844991559E+01 -0.21754460692E+03 -0.18379474208E+03  0.28494275801E+03  0.10100000352E+00 0. -1.
</event>
<event>
 5   0  0.1175861E-01  0.6075746E+03  0.7818609E-02  0.9889815E-01
        2   -1    0    0  501    0  0.00000000000E+00  0.00000000000E+00  0.92936774068E+03  0.92936774068E+03  0.25500000920E-02 0.  1.
       -2   -1    0    0    0  501  0.00000000000E+00  0.00000000000E+00 -0.99300530141E+02  0.99300530174E+02  0.25500000920E-02 0. -1.
    10030    2    1    2    0    0  0.00000000000E+00  0.00000000000E+00  0.83006721054E+03  0.10286682709E+04  0.60757455300E+03 0.  0.
        3    1    3    3  502    0  0.37304233235E+02 -0.20517428049E+03  0.41026816822E+02  0.21253541139E+03  0.10100000352E+00 0. -1.
       -3    1    3    3    0  502 -0.37304233235E+02  0.20517428049E+03  0.78904039372E+03  0.81613285947E+03  0.10100000352E+00 0.  1.
</event>
<event>
 5   0  0.7266519E-02  0.6009783E+03  0.7818609E-02  0.9903379E-01
        1   -1    0    0  501    0  0.00000000000E+00  0.00000000000E+00  0.29275664637E+03  0.29275664641E+03  0.50400001928E-02 0.  1.
       -1   -1    0    0    0  501  0.00000000000E+00  0.00000000000E+00 -0.30842584246E+03  0.30842584250E+03  0.50400001928E-02 0. -1.
    10030    2    1    2    0    0  0.00000000000E+00  0.00000000000E+00 -0.15669196093E+02  0.60118248892E+03  0.60097825358E+03 0.  0.
        4    1    3    3  502    0  0.23309078195E+03 -0.96133634558E+02  0.15568077594E+03  0.29632938636E+03  0.12699999809E+01 0.  1.
       -4    1    3    3    0  502 -0.23309078195E+03  0.96133634558E+02 -0.17134997204E+03  0.30485310256E+03  0.12699999809E+01 0. -1.
</event>
<event>
 5   0  0.7266519E-02  0.5985998E+03  0.7818609E-02  0.9908315E-01
        1   -1    0    0  501    0  0.00000000000E+00  0.00000000000E+00  0.62374737441E+03  0.62374737443E+03  0.50400001928E-02 0. -1.
       -1   -1    0    0    0  501  0.00000000000E+00  0.00000000000E+00 -0.14361651753E+03  0.14361651761E+03  0.50400001928E-02 0.  1.
    10030    2    1    2    0    0  0.00000000000E+00  0.00000000000E+00  0.48013085688E+03  0.76736389204E+03  0.59859978540E+03 0.  0.
        4    1    3    3  502    0  0.21371253197E+03  0.20917079150E+03  0.25593999173E+03  0.39361447966E+03  0.12699999809E+01 0. -1.
       -4    1    3    3    0  502 -0.21371253197E+03 -0.20917079150E+03  0.22419086515E+03  0.37374941237E+03  0.12699999809E+01 0.  1.
</event>
<event>
 5   0  0.7263385E-02  0.5694384E+03  0.7818609E-02  0.9970922E-01
        1   -1    0    0  501    0  0.00000000000E+00  0.00000000000E+00  0.59320170953E+03  0.59320170955E+03  0.50400001928E-02 0. -1.
       -1   -1    0    0    0  501  0.00000000000E+00  0.00000000000E+00 -0.13665674260E+03  0.13665674269E+03  0.50400001928E-02 0.  1.
    10030    2    1    2    0    0  0.00000000000E+00  0.00000000000E+00  0.45654496693E+03  0.72985845224E+03  0.56943836671E+03 0.  0.
        1    1    3    3  502    0  0.12270760060E+03  0.10657063979E+03 -0.71360219807E+02  0.17750137325E+03  0.50400001928E-02 0.  1.
       -1    1    3    3    0  502 -0.12270760060E+03 -0.10657063979E+03  0.52790518673E+03  0.55235707899E+03  0.50400001928E-02 0. -1.
</event>
<event>
 5   0  0.7263385E-02  0.5964321E+03  0.7818609E-02  0.9912836E-01
       -1   -1    0    0    0  501  0.00000000000E+00  0.00000000000E+00  0.19774867746E+03  0.19774867753E+03  0.50400001928E-02 0.  1.
        1   -1    0    0  501    0  0.00000000000E+00  0.00000000000E+00 -0.44972651439E+03  0.44972651442E+03  0.50400001928E-02 0. -1.
    10030    2    1    2    0    0  0.00000000000E+00  0.00000000000E+00 -0.25197783692E+03  0.64747519194E+03  0.59643213686E+03 0.  0.
        1    1    3    3  502    0 -0.14560625893E+03 -0.25985153008E+03 -0.14167633362E+03  0.32984266530E+03  0.50400001928E-02 0.  1.
       -1    1    3    3    0  502  0.14560625893E+03  0.25985153008E+03 -0.11030150330E+03  0.31763252664E+03  0.50400001928E-02 0. -1.
</event>
<event>
 5   0  0.7123340E-02  0.6027531E+03  0.7818609E-02  0.9899711E-01
        1   -1    0    0  501    0  0.00000000000E+00  0.00000000000E+00  0.55312692302E+03  0.55312692305E+03  0.50400001928E-02 0. -1.
       -1   -1    0    0    0  501  0.00000000000E+00  0.00000000000E+00 -0.16420790236E+03  0.16420790244E+03  0.50400001928E-02 0.  1.
    10030    2    1    2    0    0  0.00000000000E+00  0.00000000000E+00  0.38891902067E+03  0.71733482548E+03  0.60275305658E+03 0.  0.
        2    1    3    3  502    0  0.23833922256E+03 -0.23124590575E+02 -0.23323365579E+02  0.24059158565E+03  0.25500000920E-02 0.  1.
       -2    1    3    3    0  502 -0.23833922256E+03  0.23124590575E+02  0.41224238624E+03  0.47674323983E+03  0.25500000920E-02 0. -1.
</event>
<event>
 5   0  0.7221069E-02  0.5964043E+03  0.7818609E-02  0.9912894E-01
        1   -1    0    0  501    0  0.00000000000E+00  0.00000000000E+00  0.91036546112E+03  0.91036546113E+03  0.50400001928E-02 0.  1.
       -1   -1    0    0    0  501  0.00000000000E+00  0.00000000000E+00 -0.97680016647E+02  0.97680016777E+02  0.50400001928E-02 0. -1.
    10030    2    1    2    0    0  0.00000000000E+00  0.00000000000E+00  0.81268544447E+03  0.10080454779E+04  0.59640427051E+03 0.  0.
        5    1    3    3  502    0  0.26698272209E+02  0.29139873359E+03  0.30959559208E+03  0.42602528131E+03  0.46999998093E+01 0. -1.
       -5    1    3    3    0  502 -0.26698272209E+02 -0.29139873359E+03  0.50308985239E+03  0.58202019660E+03  0.46999998093E+01 0.  1.
</event>
<event>
 5   0  0.4695625E-02  0.6170396E+03  0.7818609E-02  0.9870672E-01
       -3   -1    0    0    0  501  0.00000000000E+00  0.00000000000E+00  0.64488941623E+03  0.64488942414E+03  0.10100000352E+00 0.  1.
        3   -1    0    0  501    0  0.00000000000E+00  0.00000000000E+00 -0.14759808634E+03  0.14759812090E+03  0.10100000352E+00 0. -1.
    10030    2    1    2    0    0  0.00000000000E+00  0.00000000000E+00  0.49729132989E+03  0.79248754504E+03  0.61703957916E+03 0.  0.
        3    1    3    3  502    0  0.28918844107E+03 -0.65714143065E+02  0.13939272734E+03  0.32768681036E+03  0.10100000352E+00 0. -1.
       -3    1    3    3    0  502 -0.28918844107E+03  0.65714143065E+02  0.35789860255E+03  0.46480073468E+03  0.10100000352E+00 0.  1.
</event>
<event>
 5   0  0.7123340E-02  0.6014272E+03  0.7818609E-02  0.9902450E-01
        1   -1    0    0  501    0  0.00000000000E+00  0.00000000000E+00  0.90433861873E+02  0.90433862014E+02  0.50400001928E-02 0.  1.
       -1   -1    0    0    0  501  0.00000000000E+00  0.00000000000E+00 -0.99994242993E+03  0.99994242994E+03  0.50400001928E-02 0. -1.
    10030    2    1    2    0    0  0.00000000000E+00  0.00000000000E+00 -0.90950856806E+03  0.10903762920E+04  0.60142715493E+03 0.  0.
        2    1    3    3  502    0 -0.86851111969E+02  0.22136483845E+03 -0.78847659743E+03  0.82355379427E+03  0.25500000920E-02 0. -1.
       -2    1    3    3    0  502  0.86851111969E+02 -0.22136483845E+03 -0.12103197063E+03  0.26682249769E+03  0.25500000920E-02 0.  1.
</event>
<event>
 5   0  0.1166419E-01  0.6003960E+03  0.7818609E-02  0.9904585E-01
       -2   -1    0    0    0  501  0.00000000000E+00  0.00000000000E+00  0.33191172783E+03  0.33191172784E+03  0.25500000920E-02 0.  1.
        2   -1    0    0  501    0  0.00000000000E+00  0.00000000000E+00 -0.27151448448E+03  0.27151448449E+03  0.25500000920E-02 0. -1.
    10030    2    1    2    0    0  0.00000000000E+00  0.00000000000E+00  0.60397243357E+02  0.60342621233E+03  0.60039600825E+03 0.  0.
        1    1    3    3  502    0  0.21156355623E+03  0.93692236031E+02 -0.16202950856E+03  0.28247289266E+03  0.50400001928E-02 0. -1.
       -1    1    3    3    0  502 -0.21156355623E+03 -0.93692236031E+02  0.22242675191E+03  0.32095331967E+03  0.50400001928E-02 0.  1.
</event>
<event>
 5   0  0.1166419E-01  0.5950668E+03  0.7818609E-02  0.9915694E-01
       -2   -1    0    0    0  501  0.00000000000E+00  0.00000000000E+00  0.90480173362E+02  0.90480173398E+02  0.25500000920E-02 0. -1.
        2   -1    0    0  501    0  0.00000000000E+00  0.00000000000E+00 -0.97840349741E+03  0.97840349741E+03  0.25500000920E-02 0.  1.
    10030    2    1    2    0    0  0.00000000000E+00  0.00000000000E+00 -0.88792332405E+03  0.10688836708E+04  0.59506677973E+03 0.  0.
        1    1    3    3  502    0 -0.25025721434E+03  0.87736785327E+02 -0.68628590562E+03  0.73574096060E+03  0.50400001928E-02 0.  1.
       -1    1    3    3    0  502  0.25025721434E+03 -0.87736785327E+02 -0.20163741843E+03  0.33314271021E+03  0.50400001928E-02 0. -1.
</event>
<event>
 5   0  0.1219020E-01  0.6016659E+03  0.7818609E-02  0.9901956E-01
        2   -1    0    0  501    0  0.00000000000E+00  0.00000000000E+00  0.11263681192E+04  0.11263681192E+04  0.25500000920E-02 0. -1.
       -2   -1    0    0    0  501  0.00000000000E+00  0.00000000000E+00 -0.80347145599E+02  0.80347145639E+02  0.25500000920E-02 0.  1.
    10030    2    1    2    0    0  0.00000000000E+00  0.00000000000E+00  0.10460209736E+04  0.12067152648E+04  0.60166589830E+03 0.  0.
        2    1    3    3  502    0 -0.22086686729E+03  0.33092607297E+02  0.92724771972E+03  0.95376392648E+03  0.25500000920E-02 0. -1.
       -2    1    3    3    0  502  0.22086686729E+03 -0.33092607297E+02  0.11877325383E+03  0.25295133831E+03  0.25500000920E-02 0.  1.
</event>
<event>
 5   0  0.7266519E-02  0.6045802E+03  0.7818609E-02  0.9895949E-01
        1   -1    0    0  501    0  0.00000000000E+00  0.00000000000E+00  0.49324832470E+03  0.49324832472E+03  0.50400001928E-02 0.  1.
       -1   -1    0    0    0  501  0.00000000000E+00  0.00000000000E+00 -0.18526026471E+03  0.18526026478E+03  0.50400001928E-02 0. -1.
    10030    2    1    2    0    0  0.00000000000E+00  0.00000000000E+00  0.30798805999E+03  0.67850858950E+03  0.60458023531E+03 0.  0.
        4    1    3    3  502    0 -0.29810188055E+03  0.74889907160E+01  0.20962209094E+03  0.36450493835E+03  0.12699999809E+01 0. -1.
       -4    1    3    3    0  502  0.29810188055E+03 -0.74889907160E+01  0.98365969046E+02  0.31400365115E+03  0.12699999809E+01 0.  1.
</event>
<event>
 5   0  0.7266519E-02  0.5954289E+03  0.7818609E-02  0.9914935E-01
        1   -1    0    0  501    0  0.00000000000E+00  0.00000000000E+00  0.26066443672E+03  0.26066443677E+03  0.50400001928E-02 0.  1.
       -1   -1    0    0    0  501  0.00000000000E+00  0.00000000000E+00 -0.34003058590E+03  0.34003058594E+03  0.50400001928E-02 0. -1.
    10030    2    1    2    0    0  0.00000000000E+00  0.00000000000E+00 -0.79366149186E+02  0.60069502271E+03  0.59542885777E+03 0.  0.
        4    1    3    3  502    0 -0.20201608692E+03 -0.10244775251E+03  0.15522561433E+03  0.27459542169E+03  0.12699999809E+01 0.  1.
       -4    1    3    3    0  502  0.20201608692E+03  0.10244775251E+03 -0.23459176352E+03  0.32609960101E+03  0.12699999809E+01 0. -1.
</event>
<event>
 5   0  0.7263385E-02  0.6004225E+03  0.7818609E-02  0.9904530E-01
       -1   -1    0    0    0  501  0.00000000000E+00  0.00000000000E+00  0.24708437904E+03  0.24708437909E+03  0.50400001928E-02 0.  1.
        1   -1    0    0  501    0  0.00000000000E+00  0.00000000000E+00 -0.36476121502E+03  0.36476121506E+03  0.50400001928E-02 0. -1.
    10030    2    1    2    0    0  0.00000000000E+00  0.00000000000E+00 -0.11767683598E+03  0.61184559414E+03  0.60042251236E+03 0.  0.
        1    1    3    3  502    0 -0.24847629177E+02 -0.23751085752E+03  0.12655130473E+03  0.27026661812E+03  0.50400001928E-02 0.  1.
       -1    1    3    3    0  502  0.24847629177E+02  0.23751085752E+03 -0.24422814072E+03  0.34157897602E+03  0.50400001928E-02 0. -1.
</event>
<event>
 5   0  0.7123340E-02  0.5986376E+03  0.7818609E-02  0.9908237E-01
       -1   -1    0    0    0  501  0.00000000000E+00  0.00000000000E+00  0.10212074256E+03  0.10212074269E+03  0.50400001928E-02 0.  1.
        1   -1    0    0  501    0  0.00000000000E+00  0.00000000000E+00 -0.87731183641E+03  0.87731183642E+03  0.50400001928E-02 0. -1.
    10030    2    1    2    0    0  0.00000000000E+00  0.00000000000E+00 -0.77519109384E+03  0.97943257911E+03  0.59863757403E+03 0.  0.
        2    1    3    3  502    0 -0.21947843606E+02 -0.24353095709E+02  0.99174455809E+02  0.10445263903E+03  0.25500000920E-02 0.  1.
       -2    1    3    3    0  502  0.21947843606E+02  0.24353095709E+02 -0.87436554965E+03  0.87497994007E+03  0.25500000920E-02 0. -1.
</event>
<event>
 5   0  0.4695625E-02  0.5980511E+03  0.7818609E-02  0.9909458E-01
        4   -1    0    0  501    0  0.00000000000E+00  0.00000000000E+00  0.14487426478E+03  0.14487983123E+03  0.12699999809E+01 0.  1.
       -4   -1    0    0    0  501  0.00000000000E+00  0.00000000000E+00 -0.61718103308E+03  0.61718233974E+03  0.12699999809E+01 0. -1.
    10030    2    1    2    0    0  0.00000000000E+00  0.00000000000E+00 -0.47230676829E+03  0.76206217097E+03  0.59805105890E+03 0.  0.
        3    1    3    3  502    0 -0.58421803109E+02 -0.25888330578E+03 -0.41171509516E+03  0.48983977266E+03  0.10100000352E+00 0. -1.
       -3    1    3    3    0  502  0.58421803109E+02  0.25888330578E+03 -0.60591673129E+02  0.27222239831E+03  0.10100000352E+00 0.  1.
</event>
<event>
 5   0  0.1175861E-01  0.6027237E+03  0.7818609E-02  0.9899771E-01
        2   -1    0    0  501    0  0.00000000000E+00  0.00000000000E+00  0.89278306306E+03  0.89278306306E+03  0.25500000920E-02 0.  1.
       -2   -1    0    0    0  501  0.00000000000E+00  0.00000000000E+00 -0.10172566674E+03  0.10172566677E+03  0.25500000920E-02 0. -1.
    10030    2    1    2    0    0  0.00000000000E+00  0.00000000000E+00  0.79105739632E+03  0.99450872984E+03  0.60272365927E+03 0.  0.
        3    1    3    3  502    0 -0.19501767527E+03 -0.13928316380E+03  0.94033307614E+02  0.25743730601E+03  0.10100000352E+00 0. -1.
       -3    1    3    3    0  502  0.19501767527E+03  0.13928316380E+03  0.69702408871E+03  0.73707142383E+03  0.10100000352E+00 0.  1.
</event>
<event>
 5   0  0.1166419E-01  0.6164178E+03  0.7818609E-02  0.9871918E-01
        2   -1    0    0  501    0  0.00000000000E+00  0.00000000000E+00  0.36267982702E+03  0.36267982703E+03  0.25500000920E-02 0.  1.
       -2   -1    0    0    0  501  0.00000000000E+00  0.00000000000E+00 -0.26191893549E+03  0.26191893550E+03  0.25500000920E-02 0. -1.
    10030    2    1    2    0    0  0.00000000000E+00  0.00000000000E+00  0.10076089153E+03  0.62459876253E+03  0.61641776166E+03 0.  0.
        1    1    3    3  502    0 -0.83979413104E+01  0.16313690765E+03 -0.21444729215E+03  0.26957710806E+03  0.50400001928E-02 0. -1.
       -1    1    3    3    0  502  0.83979413104E+01 -0.16313690765E+03  0.31520818368E+03  0.35502165447E+03  0.50400001928E-02 0.  1.
</event>
<event>
 5   0  0.1175861E-01  0.5891437E+03  0.7818609E-02  0.9928189E-01
        2   -1    0    0  501    0  0.00000000000E+00  0.00000000000E+00  0.11505576178E+03  0.11505576181E+03  0.25500000920E-02 0. -1.
       -2   -1    0    0    0  501  0.00000000000E+00  0.00000000000E+00 -0.75417847328E+03  0.75417847328E+03  0.25500000920E-02 0.  1.
    10030    2    1    2    0    0  0.00000000000E+00  0.00000000000E+00 -0.63912271149E+03  0.86923423509E+03  0.58914371346E+03 0.  0.
        3    1    3    3  502    0  0.38564674919E+01 -0.26483355132E+02  0.11325830549E+03  0.11637737927E+03  0.10100000352E+00 0. -1.
       -3    1    3    3    0  502 -0.38564674919E+01  0.26483355132E+02 -0.75238101699E+03  0.75285685582E+03  0.10100000352E+00 0.  1.
</event>
<event>
 5   0  0.7266519E-02  0.6337093E+03  0.7818609E-02  0.9837837E-01
       -1   -1    0    0    0  501  0.00000000000E+00  0.00000000000E+00  0.13051710223E+03  0.13051710233E+03  0.50400001928E-02 0.  1.
        1   -1    0    0  501    0  0.00000000000E+00  0.00000000000E+00 -0.76922389907E+03  0.76922389908E+03  0.50400001928E-02 0. -1.
    10030    2    1    2    0    0  0.00000000000E+00  0.00000000000E+00 -0.63870679683E+03  0.89974100141E+03  0.63370931610E+03 0.  0.
        4    1    3    3  502    0 -0.68127811258E+02 -0.13393842213E+02  0.11957973385E+03  0.13828130504E+03  0.12699999809E+01 0.  1.
       -4    1    3    3    0  502  0.68127811258E+02  0.13393842213E+02 -0.75828653069E+03  0.76145969637E+03  0.12699999809E+01 0. -1.
</event>
<event>
 5   0  0.1219020E-01  0.6064721E+03  0.7818609E-02  0.9892069E-01
       -2   -1    0    0    0  501  0.00000000000E+00  0.00000000000E+00  0.24010607494E+03  0.24010607496E+03  0.25500000920E-02 0. -1.
        2   -1    0    0  501    0  0.00000000000E+00  0.00000000000E+00 -0.38296448911E+03  0.38296448912E+03  0.25500000920E-02 0.  1.
    10030    2    1    2    0    0  0.00000000000E+00  0.00000000000E+00 -0.14285841417E+03  0.62307056408E+03  0.60647209443E+03 0.  0.
        2    1    3    3  502    0  0.11340278491E+03 -0.23546142219E+03 -0.22942313603E+03  0.34776033172E+03  0.25500000920E-02 0.  1.
       -2    1    3    3    0  502 -0.11340278491E+03  0.23546142219E+03  0.86564721863E+02  0.27531023236E+03  0.25500000920E-02 0. -1.
</event>
<event>
 5   0  0.1219020E-01  0.6105216E+03  0.7818609E-02  0.9883814E-01
        2   -1    0    0  501    0  0.00000000000E+00  0.00000000000E+00  0.22671008375E+03  0.22671008376E+03  0.25500000920E-02 0.  1.
       -2   -1    0    0    0  501  0.00000000000E+00  0.00000000000E+00 -0.41102777587E+03  0.41102777587E+03  0.25500000920E-02 0. -1.
    10030    2    1    2    0    0  0.00000000000E+00  0.00000000000E+00 -0.18431769212E+03  0.63773785964E+03  0.61052155243E+03 0.  0.
        2    1    3    3  502    0 -0.26164454176E+03 -0.15706213942E+03 -0.84220073493E+02  0.31657448200E+03  0.25500000920E-02 0.  1.
       -2    1    3    3    0  502  0.26164454176E+03  0.15706213942E+03 -0.10009761863E+03  0.32116337763E+03  0.25500000920E-02 0. -1.
</event>
<event>
 5   0  0.7266519E-02  0.5915562E+03  0.7818609E-02  0.9923081E-01
       -1   -1    0    0    0  501  0.00000000000E+00  0.00000000000E+00  0.14141924774E+03  0.14141924783E+03  0.50400001928E-02 0. -1.
        1   -1    0    0  501    0  0.00000000000E+00  0.00000000000E+00 -0.61861934366E+03  0.61861934368E+03  0.50400001928E-02 0.  1.
    10030    2    1    2    0    0  0.00000000000E+00  0.00000000000E+00 -0.47720009593E+03  0.76003859151E+03  0.59155619263E+03 0.  0.
        4    1    3    3  502    0 -0.23555863804E+03  0.17854833235E+03 -0.25241942083E+03  0.38869596840E+03  0.12699999809E+01 0.  1.
       -4    1    3    3    0  502  0.23555863804E+03 -0.17854833235E+03 -0.22478067510E+03  0.37134262311E+03  0.12699999809E+01 0. -1.
</event>
<event>
 5   0  0.7123340E-02  0.5999012E+03  0.7818609E-02  0.9905611E-01
       -1   -1    0    0    0  501  0.00000000000E+00  0.00000000000E+00  0.53207353633E+03  0.53207353636E+03  0.50400001928E-02 0. -1.
        1   -1    0    0  501    0  0.00000000000E+00  0.00000000000E+00 -0.16909386462E+03  0.16909386469E+03  0.50400001928E-02 0.  1.
    10030    2    1    2    0    0  0.00000000000E+00  0.00000000000E+00  0.36297967172E+03  0.70116740105E+03  0.59990122705E+03 0.  0.
        2    1    3    3  502    0  0.49665887346E+02 -0.16480768272E+03 -0.10562270912E+03  0.20195155196E+03  0.25500000920E-02 0.  1.
       -2    1    3    3    0  502 -0.49665887346E+02  0.16480768272E+03  0.46860238083E+03  0.49921584909E+03  0.25500000920E-02 0. -1.
</event>
<event>
 5   0  0.7221069E-02  0.6027356E+03  0.7818609E-02  0.9899747E-01
        1   -1    0    0  501    0  0.00000000000E+00  0.00000000000E+00  0.13945923438E+04  0.13945923438E+04  0.50400001928E-02 0. -1.
       -1   -1    0    0    0  501  0.00000000000E+00  0.00000000000E+00 -0.65124808765E+02  0.65124808960E+02  0.50400001928E-02 0.  1.
    10030    2    1    2    0    0  0.00000000000E+00  0.00000000000E+00  0.13294675351E+04  0.14597171528E+04  0.60273562976E+03 0.  0.
        5    1    3    3  502    0 -0.60391978317E+02 -0.22179516503E+01 -0.50209292165E+02  0.78709423657E+02  0.46999998093E+01 0.  1.
       -5    1    3    3    0  502  0.60391978317E+02  0.22179516503E+01  0.13796768272E+04  0.13810077291E+04  0.46999998093E+01 0. -1.
</event>
<event>
 5   0  0.1146468E-01  0.5746920E+03  0.7818609E-02  0.9959349E-01
       -2   -1    0    0    0  501  0.00000000000E+00  0.00000000000E+00  0.12342261770E+03  0.12342261773E+03  0.25500000920E-02 0.  1.
        2   -1    0    0  501    0  0.00000000000E+00  0.00000000000E+00 -0.66898362474E+03  0.66898362474E+03  0.25500000920E-02 0. -1.
    10030    2    1    2    0    0  0.00000000000E+00  0.00000000000E+00 -0.54556100704E+03  0.79240624247E+03  0.57469195288E+03 0.  0.
        4    1    3    3  502    0 -0.38388412079E+02 -0.10306312784E+03  0.93249089012E+02  0.14419668513E+03  0.12699999809E+01 0.  1.
       -4    1    3    3    0  502  0.38388412079E+02  0.10306312784E+03 -0.63881009605E+03  0.64820955733E+03  0.12699999809E+01 0. -1.
</event>
<event>
 5   0  0.7221069E-02  0.5258203E+03  0.7818609E-02  0.1007251E+00
        1   -1    0    0  501    0  0.00000000000E+00  0.00000000000E+00  0.13087334705E+03  0.13087334715E+03  0.50400001928E-02 0.  1.
       -1   -1    0    0    0  501  0.00000000000E+00  0.00000000000E+00 -0.52815750829E+03  0.52815750832E+03  0.50400001928E-02 0. -1.
    10030    2    1    2    0    0  0.00000000000E+00  0.00000000000E+00 -0.39728416124E+03  0.65903085546E+03  0.52582027697E+03 0.  0.
        5    1    3    3  502    0  0.19506388024E+03  0.15848877924E+03 -0.29516575817E+03  0.38770288277E+03  0.46999998093E+01 0. -1.
       -5    1    3    3    0  502 -0.19506388024E+03 -0.15848877924E+03 -0.10211840307E+03  0.27132797269E+03  0.46999998093E+01 0.  1.
</event>
<event>
 5   0  0.1166419E-01  0.5716839E+03  0.7818609E-02  0.9965959E-01
       -2   -1    0    0    0  501  0.00000000000E+00  0.00000000000E+00  0.13904990999E+03  0.13904991001E+03  0.25500000920E-02 0.  1.
        2   -1    0    0  501    0  0.00000000000E+00  0.00000000000E+00 -0.58759931607E+03  0.58759931607E+03  0.25500000920E-02 0. -1.
    10030    2    1    2    0    0  0.00000000000E+00  0.00000000000E+00 -0.44854940608E+03  0.72664922609E+03  0.57168394072E+03 0.  0.
        1    1    3    3  502    0  0.16043765361E+03  0.22886851691E+03 -0.30037542291E+03  0.41030041853E+03  0.50400001928E-02 0.  1.
       -1    1    3    3    0  502 -0.16043765361E+03 -0.22886851691E+03 -0.14817398317E+03  0.31634880756E+03  0.50400001928E-02 0. -1.
</event>
<event>
 5   0  0.7221069E-02  0.5918850E+03  0.7818609E-02  0.9922387E-01
        1   -1    0    0  501    0  0.00000000000E+00  0.00000000000E+00  0.52157291980E+03  0.52157291983E+03  0.50400001928E-02 0.  1.
       -1   -1    0    0    0  501  0.00000000000E+00  0.00000000000E+00 -0.16791893080E+03  0.16791893088E+03  0.50400001928E-02 0. -1.
    10030    2    1    2    0    0  0.00000000000E+00  0.00000000000E+00  0.35365398900E+03  0.68949185071E+03  0.59188501270E+03 0.  0.
        5    1    3    3  502    0  0.82116423606E+02 -0.10102019738E+03 -0.13272249812E+03  0.18597187640E+03  0.46999998093E+01 0. -1.
       -5    1    3    3    0  502 -0.82116423606E+02  0.10102019738E+03  0.48637648712E+03  0.50351997431E+03  0.46999998093E+01 0.  1.
</event>
<event>
 5   0  0.7263385E-02  0.5928111E+03  0.7818609E-02  0.9920434E-01
        1   -1    0    0  501    0  0.00000000000E+00  0.00000000000E+00  0.66459706795E+03  0.66459706797E+03  0.50400001928E-02 0. -1.
       -1   -1    0    0    0  501  0.00000000000E+00  0.00000000000E+00 -0.13219475916E+03  0.13219475926E+03  0.50400001928E-02 0.  1.
    10030    2    1    2    0    0  0.00000000000E+00  0.00000000000E+00  0.53240230879E+03  0.79679182723E+03  0.59281109768E+03 0.  0.
        1    1    3    3  502    0 -0.12452385737E+03  0.24356259728E+03  0.41961200504E+03  0.50090235041E+03  0.50400001928E-02 0. -1.
       -1    1    3    3    0  502  0.12452385737E+03 -0.24356259728E+03  0.11279030375E+03  0.29588947682E+03  0.50400001928E-02 0.  1.
</event>
<event>
 5   0  0.7424930E-02  0.6046978E+03  0.7818609E-02  0.9895707E-01
        1   -1    0    0  501    0  0.00000000000E+00  0.00000000000E+00  0.75317314016E+03  0.75317314017E+03  0.50400001928E-02 0. -1.
       -1   -1    0    0    0  501  0.00000000000E+00  0.00000000000E+00 -0.12137298252E+03  0.12137298262E+03  0.50400001928E-02 0.  1.
    10030    2    1    2    0    0  0.00000000000E+00  0.00000000000E+00  0.63180015764E+03  0.87454612280E+03  0.60469784331E+03 0.  0.
        3    1    3    3  502    0  0.63159148482E+01 -0.29397591243E+03  0.21411496523E+03  0.36374023204E+03  0.10100000352E+00 0. -1.
       -3    1    3    3    0  502 -0.63159148482E+01  0.29397591243E+03  0.41768519241E+03  0.51080589075E+03  0.10100000352E+00 0.  1.
</event>
<event>
 5   0  0.7221069E-02  0.5952760E+03  0.7818609E-02  0.9915256E-01
       -1   -1    0    0    0  501  0.00000000000E+00  0.00000000000E+00  0.12799784259E+03  0.12799784269E+03  0.50400001928E-02 0.  1.
        1   -1    0    0  501    0  0.00000000000E+00  0.00000000000E+00 -0.69210844537E+03  0.69210844539E+03  0.50400001928E-02 0. -1.
    10030    2    1    2    0    0  0.00000000000E+00  0.00000000000E+00 -0.56411060278E+03  0.82010628808E+03  0.59527602973E+03 0.  0.
        5    1    3    3  502    0  0.18684655520E+03  0.80575430093E+02  0.17136069499E+02  0.20425417989E+03  0.46999998093E+01 0.  1.
       -5    1    3    3    0  502 -0.18684655520E+03 -0.80575430093E+02 -0.58124667228E+03  0.61585210819E+03  0.46999998093E+01 0. -1.
</event>
<event>
 5   0  0.1146468E-01  0.5974612E+03  0.7818609E-02  0.9910687E-01
       -2   -1    0    0    0  501  0.00000000000E+00  0.00000000000E+00  0.10280065461E+03  0.10280065464E+03  0.25500000920E-02 0. -1.
        2   -1    0    0  501    0  0.00000000000E+00  0.00000000000E+00 -0.86808753034E+03  0.86808753034E+03  0.25500000920E-02 0.  1.
    10030    2    1    2    0    0  0.00000000000E+00  0.00000000000E+00 -0.76528687573E+03  0.97088818498E+03  0.59746118331E+03 0.  0.
        4    1    3    3  502    0 -0.28277675509E+03 -0.80606063937E+01 -0.53860067439E+03  0.60837485644E+03  0.12699999809E+01 0.  1.
       -4    1    3    3    0  502  0.28277675509E+03  0.80606063937E+01 -0.22668620134E+03  0.36251332854E+03  0.12699999809E+01 0. -1.
</event>
<event>
 5   0  0.1175861E-01  0.6019130E+03  0.7818609E-02  0.9901445E-01
        2   -1    0    0  501    0  0.00000000000E+00  0.00000000000E+00  0.13371757841E+04  0.13371757841E+04  0.25500000920E-02 0.  1.
       -2   -1    0    0    0  501  0.00000000000E+00  0.00000000000E+00 -0.67735916001E+02  0.67735916049E+02  0.25500000920E-02 0. -1.
    10030    2    1    2    0    0  0.00000000000E+00  0.00000000000E+00  0.12694398681E+04  0.14049117002E+04  0.60191303899E+03 0.  0.
        3    1    3    3  502    0  0.14700459970E+03 -0.57491171256E+01  0.21912726627E+02  0.14873998275E+03  0.10100000352E+00 0. -1.
       -3    1    3    3    0  502 -0.14700459970E+03  0.57491171256E+01  0.12475271415E+04  0.12561717174E+04  0.10100000352E+00 0.  1.
</event>
<event>
 5   0  0.1219020E-01  0.5982649E+03  0.7818609E-02  0.9909012E-01
        2   -1    0    0  501    0  0.00000000000E+00  0.00000000000E+00  0.62097112268E+03  0.62097112269E+03  0.25500000920E-02 0. -1.
       -2   -1    0    0    0  501  0.00000000000E+00  0.00000000000E+00 -0.14409722438E+03  0.14409722440E+03  0.25500000920E-02 0.  1.
    10030    2    1    2    0    0  0.00000000000E+00  0.00000000000E+00  0.47687389831E+03  0.76506834709E+03  0.59826487514E+03 0.  0.
        2    1    3    3  502    0  0.18568496741E+03 -0.61340555930E+02 -0.51034372429E+02  0.20210412687E+03  0.25500000920E-02 0.  1.
       -2    1    3    3    0  502 -0.18568496741E+03  0.61340555930E+02  0.52790827074E+03  0.56296422021E+03  0.25500000920E-02 0. -1.
</event>
<event>
 5   0  0.1166419E-01  0.6052236E+03  0.7818609E-02  0.9894628E-01
        2   -1    0    0  501    0  0.00000000000E+00  0.00000000000E+00  0.10555011502E+04  0.10555011502E+04  0.25500000920E-02 0.  1.
       -2   -1    0    0    0  501  0.00000000000E+00  0.00000000000E+00 -0.86758705864E+02  0.86758705901E+02  0.25500000920E-02 0. -1.
    10030    2    1    2    0    0  0.00000000000E+00  0.00000000000E+00  0.96874244438E+03  0.11422598561E+04  0.60522364083E+03 0.  0.
        1    1    3    3  502    0  0.11504509583E+03  0.27496953936E+03  0.38575381208E+03  0.48749320529E+03  0.50400001928E-02 0. -1.
       -1    1    3    3    0  502 -0.11504509583E+03 -0.27496953936E+03  0.58298863231E+03  0.65476665086E+03  0.50400001928E-02 0.  1.
</event>
<event>
 5   0  0.1206238E-01  0.5806970E+03  0.7818609E-02  0.9946283E-01
       -2   -1    0    0    0  501  0.00000000000E+00  0.00000000000E+00  0.57214858552E+02  0.57214858609E+02  0.25500000920E-02 0. -1.
        2   -1    0    0  501    0  0.00000000000E+00  0.00000000000E+00 -0.14734328277E+04  0.14734328277E+04  0.25500000920E-02 0.  1.
    10030    2    1    2    0    0  0.00000000000E+00  0.00000000000E+00 -0.14162179691E+04  0.15306476863E+04  0.58069699798E+03 0.  0.
        5    1    3    3  502    0 -0.68124847268E+02  0.27223247062E+03 -0.51211843609E+03  0.58398535552E+03  0.46999998093E+01 0. -1.
       -5    1    3    3    0  502  0.68124847268E+02 -0.27223247062E+03 -0.90409953303E+03  0.94666233076E+03  0.46999998093E+01 0.  1.
</event>
<event>
 5   0  0.1175861E-01  0.5942011E+03  0.7818609E-02  0.9917510E-01
        2   -1    0    0  501    0  0.00000000000E+00  0.00000000000E+00  0.11329874778E+04  0.11329874778E+04  0.25500000920E-02 0. -1.
       -2   -1    0    0    0  501  0.00000000000E+00  0.00000000000E+00 -0.77907959031E+02  0.77907959072E+02  0.25500000920E-02 0.  1.
    10030    2    1    2    0    0  0.00000000000E+00  0.00000000000E+00  0.10550795188E+04  0.12108954369E+04  0.59420111757E+03 0.  0.
        3    1    3    3  502    0  0.28292968017E+03 -0.34275405165E+02  0.69858271226E+03  0.75448116172E+03  0.10100000352E+00 0. -1.
       -3    1    3    3    0  502 -0.28292968017E+03  0.34275405165E+02  0.35649680653E+03  0.45641427518E+03  0.10100000352E+00 0.  1.
</event>
<event>
 5   0  0.7263385E-02  0.6082836E+03  0.7818609E-02  0.9888368E-01
        1   -1    0    0  501    0  0.00000000000E+00  0.00000000000E+00  0.11541084156E+03  0.11541084167E+03  0.50400001928E-02 0. -1.
       -1   -1    0    0    0  501  0.00000000000E+00  0.00000000000E+00 -0.80150381844E+03  0.80150381846E+03  0.50400001928E-02 0.  1.
    10030    2    1    2    0    0  0.00000000000E+00  0.00000000000E+00 -0.68609297688E+03  0.91691466012E+03  0.60828358602E+03 0.  0.
        1    1    3    3  502    0 -0.20967359982E+03 -0.22020974689E+03 -0.33272570507E+03  0.45073467353E+03  0.50400001928E-02 0.  1.
       -1    1    3    3    0  502  0.20967359982E+03  0.22020974689E+03 -0.35336727181E+03  0.46617998659E+03  0.50400001928E-02 0. -1.
</event>
<event>
 5   0  0.7424930E-02  0.5986076E+03  0.7818609E-02  0.9908299E-01
       -1   -1    0    0    0  501  0.00000000000E+00  0.00000000000E+00  0.83322019771E+02  0.83322019924E+02  0.50400001928E-02 0. -1.
        1   -1    0    0  501    0  0.00000000000E+00  0.00000000000E+00 -0.10751391184E+04  0.10751391184E+04  0.50400001928E-02 0.  1.
    10030    2    1    2    0    0  0.00000000000E+00  0.00000000000E+00 -0.99181709866E+03  0.11584611384E+04  0.59860759427E+03 0.  0.
        3    1    3    3  502    0  0.48361158177E+02  0.33183616748E+02  0.72091974407E+02  0.92936629031E+02  0.10100000352E+00 0. -1.
       -3    1    3    3    0  502 -0.48361158177E+02 -0.33183616748E+02 -0.10639090731E+04  0.10655245093E+04  0.10100000352E+00 0.  1.
</event>
<event>
 5   0  0.7221069E-02  0.5967874E+03  0.7818609E-02  0.9912094E-01
        1   -1    0    0  501    0  0.00000000000E+00  0.00000000000E+00  0.27181185235E+03  0.27181185240E+03  0.50400001928E-02 0. -1.
       -1   -1    0    0    0  501  0.00000000000E+00  0.00000000000E+00 -0.32757513260E+03  0.32757513264E+03  0.50400001928E-02 0.  1.
    10030    2    1    2    0    0  0.00000000000E+00  0.00000000000E+00 -0.55763280249E+02  0.59938698503E+03  0.59678741140E+03 0.  0.
        5    1    3    3  502    0  0.14698773356E+03 -0.47295488419E+02  0.22852328573E+03  0.27583915451E+03  0.46999998093E+01 0. -1.
       -5    1    3    3    0  502 -0.14698773356E+03  0.47295488419E+02 -0.28428656598E+03  0.32354783052E+03  0.46999998093E+01 0.  1.
</event>
<event>
 5   0  0.7424930E-02  0.5859489E+03  0.7818609E-02  0.9934994E-01
        1   -1    0    0  501    0  0.00000000000E+00  0.00000000000E+00  0.10901148082E+04  0.10901148082E+04  0.50400001928E-02 0. -1.
       -1   -1    0    0    0  501  0.00000000000E+00  0.00000000000E+00 -0.78738522858E+02  0.78738523019E+02  0.50400001928E-02 0.  1.
    10030    2    1    2    0    0  0.00000000000E+00  0.00000000000E+00  0.10113762854E+04  0.11688533313E+04  0.58594890510E+03 0.  0.
        3    1    3    3  502    0 -0.10151931904E+03  0.25833433100E+03  0.69272399762E+03  0.74626359002E+03  0.10100000352E+00 0. -1.
       -3    1    3    3    0  502  0.10151931904E+03 -0.25833433100E+03  0.31865228776E+03  0.42258974125E+03  0.10100000352E+00 0.  1.
</event>
<event>
 5   0  0.1219020E-01  0.6103397E+03  0.7818609E-02  0.9884184E-01
       -2   -1    0    0    0  501  0.00000000000E+00  0.00000000000E+00  0.86993359205E+03  0.86993359205E+03  0.25500000920E-02 0.  1.
        2   -1    0    0  501    0  0.00000000000E+00  0.00000000000E+00 -0.10705257063E+03  0.10705257066E+03  0.25500000920E-02 0. -1.
    10030    2    1    2    0    0  0.00000000000E+00  0.00000000000E+00  0.76288102142E+03  0.97698616271E+03  0.61033966714E+03 0.  0.
        2    1    3    3  502    0  0.35201958133E+02  0.11714987369E+02 -0.10342922744E+03  0.10988186329E+03  0.25500000920E-02 0. -1.
       -2    1    3    3    0  502 -0.35201958133E+02 -0.11714987369E+02  0.86631024886E+03  0.86710429942E+03  0.25500000920E-02 0.  1.
</event>
<event>
 5   0  0.1175861E-01  0.6670654E+03  0.7818609E-02  0.9775274E-01
        2   -1    0    0  501    0  0.00000000000E+00  0.00000000000E+00  0.15651624462E+03  0.15651624464E+03  0.25500000920E-02 0. -1.
       -2   -1    0    0    0  501  0.00000000000E+00  0.00000000000E+00 -0.71075082651E+03  0.71075082652E+03  0.25500000920E-02 0.  1.
    10030    2    1    2    0    0  0.00000000000E+00  0.00000000000E+00 -0.55423458189E+03  0.86726707116E+03  0.66706536482E+03 0.  0.
        3    1    3    3  502    0  0.15479823640E+03 -0.28353777525E+03 -0.16921587921E+03  0.36467819782E+03  0.10100000352E+00 0. -1.
       -3    1    3    3    0  502 -0.15479823640E+03  0.28353777525E+03 -0.38501870268E+03  0.50258887334E+03  0.10100000352E+00 0.  1.
</event>
<event>
 5   0  0.7424930E-02  0.5963768E+03  0.7818609E-02  0.9912952E-01
        1   -1    0    0  501    0  0.00000000000E+00  0.00000000000E+00  0.41353965641E+03  0.41353965644E+03  0.50400001928E-02 0.  1.
       -1   -1    0    0    0  501  0.00000000000E+00  0.00000000000E+00 -0.21501281331E+03  0.21501281336E+03  0.50400001928E-02 0. -1.
    10030    2    1    2    0    0  0.00000000000E+00  0.00000000000E+00  0.19852684311E+03  0.62855246981E+03  0.59637681030E+03 0.  0.
        3    1    3    3  502    0  0.14187065533E+03 -0.17649931747E+03 -0.10520602466E+03  0.24969503346E+03  0.10100000352E+00 0. -1.
       -3    1    3    3    0  502 -0.14187065533E+03  0.17649931747E+03  0.30373286776E+03  0.37885743634E+03  0.10100000352E+00 0.  1.
</event>
<event>
 5   0  0.7123340E-02  0.5997539E+03  0.7818609E-02  0.9905917E-01
        1   -1    0    0  501    0  0.00000000000E+00  0.00000000000E+00  0.46404867165E+03  0.46404867168E+03  0.50400001928E-02 0. -1.
       -1   -1    0    0    0  501  0.00000000000E+00  0.00000000000E+00 -0.19378612418E+03  0.19378612425E+03  0.50400001928E-02 0.  1.
    10030    2    1    2    0    0  0.00000000000E+00  0.00000000000E+00  0.27026254747E+03  0.65783479592E+03  0.59975392801E+03 0.  0.
        2    1    3    3  502    0 -0.28438640843E+03  0.55375026385E+02  0.21998007808E+03  0.36377638407E+03  0.25500000920E-02 0. -1.
       -2    1    3    3    0  502  0.28438640843E+03 -0.55375026385E+02  0.50282469386E+02  0.29405841185E+03  0.25500000920E-02 0.  1.
</event>
<event>
 5   0  0.1219020E-01  0.5880111E+03  0.7818609E-02  0.9930596E-01
       -2   -1    0    0    0  501  0.00000000000E+00  0.00000000000E+00  0.17803496503E+03  0.17803496505E+03  0.25500000920E-02 0.  1.
        2   -1    0    0  501    0  0.00000000000E+00  0.00000000000E+00 -0.48551846680E+03  0.48551846681E+03  0.25500000920E-02 0. -1.
    10030    2    1    2    0    0  0.00000000000E+00  0.00000000000E+00 -0.30748350177E+03  0.66355343186E+03  0.58801109944E+03 0.  0.
        2    1    3    3  502    0 -0.27093659737E+03 -0.66431259008E+02 -0.48973016613E+02  0.28322801473E+03  0.25500000920E-02 0.  1.
       -2    1    3    3    0  502  0.27093659737E+03  0.66431259008E+02 -0.25851048516E+03  0.38032541712E+03  0.25500000920E-02 0. -1.
</event>
<event>
 5   0  0.7123340E-02  0.5993204E+03  0.7818609E-02  0.9906817E-01
       -1   -1    0    0    0  501  0.00000000000E+00  0.00000000000E+00  0.11005351413E+04  0.11005351413E+04  0.50400001928E-02 0.  1.
        1   -1    0    0  501    0  0.00000000000E+00  0.00000000000E+00 -0.81593253878E+02  0.81593254034E+02  0.50400001928E-02 0. -1.
    10030    2    1    2    0    0  0.00000000000E+00  0.00000000000E+00  0.10189418874E+04  0.11821283953E+04  0.59932042610E+03 0.  0.
        2    1    3    3  502    0  0.23060552896E+03  0.16889226879E+03  0.68691163677E+03  0.74401015127E+03  0.25500000920E-02 0.  1.
       -2    1    3    3    0  502 -0.23060552896E+03 -0.16889226879E+03  0.33203025065E+03  0.43811824408E+03  0.25500000920E-02 0. -1.
</event>
<event>
 5   0  0.4695625E-02  0.5815291E+03  0.7818609E-02  0.9944486E-01
       -3   -1    0    0    0  501  0.00000000000E+00  0.00000000000E+00  0.13358676564E+03  0.13358680382E+03  0.10100000352E+00 0. -1.
        3   -1    0    0  501    0  0.00000000000E+00  0.00000000000E+00 -0.63287713941E+03  0.63287714747E+03  0.10100000352E+00 0.  1.
    10030    2    1    2    0    0  0.00000000000E+00  0.00000000000E+00 -0.49929037376E+03  0.76646395129E+03  0.58152911474E+03 0.  0.
        4    1    3    3  502    0 -0.21213425922E+03  0.23455042848E+02 -0.50990331768E+03  0.55276947207E+03  0.12699999809E+01 0.  1.
       -4    1    3    3    0  502  0.21213425922E+03 -0.23455042848E+02  0.10612943912E+02  0.21369447922E+03  0.12699999809E+01 0. -1.
</event>
<event>
 5   0  0.1166419E-01  0.5974654E+03  0.7818609E-02  0.9910679E-01
        2   -1    0    0  501    0  0.00000000000E+00  0.00000000000E+00  0.35982891828E+03  0.35982891829E+03  0.25500000920E-02 0. -1.
       -2   -1    0    0    0  501  0.00000000000E+00  0.00000000000E+00 -0.24801013608E+03  0.24801013610E+03  0.25500000920E-02 0.  1.
    10030    2    1    2    0    0  0.00000000000E+00  0.00000000000E+00  0.11181878220E+03  0.60783905439E+03  0.59746537639E+03 0.  0.
        1    1    3    3  502    0  0.19362766316E+03  0.91066925237E+02  0.26799077164E+03  0.34293426560E+03  0.50400001928E-02 0. -1.
       -1    1    3    3    0  502 -0.19362766316E+03 -0.91066925237E+02 -0.15617198944E+03  0.26490478879E+03  0.50400001928E-02 0.  1.
</event>
<event>
 5   0  0.7266519E-02  0.5964612E+03  0.7818609E-02  0.9912775E-01
       -1   -1    0    0    0  501  0.00000000000E+00  0.00000000000E+00  0.17081600226E+03  0.17081600234E+03  0.50400001928E-02 0. -1.
        1   -1    0    0  501    0  0.00000000000E+00  0.00000000000E+00 -0.52068594427E+03  0.52068594429E+03  0.50400001928E-02 0.  1.
    10030    2    1    2    0    0  0.00000000000E+00  0.00000000000E+00 -0.34986994201E+03  0.69150194663E+03  0.59646120232E+03 0.  0.
        4    1    3    3  502    0 -0.13128760693E+03 -0.26754488798E+03 -0.16206807424E+03  0.33924088257E+03  0.12699999809E+01 0.  1.
       -4    1    3    3    0  502  0.13128760693E+03  0.26754488798E+03 -0.18780186777E+03  0.35226106406E+03  0.12699999809E+01 0. -1.
</event>
<event>
 5   0  0.7263385E-02  0.6006688E+03  0.7818609E-02  0.9904020E-01
        1   -1    0    0  501    0  0.00000000000E+00  0.00000000000E+00  0.29135681211E+03  0.29135681215E+03  0.50400001928E-02 0. -1.
       -1   -1    0    0    0  501  0.00000000000E+00  0.00000000000E+00 -0.30958857084E+03  0.30958857088E+03  0.50400001928E-02 0.  1.
    10030    2    1    2    0    0  0.00000000000E+00  0.00000000000E+00 -0.18231758736E+02  0.60094538304E+03  0.60066875761E+03 0.  0.
        1    1    3    3  502    0 -0.61619174430E+02  0.25807930176E+03 -0.14988920973E+03  0.30474353787E+03  0.50400001928E-02 0.  1.
       -1    1    3    3    0  502  0.61619174430E+02 -0.25807930176E+03  0.13165745100E+03  0.29620184517E+03  0.50400001928E-02 0. -1.
</event>
<event>
 5   0  0.7123340E-02  0.5991208E+03  0.7818609E-02  0.9907232E-01
       -1   -1    0    0    0  501  0.00000000000E+00  0.00000000000E+00  0.46965050473E+03  0.46965050476E+03  0.50400001928E-02 0. -1.
        1   -1    0    0  501    0  0.00000000000E+00  0.00000000000E+00 -0.19107067825E+03  0.19107067832E+03  0.50400001928E-02 0.  1.
    10030    2    1    2    0    0  0.00000000000E+00  0.00000000000E+00  0.27857982648E+03  0.66072118308E+03  0.59912082425E+03 0.  0.
        2    1    3    3  502    0 -0.15715982382E+03  0.41598264907E+02 -0.13818840056E+03  0.21336742938E+03  0.25500000920E-02 0.  1.
       -2    1    3    3    0  502  0.15715982382E+03 -0.41598264907E+02  0.41676822704E+03  0.44735375369E+03  0.25500000920E-02 0. -1.
</event>
<event>
 5   0  0.1166419E-01  0.6265654E+03  0.7818609E-02  0.9851774E-01
       -2   -1    0    0    0  501  0.00000000000E+00  0.00000000000E+00  0.19468427436E+03  0.19468427438E+03  0.25500000920E-02 0.  1.
        2   -1    0    0  501    0  0.00000000000E+00  0.00000000000E+00 -0.50412935540E+03  0.50412935540E+03  0.25500000920E-02 0. -1.
    10030    2    1    2    0    0  0.00000000000E+00  0.00000000000E+00 -0.30944508103E+03  0.69881362978E+03  0.62656542435E+03 0.  0.
        1    1    3    3  502    0 -0.30368876820E+03 -0.59155402954E+02 -0.20958650651E+03  0.37370139599E+03  0.50400001928E-02 0. -1.
       -1    1    3    3    0  502  0.30368876820E+03  0.59155402954E+02 -0.99858574522E+02  0.32511223379E+03  0.50400001928E-02 0.  1.
</event>
<event>
 5   0  0.1206238E-01  0.5970040E+03  0.7818609E-02  0.9911641E-01
        2   -1    0    0  501    0  0.00000000000E+00  0.00000000000E+00  0.97965432671E+03  0.97965432672E+03  0.25500000920E-02 0.  1.
       -2   -1    0    0    0  501  0.00000000000E+00  0.00000000000E+00 -0.90953974642E+02  0.90953974677E+02  0.25500000920E-02 0. -1.
    10030    2    1    2    0    0  0.00000000000E+00  0.00000000000E+00  0.88870035207E+03  0.10706083014E+04  0.59700403620E+03 0.  0.
        5    1    3    3  502    0  0.12295729212E+03  0.16120142610E+02  0.93120104772E+03  0.93943378476E+03  0.46999998093E+01 0.  1.
       -5    1    3    3    0  502 -0.12295729212E+03 -0.16120142610E+02 -0.42500695648E+02  0.13117451663E+03  0.46999998093E+01 0. -1.
</event>
<event>
 5   0  0.7424930E-02  0.6090395E+03  0.7818609E-02  0.9886827E-01
        1   -1    0    0  501    0  0.00000000000E+00  0.00000000000E+00  0.15621835847E+04  0.15621835847E+04  0.50400001928E-02 0.  1.
       -1   -1    0    0    0  501  0.00000000000E+00  0.00000000000E+00 -0.59360672815E+02  0.59360673029E+02  0.50400001928E-02 0. -1.
    10030    2    1    2    0    0  0.00000000000E+00  0.00000000000E+00  0.15028229119E+04  0.16215442577E+04  0.60903946942E+03 0.  0.
        3    1    3    3  502    0 -0.66015203145E+01 -0.44045024115E+02 -0.50642543621E+02  0.67440504485E+02  0.10100000352E+00 0. -1.
       -3    1    3    3    0  502  0.66015203145E+01  0.44045024115E+02  0.15534654555E+04  0.15541037533E+04  0.10100000352E+00 0.  1.
</event>
<event>
 5   0  0.1146468E-01  0.5897998E+03  0.7818609E-02  0.9926797E-01
        2   -1    0    0  501    0  0.00000000000E+00  0.00000000000E+00  0.10544890296E+04  0.10544890296E+04  0.25500000920E-02 0. -1.
       -2   -1    0    0    0  501  0.00000000000E+00  0.00000000000E+00 -0.82472136452E+02  0.82472136491E+02  0.25500000920E-02 0.  1.
    10030    2    1    2    0    0  0.00000000000E+00  0.00000000000E+00  0.97201689310E+03  0.11369611660E+04  0.58979984115E+03 0.  0.
        4    1    3    3  502    0  0.21082063990E+03  0.27782071898E+01  0.88346816437E+03  0.90827896100E+03  0.12699999809E+01 0. -1.
       -4    1    3    3    0  502 -0.21082063990E+03 -0.27782071898E+01  0.88548728734E+02  0.22868220505E+03  0.12699999809E+01 0.  1.
</event>
<event>
 5   0  0.7266519E-02  0.5491195E+03  0.7818609E-02  0.1001698E+00
        1   -1    0    0  501    0  0.00000000000E+00  0.00000000000E+00  0.43049851662E+03  0.43049851665E+03  0.50400001928E-02 0. -1.
       -1   -1    0    0    0  501  0.00000000000E+00  0.00000000000E+00 -0.17510640288E+03  0.17510640295E+03  0.50400001928E-02 0.  1.
    10030    2    1    2    0    0  0.00000000000E+00  0.00000000000E+00  0.25539211375E+03  0.60560491960E+03  0.54911946504E+03 0.  0.
        4    1    3    3  502    0  0.54668644778E+02 -0.23901932761E+03  0.26394585886E+03  0.36026091795E+03  0.12699999809E+01 0. -1.
       -4    1    3    3    0  502 -0.54668644778E+02  0.23901932761E+03 -0.85537451119E+01  0.24534400165E+03  0.12699999809E+01 0.  1.
</event>
<event>
 5   0  0.7221069E-02  0.5623544E+03  0.7818609E-02  0.9986741E-01
        1   -1    0    0  501    0  0.00000000000E+00  0.00000000000E+00  0.79398834744E+03  0.79398834745E+03  0.50400001928E-02 0. -1.
       -1   -1    0    0    0  501  0.00000000000E+00  0.00000000000E+00 -0.99574021712E+02  0.99574021840E+02  0.50400001928E-02 0.  1.
    10030    2    1    2    0    0  0.00000000000E+00  0.00000000000E+00  0.69441432572E+03  0.89356236929E+03  0.56235438297E+03 0.  0.
        5    1    3    3  502    0  0.54251667100E+02  0.14422613556E+03 -0.26433547540E+02  0.15641369504E+03  0.46999998093E+01 0.  1.
       -5    1    3    3    0  502 -0.54251667100E+02 -0.14422613556E+03  0.72084787326E+03  0.73714867425E+03  0.46999998093E+01 0. -1.
</event>
<event>
 5   0  0.7123340E-02  0.5868186E+03  0.7818609E-02  0.9933137E-01
        1   -1    0    0  501    0  0.00000000000E+00  0.00000000000E+00  0.59616136991E+03  0.59616136993E+03  0.50400001928E-02 0. -1.
       -1   -1    0    0    0  501  0.00000000000E+00  0.00000000000E+00 -0.14440553777E+03  0.14440553786E+03  0.50400001928E-02 0.  1.
    10030    2    1    2    0    0  0.00000000000E+00  0.00000000000E+00  0.45175583213E+03  0.74056690779E+03  0.58681855206E+03 0.  0.
        2    1    3    3  502    0  0.15422639830E+03  0.12659203055E+03 -0.45607341739E+02  0.20467377398E+03  0.25500000920E-02 0.  1.
       -2    1    3    3    0  502 -0.15422639830E+03 -0.12659203055E+03  0.49736317387E+03  0.53589313380E+03  0.25500000920E-02 0. -1.
</event>
<event>
 5   0  0.7123340E-02  0.5976509E+03  0.7818609E-02  0.9910292E-01
       -1   -1    0    0    0  501  0.00000000000E+00  0.00000000000E+00  0.63684312796E+03  0.63684312798E+03  0.50400001928E-02 0. -1.
        1   -1    0    0  501    0  0.00000000000E+00  0.00000000000E+00 -0.14021763475E+03  0.14021763484E+03  0.50400001928E-02 0.  1.
    10030    2    1    2    0    0  0.00000000000E+00  0.00000000000E+00  0.49662549322E+03  0.77706076282E+03  0.59765085845E+03 0.  0.
        2    1    3    3  502    0 -0.91789208598E+02  0.15345987886E+03 -0.62977843863E+02  0.18958217759E+03  0.25500000920E-02 0.  1.
       -2    1    3    3    0  502  0.91789208598E+02 -0.15345987886E+03  0.55960333708E+03  0.58747858524E+03  0.25500000920E-02 0. -1.
</event>
<event>
 5   0  0.7221069E-02  0.5755575E+03  0.7818609E-02  0.9957456E-01
       -1   -1    0    0    0  501  0.00000000000E+00  0.00000000000E+00  0.25735286559E+03  0.25735286563E+03  0.50400001928E-02 0.  1.
        1   -1    0    0  501    0  0.00000000000E+00  0.00000000000E+00 -0.32180174681E+03  0.32180174685E+03  0.50400001928E-02 0. -1.
    10030    2    1    2    0    0  0.00000000000E+00  0.00000000000E+00 -0.64448881228E+02  0.57915461249E+03  0.57555747487E+03 0.  0.
        5    1    3    3  502    0 -0.87380328412E+02  0.21906271143E+03  0.13364118135E+03  0.27111962061E+03  0.46999998093E+01 0.  1.
       -5    1    3    3    0  502  0.87380328412E+02 -0.21906271143E+03 -0.19809006257E+03  0.30803499188E+03  0.46999998093E+01 0. -1.
</event>
<event>
 5   0  0.7221069E-02  0.5865733E+03  0.7818609E-02  0.9933660E-01
       -1   -1    0    0    0  501  0.00000000000E+00  0.00000000000E+00  0.11955752457E+03  0.11955752468E+03  0.50400001928E-02 0.  1.
        1   -1    0    0  501    0  0.00000000000E+00  0.00000000000E+00 -0.71946179206E+03  0.71946179208E+03  0.50400001928E-02 0. -1.
    10030    2    1    2    0    0  0.00000000000E+00  0.00000000000E+00 -0.59990426749E+03  0.83901931675E+03  0.58657334045E+03 0.  0.
        5    1    3    3  502    0  0.78025503292E+02  0.10433468966E+03 -0.67573859184E+03  0.68819941960E+03  0.46999998093E+01 0. -1.
       -5    1    3    3    0  502 -0.78025503292E+02 -0.10433468966E+03  0.75834324353E+02  0.15081989715E+03  0.46999998093E+01 0.  1.
</event>
<event>
 5   0  0.7123340E-02  0.6055007E+03  0.7818609E-02  0.9894059E-01
        1   -1    0    0  501    0  0.00000000000E+00  0.00000000000E+00  0.21010094143E+04  0.21010094143E+04  0.50400001928E-02 0.  1.
       -1   -1    0    0    0  501  0.00000000000E+00  0.00000000000E+00 -0.43625585085E+02  0.43625585376E+02  0.50400001928E-02 0. -1.
    10030    2    1    2    0    0  0.00000000000E+00  0.00000000000E+00  0.20573838292E+04  0.21446349997E+04  0.60550066981E+03 0.  0.
        2    1    3    3  502    0  0.14363503159E+03 -0.71837707351E+02  0.19377040735E+04  0.19443478996E+04  0.25500000920E-02 0.  1.
       -2    1    3    3    0  502 -0.14363503159E+03  0.71837707351E+02  0.11967975573E+03  0.20028710002E+03  0.25500000920E-02 0. -1.
</event>
<event>
 5   0  0.4695625E-02  0.5992125E+03  0.7818609E-02  0.9907041E-01
       -4   -1    0    0    0  501  0.00000000000E+00  0.00000000000E+00  0.59011103995E+03  0.59011240656E+03  0.12699999809E+01 0.  1.
        4   -1    0    0  501    0  0.00000000000E+00  0.00000000000E+00 -0.15210941042E+03  0.15211471210E+03  0.12699999809E+01 0. -1.
    10030    2    1    2    0    0  0.00000000000E+00  0.00000000000E+00  0.43800162953E+03  0.74222711866E+03  0.59921254008E+03 0.  0.
        5    1    3    3  502    0 -0.70093408079E+02 -0.27865009325E+03  0.11402123530E+03  0.30916321325E+03  0.46999998093E+01 0. -1.
       -5    1    3    3    0  502  0.70093408079E+02  0.27865009325E+03  0.32398039423E+03  0.43306390541E+03  0.46999998093E+01 0.  1.
</event>
<event>
 5   0  0.4695625E-02  0.5999956E+03  0.7818609E-02  0.9905415E-01
        3   -1    0    0  501    0  0.00000000000E+00  0.00000000000E+00  0.21292664176E+03  0.21292666571E+03  0.10100000352E+00 0.  1.
       -3   -1    0    0    0  501  0.00000000000E+00  0.00000000000E+00 -0.42267457709E+03  0.42267458915E+03  0.10100000352E+00 0. -1.
    10030    2    1    2    0    0  0.00000000000E+00  0.00000000000E+00 -0.20974793533E+03  0.63560125487E+03  0.59999563233E+03 0.  0.
        5    1    3    3  502    0 -0.14599734014E+02 -0.99040141577E+02  0.19466829567E+03  0.21895190617E+03  0.46999998093E+01 0.  1.
       -5    1    3    3    0  502  0.14599734014E+02  0.99040141577E+02 -0.40441623100E+03  0.41664934870E+03  0.46999998093E+01 0. -1.
</event>
<event>
 5   0  0.4695625E-02  0.4504422E+03  0.7818609E-02  0.1027590E+00
       -4   -1    0    0    0  501  0.00000000000E+00  0.00000000000E+00  0.46593709278E+03  0.46593882359E+03  0.12699999809E+01 0.  1.
        4   -1    0    0  501    0  0.00000000000E+00  0.00000000000E+00 -0.10886001494E+03  0.10886742283E+03  0.12699999809E+01 0. -1.
    10030    2    1    2    0    0  0.00000000000E+00  0.00000000000E+00  0.35707707784E+03  0.57480624642E+03  0.45044220651E+03 0.  0.
        4    1    3    3  502    0 -0.16633782047E+02 -0.24724780069E+02  0.46341026682E+03  0.46436912661E+03  0.12699999809E+01 0.  1.
       -4    1    3    3    0  502  0.16633782047E+02  0.24724780069E+02 -0.10633318898E+03  0.11043711981E+03  0.12699999809E+01 0. -1.
</event>
<event>
 5   0  0.1166419E-01  0.6346097E+03  0.7818609E-02  0.9836094E-01
        2   -1    0    0  501    0  0.00000000000E+00  0.00000000000E+00  0.12763307899E+04  0.12763307899E+04  0.25500000920E-02 0.  1.
       -2   -1    0    0    0  501  0.00000000000E+00  0.00000000000E+00 -0.78884233861E+02  0.78884233902E+02  0.25500000920E-02 0. -1.
    10030    2    1    2    0    0  0.00000000000E+00  0.00000000000E+00  0.11974465560E+04  0.13552150238E+04  0.63460972745E+03 0.  0.
        1    1    3    3  502    0 -0.29516978951E+03  0.10239291865E+03  0.48034472767E+03  0.57301009752E+03  0.50400001928E-02 0.  1.
       -1    1    3    3    0  502  0.29516978951E+03 -0.10239291865E+03  0.71710182838E+03  0.78220492629E+03  0.50400001928E-02 0. -1.
</event>
<event>
 5   0  0.7221069E-02  0.6023362E+03  0.7818609E-02  0.9900571E-01
        1   -1    0    0  501    0  0.00000000000E+00  0.00000000000E+00  0.29433186865E+03  0.29433186869E+03  0.50400001928E-02 0. -1.
       -1   -1    0    0    0  501  0.00000000000E+00  0.00000000000E+00 -0.30816315882E+03  0.30816315886E+03  0.50400001928E-02 0.  1.
    10030    2    1    2    0    0  0.00000000000E+00  0.00000000000E+00 -0.13831290169E+02  0.60249502755E+03  0.60233624632E+03 0.  0.
        5    1    3    3  502    0 -0.14440163428E+03  0.14032560813E+03  0.21705639951E+03  0.29610585750E+03  0.46999998093E+01 0. -1.
       -5    1    3    3    0  502  0.14440163428E+03 -0.14032560813E+03 -0.23088768968E+03  0.30638917005E+03  0.46999998093E+01 0.  1.
</event>
<event>
 5   0  0.7123340E-02  0.5991225E+03  0.7818609E-02  0.9907228E-01
        1   -1    0    0  501    0  0.00000000000E+00  0.00000000000E+00  0.30349951603E+03  0.30349951607E+03  0.50400001928E-02 0.  1.
       -1   -1    0    0    0  501  0.00000000000E+00  0.00000000000E+00 -0.29567403832E+03  0.29567403836E+03  0.50400001928E-02 0. -1.
    10030    2    1    2    0    0  0.00000000000E+00  0.00000000000E+00  0.78254777093E+01  0.59917355443E+03  0.59912245011E+03 0.  0.
        2    1    3    3  502    0  0.90304332231E+02 -0.23884340760E+03 -0.15273995889E+03  0.29754082211E+03  0.25500000920E-02 0. -1.
       -2    1    3    3    0  502 -0.90304332231E+02  0.23884340760E+03  0.16056543660E+03  0.30163273232E+03  0.25500000920E-02 0.  1.
</event>
<event>
 5   0  0.7263385E-02  0.6247719E+03  0.7818609E-02  0.9855304E-01
        1   -1    0    0  501    0  0.00000000000E+00  0.00000000000E+00  0.27634576699E+03  0.27634576704E+03  0.50400001928E-02 0. -1.
       -1   -1    0    0    0  501  0.00000000000E+00  0.00000000000E+00 -0.35312640959E+03  0.35312640962E+03  0.50400001928E-02 0.  1.
    10030    2    1    2    0    0  0.00000000000E+00  0.00000000000E+00 -0.76780642597E+02  0.62947217666E+03  0.62477192167E+03 0.  0.
        1    1    3    3  502    0  0.15015340851E+03 -0.40683548928E+02  0.23454208729E+03  0.28144482226E+03  0.50400001928E-02 0. -1.
       -1    1    3    3    0  502 -0.15015340851E+03  0.40683548928E+02 -0.31132272989E+03  0.34802735440E+03  0.50400001928E-02 0.  1.
</event>
<event>
 5   0  0.1206238E-01  0.6024202E+03  0.7818609E-02  0.9900398E-01
        2   -1    0    0  501    0  0.00000000000E+00  0.00000000000E+00  0.78323599425E+02  0.78323599466E+02  0.25500000920E-02 0.  1.
       -2   -1    0    0    0  501  0.00000000000E+00  0.00000000000E+00 -0.11583677003E+04  0.11583677003E+04  0.25500000920E-02 0. -1.
    10030    2    1    2    0    0  0.00000000000E+00  0.00000000000E+00 -0.10800441008E+04  0.12366912997E+04  0.60242021138E+03 0.  0.
        5    1    3    3  502    0  0.18729247669E+02  0.26032675665E+03 -0.84853137042E+03  0.88777721391E+03  0.46999998093E+01 0. -1.
       -5    1    3    3    0  502 -0.18729247669E+02 -0.26032675665E+03 -0.23151273042E+03  0.34891408583E+03  0.46999998093E+01 0.  1.
</event>
<event>
 5   0  0.1206238E-01  0.6004699E+03  0.7818609E-02  0.9904432E-01
       -2   -1    0    0    0  501  0.00000000000E+00  0.00000000000E+00  0.67678343769E+02  0.67678343817E+02  0.25500000920E-02 0. -1.
        2   -1    0    0  501    0  0.00000000000E+00  0.00000000000E+00 -0.13319036546E+04  0.13319036546E+04  0.25500000920E-02 0.  1.
    10030    2    1    2    0    0  0.00000000000E+00  0.00000000000E+00 -0.12642253109E+04  0.13995819985E+04  0.60046992744E+03 0.  0.
        5    1    3    3  502    0  0.11307633651E+03  0.14274699993E+03 -0.75854042336E+02  0.19732939366E+03  0.46999998093E+01 0. -1.
       -5    1    3    3    0  502 -0.11307633651E+03 -0.14274699993E+03 -0.11883712685E+04  0.12022526048E+04  0.46999998093E+01 0.  1.
</event>
<event>
 5   0  0.1146468E-01  0.4651607E+03  0.7818609E-02  0.1023295E+00
       -2   -1    0    0    0  501  0.00000000000E+00  0.00000000000E+00  0.40809828689E+02  0.40809828769E+02  0.25500000920E-02 0.  1.
        2   -1    0    0  501    0  0.00000000000E+00  0.00000000000E+00 -0.13255047167E+04  0.13255047167E+04  0.25500000920E-02 0. -1.
    10030    2    1    2    0    0  0.00000000000E+00  0.00000000000E+00 -0.12846948880E+04  0.13663145455E+04  0.46516070545E+03 0.  0.
        4    1    3    3  502    0 -0.12095677727E+03 -0.17065840514E+03 -0.34370702096E+03  0.40235676006E+03  0.12699999809E+01 0.  1.
       -4    1    3    3    0  502  0.12095677727E+03  0.17065840514E+03 -0.94098786708E+03  0.96395778544E+03  0.12699999809E+01 0. -1.
</event>
<event>
 5   0  0.7221069E-02  0.5946385E+03  0.7818609E-02  0.9916592E-01
        1   -1    0    0  501    0  0.00000000000E+00  0.00000000000E+00  0.22293863145E+03  0.22293863150E+03  0.50400001928E-02 0. -1.
       -1   -1    0    0    0  501  0.00000000000E+00  0.00000000000E+00 -0.39651600501E+03  0.39651600505E+03  0.50400001928E-02 0.  1.
    10030    2    1    2    0    0  0.00000000000E+00  0.00000000000E+00 -0.17357737357E+03  0.61945463655E+03  0.59463849701E+03 0.  0.
        5    1    3    3  502    0  0.34518544828E+01  0.11793346655E+03  0.19746596702E+03  0.23007632638E+03  0.46999998093E+01 0. -1.
       -5    1    3    3    0  502 -0.34518544828E+01 -0.11793346655E+03 -0.37104334059E+03  0.38937831017E+03  0.46999998093E+01 0.  1.
</event>
<event>
 5   0  0.1219020E-01  0.6089762E+03  0.7818609E-02  0.9886956E-01
        2   -1    0    0  501    0  0.00000000000E+00  0.00000000000E+00  0.72954652900E+03  0.72954652901E+03  0.25500000920E-02 0.  1.
       -2   -1    0    0    0  501  0.00000000000E+00  0.00000000000E+00 -0.12708307573E+03  0.12708307575E+03  0.25500000920E-02 0. -1.
    10030    2    1    2    0    0  0.00000000000E+00  0.00000000000E+00  0.60246345327E+03  0.85662960476E+03  0.60897624520E+03 0.  0.
        2    1    3    3  502    0  0.71748014494E+02  0.24172277612E+03  0.54133758854E+03  0.59718009247E+03  0.25500000920E-02 0. -1.
       -2    1    3    3    0  502 -0.71748014494E+02 -0.24172277612E+03  0.61125864737E+02  0.25944951228E+03  0.25500000920E-02 0.  1.
</event>
<event>
 5   0  0.7123340E-02  0.6160952E+03  0.7818609E-02  0.9872565E-01
       -1   -1    0    0    0  501  0.00000000000E+00  0.00000000000E+00  0.69194085056E+03  0.69194085058E+03  0.50400001928E-02 0. -1.
        1   -1    0    0  501    0  0.00000000000E+00  0.00000000000E+00 -0.13714078142E+03  0.13714078152E+03  0.50400001928E-02 0.  1.
    10030    2    1    2    0    0  0.00000000000E+00  0.00000000000E+00  0.55480006914E+03  0.82908163210E+03  0.61609515171E+03 0.  0.
        2    1    3    3  502    0 -0.19398317838E+03  0.27185790499E+02 -0.42540228698E+02  0.20044503427E+03  0.25500000920E-02 0.  1.
       -2    1    3    3    0  502  0.19398317838E+03 -0.27185790499E+02  0.59734029784E+03  0.62863659783E+03  0.25500000920E-02 0. -1.
</event>
<event>
 5   0  0.1219020E-01  0.6093110E+03  0.7818609E-02  0.9886275E-01
        2   -1    0    0  501    0  0.00000000000E+00  0.00000000000E+00  0.33935670457E+03  0.33935670457E+03  0.25500000920E-02 0. -1.
       -2   -1    0    0    0  501  0.00000000000E+00  0.00000000000E+00 -0.27350271815E+03  0.27350271816E+03  0.25500000920E-02 0.  1.
    10030    2    1    2    0    0  0.00000000000E+00  0.00000000000E+00  0.65853986413E+02  0.61285942274E+03  0.60931102445E+03 0.  0.
        2    1    3    3  502    0 -0.24389464309E+03  0.16384099233E+03 -0.48080928886E+02  0.29772511387E+03  0.25500000920E-02 0.  1.
       -2    1    3    3    0  502  0.24389464309E+03 -0.16384099233E+03  0.11393491530E+03  0.31513430887E+03  0.25500000920E-02 0. -1.
</event>
<event>
 5   0  0.7221069E-02  0.6062538E+03  0.7818609E-02  0.9892516E-01
        1   -1    0    0  501    0  0.00000000000E+00  0.00000000000E+00  0.78456941357E+03  0.78456941359E+03  0.50400001928E-02 0. -1.
       -1   -1    0    0    0  501  0.00000000000E+00  0.00000000000E+00 -0.11711637452E+03  0.11711637462E+03  0.50400001928E-02 0.  1.
    10030    2    1    2    0    0  0.00000000000E+00  0.00000000000E+00  0.66745303906E+03  0.90168578821E+03  0.60625382582E+03 0.  0.
        5    1    3    3  502    0 -0.15788915240E+03  0.13721330448E+03  0.65994344820E+03  0.69231778844E+03  0.46999998093E+01 0. -1.
       -5    1    3    3    0  502  0.15788915240E+03 -0.13721330448E+03  0.75095908559E+01  0.20936799977E+03  0.46999998093E+01 0.  1.
</event>
<event>
 5   0  0.1146468E-01  0.6056306E+03  0.7818609E-02  0.9893793E-01
        2   -1    0    0  501    0  0.00000000000E+00  0.00000000000E+00  0.51383183327E+03  0.51383183328E+03  0.25500000920E-02 0. -1.
       -2   -1    0    0    0  501  0.00000000000E+00  0.00000000000E+00 -0.17845741381E+03  0.17845741383E+03  0.25500000920E-02 0.  1.
    10030    2    1    2    0    0  0.00000000000E+00  0.00000000000E+00  0.33537441946E+03  0.69228924711E+03  0.60563058083E+03 0.  0.
        4    1    3    3  502    0 -0.26078747227E+03  0.90973575162E+02  0.25791358813E+02  0.27740422520E+03  0.12699999809E+01 0.  1.
       -4    1    3    3    0  502  0.26078747227E+03 -0.90973575162E+02  0.30958306064E+03  0.41488502191E+03  0.12699999809E+01 0. -1.
</event>
<event>
 5   0  0.7263385E-02  0.5404073E+03  0.7818609E-02  0.1003739E+00
        1   -1    0    0  501    0  0.00000000000E+00  0.00000000000E+00  0.36635295309E+03  0.36635295312E+03  0.50400001928E-02 0. -1.
       -1   -1    0    0    0  501  0.00000000000E+00  0.00000000000E+00 -0.19928871265E+03  0.19928871272E+03  0.50400001928E-02 0.  1.
    10030    2    1    2    0    0  0.00000000000E+00  0.00000000000E+00  0.16706424043E+03  0.56564166584E+03  0.54040728502E+03 0.  0.
        1    1    3    3  502    0  0.16607102468E+03 -0.12608626252E+03  0.26340745266E+03  0.33594764023E+03  0.50400001928E-02 0. -1.
       -1    1    3    3    0  502 -0.16607102468E+03  0.12608626252E+03 -0.96343212226E+02  0.22969402561E+03  0.50400001928E-02 0.  1.
</event>
<event>
 5   0  0.7221069E-02  0.5423098E+03  0.7818609E-02  0.1003290E+00
        1   -1    0    0  501    0  0.00000000000E+00  0.00000000000E+00  0.13190941236E+04  0.13190941237E+04  0.50400001928E-02 0.  1.
       -1   -1    0    0    0  501  0.00000000000E+00  0.00000000000E+00 -0.55738987204E+02  0.55738987431E+02  0.50400001928E-02 0. -1.
    10030    2    1    2    0    0  0.00000000000E+00  0.00000000000E+00  0.12633551364E+04  0.13748331111E+04  0.54230976625E+03 0.  0.
        5    1    3    3  502    0  0.10320381481E+03  0.88800472463E+02  0.12260394176E+04  0.12335847335E+04  0.46999998093E+01 0.  1.
       -5    1    3    3    0  502 -0.10320381481E+03 -0.88800472463E+02  0.37315718888E+02  0.14124837760E+03  0.46999998093E+01 0. -1.
</event>
<event>
 5   0  0.7266519E-02  0.5999549E+03  0.7818609E-02  0.9905500E-01
       -1   -1    0    0    0  501  0.00000000000E+00  0.00000000000E+00  0.10841267619E+03  0.10841267631E+03  0.50400001928E-02 0. -1.
        1   -1    0    0  501    0  0.00000000000E+00  0.00000000000E+00 -0.83003645593E+03  0.83003645594E+03  0.50400001928E-02 0.  1.
    10030    2    1    2    0    0  0.00000000000E+00  0.00000000000E+00 -0.72162377974E+03  0.93844913225E+03  0.59995491025E+03 0.  0.
        4    1    3    3  502    0 -0.19220345820E+03 -0.63466497687E+02 -0.70711411118E+03  0.73551488415E+03  0.12699999809E+01 0.  1.
       -4    1    3    3    0  502  0.19220345820E+03  0.63466497687E+02 -0.14509668559E+02  0.20293424810E+03  0.12699999809E+01 0. -1.
</event>
<event>
 5   0  0.1219020E-01  0.6057523E+03  0.7818609E-02  0.9893543E-01
       -2   -1    0    0    0  501  0.00000000000E+00  0.00000000000E+00  0.43234198223E+03  0.43234198223E+03  0.25500000920E-02 0. -1.
        2   -1    0    0  501    0  0.00000000000E+00  0.00000000000E+00 -0.21217918905E+03  0.21217918906E+03  0.25500000920E-02 0.  1.
    10030    2    1    2    0    0  0.00000000000E+00  0.00000000000E+00  0.22016279318E+03  0.64452117130E+03  0.60575232955E+03 0.  0.
        2    1    3    3  502    0 -0.59253634868E+02 -0.11417350588E+03  0.40183390252E+03  0.42192068912E+03  0.25500000920E-02 0. -1.
       -2    1    3    3    0  502  0.59253634868E+02  0.11417350588E+03 -0.18167110934E+03  0.22260048218E+03  0.25500000920E-02 0.  1.
</event>
<event>
 5   0  0.1175861E-01  0.5941346E+03  0.7818609E-02  0.9917650E-01
       -2   -1    0    0    0  501  0.00000000000E+00  0.00000000000E+00  0.14497319215E+03  0.14497319218E+03  0.25500000920E-02 0.  1.
        2   -1    0    0  501    0  0.00000000000E+00  0.00000000000E+00 -0.60872624391E+03  0.60872624391E+03  0.25500000920E-02 0. -1.
    10030    2    1    2    0    0  0.00000000000E+00  0.00000000000E+00 -0.46375305175E+03  0.75369943609E+03  0.59413462022E+03 0.  0.
        3    1    3    3  502    0  0.27495062548E+03  0.18838258900E+02 -0.37254593869E+03  0.46340394159E+03  0.10100000352E+00 0.  1.
       -3    1    3    3    0  502 -0.27495062548E+03 -0.18838258900E+02 -0.91207113067E+02  0.29029549450E+03  0.10100000352E+00 0. -1.
</event>
<event>
 5   0  0.7221069E-02  0.5993867E+03  0.7818609E-02  0.9906679E-01
        1   -1    0    0  501    0  0.00000000000E+00  0.00000000000E+00  0.10777520923E+04  0.10777520923E+04  0.50400001928E-02 0.  1.
       -1   -1    0    0    0  501  0.00000000000E+00  0.00000000000E+00 -0.83336507524E+02  0.83336507677E+02  0.50400001928E-02 0. -1.
    10030    2    1    2    0    0  0.00000000000E+00  0.00000000000E+00  0.99441558476E+03  0.11610886000E+04  0.59938667134E+03 0.  0.
        5    1    3    3  502    0 -0.27842135685E+02 -0.45830452568E+02 -0.73894781855E+02  0.91422883818E+02  0.46999998093E+01 0. -1.
       -5    1    3    3    0  502  0.27842135685E+02  0.45830452568E+02  0.10683103666E+04  0.10696657162E+04  0.46999998093E+01 0.  1.
</event>
<event>
 5   0  0.1206238E-01  0.6061758E+03  0.7818609E-02  0.9892675E-01
        2   -1    0    0  501    0  0.00000000000E+00  0.00000000000E+00  0.20576431365E+04  0.20576431365E+04  0.25500000920E-02 0.  1.
       -2   -1    0    0    0  501  0.00000000000E+00  0.00000000000E+00 -0.44644417025E+02  0.44644417097E+02  0.25500000920E-02 0. -1.
    10030    2    1    2    0    0  0.00000000000E+00  0.00000000000E+00  0.20129987195E+04  0.21022875536E+04  0.60617581064E+03 0.  0.
        5    1    3    3  502    0 -0.13616395997E+03 -0.32467005125E+02  0.19386772357E+04  0.19437299824E+04  0.46999998093E+01 0.  1.
       -5    1    3    3    0  502  0.13616395997E+03  0.32467005125E+02  0.74321483743E+02  0.15855757113E+03  0.46999998093E+01 0. -1.
</event>
<event>
 5   0  0.1206238E-01  0.6009238E+03  0.7818609E-02  0.9903491E-01
       -2   -1    0    0    0  501  0.00000000000E+00  0.00000000000E+00  0.78679062921E+02  0.78679062963E+02  0.25500000920E-02 0.  1.
        2   -1    0    0  501    0  0.00000000000E+00  0.00000000000E+00 -0.11474124937E+04  0.11474124937E+04  0.25500000920E-02 0. -1.
    10030    2    1    2    0    0  0.00000000000E+00  0.00000000000E+00 -0.10687334308E+04  0.12260915567E+04  0.60092375495E+03 0.  0.
        5    1    3    3  502    0  0.16657347729E+03  0.63716686843E+02 -0.10276438626E+04  0.10430151187E+04  0.46999998093E+01 0. -1.
       -5    1    3    3    0  502 -0.16657347729E+03 -0.63716686843E+02 -0.41089568168E+02  0.18307643795E+03  0.46999998093E+01 0.  1.
</event>
<event>
 5   0  0.1206238E-01  0.6655057E+03  0.7818609E-02  0.9778111E-01
        2   -1    0    0  501    0  0.00000000000E+00  0.00000000000E+00  0.77595163651E+03  0.77595163652E+03  0.25500000920E-02 0.  1.
       -2   -1    0    0    0  501  0.00000000000E+00  0.00000000000E+00 -0.14269505681E+03  0.14269505684E+03  0.25500000920E-02 0. -1.
    10030    2    1    2    0    0  0.00000000000E+00  0.00000000000E+00  0.63325657970E+03  0.91864669335E+03  0.66550571108E+03 0.  0.
        5    1    3    3  502    0 -0.76931585679E+02 -0.32239578781E+03  0.35675089314E+03  0.48698131651E+03  0.46999998093E+01 0. -1.
       -5    1    3    3    0  502  0.76931585679E+02  0.32239578781E+03  0.27650568656E+03  0.43166537685E+03  0.46999998093E+01 0.  1.
</event>
<event>
 5   0  0.7266519E-02  0.6102634E+03  0.7818609E-02  0.9884339E-01
       -1   -1    0    0    0  501  0.00000000000E+00  0.00000000000E+00  0.94549581740E+02  0.94549581874E+02  0.50400001928E-02 0.  1.
        1   -1    0    0  501    0  0.00000000000E+00  0.00000000000E+00 -0.98472528950E+03  0.98472528951E+03  0.50400001928E-02 0. -1.
    10030    2    1    2    0    0  0.00000000000E+00  0.00000000000E+00 -0.89017570776E+03  0.10792748714E+04  0.61026343272E+03 0.  0.
        4    1    3    3  502    0  0.26926550613E+03 -0.14259993877E+03 -0.41629289993E+03  0.51588762997E+03  0.12699999809E+01 0.  1.
       -4    1    3    3    0  502 -0.26926550613E+03  0.14259993877E+03 -0.47388280783E+03  0.56338724141E+03  0.12699999809E+01 0. -1.
</event>
<event>
 5   0  0.1146468E-01  0.5955228E+03  0.7818609E-02  0.9914739E-01
       -2   -1    0    0    0  501  0.00000000000E+00  0.00000000000E+00  0.48238241503E+02  0.48238241570E+02  0.25500000920E-02 0. -1.
        2   -1    0    0  501    0  0.00000000000E+00  0.00000000000E+00 -0.18379993741E+04  0.18379993741E+04  0.25500000920E-02 0.  1.
    10030    2    1    2    0    0  0.00000000000E+00  0.00000000000E+00 -0.17897611326E+04  0.18862376157E+04  0.59552282158E+03 0.  0.
        4    1    3    3  502    0 -0.21393290579E+03 -0.31027012683E+02 -0.15434580680E+04  0.15585231421E+04  0.12699999809E+01 0.  1.
       -4    1    3    3    0  502  0.21393290579E+03  0.31027012683E+02 -0.24630306459E+03  0.32771447362E+03  0.12699999809E+01 0. -1.
</event>
<event>
 5   0  0.7263385E-02  0.6102161E+03  0.7818609E-02  0.9884435E-01
       -1   -1    0    0    0  501  0.00000000000E+00  0.00000000000E+00  0.13973725573E+03  0.13973725582E+03  0.50400001928E-02 0. -1.
        1   -1    0    0  501    0  0.00000000000E+00  0.00000000000E+00 -0.66618535288E+03  0.66618535290E+03  0.50400001928E-02 0.  1.
    10030    2    1    2    0    0  0.00000000000E+00  0.00000000000E+00 -0.52644809715E+03  0.80592260872E+03  0.61021607014E+03 0.  0.
        1    1    3    3  502    0 -0.86930309105E+02 -0.19991207580E+03  0.18708607855E+02  0.21879608937E+03  0.50400001928E-02 0. -1.
       -1    1    3    3    0  502  0.86930309105E+02  0.19991207580E+03 -0.54515670501E+03  0.58712651935E+03  0.50400001928E-02 0.  1.
</event>
<event>
 5   0  0.4695625E-02  0.6021899E+03  0.7818609E-02  0.9900873E-01
       -3   -1    0    0    0  501  0.00000000000E+00  0.00000000000E+00  0.88104517394E+02  0.88104575285E+02  0.10100000352E+00 0. -1.
        3   -1    0    0  501    0  0.00000000000E+00  0.00000000000E+00 -0.10289837944E+04  0.10289837993E+04  0.10100000352E+00 0.  1.
    10030    2    1    2    0    0  0.00000000000E+00  0.00000000000E+00 -0.94087927696E+03  0.11170883746E+04  0.60218985615E+03 0.  0.
        1    1    3    3  502    0  0.21905109088E+03 -0.19719096644E+03 -0.58464913950E+03  0.65473832483E+03  0.50400001928E-02 0.  1.
       -1    1    3    3    0  502 -0.21905109088E+03  0.19719096644E+03 -0.35623013747E+03  0.46235004977E+03  0.50400001928E-02 0. -1.
</event>
<event>
 5   0  0.7263385E-02  0.6060939E+03  0.7818609E-02  0.9892843E-01
       -1   -1    0    0    0  501  0.00000000000E+00  0.00000000000E+00  0.75041867788E+02  0.75041867957E+02  0.50400001928E-02 0.  1.
        1   -1    0    0  501    0  0.00000000000E+00  0.00000000000E+00 -0.12238163380E+04  0.12238163380E+04  0.50400001928E-02 0. -1.
    10030    2    1    2    0    0  0.00000000000E+00  0.00000000000E+00 -0.11487744702E+04  0.12988582060E+04  0.60609393315E+03 0.  0.
        1    1    3    3  502    0  0.22549524343E+03  0.14677648707E+03 -0.27554829215E+03  0.38512115405E+03  0.50400001928E-02 0.  1.
       -1    1    3    3    0  502 -0.22549524343E+03 -0.14677648707E+03 -0.87322617809E+03  0.91373705195E+03  0.50400001928E-02 0. -1.
</event>
<event>
 5   0  0.7123340E-02  0.5323004E+03  0.7818609E-02  0.1005676E+00
        1   -1    0    0  501    0  0.00000000000E+00  0.00000000000E+00  0.10435914114E+04  0.10435914114E+04  0.50400001928E-02 0.  1.
       -1   -1    0    0    0  501  0.00000000000E+00  0.00000000000E+00 -0.67877073067E+02  0.67877073254E+02  0.50400001928E-02 0. -1.
    10030    2    1    2    0    0  0.00000000000E+00  0.00000000000E+00  0.97571433836E+03  0.11114684847E+04  0.53230040615E+03 0.  0.
        2    1    3    3  502    0  0.47033753025E+02  0.10180427247E+03  0.99184990743E+03  0.99816958614E+03  0.25500000920E-02 0.  1.
       -2    1    3    3    0  502 -0.47033753025E+02 -0.10180427247E+03 -0.16135569076E+02  0.11329889855E+03  0.25500000920E-02 0. -1.
</event>
<event>
 5   0  0.1146468E-01  0.5956395E+03  0.7818609E-02  0.9914494E-01
       -2   -1    0    0    0  501  0.00000000000E+00  0.00000000000E+00  0.40413772925E+02  0.40413773006E+02  0.25500000920E-02 0. -1.
        2   -1    0    0  501    0  0.00000000000E+00  0.00000000000E+00 -0.21947121680E+04  0.21947121680E+04  0.25500000920E-02 0.  1.
    10030    2    1    2    0    0  0.00000000000E+00  0.00000000000E+00 -0.21542983951E+04  0.22351259410E+04  0.59563948588E+03 0.  0.
        4    1    3    3  502    0  0.16563949711E+02  0.28135047285E+03 -0.71600269614E+03  0.76947639781E+03  0.12699999809E+01 0. -1.
       -4    1    3    3    0  502 -0.16563949711E+02 -0.28135047285E+03 -0.14382956990E+04  0.14656495432E+04  0.12699999809E+01 0.  1.
</event>
<event>
 5   0  0.7266519E-02  0.6097638E+03  0.7818609E-02  0.9885354E-01
       -1   -1    0    0    0  501  0.00000000000E+00  0.00000000000E+00  0.12003183799E+03  0.12003183810E+03  0.50400001928E-02 0. -1.
        1   -1    0    0  501    0  0.00000000000E+00  0.00000000000E+00 -0.77440260276E+03  0.77440260278E+03  0.50400001928E-02 0.  1.
    10030    2    1    2    0    0  0.00000000000E+00  0.00000000000E+00 -0.65437076477E+03  0.89443444088E+03  0.60976378315E+03 0.  0.
        4    1    3    3  502    0 -0.10323984751E+02  0.97292591801E+02 -0.75074546591E+03  0.75709497460E+03  0.12699999809E+01 0.  1.
       -4    1    3    3    0  502  0.10323984751E+02 -0.97292591801E+02  0.96374701132E+02  0.13733946628E+03  0.12699999809E+01 0. -1.
</event>
<event>
 5   0  0.7263385E-02  0.6073764E+03  0.7818609E-02  0.9890219E-01
       -1   -1    0    0    0  501  0.00000000000E+00  0.00000000000E+00  0.22009293869E+03  0.22009293875E+03  0.50400001928E-02 0.  1.
        1   -1    0    0  501    0  0.00000000000E+00  0.00000000000E+00 -0.41903446381E+03  0.41903446384E+03  0.50400001928E-02 0. -1.
    10030    2    1    2    0    0  0.00000000000E+00  0.00000000000E+00 -0.19894152512E+03  0.63912740259E+03  0.60737641238E+03 0.  0.
        1    1    3    3  502    0  0.33657182269E+01  0.63095575681E+02 -0.41204117203E+03  0.41685765820E+03  0.50400001928E-02 0. -1.
       -1    1    3    3    0  502 -0.33657182269E+01 -0.63095575681E+02  0.21309964691E+03  0.22226974438E+03  0.50400001928E-02 0.  1.
</event>
<event>
 5   0  0.1166419E-01  0.5771453E+03  0.7818609E-02  0.9953991E-01
        2   -1    0    0  501    0  0.00000000000E+00  0.00000000000E+00  0.64660291036E+03  0.64660291037E+03  0.25500000920E-02 0.  1.
       -2   -1    0    0    0  501  0.00000000000E+00  0.00000000000E+00 -0.12878718318E+03  0.12878718321E+03  0.25500000920E-02 0. -1.
    10030    2    1    2    0    0  0.00000000000E+00  0.00000000000E+00  0.51781572718E+03  0.77539009358E+03  0.57714527625E+03 0.  0.
        1    1    3    3  502    0 -0.87581553077E+02 -0.27472331313E+03  0.27426957970E+03  0.39795380334E+03  0.50400001928E-02 0. -1.
       -1    1    3    3    0  502  0.87581553077E+02  0.27472331313E+03  0.24354614748E+03  0.37743629024E+03  0.50400001928E-02 0.  1.
</event>
<event>
 5   0  0.1206238E-01  0.6112845E+03  0.7818609E-02  0.9882267E-01
        2   -1    0    0  501    0  0.00000000000E+00  0.00000000000E+00  0.75262647000E+03  0.75262647000E+03  0.25500000920E-02 0.  1.
       -2   -1    0    0    0  501  0.00000000000E+00  0.00000000000E+00 -0.12412156300E+03  0.12412156303E+03  0.25500000920E-02 0. -1.
    10030    2    1    2    0    0  0.00000000000E+00  0.00000000000E+00  0.62850490700E+03  0.87674803303E+03  0.61128446349E+03 0.  0.
        5    1    3    3  502    0 -0.26632740017E+02 -0.18252800812E+03 -0.35219584825E+02  0.18785176534E+03  0.46999998093E+01 0. -1.
       -5    1    3    3    0  502  0.26632740017E+02  0.18252800812E+03  0.66372449182E+03  0.68889626769E+03  0.46999998093E+01 0.  1.
</event>
<event>
 5   0  0.7266519E-02  0.3982567E+03  0.7818609E-02  0.1044385E+00
        1   -1    0    0  501    0  0.00000000000E+00  0.00000000000E+00  0.10242482027E+03  0.10242482040E+03  0.50400001928E-02 0. -1.
       -1   -1    0    0    0  501  0.00000000000E+00  0.00000000000E+00 -0.38713362255E+03  0.38713362258E+03  0.50400001928E-02 0.  1.
    10030    2    1    2    0    0  0.00000000000E+00  0.00000000000E+00 -0.28470880228E+03  0.48955844298E+03  0.39825665970E+03 0.  0.
        4    1    3    3  502    0 -0.57296682983E+02  0.74439740070E+02  0.73470801087E+02  0.11926339042E+03  0.12699999809E+01 0. -1.
       -4    1    3    3    0  502  0.57296682983E+02 -0.74439740070E+02 -0.35817960337E+03  0.37029505256E+03  0.12699999809E+01 0.  1.
</event>
<event>
 5   0  0.1146468E-01  0.6131222E+03  0.7818609E-02  0.9878550E-01
        2   -1    0    0  501    0  0.00000000000E+00  0.00000000000E+00  0.77574635241E+03  0.77574635241E+03  0.25500000920E-02 0. -1.
       -2   -1    0    0    0  501  0.00000000000E+00  0.00000000000E+00 -0.12114747397E+03  0.12114747400E+03  0.25500000920E-02 0.  1.
    10030    2    1    2    0    0  0.00000000000E+00  0.00000000000E+00  0.65459887843E+03  0.89689382641E+03  0.61312220985E+03 0.  0.
        4    1    3    3  502    0 -0.28582340026E+03 -0.85543936487E+02  0.43037779302E+03  0.52367875537E+03  0.12699999809E+01 0.  1.
       -4    1    3    3    0  502  0.28582340026E+03  0.85543936487E+02  0.22422108542E+03  0.37321507104E+03  0.12699999809E+01 0. -1.
</event>
<event>
 5   0  0.1219020E-01  0.5949045E+03  0.7818609E-02  0.9916034E-01
       -2   -1    0    0    0  501  0.00000000000E+00  0.00000000000E+00  0.16404747314E+03  0.16404747316E+03  0.25500000920E-02 0.  1.
        2   -1    0    0  501    0  0.00000000000E+00  0.00000000000E+00 -0.53934299607E+03  0.53934299608E+03  0.25500000920E-02 0. -1.
    10030    2    1    2    0    0  0.00000000000E+00  0.00000000000E+00 -0.37529552293E+03  0.70339046924E+03  0.59490454922E+03 0.  0.
        2    1    3    3  502    0  0.87340395486E+02 -0.21351247008E+03 -0.40967295971E+03  0.47015726464E+03  0.25500000920E-02 0. -1.
       -2    1    3    3    0  502 -0.87340395486E+02  0.21351247008E+03  0.34377436787E+02  0.23323320460E+03  0.25500000920E-02 0.  1.
</event>
<event>
 5   0  0.7263385E-02  0.5756213E+03  0.7818609E-02  0.9957316E-01
        1   -1    0    0  501    0  0.00000000000E+00  0.00000000000E+00  0.75767137514E+03  0.75767137516E+03  0.50400001928E-02 0. -1.
       -1   -1    0    0    0  501  0.00000000000E+00  0.00000000000E+00 -0.10932836919E+03  0.10932836930E+03  0.50400001928E-02 0.  1.
    10030    2    1    2    0    0  0.00000000000E+00  0.00000000000E+00  0.64834300596E+03  0.86699974446E+03  0.57562131955E+03 0.  0.
        1    1    3    3  502    0 -0.11449162925E+02 -0.21566556139E+03  0.61071459256E+03  0.64777699195E+03  0.50400001928E-02 0. -1.
       -1    1    3    3    0  502  0.11449162925E+02  0.21566556139E+03  0.37628413393E+02  0.21922275251E+03  0.50400001928E-02 0.  1.
</event>
<event>
 5   0  0.1219020E-01  0.6023674E+03  0.7818609E-02  0.9900507E-01
       -2   -1    0    0    0  501  0.00000000000E+00  0.00000000000E+00  0.47623885631E+02  0.47623885699E+02  0.25500000920E-02 0.  1.
        2   -1    0    0  501    0  0.00000000000E+00  0.00000000000E+00 -0.19047505030E+04  0.19047505030E+04  0.25500000920E-02 0. -1.
    10030    2    1    2    0    0  0.00000000000E+00  0.00000000000E+00 -0.18571266174E+04  0.19523743887E+04  0.60236739679E+03 0.  0.
        2    1    3    3  502    0  0.13261580238E+03  0.24085747043E+03 -0.13270076086E+04  0.13551931469E+04  0.25500000920E-02 0. -1.
       -2    1    3    3    0  502 -0.13261580238E+03 -0.24085747043E+03 -0.53011900877E+03  0.59718124181E+03  0.25500000920E-02 0.  1.
</event>
<event>
 5   0  0.7123340E-02  0.6150837E+03  0.7818609E-02  0.9874597E-01
       -1   -1    0    0    0  501  0.00000000000E+00  0.00000000000E+00  0.48288150536E+03  0.48288150539E+03  0.50400001928E-02 0.  1.
        1   -1    0    0  501    0  0.00000000000E+00  0.00000000000E+00 -0.19587000779E+03  0.19587000786E+03  0.50400001928E-02 0. -1.
    10030    2    1    2    0    0  0.00000000000E+00  0.00000000000E+00  0.28701149757E+03  0.67875151325E+03  0.61508374795E+03 0.  0.
        2    1    3    3  502    0  0.15205934284E+03  0.26731582073E+03  0.14186433992E+03  0.33868168345E+03  0.25500000920E-02 0.  1.
       -2    1    3    3    0  502 -0.15205934284E+03 -0.26731582073E+03  0.14514715765E+03  0.34006982980E+03  0.25500000920E-02 0. -1.
</event>
<event>
 5   0  0.7266519E-02  0.5976355E+03  0.7818609E-02  0.9910324E-01
       -1   -1    0    0    0  501  0.00000000000E+00  0.00000000000E+00  0.83774358069E+02  0.83774358221E+02  0.50400001928E-02 0. -1.
        1   -1    0    0  501    0  0.00000000000E+00  0.00000000000E+00 -0.10658635786E+04  0.10658635786E+04  0.50400001928E-02 0.  1.
    10030    2    1    2    0    0  0.00000000000E+00  0.00000000000E+00 -0.98208922050E+03  0.11496379368E+04  0.59763546474E+03 0.  0.
        4    1    3    3  502    0 -0.24617963643E+03 -0.16924272925E+03 -0.50364550427E+03  0.58558340283E+03  0.12699999809E+01 0.  1.
       -4    1    3    3    0  502  0.24617963643E+03  0.16924272925E+03 -0.47844371623E+03  0.56405453398E+03  0.12699999809E+01 0. -1.
</event>
<event>
 5   0  0.1166419E-01  0.6103035E+03  0.7818609E-02  0.9884257E-01
        2   -1    0    0  501    0  0.00000000000E+00  0.00000000000E+00  0.19727956090E+03  0.19727956092E+03  0.25500000920E-02 0. -1.
       -2   -1    0    0    0  501  0.00000000000E+00  0.00000000000E+00 -0.47200830082E+03  0.47200830083E+03  0.25500000920E-02 0.  1.
    10030    2    1    2    0    0  0.00000000000E+00  0.00000000000E+00 -0.27472873992E+03  0.66928786175E+03  0.61030349937E+03 0.  0.
        1    1    3    3  502    0 -0.14114189679E+03  0.24508669487E+03 -0.26302059991E+03  0.38622319846E+03  0.50400001928E-02 0.  1.
       -1    1    3    3    0  502  0.14114189679E+03 -0.24508669487E+03 -0.11708140013E+02  0.28306466328E+03  0.50400001928E-02 0. -1.
</event>
<event>
 5   0  0.1219020E-01  0.6261609E+03  0.7818609E-02  0.9852569E-01
       -2   -1    0    0    0  501  0.00000000000E+00  0.00000000000E+00  0.17938902617E+03  0.17938902619E+03  0.25500000920E-02 0.  1.
        2   -1    0    0  501    0  0.00000000000E+00  0.00000000000E+00 -0.54640678268E+03  0.54640678268E+03  0.25500000920E-02 0. -1.
    10030    2    1    2    0    0  0.00000000000E+00  0.00000000000E+00 -0.36701775650E+03  0.72579580887E+03  0.62616093984E+03 0.  0.
        2    1    3    3  502    0  0.49657028220E+01  0.27322379314E+03 -0.36060591546E+03  0.45245168318E+03  0.25500000920E-02 0. -1.
       -2    1    3    3    0  502 -0.49657028220E+01 -0.27322379314E+03 -0.64118410470E+01  0.27334412569E+03  0.25500000920E-02 0.  1.
</event>
<event>
 5   0  0.7263385E-02  0.8021468E+03  0.7818609E-02  0.9556915E-01
        1   -1    0    0  501    0  0.00000000000E+00  0.00000000000E+00  0.89427283372E+03  0.89427283373E+03  0.50400001928E-02 0. -1.
       -1   -1    0    0    0  501  0.00000000000E+00  0.00000000000E+00 -0.17987785166E+03  0.17987785173E+03  0.50400001928E-02 0.  1.
    10030    2    1    2    0    0  0.00000000000E+00  0.00000000000E+00  0.71439498205E+03  0.10741506855E+04  0.80214680994E+03 0.  0.
        1    1    3    3  502    0  0.26909728498E+03  0.55566237935E+02  0.74843078526E+03  0.79727636107E+03  0.50400001928E-02 0. -1.
       -1    1    3    3    0  502 -0.26909728498E+03 -0.55566237935E+02 -0.34035803204E+02  0.27687432439E+03  0.50400001928E-02 0.  1.
</event>
<event>
 5   0  0.7123340E-02  0.6005865E+03  0.7818609E-02  0.9904190E-01
       -1   -1    0    0    0  501  0.00000000000E+00  0.00000000000E+00  0.46805082587E+03  0.46805082590E+03  0.50400001928E-02 0. -1.
        1   -1    0    0  501    0  0.00000000000E+00  0.00000000000E+00 -0.19266290294E+03  0.19266290301E+03  0.50400001928E-02 0.  1.
    10030    2    1    2    0    0  0.00000000000E+00  0.00000000000E+00  0.27538792293E+03  0.66071372891E+03  0.60058648293E+03 0.  0.
        2    1    3    3  502    0  0.15609403344E+03  0.22573820119E+03  0.36201025376E+01  0.27447438478E+03  0.25500000920E-02 0.  1.
       -2    1    3    3    0  502 -0.15609403344E+03 -0.22573820119E+03  0.27176782039E+03  0.38623934413E+03  0.25500000920E-02 0. -1.
</event>
<event>
 5   0  0.1166419E-01  0.5951835E+03  0.7818609E-02  0.9915449E-01
       -2   -1    0    0    0  501  0.00000000000E+00  0.00000000000E+00  0.52522529045E+02  0.52522529107E+02  0.25500000920E-02 0. -1.
        2   -1    0    0  501    0  0.00000000000E+00  0.00000000000E+00 -0.16861497247E+04  0.16861497247E+04  0.25500000920E-02 0.  1.
    10030    2    1    2    0    0  0.00000000000E+00  0.00000000000E+00 -0.16336271957E+04  0.17386722538E+04  0.59518349421E+03 0.  0.
        1    1    3    3  502    0 -0.14689210566E+03  0.16981679513E+03 -0.13873590978E+04  0.14054110789E+04  0.50400001928E-02 0.  1.
       -1    1    3    3    0  502  0.14689210566E+03 -0.16981679513E+03 -0.24626809787E+03  0.33326117486E+03  0.50400001928E-02 0. -1.
</event>
<event>
 5   0  0.7123340E-02  0.6263151E+03  0.7818609E-02  0.9852266E-01
        1   -1    0    0  501    0  0.00000000000E+00  0.00000000000E+00  0.91078442852E+03  0.91078442854E+03  0.50400001928E-02 0. -1.
       -1   -1    0    0    0  501  0.00000000000E+00  0.00000000000E+00 -0.10767382621E+03  0.10767382633E+03  0.50400001928E-02 0.  1.
    10030    2    1    2    0    0  0.00000000000E+00  0.00000000000E+00  0.80311060231E+03  0.10184582549E+04  0.62631507835E+03 0.  0.
        2    1    3    3  502    0  0.27780201323E+03 -0.10946154772E+03  0.24804609365E+03  0.38817863616E+03  0.25500000920E-02 0.  1.
       -2    1    3    3    0  502 -0.27780201323E+03  0.10946154772E+03  0.55506450866E+03  0.63027961871E+03  0.25500000920E-02 0. -1.
</event>
<event>
 5   0  0.7424930E-02  0.5789238E+03  0.7818609E-02  0.9950124E-01
       -1   -1    0    0    0  501  0.00000000000E+00  0.00000000000E+00  0.62566437377E+03  0.62566437379E+03  0.50400001928E-02 0.  1.
        1   -1    0    0  501    0  0.00000000000E+00  0.00000000000E+00 -0.13391876806E+03  0.13391876815E+03  0.50400001928E-02 0. -1.
    10030    2    1    2    0    0  0.00000000000E+00  0.00000000000E+00  0.49174560571E+03  0.75958314194E+03  0.57892383677E+03 0.  0.
        3    1    3    3  502    0  0.57774833391E+02 -0.12917263074E+03 -0.85444425241E+02  0.16530051394E+03  0.10100000352E+00 0. -1.
       -3    1    3    3    0  502 -0.57774833391E+02  0.12917263074E+03  0.57719003096E+03  0.59428262800E+03  0.10100000352E+00 0.  1.
</event>
<event>
 5   0  0.1146468E-01  0.6107667E+03  0.7818609E-02  0.9883317E-01
       -2   -1    0    0    0  501  0.00000000000E+00  0.00000000000E+00  0.73381670757E+02  0.73381670802E+02  0.25500000920E-02 0.  1.
        2   -1    0    0  501    0  0.00000000000E+00  0.00000000000E+00 -0.12708758625E+04  0.12708758625E+04  0.25500000920E-02 0. -1.
    10030    2    1    2    0    0  0.00000000000E+00  0.00000000000E+00 -0.11974941918E+04  0.13442575333E+04  0.61076671209E+03 0.  0.
        4    1    3    3  502    0 -0.25602208303E+03  0.32581622900E+02 -0.23945835935E+03  0.35206645383E+03  0.12699999809E+01 0.  1.
       -4    1    3    3    0  502  0.25602208303E+03 -0.32581622900E+02 -0.95803583243E+03  0.99219107952E+03  0.12699999809E+01 0. -1.
</event>
<event>
 5   0  0.1146468E-01  0.6024341E+03  0.7818609E-02  0.9900369E-01
       -2   -1    0    0    0  501  0.00000000000E+00  0.00000000000E+00  0.63046766630E+02  0.63046766682E+02  0.25500000920E-02 0.  1.
        2   -1    0    0  501    0  0.00000000000E+00  0.00000000000E+00 -0.14391175629E+04  0.14391175629E+04  0.25500000920E-02 0. -1.
    10030    2    1    2    0    0  0.00000000000E+00  0.00000000000E+00 -0.13760707962E+04  0.15021643295E+04  0.60243409326E+03 0.  0.
        4    1    3    3  502    0 -0.12764289302E+03  0.12693311490E+03 -0.12902297305E+04  0.13027275595E+04  0.12699999809E+01 0. -1.
       -4    1    3    3    0  502  0.12764289302E+03 -0.12693311490E+03 -0.85841065725E+02  0.19943677008E+03  0.12699999809E+01 0.  1.
</event>
<event>
 5   0  0.1146468E-01  0.5931340E+03  0.7818609E-02  0.9919754E-01
       -2   -1    0    0    0  501  0.00000000000E+00  0.00000000000E+00  0.29127164803E+03  0.29127164804E+03  0.25500000920E-02 0. -1.
        2   -1    0    0  501    0  0.00000000000E+00  0.00000000000E+00 -0.30195859989E+03  0.30195859990E+03  0.25500000920E-02 0.  1.
    10030    2    1    2    0    0  0.00000000000E+00  0.00000000000E+00 -0.10686951853E+02  0.59323024794E+03  0.59313397823E+03 0.  0.
        4    1    3    3  502    0 -0.78469859068E+02 -0.84899258252E+02  0.26780332813E+03  0.29169442622E+03  0.12699999809E+01 0. -1.
       -4    1    3    3    0  502  0.78469859068E+02  0.84899258252E+02 -0.27849027998E+03  0.30153582172E+03  0.12699999809E+01 0.  1.
</event>
<event>
 5   0  0.1175861E-01  0.6009125E+03  0.7818609E-02  0.9903515E-01
       -2   -1    0    0    0  501  0.00000000000E+00  0.00000000000E+00  0.48971258772E+02  0.48971258838E+02  0.25500000920E-02 0. -1.
        2   -1    0    0  501    0  0.00000000000E+00  0.00000000000E+00 -0.18434067480E+04  0.18434067480E+04  0.25500000920E-02 0.  1.
    10030    2    1    2    0    0  0.00000000000E+00  0.00000000000E+00 -0.17944354892E+04  0.18923780068E+04  0.60091246931E+03 0.  0.
        3    1    3    3  502    0  0.19202614333E+03  0.19891340254E+03 -0.52682670361E+03  0.59496803886E+03  0.10100000352E+00 0. -1.
       -3    1    3    3    0  502 -0.19202614333E+03 -0.19891340254E+03 -0.12676087856E+04  0.12974099680E+04  0.10100000352E+00 0.  1.
</event>
<event>
 5   0  0.7263385E-02  0.6018048E+03  0.7818609E-02  0.9901669E-01
       -1   -1    0    0    0  501  0.00000000000E+00  0.00000000000E+00  0.20106214518E+03  0.20106214525E+03  0.50400001928E-02 0.  1.
        1   -1    0    0  501    0  0.00000000000E+00  0.00000000000E+00 -0.45031981821E+03  0.45031981824E+03  0.50400001928E-02 0. -1.
    10030    2    1    2    0    0  0.00000000000E+00  0.00000000000E+00 -0.24925767303E+03  0.65138196348E+03  0.60180484776E+03 0.  0.
        1    1    3    3  502    0  0.29643206810E+03  0.43774101888E+02 -0.15435247097E+03  0.33706502090E+03  0.50400001928E-02 0. -1.
       -1    1    3    3    0  502 -0.29643206810E+03 -0.43774101888E+02 -0.94905202060E+02  0.31431694259E+03  0.50400001928E-02 0.  1.
</event>
<event>
 5   0  0.1219020E-01  0.6047928E+03  0.7818609E-02  0.9895512E-01
        2   -1    0    0  501    0  0.00000000000E+00  0.00000000000E+00  0.38801671091E+03  0.38801671092E+03  0.25500000920E-02 0.  1.
       -2   -1    0    0    0  501  0.00000000000E+00  0.00000000000E+00 -0.23566918596E+03  0.23566918598E+03  0.25500000920E-02 0. -1.
    10030    2    1    2    0    0  0.00000000000E+00  0.00000000000E+00  0.15234752495E+03  0.62368589690E+03  0.60479279893E+03 0.  0.
        2    1    3    3  502    0 -0.17716651434E+03 -0.22741747994E+03  0.17033270382E+03  0.33484311847E+03  0.25500000920E-02 0.  1.
       -2    1    3    3    0  502  0.17716651434E+03  0.22741747994E+03 -0.17985178863E+02  0.28884277843E+03  0.25500000920E-02 0. -1.
</event>
<event>
 5   0  0.1166419E-01  0.6044881E+03  0.7818609E-02  0.9896138E-01
        2   -1    0    0  501    0  0.00000000000E+00  0.00000000000E+00  0.66279182794E+03  0.66279182794E+03  0.25500000920E-02 0. -1.
       -2   -1    0    0    0  501  0.00000000000E+00  0.00000000000E+00 -0.13782827110E+03  0.13782827112E+03  0.25500000920E-02 0.  1.
    10030    2    1    2    0    0  0.00000000000E+00  0.00000000000E+00  0.52496355684E+03  0.80062009907E+03  0.60448805366E+03 0.  0.
        1    1    3    3  502    0 -0.27123809386E+03 -0.13185124327E+01  0.43908551072E+03  0.51610844576E+03  0.50400001928E-02 0. -1.
       -1    1    3    3    0  502  0.27123809386E+03  0.13185124327E+01  0.85878046122E+02  0.28451165331E+03  0.50400001928E-02 0.  1.
</event>
<event>
 5   0  0.7123340E-02  0.6106790E+03  0.7818609E-02  0.9883495E-01
       -1   -1    0    0    0  501  0.00000000000E+00  0.00000000000E+00  0.25043995189E+03  0.25043995194E+03  0.50400001928E-02 0.  1.
        1   -1    0    0  501    0  0.00000000000E+00  0.00000000000E+00 -0.37227376400E+03  0.37227376404E+03  0.50400001928E-02 0. -1.
    10030    2    1    2    0    0  0.00000000000E+00  0.00000000000E+00 -0.12183381211E+03  0.62271371598E+03  0.61067904360E+03 0.  0.
        2    1    3    3  502    0  0.56394183958E+02 -0.59712431314E+02 -0.36079806950E+03  0.37002854674E+03  0.25500000920E-02 0. -1.
       -2    1    3    3    0  502 -0.56394183958E+02  0.59712431314E+02  0.23896425739E+03  0.25268516924E+03  0.25500000920E-02 0.  1.
</event>
<event>
 5   0  0.7123340E-02  0.5954203E+03  0.7818609E-02  0.9914953E-01
       -1   -1    0    0    0  501  0.00000000000E+00  0.00000000000E+00  0.29235036451E+03  0.29235036455E+03  0.50400001928E-02 0.  1.
        1   -1    0    0  501    0  0.00000000000E+00  0.00000000000E+00 -0.30316821199E+03  0.30316821204E+03  0.50400001928E-02 0. -1.
    10030    2    1    2    0    0  0.00000000000E+00  0.00000000000E+00 -0.10817847483E+02  0.59551857659E+03  0.59542031309E+03 0.  0.
        2    1    3    3  502    0 -0.28006948344E+03 -0.10082043893E+03 -0.10669149453E+02  0.29785484253E+03  0.25500000920E-02 0. -1.
       -2    1    3    3    0  502  0.28006948344E+03  0.10082043893E+03 -0.14869803082E+00  0.29766373406E+03  0.25500000920E-02 0.  1.
</event>
<event>
 5   0  0.1166419E-01  0.5465467E+03  0.7818609E-02  0.1002296E+00
       -2   -1    0    0    0  501  0.00000000000E+00  0.00000000000E+00  0.17449487339E+03  0.17449487341E+03  0.25500000920E-02 0. -1.
        2   -1    0    0  501    0  0.00000000000E+00  0.00000000000E+00 -0.42796866066E+03  0.42796866067E+03  0.25500000920E-02 0.  1.
    10030    2    1    2    0    0  0.00000000000E+00  0.00000000000E+00 -0.25347378727E+03  0.60246353408E+03  0.54654674920E+03 0.  0.
        1    1    3    3  502    0  0.13401333668E+03  0.14267835934E+03 -0.33693327364E+03  0.38966744737E+03  0.50400001928E-02 0.  1.
       -1    1    3    3    0  502 -0.13401333668E+03 -0.14267835934E+03  0.83459486366E+02  0.21279608671E+03  0.50400001928E-02 0. -1.
</event>
<event>
 5   0  0.1146468E-01  0.6085417E+03  0.7818609E-02  0.9887841E-01
        2   -1    0    0  501    0  0.00000000000E+00  0.00000000000E+00  0.26218468042E+04  0.26218468042E+04  0.25500000920E-02 0. -1.
       -2   -1    0    0    0  501  0.00000000000E+00  0.00000000000E+00 -0.35311278256E+02  0.35311278348E+02  0.25500000920E-02 0.  1.
    10030    2    1    2    0    0  0.00000000000E+00  0.00000000000E+00  0.25865355259E+04  0.26571580825E+04  0.60854173948E+03 0.  0.
        4    1    3    3  502    0  0.22290194669E+03  0.14484003048E+03  0.19396659162E+04  0.19577970762E+04  0.12699999809E+01 0. -1.
       -4    1    3    3    0  502 -0.22290194669E+03 -0.14484003048E+03  0.64686960974E+03  0.69936100633E+03  0.12699999809E+01 0.  1.
</event>
<event>
 5   0  0.1146468E-01  0.5377999E+03  0.7818609E-02  0.1004358E+00
        2   -1    0    0  501    0  0.00000000000E+00  0.00000000000E+00  0.13856009340E+03  0.13856009342E+03  0.25500000920E-02 0.  1.
       -2   -1    0    0    0  501  0.00000000000E+00  0.00000000000E+00 -0.52184705599E+03  0.52184705600E+03  0.25500000920E-02 0. -1.
    10030    2    1    2    0    0  0.00000000000E+00  0.00000000000E+00 -0.38328696260E+03  0.66040714942E+03  0.53779987663E+03 0.  0.
        4    1    3    3  502    0 -0.12760800430E+03  0.21231321960E+03 -0.32011182724E+03  0.40476400633E+03  0.12699999809E+01 0. -1.
       -4    1    3    3    0  502  0.12760800430E+03 -0.21231321960E+03 -0.63175135353E+02  0.25564314309E+03  0.12699999809E+01 0.  1.
</event>
<event>
 5   0  0.7424930E-02  0.6312056E+03  0.7818609E-02  0.9842699E-01
       -1   -1    0    0    0  501  0.00000000000E+00  0.00000000000E+00  0.78020990586E+03  0.78020990588E+03  0.50400001928E-02 0. -1.
        1   -1    0    0  501    0  0.00000000000E+00  0.00000000000E+00 -0.12766454534E+03  0.12766454544E+03  0.50400001928E-02 0.  1.
    10030    2    1    2    0    0  0.00000000000E+00  0.00000000000E+00  0.65254536052E+03  0.90787445132E+03  0.63120564940E+03 0.  0.
        3    1    3    3  502    0 -0.86091349497E+02  0.21940399392E+03  0.24379016695E+02  0.23694763063E+03  0.10100000352E+00 0.  1.
       -3    1    3    3    0  502  0.86091349497E+02 -0.21940399392E+03  0.62816634382E+03  0.67092682069E+03  0.10100000352E+00 0. -1.
</event>
<event>
 5   0  0.4695625E-02  0.6033076E+03  0.7818609E-02  0.9898568E-01
       -3   -1    0    0    0  501  0.00000000000E+00  0.00000000000E+00  0.17247265312E+03  0.17247268269E+03  0.10100000352E+00 0. -1.
        3   -1    0    0  501    0  0.00000000000E+00  0.00000000000E+00 -0.52759084277E+03  0.52759085244E+03  0.10100000352E+00 0.  1.
    10030    2    1    2    0    0  0.00000000000E+00  0.00000000000E+00 -0.35511818965E+03  0.70006353513E+03  0.60330757048E+03 0.  0.
        1    1    3    3  502    0 -0.20909210227E+03  0.21631155348E+03 -0.15200945448E+03  0.33707131245E+03  0.50400001928E-02 0.  1.
       -1    1    3    3    0  502  0.20909210227E+03 -0.21631155348E+03 -0.20310873517E+03  0.36299222268E+03  0.50400001928E-02 0. -1.
</event>
<event>
 5   0  0.7424930E-02  0.5801549E+03  0.7818609E-02  0.9947456E-01
       -1   -1    0    0    0  501  0.00000000000E+00  0.00000000000E+00  0.87925794117E+02  0.87925794261E+02  0.50400001928E-02 0.  1.
        1   -1    0    0  501    0  0.00000000000E+00  0.00000000000E+00 -0.95699933276E+03  0.95699933277E+03  0.50400001928E-02 0. -1.
    10030    2    1    2    0    0  0.00000000000E+00  0.00000000000E+00 -0.86907353864E+03  0.10449251270E+04  0.58015489788E+03 0.  0.
        3    1    3    3  502    0 -0.19328558627E+03 -0.35234535289E+02 -0.81891377123E+03  0.84215234088E+03  0.10100000352E+00 0. -1.
       -3    1    3    3    0  502  0.19328558627E+03  0.35234535289E+02 -0.50159767408E+02  0.20277278615E+03  0.10100000352E+00 0.  1.
</event>
<event>
 5   0  0.1219020E-01  0.6106902E+03  0.7818609E-02  0.9883472E-01
       -2   -1    0    0    0  501  0.00000000000E+00  0.00000000000E+00  0.40478905599E+03  0.40478905600E+03  0.25500000920E-02 0.  1.
        2   -1    0    0  501    0  0.00000000000E+00  0.00000000000E+00 -0.23033139514E+03  0.23033139516E+03  0.25500000920E-02 0. -1.
    10030    2    1    2    0    0  0.00000000000E+00  0.00000000000E+00  0.17445766085E+03  0.63512045116E+03  0.61069019318E+03 0.  0.
        2    1    3    3  502    0 -0.76578018499E+02 -0.10854814507E+03 -0.19870378123E+03  0.23901900635E+03  0.25500000920E-02 0. -1.
       -2    1    3    3    0  502  0.76578018499E+02  0.10854814507E+03  0.37316144208E+03  0.39610144481E+03  0.25500000920E-02 0.  1.
</event>
<event>
 5   0  0.7123340E-02  0.5975588E+03  0.7818609E-02  0.9910484E-01
        1   -1    0    0  501    0  0.00000000000E+00  0.00000000000E+00  0.14629318691E+04  0.14629318692E+04  0.50400001928E-02 0.  1.
       -1   -1    0    0    0  501  0.00000000000E+00  0.00000000000E+00 -0.61020704883E+02  0.61020705091E+02  0.50400001928E-02 0. -1.
    10030    2    1    2    0    0  0.00000000000E+00  0.00000000000E+00  0.14019111643E+04  0.15239525742E+04  0.59755881389E+03 0.  0.
        2    1    3    3  502    0  0.14121676827E+03  0.24148048152E+03  0.96860481385E+03  0.10081915909E+04  0.25500000920E-02 0.  1.
       -2    1    3    3    0  502 -0.14121676827E+03 -0.24148048152E+03  0.43330635042E+03  0.51576098332E+03  0.25500000920E-02 0. -1.
</event>
<event>
 5   0  0.7123340E-02  0.5740113E+03  0.7818609E-02  0.9960841E-01
       -1   -1    0    0    0  501  0.00000000000E+00  0.00000000000E+00  0.46123194033E+03  0.46123194036E+03  0.50400001928E-02 0. -1.
        1   -1    0    0  501    0  0.00000000000E+00  0.00000000000E+00 -0.17859179157E+03  0.17859179165E+03  0.50400001928E-02 0.  1.
    10030    2    1    2    0    0  0.00000000000E+00  0.00000000000E+00  0.28264014876E+03  0.63982373201E+03  0.57401128416E+03 0.  0.
        2    1    3    3  502    0  0.17158246531E+03 -0.21582557109E+03  0.23015047526E+03  0.35915242002E+03  0.25500000920E-02 0. -1.
       -2    1    3    3    0  502 -0.17158246531E+03  0.21582557109E+03  0.52489673499E+02  0.28067131198E+03  0.25500000920E-02 0.  1.
</event>
<event>
 5   0  0.7263385E-02  0.6066726E+03  0.7818609E-02  0.9891658E-01
        1   -1    0    0  501    0  0.00000000000E+00  0.00000000000E+00  0.32099255827E+03  0.32099255831E+03  0.50400001928E-02 0. -1.
       -1   -1    0    0    0  501  0.00000000000E+00  0.00000000000E+00 -0.28665120499E+03  0.28665120504E+03  0.50400001928E-02 0.  1.
    10030    2    1    2    0    0  0.00000000000E+00  0.00000000000E+00  0.34341353276E+02  0.60764376334E+03  0.60667257610E+03 0.  0.
        1    1    3    3  502    0  0.89119089023E+02  0.14548784663E+03 -0.23403748009E+03  0.28962470139E+03  0.50400001928E-02 0.  1.
       -1    1    3    3    0  502 -0.89119089023E+02 -0.14548784663E+03  0.26837883336E+03  0.31801906195E+03  0.50400001928E-02 0. -1.
</event>
<event>
 5   0  0.1219020E-01  0.5988456E+03  0.7818609E-02  0.9907804E-01
        2   -1    0    0  501    0  0.00000000000E+00  0.00000000000E+00  0.76741902870E+02  0.76741902912E+02  0.25500000920E-02 0. -1.
       -2   -1    0    0    0  501  0.00000000000E+00  0.00000000000E+00 -0.11682536422E+04  0.11682536422E+04  0.25500000920E-02 0.  1.
    10030    2    1    2    0    0  0.00000000000E+00  0.00000000000E+00 -0.10915117393E+04  0.12449955451E+04  0.59884558132E+03 0.  0.
        2    1    3    3  502    0 -0.29059784735E+03 -0.71326404710E+02 -0.56847714452E+03  0.64241795487E+03  0.25500000920E-02 0.  1.
       -2    1    3    3    0  502  0.29059784735E+03  0.71326404710E+02 -0.52303459481E+03  0.60257759025E+03  0.25500000920E-02 0. -1.
</event>
<event>
 5   0  0.1146468E-01  0.5961713E+03  0.7818609E-02  0.9913381E-01
       -2   -1    0    0    0  501  0.00000000000E+00  0.00000000000E+00  0.10723623660E+03  0.10723623663E+03  0.25500000920E-02 0. -1.
        2   -1    0    0  501    0  0.00000000000E+00  0.00000000000E+00 -0.82859163367E+03  0.82859163367E+03  0.25500000920E-02 0.  1.
    10030    2    1    2    0    0  0.00000000000E+00  0.00000000000E+00 -0.72135539707E+03  0.93582787030E+03  0.59617127904E+03 0.  0.
        4    1    3    3  502    0 -0.28783855457E+03 -0.35529092117E+02 -0.46875090135E+03  0.55121898579E+03  0.12699999809E+01 0. -1.
       -4    1    3    3    0  502  0.28783855457E+03  0.35529092117E+02 -0.25260449572E+03  0.38460888451E+03  0.12699999809E+01 0.  1.
</event>
<event>
 5   0  0.7263385E-02  0.6024490E+03  0.7818609E-02  0.9900338E-01
       -1   -1    0    0    0  501  0.00000000000E+00  0.00000000000E+00  0.32051615029E+02  0.32051615425E+02  0.50400001928E-02 0.  1.
        1   -1    0    0  501    0  0.00000000000E+00  0.00000000000E+00 -0.28309403632E+04  0.28309403632E+04  0.50400001928E-02 0. -1.
    10030    2    1    2    0    0  0.00000000000E+00  0.00000000000E+00 -0.27988887482E+04  0.28629919787E+04  0.60244903939E+03 0.  0.
        1    1    3    3  502    0 -0.29107030647E+02 -0.22127431356E+03 -0.43804680262E+03  0.49162439157E+03  0.50400001928E-02 0.  1.
       -1    1    3    3    0  502  0.29107030647E+02  0.22127431356E+03 -0.23608419456E+04  0.23713675871E+04  0.50400001928E-02 0. -1.
</event>
<event>
 5   0  0.1166419E-01  0.6212455E+03  0.7818609E-02  0.9862283E-01
       -2   -1    0    0    0  501  0.00000000000E+00  0.00000000000E+00  0.11256984129E+03  0.11256984132E+03  0.25500000920E-02 0.  1.
        2   -1    0    0  501    0  0.00000000000E+00  0.00000000000E+00 -0.85712550044E+03  0.85712550045E+03  0.25500000920E-02 0. -1.
    10030    2    1    2    0    0  0.00000000000E+00  0.00000000000E+00 -0.74455565915E+03  0.96969534177E+03  0.62124546379E+03 0.  0.
        1    1    3    3  502    0  0.14799352531E+03  0.21406893042E+03 -0.63698039256E+03  0.68809273433E+03  0.50400001928E-02 0. -1.
       -1    1    3    3    0  502 -0.14799352531E+03 -0.21406893042E+03 -0.10757526659E+03  0.28160260744E+03  0.50400001928E-02 0.  1.
</event>
<event>
 5   0  0.7123340E-02  0.5993486E+03  0.7818609E-02  0.9906758E-01
        1   -1    0    0  501    0  0.00000000000E+00  0.00000000000E+00  0.70323438275E+03  0.70323438277E+03  0.50400001928E-02 0.  1.
       -1   -1    0    0    0  501  0.00000000000E+00  0.00000000000E+00 -0.12770237031E+03  0.12770237041E+03  0.50400001928E-02 0. -1.
    10030    2    1    2    0    0  0.00000000000E+00  0.00000000000E+00  0.57553201244E+03  0.83093675318E+03  0.59934863847E+03 0.  0.
        2    1    3    3  502    0 -0.18610250882E+02  0.29857023126E+03  0.31233984430E+03  0.43248896261E+03  0.25500000920E-02 0.  1.
       -2    1    3    3    0  502  0.18610250882E+02 -0.29857023126E+03  0.26319216814E+03  0.39844779057E+03  0.25500000920E-02 0. -1.
</event>
<event>
 5   0  0.7266519E-02  0.5953092E+03  0.7818609E-02  0.9915186E-01
        1   -1    0    0  501    0  0.00000000000E+00  0.00000000000E+00  0.73733481231E+03  0.73733481233E+03  0.50400001928E-02 0.  1.
       -1   -1    0    0    0  501  0.00000000000E+00  0.00000000000E+00 -0.12016014305E+03  0.12016014315E+03  0.50400001928E-02 0. -1.
    10030    2    1    2    0    0  0.00000000000E+00  0.00000000000E+00  0.61717466927E+03  0.85749495549E+03  0.59530918547E+03 0.  0.
        4    1    3    3  502    0 -0.21728964931E+03  0.25772572659E+02  0.59924395350E+03  0.63794509631E+03  0.12699999809E+01 0.  1.
       -4    1    3    3    0  502  0.21728964931E+03 -0.25772572659E+02  0.17930715767E+02  0.21954985918E+03  0.12699999809E+01 0. -1.
</event>
<event>
 5   0  0.7263385E-02  0.6045216E+03  0.7818609E-02  0.9896069E-01
       -1   -1    0    0    0  501  0.00000000000E+00  0.00000000000E+00  0.83448170765E+02  0.83448170917E+02  0.50400001928E-02 0.  1.
        1   -1    0    0  501    0  0.00000000000E+00  0.00000000000E+00 -0.10948301898E+04  0.10948301898E+04  0.50400001928E-02 0. -1.
    10030    2    1    2    0    0  0.00000000000E+00  0.00000000000E+00 -0.10113820191E+04  0.11782783607E+04  0.60452155209E+03 0.  0.
        1    1    3    3  502    0  0.18684990410E+03 -0.38567722293E+02 -0.96263639793E+03  0.98136088699E+03  0.50400001928E-02 0.  1.
       -1    1    3    3    0  502 -0.18684990410E+03  0.38567722293E+02 -0.48745621122E+02  0.19691747376E+03  0.50400001928E-02 0. -1.
</event>
<event>
 5   0  0.7263385E-02  0.6205500E+03  0.7818609E-02  0.9863665E-01
       -1   -1    0    0    0  501  0.00000000000E+00  0.00000000000E+00  0.16685150204E+03  0.16685150212E+03  0.50400001928E-02 0. -1.
        1   -1    0    0  501    0  0.00000000000E+00  0.00000000000E+00 -0.57698352906E+03  0.57698352908E+03  0.50400001928E-02 0.  1.
    10030    2    1    2    0    0  0.00000000000E+00  0.00000000000E+00 -0.41013202701E+03  0.74383503120E+03  0.62054997708E+03 0.  0.
        1    1    3    3  502    0 -0.12619580096E+03 -0.56816206522E+02  0.12780442511E+03  0.18838108347E+03  0.50400001928E-02 0. -1.
       -1    1    3    3    0  502  0.12619580096E+03  0.56816206522E+02 -0.53793645212E+03  0.55545394773E+03  0.50400001928E-02 0.  1.
</event>
<event>
 5   0  0.7263385E-02  0.5868181E+03  0.7818609E-02  0.9933138E-01
        1   -1    0    0  501    0  0.00000000000E+00  0.00000000000E+00  0.56209167409E+03  0.56209167411E+03  0.50400001928E-02 0.  1.
       -1   -1    0    0    0  501  0.00000000000E+00  0.00000000000E+00 -0.15315804607E+03  0.15315804615E+03  0.50400001928E-02 0. -1.
    10030    2    1    2    0    0  0.00000000000E+00  0.00000000000E+00  0.40893362802E+03  0.71524972026E+03  0.58681807250E+03 0.  0.
        1    1    3    3  502    0 -0.32833086764E+02  0.25376820757E+03  0.37945956302E+03  0.45767442003E+03  0.50400001928E-02 0.  1.
       -1    1    3    3    0  502  0.32833086764E+02 -0.25376820757E+03  0.29474064997E+02  0.25757530023E+03  0.50400001928E-02 0. -1.
</event>
<event>
 5   0  0.4695625E-02  0.5869296E+03  0.7818609E-02  0.9932900E-01
       -3   -1    0    0    0  501  0.00000000000E+00  0.00000000000E+00  0.99949278307E+03  0.99949278817E+03  0.10100000352E+00 0. -1.
        3   -1    0    0  501    0  0.00000000000E+00  0.00000000000E+00 -0.86165265298E+02  0.86165324492E+02  0.10100000352E+00 0.  1.
    10030    2    1    2    0    0  0.00000000000E+00  0.00000000000E+00  0.91332751777E+03  0.10856581127E+04  0.58692962344E+03 0.  0.
        5    1    3    3  502    0 -0.99125667680E+02  0.74053875094E+02 -0.35479881605E+02  0.12880522663E+03  0.46999998093E+01 0.  1.
       -5    1    3    3    0  502  0.99125667680E+02 -0.74053875094E+02  0.94880739938E+03  0.95685288604E+03  0.46999998093E+01 0. -1.
</event>
<event>
 5   0  0.7123340E-02  0.5756977E+03  0.7818609E-02  0.9957149E-01
       -1   -1    0    0    0  501  0.00000000000E+00  0.00000000000E+00  0.27577840548E+03  0.27577840553E+03  0.50400001928E-02 0.  1.
        1   -1    0    0  501    0  0.00000000000E+00  0.00000000000E+00 -0.30044756484E+03  0.30044756488E+03  0.50400001928E-02 0. -1.
    10030    2    1    2    0    0  0.00000000000E+00  0.00000000000E+00 -0.24669159357E+02  0.57622597040E+03  0.57569766505E+03 0.  0.
        2    1    3    3  502    0 -0.21477987370E+03  0.11625096579E+03  0.14016096627E+03  0.28158440593E+03  0.25500000920E-02 0.  1.
       -2    1    3    3    0  502  0.21477987370E+03 -0.11625096579E+03 -0.16483012562E+03  0.29464156447E+03  0.25500000920E-02 0. -1.
</event>
<event>
 5   0  0.7266519E-02  0.6147810E+03  0.7818609E-02  0.9875206E-01
        1   -1    0    0  501    0  0.00000000000E+00  0.00000000000E+00  0.98446263386E+03  0.98446263387E+03  0.50400001928E-02 0. -1.
       -1   -1    0    0    0  501  0.00000000000E+00  0.00000000000E+00 -0.95980191241E+02  0.95980191373E+02  0.50400001928E-02 0.  1.
    10030    2    1    2    0    0  0.00000000000E+00  0.00000000000E+00  0.88848244262E+03  0.10804428252E+04  0.61478097546E+03 0.  0.
        4    1    3    3  502    0 -0.16270337237E+03  0.25828936700E+03  0.50764364877E+03  0.59235924195E+03  0.12699999809E+01 0. -1.
       -4    1    3    3    0  502  0.16270337237E+03 -0.25828936700E+03  0.38083879385E+03  0.48808358330E+03  0.12699999809E+01 0.  1.
</event>
<event>
 5   0  0.1219020E-01  0.6117945E+03  0.7818609E-02  0.9881234E-01
       -2   -1    0    0    0  501  0.00000000000E+00  0.00000000000E+00  0.78699848442E+02  0.78699848483E+02  0.25500000920E-02 0. -1.
        2   -1    0    0  501    0  0.00000000000E+00  0.00000000000E+00 -0.11889875792E+04  0.11889875792E+04  0.25500000920E-02 0.  1.
    10030    2    1    2    0    0  0.00000000000E+00  0.00000000000E+00 -0.11102877308E+04  0.12676874277E+04  0.61179454823E+03 0.  0.
        2    1    3    3  502    0 -0.20896894829E+03 -0.44534787355E+02 -0.10154388986E+03  0.23656400870E+03  0.25500000920E-02 0. -1.
       -2    1    3    3    0  502  0.20896894829E+03  0.44534787355E+02 -0.10087438409E+04  0.10311234190E+04  0.25500000920E-02 0.  1.
</event>
<event>
 5   0  0.7123340E-02  0.6115405E+03  0.7818609E-02  0.9881748E-01
        1   -1    0    0  501    0  0.00000000000E+00  0.00000000000E+00  0.45102726964E+03  0.45102726967E+03  0.50400001928E-02 0.  1.
       -1   -1    0    0    0  501  0.00000000000E+00  0.00000000000E+00 -0.20729441418E+03  0.20729441424E+03  0.50400001928E-02 0. -1.
    10030    2    1    2    0    0  0.00000000000E+00  0.00000000000E+00  0.24373285546E+03  0.65832168391E+03  0.61154046038E+03 0.  0.
        2    1    3    3  502    0  0.27991164967E+03  0.62829053522E+02  0.23577903566E+03  0.37133512526E+03  0.25500000920E-02 0.  1.
       -2    1    3    3    0  502 -0.27991164967E+03 -0.62829053522E+02  0.79538197945E+01  0.28698655865E+03  0.25500000920E-02 0. -1.
</event>
<event>
 5   0  0.7221069E-02  0.6008159E+03  0.7818609E-02  0.9903715E-01
       -1   -1    0    0    0  501  0.00000000000E+00  0.00000000000E+00  0.97210053699E+02  0.97210053830E+02  0.50400001928E-02 0. -1.
        1   -1    0    0  501    0  0.00000000000E+00  0.00000000000E+00 -0.92834991859E+03  0.92834991860E+03  0.50400001928E-02 0.  1.
    10030    2    1    2    0    0  0.00000000000E+00  0.00000000000E+00 -0.83113986489E+03  0.10255599724E+04  0.60081593025E+03 0.  0.
        5    1    3    3  502    0 -0.38229298041E+02  0.14780020081E+03 -0.85712630481E+03  0.87062849195E+03  0.46999998093E+01 0.  1.
       -5    1    3    3    0  502  0.38229298041E+02 -0.14780020081E+03  0.25986439925E+02  0.15493148049E+03  0.46999998093E+01 0. -1.
</event>
<event>
 5   0  0.1166419E-01  0.6003950E+03  0.7818609E-02  0.9904587E-01
        2   -1    0    0  501    0  0.00000000000E+00  0.00000000000E+00  0.13649128253E+04  0.13649128253E+04  0.25500000920E-02 0.  1.
       -2   -1    0    0    0  501  0.00000000000E+00  0.00000000000E+00 -0.66025120416E+02  0.66025120466E+02  0.25500000920E-02 0. -1.
    10030    2    1    2    0    0  0.00000000000E+00  0.00000000000E+00  0.12988877049E+04  0.14309379458E+04  0.60039498228E+03 0.  0.
        1    1    3    3  502    0 -0.71888942208E+02  0.25338102298E+03  0.30614066126E+03  0.40384658884E+03  0.50400001928E-02 0. -1.
       -1    1    3    3    0  502  0.71888942208E+02 -0.25338102298E+03  0.99274704363E+03  0.10270913569E+04  0.50400001928E-02 0.  1.
</event>
<event>
 5   0  0.1166419E-01  0.5982323E+03  0.7818609E-02  0.9909080E-01
        2   -1    0    0  501    0  0.00000000000E+00  0.00000000000E+00  0.22506739570E+03  0.22506739572E+03  0.25500000920E-02 0. -1.
       -2   -1    0    0    0  501  0.00000000000E+00  0.00000000000E+00 -0.39752741358E+03  0.39752741359E+03  0.25500000920E-02 0.  1.
    10030    2    1    2    0    0  0.00000000000E+00  0.00000000000E+00 -0.17246001788E+03  0.62259480931E+03  0.59823226159E+03 0.  0.
        1    1    3    3  502    0 -0.25730360542E+03 -0.13934887228E+03 -0.21678203665E+02  0.29341642440E+03  0.50400001928E-02 0. -1.
       -1    1    3    3    0  502  0.25730360542E+03  0.13934887228E+03 -0.15078181421E+03  0.32917838491E+03  0.50400001928E-02 0.  1.
</event>
<event>
 5   0  0.1219020E-01  0.6212475E+03  0.7818609E-02  0.9862279E-01
        2   -1    0    0  501    0  0.00000000000E+00  0.00000000000E+00  0.35746192715E+03  0.35746192715E+03  0.25500000920E-02 0. -1.
       -2   -1    0    0    0  501  0.00000000000E+00  0.00000000000E+00 -0.26992279555E+03  0.26992279556E+03  0.25500000920E-02 0.  1.
    10030    2    1    2    0    0  0.00000000000E+00  0.00000000000E+00  0.87539131594E+02  0.62738472272E+03  0.62124752775E+03 0.  0.
        2    1    3    3  502    0 -0.51917115368E+02 -0.12981847285E+03  0.32388836233E+03  0.35277740010E+03  0.25500000920E-02 0. -1.
       -2    1    3    3    0  502  0.51917115368E+02  0.12981847285E+03 -0.23634923074E+03  0.27460732262E+03  0.25500000920E-02 0.  1.
</event>
<event>
 5   0  0.1206238E-01  0.5956545E+03  0.7818609E-02  0.9914463E-01
       -2   -1    0    0    0  501  0.00000000000E+00  0.00000000000E+00  0.26210683385E+03  0.26210683386E+03  0.25500000920E-02 0.  1.
        2   -1    0    0  501    0  0.00000000000E+00  0.00000000000E+00 -0.33841573568E+03  0.33841573569E+03  0.25500000920E-02 0. -1.
    10030    2    1    2    0    0  0.00000000000E+00  0.00000000000E+00 -0.76308901833E+02  0.60052256956E+03  0.59565452071E+03 0.  0.
        5    1    3    3  502    0 -0.13265197035E+01 -0.18291169447E+03 -0.27506544456E+03  0.33036576157E+03  0.46999998093E+01 0. -1.
       -5    1    3    3    0  502  0.13265197035E+01  0.18291169447E+03  0.19875654272E+03  0.27015680799E+03  0.46999998093E+01 0.  1.
</event>
<event>
 5   0  0.7123340E-02  0.5795147E+03  0.7818609E-02  0.9948842E-01
        1   -1    0    0  501    0  0.00000000000E+00  0.00000000000E+00  0.55255157334E+03  0.55255157336E+03  0.50400001928E-02 0. -1.
       -1   -1    0    0    0  501  0.00000000000E+00  0.00000000000E+00 -0.15194839158E+03  0.15194839167E+03  0.50400001928E-02 0.  1.
    10030    2    1    2    0    0  0.00000000000E+00  0.00000000000E+00  0.40060318176E+03  0.70449996503E+03  0.57951470343E+03 0.  0.
        2    1    3    3  502    0  0.20510831305E+02 -0.13170119399E+03  0.51307076284E+03  0.53010141142E+03  0.25500000920E-02 0. -1.
       -2    1    3    3    0  502 -0.20510831305E+02  0.13170119399E+03 -0.11246758108E+03  0.17439855361E+03  0.25500000920E-02 0.  1.
</event>
<event>
 5   0  0.1166419E-01  0.6058864E+03  0.7818609E-02  0.9893268E-01
       -2   -1    0    0    0  501  0.00000000000E+00  0.00000000000E+00  0.12014127081E+03  0.12014127084E+03  0.25500000920E-02 0. -1.
        2   -1    0    0  501    0  0.00000000000E+00  0.00000000000E+00 -0.76388881154E+03  0.76388881155E+03  0.25500000920E-02 0.  1.
    10030    2    1    2    0    0  0.00000000000E+00  0.00000000000E+00 -0.64374754073E+03  0.88403008239E+03  0.60588636754E+03 0.  0.
        1    1    3    3  502    0  0.15564670946E+03  0.64410224437E+02  0.45510436402E+02  0.17448717725E+03  0.50400001928E-02 0. -1.
       -1    1    3    3    0  502 -0.15564670946E+03 -0.64410224437E+02 -0.68925797713E+03  0.70954290514E+03  0.50400001928E-02 0.  1.
</event>
<event>
 5   0  0.7263385E-02  0.6047298E+03  0.7818609E-02  0.9895642E-01
        1   -1    0    0  501    0  0.00000000000E+00  0.00000000000E+00  0.45358341170E+03  0.45358341173E+03  0.50400001928E-02 0. -1.
       -1   -1    0    0    0  501  0.00000000000E+00  0.00000000000E+00 -0.20156057275E+03  0.20156057281E+03  0.50400001928E-02 0.  1.
    10030    2    1    2    0    0  0.00000000000E+00  0.00000000000E+00  0.25202283895E+03  0.65514398454E+03  0.60472979845E+03 0.  0.
        1    1    3    3  502    0 -0.17953981209E+03 -0.15795023725E+03 -0.74460299909E+02  0.25045390367E+03  0.50400001928E-02 0.  1.
       -1    1    3    3    0  502  0.17953981209E+03  0.15795023725E+03  0.32648313886E+03  0.40469008088E+03  0.50400001928E-02 0. -1.
</event>
<event>
 5   0  0.4695625E-02  0.5964541E+03  0.7818609E-02  0.9912790E-01
       -4   -1    0    0    0  501  0.00000000000E+00  0.00000000000E+00  0.73215808991E+02  0.73226822859E+02  0.12699999809E+01 0. -1.
        4   -1    0    0  501    0  0.00000000000E+00  0.00000000000E+00 -0.12146536732E+04  0.12146543371E+04  0.12699999809E+01 0.  1.
    10030    2    1    2    0    0  0.00000000000E+00  0.00000000000E+00 -0.11414378642E+04  0.12878811600E+04  0.59645409246E+03 0.  0.
        3    1    3    3  502    0  0.10656622840E+03  0.27808392903E+03 -0.60501795383E+03  0.67433950446E+03  0.10100000352E+00 0. -1.
       -3    1    3    3    0  502 -0.10656622840E+03 -0.27808392903E+03 -0.53641991039E+03  0.61354165554E+03  0.10100000352E+00 0.  1.
</event>
<event>
 5   0  0.7263385E-02  0.5962135E+03  0.7818609E-02  0.9913293E-01
        1   -1    0    0  501    0  0.00000000000E+00  0.00000000000E+00  0.82956817597E+03  0.82956817599E+03  0.50400001928E-02 0.  1.
       -1   -1    0    0    0  501  0.00000000000E+00  0.00000000000E+00 -0.10712515545E+03  0.10712515557E+03  0.50400001928E-02 0. -1.
    10030    2    1    2    0    0  0.00000000000E+00  0.00000000000E+00  0.72244302052E+03  0.93669333156E+03  0.59621345128E+03 0.  0.
        1    1    3    3  502    0  0.21724729505E+03  0.28798701793E+02  0.67872496413E+03  0.71322740370E+03  0.50400001928E-02 0.  1.
       -1    1    3    3    0  502 -0.21724729505E+03 -0.28798701793E+02  0.43718056386E+02  0.22346592786E+03  0.50400001928E-02 0. -1.
</event>
<event>
 5   0  0.7221069E-02  0.5981752E+03  0.7818609E-02  0.9909199E-01
        1   -1    0    0  501    0  0.00000000000E+00  0.00000000000E+00  0.46813909977E+03  0.46813909979E+03  0.50400001928E-02 0.  1.
       -1   -1    0    0    0  501  0.00000000000E+00  0.00000000000E+00 -0.19108294181E+03  0.19108294187E+03  0.50400001928E-02 0. -1.
    10030    2    1    2    0    0  0.00000000000E+00  0.00000000000E+00  0.27705615796E+03  0.65922204167E+03  0.59817521309E+03 0.  0.
        5    1    3    3  502    0 -0.43908321475E+02  0.21137078056E+03 -0.89535450128E+02  0.23376106262E+03  0.46999998093E+01 0. -1.
       -5    1    3    3    0  502  0.43908321475E+02 -0.21137078056E+03  0.36659160809E+03  0.42546097905E+03  0.46999998093E+01 0.  1.
</event>
<event>
 5   0  0.4695625E-02  0.5996343E+03  0.7818609E-02  0.9906165E-01
        4   -1    0    0  501    0  0.00000000000E+00  0.00000000000E+00  0.23685305831E+03  0.23685646314E+03  0.12699999809E+01 0.  1.
       -4   -1    0    0    0  501  0.00000000000E+00  0.00000000000E+00 -0.37951223660E+03  0.37951436156E+03  0.12699999809E+01 0. -1.
    10030    2    1    2    0    0  0.00000000000E+00  0.00000000000E+00 -0.14265917829E+03  0.61637082470E+03  0.59963434890E+03 0.  0.
        3    1    3    3  502    0 -0.21954689137E+03  0.14171614478E+02  0.13804320688E+03  0.25972602744E+03  0.10100000352E+00 0.  1.
       -3    1    3    3    0  502  0.21954689137E+03 -0.14171614478E+02 -0.28070238517E+03  0.35664479725E+03  0.10100000352E+00 0. -1.
</event>
<event>
 5   0  0.1166419E-01  0.5443453E+03  0.7818609E-02  0.1002811E+00
       -2   -1    0    0    0  501  0.00000000000E+00  0.00000000000E+00  0.90204694137E+02  0.90204694173E+02  0.25500000920E-02 0.  1.
        2   -1    0    0  501    0  0.00000000000E+00  0.00000000000E+00 -0.82122047792E+03  0.82122047792E+03  0.25500000920E-02 0. -1.
    10030    2    1    2    0    0  0.00000000000E+00  0.00000000000E+00 -0.73101578378E+03  0.91142517209E+03  0.54434526561E+03 0.  0.
        1    1    3    3  502    0 -0.92576290934E+02  0.15672938915E+03 -0.70430437803E+03  0.72744699326E+03  0.50400001928E-02 0. -1.
       -1    1    3    3    0  502  0.92576290934E+02 -0.15672938915E+03 -0.26711405754E+02  0.18397817884E+03  0.50400001928E-02 0.  1.
</event>
<event>
 5   0  0.1175861E-01  0.6088922E+03  0.7818609E-02  0.9887127E-01
        2   -1    0    0  501    0  0.00000000000E+00  0.00000000000E+00  0.37344154089E+03  0.37344154090E+03  0.25500000920E-02 0.  1.
       -2   -1    0    0    0  501  0.00000000000E+00  0.00000000000E+00 -0.24819798640E+03  0.24819798641E+03  0.25500000920E-02 0. -1.
    10030    2    1    2    0    0  0.00000000000E+00  0.00000000000E+00  0.12524355449E+03  0.62163952731E+03  0.60889223510E+03 0.  0.
        3    1    3    3  502    0 -0.25548775621E+03  0.14655100693E+03 -0.16038197888E+02  0.29497190577E+03  0.10100000352E+00 0. -1.
       -3    1    3    3    0  502  0.25548775621E+03 -0.14655100693E+03  0.14128175238E+03  0.32666762153E+03  0.10100000352E+00 0.  1.
</event>
<event>
 5   0  0.7263385E-02  0.6022825E+03  0.7818609E-02  0.9900682E-01
       -1   -1    0    0    0  501  0.00000000000E+00  0.00000000000E+00  0.42006017877E+03  0.42006017881E+03  0.50400001928E-02 0. -1.
        1   -1    0    0  501    0  0.00000000000E+00  0.00000000000E+00 -0.21588822871E+03  0.21588822877E+03  0.50400001928E-02 0.  1.
    10030    2    1    2    0    0  0.00000000000E+00  0.00000000000E+00  0.20417195006E+03  0.63594840758E+03  0.60228248514E+03 0.  0.
        1    1    3    3  502    0 -0.52203798683E+02  0.17347526431E+03  0.35608829003E+03  0.39952193212E+03  0.50400001928E-02 0.  1.
       -1    1    3    3    0  502  0.52203798683E+02 -0.17347526431E+03 -0.15191633996E+03  0.23642647546E+03  0.50400001928E-02 0. -1.
</event>
<event>
 5   0  0.7123340E-02  0.5690504E+03  0.7818609E-02  0.9971782E-01
       -1   -1    0    0    0  501  0.00000000000E+00  0.00000000000E+00  0.22086285806E+03  0.22086285812E+03  0.50400001928E-02 0. -1.
        1   -1    0    0  501    0  0.00000000000E+00  0.00000000000E+00 -0.36653777614E+03  0.36653777618E+03  0.50400001928E-02 0.  1.
    10030    2    1    2    0    0  0.00000000000E+00  0.00000000000E+00 -0.14567491808E+03  0.58740063430E+03  0.56905036984E+03 0.  0.
        2    1    3    3  502    0  0.25829782788E+03  0.20151653171E+02  0.48559038248E+02  0.26359407659E+03  0.25500000920E-02 0. -1.
       -2    1    3    3    0  502 -0.25829782788E+03 -0.20151653171E+02 -0.19423395633E+03  0.32380655770E+03  0.25500000920E-02 0.  1.
</event>
<event>
 5   0  0.4695625E-02  0.5959519E+03  0.7818609E-02  0.9913840E-01
        3   -1    0    0  501    0  0.00000000000E+00  0.00000000000E+00  0.26191046378E+03  0.26191048325E+03  0.10100000352E+00 0.  1.
       -3   -1    0    0    0  501  0.00000000000E+00  0.00000000000E+00 -0.33900772452E+03  0.33900773956E+03  0.10100000352E+00 0. -1.
    10030    2    1    2    0    0  0.00000000000E+00  0.00000000000E+00 -0.77097260738E+02  0.60091822282E+03  0.59595194680E+03 0.  0.
        4    1    3    3  502    0  0.20685973594E+03  0.63851067593E+02 -0.24499896450E+03  0.32694650127E+03  0.12699999809E+01 0. -1.
       -4    1    3    3    0  502 -0.20685973594E+03 -0.63851067593E+02  0.16790170376E+03  0.27397172155E+03  0.12699999809E+01 0.  1.
</event>
<event>
 5   0  0.7266519E-02  0.6741838E+03  0.7818609E-02  0.9762429E-01
       -1   -1    0    0    0  501  0.00000000000E+00  0.00000000000E+00  0.88484562721E+02  0.88484562865E+02  0.50400001928E-02 0.  1.
        1   -1    0    0  501    0  0.00000000000E+00  0.00000000000E+00 -0.12841895638E+04  0.12841895638E+04  0.50400001928E-02 0. -1.
    10030    2    1    2    0    0  0.00000000000E+00  0.00000000000E+00 -0.11957050011E+04  0.13726741267E+04  0.67418380908E+03 0.  0.
        4    1    3    3  502    0 -0.13669377980E+03 -0.28549121888E+03 -0.36182032351E+03  0.48073483845E+03  0.12699999809E+01 0. -1.
       -4    1    3    3    0  502  0.13669377980E+03  0.28549121888E+03 -0.83388467755E+03  0.89193928820E+03  0.12699999809E+01 0.  1.
</event>
<event>
 5   0  0.7123340E-02  0.5997489E+03  0.7818609E-02  0.9905927E-01
       -1   -1    0    0    0  501  0.00000000000E+00  0.00000000000E+00  0.33468322246E+03  0.33468322250E+03  0.50400001928E-02 0.  1.
        1   -1    0    0  501    0  0.00000000000E+00  0.00000000000E+00 -0.26868596238E+03  0.26868596242E+03  0.50400001928E-02 0. -1.
    10030    2    1    2    0    0  0.00000000000E+00  0.00000000000E+00  0.65997260086E+02  0.60336918492E+03  0.59974889327E+03 0.  0.
        2    1    3    3  502    0  0.75323731770E+02 -0.25769629512E+03  0.16738504889E+03  0.31638394347E+03  0.25500000920E-02 0.  1.
       -2    1    3    3    0  502 -0.75323731770E+02  0.25769629512E+03 -0.10138778880E+03  0.28698524145E+03  0.25500000920E-02 0. -1.
</event>
<event>
 5   0  0.7424930E-02  0.6150535E+03  0.7818609E-02  0.9874658E-01
        1   -1    0    0  501    0  0.00000000000E+00  0.00000000000E+00  0.44045064083E+03  0.44045064086E+03  0.50400001928E-02 0.  1.
       -1   -1    0    0    0  501  0.00000000000E+00  0.00000000000E+00 -0.21471802153E+03  0.21471802159E+03  0.50400001928E-02 0. -1.
    10030    2    1    2    0    0  0.00000000000E+00  0.00000000000E+00  0.22573261930E+03  0.65516866245E+03  0.61505346178E+03 0.  0.
        3    1    3    3  502    0  0.26231402043E+03  0.16049292044E+03  0.11024465378E+03  0.32668106268E+03  0.10100000352E+00 0. -1.
       -3    1    3    3    0  502 -0.26231402043E+03 -0.16049292044E+03  0.11548796552E+03  0.32848759977E+03  0.10100000352E+00 0.  1.
</event>
<event>
 5   0  0.1166419E-01  0.6245540E+03  0.7818609E-02  0.9855734E-01
        2   -1    0    0  501    0  0.00000000000E+00  0.00000000000E+00  0.85017417042E+03  0.85017417042E+03  0.25500000920E-02 0. -1.
       -2   -1    0    0    0  501  0.00000000000E+00  0.00000000000E+00 -0.11470227297E+03  0.11470227300E+03  0.25500000920E-02 0.  1.
    10030    2    1    2    0    0  0.00000000000E+00  0.00000000000E+00  0.73547189745E+03  0.96487644342E+03  0.62455395213E+03 0.  0.
        1    1    3    3  502    0 -0.88487621481E+02  0.15602090606E+03  0.76265282123E+03  0.78346149110E+03  0.50400001928E-02 0. -1.
       -1    1    3    3    0  502  0.88487621481E+02 -0.15602090606E+03 -0.27180923779E+02  0.18141495232E+03  0.50400001928E-02 0.  1.
</event>
<event>
 5   0  0.7221069E-02  0.5864065E+03  0.7818609E-02  0.9934017E-01
       -1   -1    0    0    0  501  0.00000000000E+00  0.00000000000E+00  0.68723496872E+03  0.68723496874E+03  0.50400001928E-02 0. -1.
        1   -1    0    0  501    0  0.00000000000E+00  0.00000000000E+00 -0.12509280811E+03  0.12509280821E+03  0.50400001928E-02 0.  1.
    10030    2    1    2    0    0  0.00000000000E+00  0.00000000000E+00  0.56214216061E+03  0.81232777695E+03  0.58640652152E+03 0.  0.
        5    1    3    3  502    0 -0.21985608947E+03  0.67029865239E+02  0.28982133000E+02  0.23171481813E+03  0.46999998093E+01 0.  1.
       -5    1    3    3    0  502  0.21985608947E+03 -0.67029865239E+02  0.53316002761E+03  0.58061295882E+03  0.46999998093E+01 0. -1.
</event>
<event>
 5   0  0.1219020E-01  0.5972239E+03  0.7818609E-02  0.9911182E-01
       -2   -1    0    0    0  501  0.00000000000E+00  0.00000000000E+00  0.38377040656E+03  0.38377040657E+03  0.25500000920E-02 0.  1.
        2   -1    0    0  501    0  0.00000000000E+00  0.00000000000E+00 -0.23235013835E+03  0.23235013837E+03  0.25500000920E-02 0. -1.
    10030    2    1    2    0    0  0.00000000000E+00  0.00000000000E+00  0.15142026821E+03  0.61612054494E+03  0.59722393478E+03 0.  0.
        2    1    3    3  502    0 -0.17242050247E+03 -0.67693251351E+02  0.31733859079E+03  0.36744385580E+03  0.25500000920E-02 0.  1.
       -2    1    3    3    0  502  0.17242050247E+03  0.67693251351E+02 -0.16591832258E+03  0.24867668915E+03  0.25500000920E-02 0. -1.
</event>
<event>
 5   0  0.7123340E-02  0.5816944E+03  0.7818609E-02  0.9944129E-01
        1   -1    0    0  501    0  0.00000000000E+00  0.00000000000E+00  0.51631185241E+03  0.51631185243E+03  0.50400001928E-02 0. -1.
       -1   -1    0    0    0  501  0.00000000000E+00  0.00000000000E+00 -0.16383913111E+03  0.16383913119E+03  0.50400001928E-02 0.  1.
    10030    2    1    2    0    0  0.00000000000E+00  0.00000000000E+00  0.35247272130E+03  0.68015098363E+03  0.58169437101E+03 0.  0.
        2    1    3    3  502    0  0.17596543206E+03  0.19379434155E+02 -0.93588053488E+02  0.20024514853E+03  0.25500000920E-02 0.  1.
       -2    1    3    3    0  502 -0.17596543206E+03 -0.19379434155E+02  0.44606077478E+03  0.47990583509E+03  0.25500000920E-02 0. -1.
</event>
<event>
 5   0  0.1175861E-01  0.5875233E+03  0.7818609E-02  0.9931635E-01
        2   -1    0    0  501    0  0.00000000000E+00  0.00000000000E+00  0.18496533361E+04  0.18496533361E+04  0.25500000920E-02 0.  1.
       -2   -1    0    0    0  501  0.00000000000E+00  0.00000000000E+00 -0.46655185051E+02  0.46655185121E+02  0.25500000920E-02 0. -1.
    10030    2    1    2    0    0  0.00000000000E+00  0.00000000000E+00  0.18029981511E+04  0.18963085212E+04  0.58752333994E+03 0.  0.
        3    1    3    3  502    0  0.70351467947E+02 -0.39241304645E+02 -0.10309238317E+02  0.81212681450E+02  0.10100000352E+00 0. -1.
       -3    1    3    3    0  502 -0.70351467947E+02  0.39241304645E+02  0.18133073894E+04  0.18150958398E+04  0.10100000352E+00 0.  1.
</event>
<event>
 5   0  0.7263385E-02  0.6150750E+03  0.7818609E-02  0.9874614E-01
        1   -1    0    0  501    0  0.00000000000E+00  0.00000000000E+00  0.20445918292E+03  0.20445918298E+03  0.50400001928E-02 0. -1.
       -1   -1    0    0    0  501  0.00000000000E+00  0.00000000000E+00 -0.46258292612E+03  0.46258292615E+03  0.50400001928E-02 0.  1.
    10030    2    1    2    0    0  0.00000000000E+00  0.00000000000E+00 -0.25812374320E+03  0.66704210913E+03  0.61507504302E+03 0.  0.
        1    1    3    3  502    0 -0.13915701049E+03 -0.11599934267E+03  0.14044794655E+03  0.22922946317E+03  0.50400001928E-02 0. -1.
       -1    1    3    3    0  502  0.13915701049E+03  0.11599934267E+03 -0.39857168975E+03  0.43781264596E+03  0.50400001928E-02 0.  1.
</event>
<event>
 5   0  0.1175861E-01  0.6055228E+03  0.7818609E-02  0.9894014E-01
        2   -1    0    0  501    0  0.00000000000E+00  0.00000000000E+00  0.71459862205E+03  0.71459862205E+03  0.25500000920E-02 0. -1.
       -2   -1    0    0    0  501  0.00000000000E+00  0.00000000000E+00 -0.12827406757E+03  0.12827406759E+03  0.25500000920E-02 0.  1.
    10030    2    1    2    0    0  0.00000000000E+00  0.00000000000E+00  0.58632455448E+03  0.84287268964E+03  0.60552282183E+03 0.  0.
        3    1    3    3  502    0 -0.11356246435E+03 -0.16136289349E+02 -0.96858237452E+02  0.15012775062E+03  0.10100000352E+00 0.  1.
       -3    1    3    3    0  502  0.11356246435E+03  0.16136289349E+02  0.68318279193E+03  0.69274493902E+03  0.10100000352E+00 0. -1.
</event>
<event>
 5   0  0.7424930E-02  0.5951359E+03  0.7818609E-02  0.9915549E-01
       -1   -1    0    0    0  501  0.00000000000E+00  0.00000000000E+00  0.13622614659E+04  0.13622614659E+04  0.50400001928E-02 0. -1.
        1   -1    0    0  501    0  0.00000000000E+00  0.00000000000E+00 -0.64999773498E+02  0.64999773694E+02  0.50400001928E-02 0.  1.
    10030    2    1    2    0    0  0.00000000000E+00  0.00000000000E+00  0.12972616924E+04  0.14272612396E+04  0.59513590674E+03 0.  0.
        3    1    3    3  502    0 -0.25215383092E+03  0.11454142026E+03  0.38761798134E+03  0.47639164671E+03  0.10100000352E+00 0.  1.
       -3    1    3    3    0  502  0.25215383092E+03 -0.11454142026E+03  0.90964371103E+03  0.95086959286E+03  0.10100000352E+00 0. -1.
</event>
<event>
 5   0  0.7221069E-02  0.5979713E+03  0.7818609E-02  0.9909624E-01
       -1   -1    0    0    0  501  0.00000000000E+00  0.00000000000E+00  0.13637656197E+03  0.13637656206E+03  0.50400001928E-02 0.  1.
        1   -1    0    0  501    0  0.00000000000E+00  0.00000000000E+00 -0.65548223367E+03  0.65548223369E+03  0.50400001928E-02 0. -1.
    10030    2    1    2    0    0  0.00000000000E+00  0.00000000000E+00 -0.51910567170E+03  0.79185879575E+03  0.59797128194E+03 0.  0.
        5    1    3    3  502    0 -0.12114248280E+03  0.90703011208E+01  0.10216786636E+03  0.15880218644E+03  0.46999998093E+01 0.  1.
       -5    1    3    3    0  502  0.12114248280E+03 -0.90703011208E+01 -0.62127353806E+03  0.63305660931E+03  0.46999998093E+01 0. -1.
</event>
<event>
 5   0  0.7424930E-02  0.5890726E+03  0.7818609E-02  0.9928340E-01
       -1   -1    0    0    0  501  0.00000000000E+00  0.00000000000E+00  0.40925717705E+03  0.40925717708E+03  0.50400001928E-02 0. -1.
        1   -1    0    0  501    0  0.00000000000E+00  0.00000000000E+00 -0.21197336085E+03  0.21197336091E+03  0.50400001928E-02 0.  1.
    10030    2    1    2    0    0  0.00000000000E+00  0.00000000000E+00  0.19728381621E+03  0.62123053799E+03  0.58907255682E+03 0.  0.
        3    1    3    3  502    0  0.98298894422E+02  0.27522455101E+03  0.60032027634E+02  0.29835395199E+03  0.10100000352E+00 0.  1.
       -3    1    3    3    0  502 -0.98298894422E+02 -0.27522455101E+03  0.13725178857E+03  0.32287658600E+03  0.10100000352E+00 0. -1.
</event>
<event>
 5   0  0.1206238E-01  0.6123068E+03  0.7818609E-02  0.9880197E-01
       -2   -1    0    0    0  501  0.00000000000E+00  0.00000000000E+00  0.86232735714E+02  0.86232735751E+02  0.25500000920E-02 0. -1.
        2   -1    0    0  501    0  0.00000000000E+00  0.00000000000E+00 -0.10869410075E+04  0.10869410076E+04  0.25500000920E-02 0.  1.
    10030    2    1    2    0    0  0.00000000000E+00  0.00000000000E+00 -0.10007082718E+04  0.11731737433E+04  0.61230677496E+03 0.  0.
        5    1    3    3  502    0 -0.41475852769E+02 -0.27057674918E+03 -0.23781605908E+03  0.36264389077E+03  0.46999998093E+01 0. -1.
       -5    1    3    3    0  502  0.41475852769E+02  0.27057674918E+03 -0.76289221276E+03  0.81052985253E+03  0.46999998093E+01 0.  1.
</event>
<event>
 5   0  0.1166419E-01  0.5951636E+03  0.7818609E-02  0.9915491E-01
       -2   -1    0    0    0  501  0.00000000000E+00  0.00000000000E+00  0.28666770680E+03  0.28666770681E+03  0.25500000920E-02 0. -1.
        2   -1    0    0  501    0  0.00000000000E+00  0.00000000000E+00 -0.30891140900E+03  0.30891140901E+03  0.25500000920E-02 0.  1.
    10030    2    1    2    0    0  0.00000000000E+00  0.00000000000E+00 -0.22243702201E+02  0.59557911582E+03  0.59516359172E+03 0.  0.
        1    1    3    3  502    0 -0.11993774999E+03 -0.96572914896E+01 -0.28348203534E+03  0.30796167219E+03  0.50400001928E-02 0.  1.
       -1    1    3    3    0  502  0.11993774999E+03  0.96572914896E+01  0.26123833314E+03  0.28761744363E+03  0.50400001928E-02 0. -1.
</event>
<event>
 5   0  0.1166419E-01  0.6891241E+03  0.7818609E-02  0.9736014E-01
        2   -1    0    0  501    0  0.00000000000E+00  0.00000000000E+00  0.11774812364E+04  0.11774812364E+04  0.25500000920E-02 0.  1.
       -2   -1    0    0    0  501  0.00000000000E+00  0.00000000000E+00 -0.10082794358E+03  0.10082794361E+03  0.25500000920E-02 0. -1.
    10030    2    1    2    0    0  0.00000000000E+00  0.00000000000E+00  0.10766532928E+04  0.12783091800E+04  0.68912411566E+03 0.  0.
        1    1    3    3  502    0 -0.31358138177E+03 -0.96586763285E+02  0.34323877358E+03  0.47484222806E+03  0.50400001928E-02 0. -1.
       -1    1    3    3    0  502  0.31358138177E+03  0.96586763285E+02  0.73341451926E+03  0.80346695198E+03  0.50400001928E-02 0.  1.
</event>
<event>
 5   0  0.7123340E-02  0.5862380E+03  0.7818609E-02  0.9934376E-01
        1   -1    0    0  501    0  0.00000000000E+00  0.00000000000E+00  0.33092258182E+03  0.33092258185E+03  0.50400001928E-02 0. -1.
       -1   -1    0    0    0  501  0.00000000000E+00  0.00000000000E+00 -0.25963395932E+03  0.25963395937E+03  0.50400001928E-02 0.  1.
    10030    2    1    2    0    0  0.00000000000E+00  0.00000000000E+00  0.71288622494E+02  0.59055654123E+03  0.58623797274E+03 0.  0.
        2    1    3    3  502    0 -0.11009328988E+02 -0.26948380882E+02  0.32946280176E+03  0.33074636552E+03  0.25500000920E-02 0. -1.
       -2    1    3    3    0  502  0.11009328988E+02  0.26948380882E+02 -0.25817417926E+03  0.25981017571E+03  0.25500000920E-02 0.  1.
</event>
<event>
 5   0  0.4695625E-02  0.5985492E+03  0.7818609E-02  0.9908421E-01
        4   -1    0    0  501    0  0.00000000000E+00  0.00000000000E+00  0.47733565588E+03  0.47733734536E+03  0.12699999809E+01 0. -1.
       -4   -1    0    0    0  501  0.00000000000E+00  0.00000000000E+00 -0.18763170003E+03  0.18763599803E+03  0.12699999809E+01 0.  1.
    10030    2    1    2    0    0  0.00000000000E+00  0.00000000000E+00  0.28970395585E+03  0.66497334339E+03  0.59854921718E+03 0.  0.
        4    1    3    3  502    0 -0.10877513577E+03  0.35823895389E+02 -0.16232472610E+03  0.19866129781E+03  0.12699999809E+01 0.  1.
       -4    1    3    3    0  502  0.10877513577E+03 -0.35823895389E+02  0.45202868196E+03  0.46631204558E+03  0.12699999809E+01 0. -1.
</event>
<event>
 5   0  0.1219020E-01  0.6047849E+03  0.7818609E-02  0.9895528E-01
        2   -1    0    0  501    0  0.00000000000E+00  0.00000000000E+00  0.15481658405E+04  0.15481658405E+04  0.25500000920E-02 0. -1.
       -2   -1    0    0    0  501  0.00000000000E+00  0.00000000000E+00 -0.59064214981E+02  0.59064215036E+02  0.25500000920E-02 0.  1.
    10030    2    1    2    0    0  0.00000000000E+00  0.00000000000E+00  0.14891016255E+04  0.16072300555E+04  0.60478492070E+03 0.  0.
        2    1    3    3  502    0 -0.19073307921E+03  0.69898654344E+02  0.13398376515E+04  0.13551493872E+04  0.25500000920E-02 0. -1.
       -2    1    3    3    0  502  0.19073307921E+03 -0.69898654344E+02  0.14926397404E+03  0.25208066831E+03  0.25500000920E-02 0.  1.
</event>
<event>
 5   0  0.7221069E-02  0.4417027E+03  0.7818609E-02  0.1030226E+00
        1   -1    0    0  501    0  0.00000000000E+00  0.00000000000E+00  0.53861211884E+03  0.53861211886E+03  0.50400001928E-02 0.  1.
       -1   -1    0    0    0  501  0.00000000000E+00  0.00000000000E+00 -0.90557414346E+02  0.90557414486E+02  0.50400001928E-02 0. -1.
    10030    2    1    2    0    0  0.00000000000E+00  0.00000000000E+00  0.44805470450E+03  0.62916953335E+03  0.44170270938E+03 0.  0.
        5    1    3    3  502    0 -0.10132576596E+03 -0.37065843092E+01 -0.55364208621E+02  0.11561978727E+03  0.46999998093E+01 0. -1.
       -5    1    3    3    0  502  0.10132576596E+03  0.37065843092E+01  0.50341891312E+03  0.51354974608E+03  0.46999998093E+01 0.  1.
</event>
<event>
 5   0  0.7266519E-02  0.5934278E+03  0.7818609E-02  0.9919136E-01
       -1   -1    0    0    0  501  0.00000000000E+00  0.00000000000E+00  0.83036779273E+02  0.83036779426E+02  0.50400001928E-02 0. -1.
        1   -1    0    0  501    0  0.00000000000E+00  0.00000000000E+00 -0.10602428172E+04  0.10602428172E+04  0.50400001928E-02 0.  1.
    10030    2    1    2    0    0  0.00000000000E+00  0.00000000000E+00 -0.97720603793E+03  0.11432795966E+04  0.59342783515E+03 0.  0.
        4    1    3    3  502    0 -0.21710046872E+03  0.20064338092E+03 -0.43959252465E+03  0.52974860118E+03  0.12699999809E+01 0. -1.
       -4    1    3    3    0  502  0.21710046872E+03 -0.20064338092E+03 -0.53761351328E+03  0.61353099545E+03  0.12699999809E+01 0.  1.
</event>
<event>
 5   0  0.7424930E-02  0.5987282E+03  0.7818609E-02  0.9908048E-01
        1   -1    0    0  501    0  0.00000000000E+00  0.00000000000E+00  0.45212815356E+03  0.45212815359E+03  0.50400001928E-02 0.  1.
       -1   -1    0    0    0  501  0.00000000000E+00  0.00000000000E+00 -0.19821559287E+03  0.19821559294E+03  0.50400001928E-02 0. -1.
    10030    2    1    2    0    0  0.00000000000E+00  0.00000000000E+00  0.25391256068E+03  0.65034374652E+03  0.59872815214E+03 0.  0.
        3    1    3    3  502    0 -0.84965700116E+02 -0.37015294865E+02 -0.18224050481E+03  0.20445271836E+03  0.10100000352E+00 0. -1.
       -3    1    3    3    0  502  0.84965700116E+02  0.37015294865E+02  0.43615306550E+03  0.44589102816E+03  0.10100000352E+00 0.  1.
</event>
<event>
 5   0  0.7424930E-02  0.6062970E+03  0.7818609E-02  0.9892427E-01
        1   -1    0    0  501    0  0.00000000000E+00  0.00000000000E+00  0.89524377354E+03  0.89524377355E+03  0.50400001928E-02 0.  1.
       -1   -1    0    0    0  501  0.00000000000E+00  0.00000000000E+00 -0.10265250148E+03  0.10265250160E+03  0.50400001928E-02 0. -1.
    10030    2    1    2    0    0  0.00000000000E+00  0.00000000000E+00  0.79259127206E+03  0.99789627515E+03  0.60629699935E+03 0.  0.
        3    1    3    3  502    0  0.98636666867E+02  0.17785409221E+03  0.26290409477E+02  0.20506697930E+03  0.10100000352E+00 0. -1.
       -3    1    3    3    0  502 -0.98636666867E+02 -0.17785409221E+03  0.76630086258E+03  0.79282929585E+03  0.10100000352E+00 0.  1.
</event>
<event>
 5   0  0.1219020E-01  0.6524593E+03  0.7818609E-02  0.9802175E-01
        2   -1    0    0  501    0  0.00000000000E+00  0.00000000000E+00  0.12434853452E+04  0.12434853452E+04  0.25500000920E-02 0. -1.
       -2   -1    0    0    0  501  0.00000000000E+00  0.00000000000E+00 -0.85586687647E+02  0.85586687685E+02  0.25500000920E-02 0.  1.
    10030    2    1    2    0    0  0.00000000000E+00  0.00000000000E+00  0.11578986576E+04  0.13290720329E+04  0.65245932245E+03 0.  0.
        2    1    3    3  502    0 -0.29613039739E+03 -0.13219335793E+03  0.50671421921E+03  0.60160418557E+03  0.25500000920E-02 0. -1.
       -2    1    3    3    0  502  0.29613039739E+03  0.13219335793E+03  0.65118443838E+03  0.72746784736E+03  0.25500000920E-02 0.  1.
</event>
<event>
 5   0  0.1219020E-01  0.5964734E+03  0.7818609E-02  0.9912750E-01
        2   -1    0    0  501    0  0.00000000000E+00  0.00000000000E+00  0.34986481285E+03  0.34986481286E+03  0.25500000920E-02 0. -1.
       -2   -1    0    0    0  501  0.00000000000E+00  0.00000000000E+00 -0.25422714693E+03  0.25422714694E+03  0.25500000920E-02 0.  1.
    10030    2    1    2    0    0  0.00000000000E+00  0.00000000000E+00  0.95637665920E+02  0.60409195980E+03  0.59647341329E+03 0.  0.
        2    1    3    3  502    0 -0.19624777210E+03  0.28992652616E+01 -0.17960115301E+03  0.26604166584E+03  0.25500000920E-02 0.  1.
       -2    1    3    3    0  502  0.19624777210E+03 -0.28992652616E+01  0.27523881893E+03  0.33805029396E+03  0.25500000920E-02 0. -1.
</event>
<event>
 5   0  0.7266519E-02  0.6099703E+03  0.7818609E-02  0.9884934E-01
       -1   -1    0    0    0  501  0.00000000000E+00  0.00000000000E+00  0.10664990112E+03  0.10664990124E+03  0.50400001928E-02 0.  1.
        1   -1    0    0  501    0  0.00000000000E+00  0.00000000000E+00 -0.87216157332E+03  0.87216157333E+03  0.50400001928E-02 0. -1.
    10030    2    1    2    0    0  0.00000000000E+00  0.00000000000E+00 -0.76551167220E+03  0.97881147457E+03  0.60997031278E+03 0.  0.
        4    1    3    3  502    0 -0.15603245568E+03 -0.18991518889E+03 -0.93020146698E+02  0.26280842222E+03  0.12699999809E+01 0.  1.
       -4    1    3    3    0  502  0.15603245568E+03  0.18991518889E+03 -0.67249152550E+03  0.71600305235E+03  0.12699999809E+01 0. -1.
</event>
<event>
 5   0  0.7263385E-02  0.5979203E+03  0.7818609E-02  0.9909730E-01
       -1   -1    0    0    0  501  0.00000000000E+00  0.00000000000E+00  0.12242900942E+03  0.12242900952E+03  0.50400001928E-02 0.  1.
        1   -1    0    0  501    0  0.00000000000E+00  0.00000000000E+00 -0.73003256882E+03  0.73003256884E+03  0.50400001928E-02 0. -1.
    10030    2    1    2    0    0  0.00000000000E+00  0.00000000000E+00 -0.60760355941E+03  0.85246157836E+03  0.59792027661E+03 0.  0.
        1    1    3    3  502    0  0.21328826091E+02  0.20005245893E+03 -0.61907824529E+03  0.65094836890E+03  0.50400001928E-02 0. -1.
       -1    1    3    3    0  502 -0.21328826091E+02 -0.20005245893E+03  0.11474685888E+02  0.20151320946E+03  0.50400001928E-02 0.  1.
</event>
<event>
 5   0  0.7263385E-02  0.6055530E+03  0.7818609E-02  0.9893952E-01
        1   -1    0    0  501    0  0.00000000000E+00  0.00000000000E+00  0.16216423038E+04  0.16216423038E+04  0.50400001928E-02 0. -1.
       -1   -1    0    0    0  501  0.00000000000E+00  0.00000000000E+00 -0.56531329355E+02  0.56531329580E+02  0.50400001928E-02 0.  1.
    10030    2    1    2    0    0  0.00000000000E+00  0.00000000000E+00  0.15651109744E+04  0.16781736334E+04  0.60555295513E+03 0.  0.
        1    1    3    3  502    0 -0.10785040217E+03  0.14125607851E+03  0.14618855457E+04  0.14726487489E+04  0.50400001928E-02 0. -1.
       -1    1    3    3    0  502  0.10785040217E+03 -0.14125607851E+03  0.10322542872E+03  0.20552488444E+03  0.50400001928E-02 0.  1.
</event>
<event>
 5   0  0.4695625E-02  0.5988596E+03  0.7818609E-02  0.9907775E-01
       -3   -1    0    0    0  501  0.00000000000E+00  0.00000000000E+00  0.65032819390E+03  0.65032820174E+03  0.10100000352E+00 0.  1.
        3   -1    0    0  501    0  0.00000000000E+00  0.00000000000E+00 -0.13786608026E+03  0.13786611726E+03  0.10100000352E+00 0. -1.
    10030    2    1    2    0    0  0.00000000000E+00  0.00000000000E+00  0.51246211364E+03  0.78819431900E+03  0.59885963847E+03 0.  0.
        5    1    3    3  502    0  0.44052317182E+02  0.59640890441E+02  0.63800439759E+03  0.64231561075E+03  0.46999998093E+01 0.  1.
       -5    1    3    3    0  502 -0.44052317182E+02 -0.59640890441E+02 -0.12554228396E+03  0.14587870825E+03  0.46999998093E+01 0. -1.
</event>
<event>
 5   0  0.4695625E-02  0.6228955E+03  0.7818609E-02  0.9859012E-01
       -3   -1    0    0    0  501  0.00000000000E+00  0.00000000000E+00  0.19582814083E+03  0.19582816688E+03  0.10100000352E+00 0. -1.
        3   -1    0    0  501    0  0.00000000000E+00  0.00000000000E+00 -0.49533072680E+03  0.49533073709E+03  0.10100000352E+00 0.  1.
    10030    2    1    2    0    0  0.00000000000E+00  0.00000000000E+00 -0.29950258597E+03  0.69115890397E+03  0.62289552217E+03 0.  0.
        4    1    3    3  502    0  0.13094257097E+03 -0.28001704637E+03 -0.19189516488E+03  0.36384182051E+03  0.12699999809E+01 0.  1.
       -4    1    3    3    0  502 -0.13094257097E+03  0.28001704637E+03 -0.10760742109E+03  0.32731708346E+03  0.12699999809E+01 0. -1.
</event>
<event>
 5   0  0.7221069E-02  0.5992565E+03  0.7818609E-02  0.9906950E-01
       -1   -1    0    0    0  501  0.00000000000E+00  0.00000000000E+00  0.62003935511E+02  0.62003935716E+02  0.50400001928E-02 0. -1.
        1   -1    0    0  501    0  0.00000000000E+00  0.00000000000E+00 -0.14479254049E+04  0.14479254049E+04  0.50400001928E-02 0.  1.
    10030    2    1    2    0    0  0.00000000000E+00  0.00000000000E+00 -0.13859214694E+04  0.15099293406E+04  0.59925645125E+03 0.  0.
        5    1    3    3  502    0 -0.22547784144E+03 -0.93062812958E+02 -0.11312245253E+04  0.11572346179E+04  0.46999998093E+01 0.  1.
       -5    1    3    3    0  502  0.22547784144E+03  0.93062812958E+02 -0.25469694407E+03  0.35269472275E+03  0.46999998093E+01 0. -1.
</event>
<event>
 5   0  0.1166419E-01  0.6079218E+03  0.7818609E-02  0.9889106E-01
       -2   -1    0    0    0  501  0.00000000000E+00  0.00000000000E+00  0.41522971515E+02  0.41522971593E+02  0.25500000920E-02 0. -1.
        2   -1    0    0  501    0  0.00000000000E+00  0.00000000000E+00 -0.22250869508E+04  0.22250869508E+04  0.25500000920E-02 0.  1.
    10030    2    1    2    0    0  0.00000000000E+00  0.00000000000E+00 -0.21835639793E+04  0.22666099224E+04  0.60792177841E+03 0.  0.
        1    1    3    3  502    0 -0.37647348447E+01  0.29697280603E+03 -0.85057645763E+03  0.90093691846E+03  0.50400001928E-02 0. -1.
       -1    1    3    3    0  502  0.37647348447E+01 -0.29697280603E+03 -0.13329875217E+04  0.13656730039E+04  0.50400001928E-02 0.  1.
</event>
<event>
 5   0  0.1175861E-01  0.5968930E+03  0.7818609E-02  0.9911873E-01
        2   -1    0    0  501    0  0.00000000000E+00  0.00000000000E+00  0.52502490031E+03  0.52502490032E+03  0.25500000920E-02 0.  1.
       -2   -1    0    0    0  501  0.00000000000E+00  0.00000000000E+00 -0.16964969688E+03  0.16964969690E+03  0.25500000920E-02 0. -1.
    10030    2    1    2    0    0  0.00000000000E+00  0.00000000000E+00  0.35537520343E+03  0.69467459722E+03  0.59689300617E+03 0.  0.
        3    1    3    3  502    0  0.27112693618E+03  0.12263997412E+03  0.15115035932E+03  0.33376162166E+03  0.10100000352E+00 0. -1.
       -3    1    3    3    0  502 -0.27112693618E+03 -0.12263997412E+03  0.20422484411E+03  0.36091297556E+03  0.10100000352E+00 0.  1.
</event>
<event>
 5   0  0.1166419E-01  0.5949318E+03  0.7818609E-02  0.9915977E-01
       -2   -1    0    0    0  501  0.00000000000E+00  0.00000000000E+00  0.13451168183E+03  0.13451168185E+03  0.25500000920E-02 0. -1.
        2   -1    0    0  501    0  0.00000000000E+00  0.00000000000E+00 -0.65783102845E+03  0.65783102845E+03  0.25500000920E-02 0.  1.
    10030    2    1    2    0    0  0.00000000000E+00  0.00000000000E+00 -0.52331934662E+03  0.79234271031E+03  0.59493178771E+03 0.  0.
        1    1    3    3  502    0 -0.25175716672E+02  0.29236452464E+03 -0.32656632708E+03  0.43904031476E+03  0.50400001928E-02 0. -1.
       -1    1    3    3    0  502  0.25175716672E+02 -0.29236452464E+03 -0.19675301954E+03  0.35330239555E+03  0.50400001928E-02 0.  1.
</event>
<event>
 5   0  0.4695625E-02  0.6089227E+03  0.7818609E-02  0.9887065E-01
        3   -1    0    0  501    0  0.00000000000E+00  0.00000000000E+00  0.10596378556E+04  0.10596378604E+04  0.10100000352E+00 0. -1.
       -3   -1    0    0    0  501  0.00000000000E+00  0.00000000000E+00 -0.87479580307E+02  0.87479638612E+02  0.10100000352E+00 0.  1.
    10030    2    1    2    0    0  0.00000000000E+00  0.00000000000E+00  0.97215827529E+03  0.11471174990E+04  0.60892269160E+03 0.  0.
        3    1    3    3  502    0 -0.37607697429E+01  0.30416445119E+03  0.51039056249E+03  0.59416217755E+03  0.10100000352E+00 0.  1.
       -3    1    3    3    0  502  0.37607697429E+01 -0.30416445119E+03  0.46176771280E+03  0.55295532147E+03  0.10100000352E+00 0. -1.
</event>
<event>
 5   0  0.1175861E-01  0.5402431E+03  0.7818609E-02  0.1003778E+00
       -2   -1    0    0    0  501  0.00000000000E+00  0.00000000000E+00  0.72232258501E+03  0.72232258502E+03  0.25500000920E-02 0.  1.
        2   -1    0    0  501    0  0.00000000000E+00  0.00000000000E+00 -0.10101533943E+03  0.10101533946E+03  0.25500000920E-02 0. -1.
    10030    2    1    2    0    0  0.00000000000E+00  0.00000000000E+00  0.62130724558E+03  0.82333792448E+03  0.54024313459E+03 0.  0.
        3    1    3    3  502    0 -0.13681549374E+03 -0.20558196612E+03  0.47748423871E+03  0.53756267778E+03  0.10100000352E+00 0.  1.
       -3    1    3    3    0  502  0.13681549374E+03  0.20558196612E+03  0.14382300687E+03  0.28577524670E+03  0.10100000352E+00 0. -1.
</event>
<event>
 5   0  0.1206238E-01  0.5952637E+03  0.7818609E-02  0.9915281E-01
       -2   -1    0    0    0  501  0.00000000000E+00  0.00000000000E+00  0.29372384487E+03  0.29372384488E+03  0.25500000920E-02 0.  1.
        2   -1    0    0  501    0  0.00000000000E+00  0.00000000000E+00 -0.30159188643E+03  0.30159188644E+03  0.25500000920E-02 0. -1.
    10030    2    1    2    0    0  0.00000000000E+00  0.00000000000E+00 -0.78680415594E+01  0.59531573132E+03  0.59526373472E+03 0.  0.
        5    1    3    3  502    0 -0.27542188886E+03 -0.96672070041E+02  0.54035967083E+02  0.29689170033E+03  0.46999998093E+01 0.  1.
       -5    1    3    3    0  502  0.27542188886E+03  0.96672070041E+02 -0.61904008642E+02  0.29842403099E+03  0.46999998093E+01 0. -1.
</event>
<event>
 5   0  0.4695625E-02  0.5984295E+03  0.7818609E-02  0.9908670E-01
       -4   -1    0    0    0  501  0.00000000000E+00  0.00000000000E+00  0.17401906348E+03  0.17402369768E+03  0.12699999809E+01 0. -1.
        4   -1    0    0  501    0  0.00000000000E+00  0.00000000000E+00 -0.51446855157E+03  0.51447011911E+03  0.12699999809E+01 0.  1.
    10030    2    1    2    0    0  0.00000000000E+00  0.00000000000E+00 -0.34044948809E+03  0.68849381678E+03  0.59842951281E+03 0.  0.
        4    1    3    3  502    0  0.26921723718E+03  0.73415503768E+01 -0.20235231914E+02  0.27007942659E+03  0.12699999809E+01 0. -1.
       -4    1    3    3    0  502 -0.26921723718E+03 -0.73415503768E+01 -0.32021425618E+03  0.41841439019E+03  0.12699999809E+01 0.  1.
</event>
<event>
 5   0  0.7263385E-02  0.5020953E+03  0.7818609E-02  0.1013233E+00
        1   -1    0    0  501    0  0.00000000000E+00  0.00000000000E+00  0.55023673819E+03  0.55023673821E+03  0.50400001928E-02 0.  1.
       -1   -1    0    0    0  501  0.00000000000E+00  0.00000000000E+00 -0.11454148750E+03  0.11454148762E+03  0.50400001928E-02 0. -1.
    10030    2    1    2    0    0  0.00000000000E+00  0.00000000000E+00  0.43569525069E+03  0.66477822583E+03  0.50209534759E+03 0.  0.
        1    1    3    3  502    0 -0.43278605292E+02  0.14552828868E+02 -0.10899765105E+03  0.11817491470E+03  0.50400001928E-02 0. -1.
       -1    1    3    3    0  502  0.43278605292E+02 -0.14552828868E+02  0.54469290174E+03  0.54660331113E+03  0.50400001928E-02 0.  1.
</event>
<event>
 5   0  0.1166419E-01  0.5489685E+03  0.7818609E-02  0.1001733E+00
       -2   -1    0    0    0  501  0.00000000000E+00  0.00000000000E+00  0.68965893999E+02  0.68965894046E+02  0.25500000920E-02 0.  1.
        2   -1    0    0  501    0  0.00000000000E+00  0.00000000000E+00 -0.10924472640E+04  0.10924472640E+04  0.25500000920E-02 0. -1.
    10030    2    1    2    0    0  0.00000000000E+00  0.00000000000E+00 -0.10234813700E+04  0.11614131580E+04  0.54896849541E+03 0.  0.
        1    1    3    3  502    0  0.16453653838E+03  0.21803382113E+03 -0.45455675734E+03  0.53031393088E+03  0.50400001928E-02 0.  1.
       -1    1    3    3    0  502 -0.16453653838E+03 -0.21803382113E+03 -0.56892461266E+03  0.63109922717E+03  0.50400001928E-02 0. -1.
</event>
<event>
 5   0  0.7424930E-02  0.5966028E+03  0.7818609E-02  0.9912479E-01
       -1   -1    0    0    0  501  0.00000000000E+00  0.00000000000E+00  0.81305810854E+02  0.81305811010E+02  0.50400001928E-02 0.  1.
        1   -1    0    0  501    0  0.00000000000E+00  0.00000000000E+00 -0.10944324469E+04  0.10944324469E+04  0.50400001928E-02 0. -1.
    10030    2    1    2    0    0  0.00000000000E+00  0.00000000000E+00 -0.10131266361E+04  0.11757382579E+04  0.59660277445E+03 0.  0.
        3    1    3    3  502    0  0.10028476204E+03 -0.21231543514E+03 -0.14398885552E+03  0.27544087970E+03  0.10100000352E+00 0.  1.
       -3    1    3    3    0  502 -0.10028476204E+03  0.21231543514E+03 -0.86913778054E+03  0.90029737824E+03  0.10100000352E+00 0. -1.
</event>
<event>
 5   0  0.7123340E-02  0.6196161E+03  0.7818609E-02  0.9865524E-01
        1   -1    0    0  501    0  0.00000000000E+00  0.00000000000E+00  0.10637239072E+03  0.10637239084E+03  0.50400001928E-02 0. -1.
       -1   -1    0    0    0  501  0.00000000000E+00  0.00000000000E+00 -0.90231153923E+03  0.90231153924E+03  0.50400001928E-02 0.  1.
    10030    2    1    2    0    0  0.00000000000E+00  0.00000000000E+00 -0.79593914850E+03  0.10086839301E+04  0.61961612527E+03 0.  0.
        2    1    3    3  502    0  0.20497296565E+03  0.14149240218E+03 -0.69790876333E+03  0.74102001219E+03  0.25500000920E-02 0.  1.
       -2    1    3    3    0  502 -0.20497296565E+03 -0.14149240218E+03 -0.98030385173E+02  0.26766391790E+03  0.25500000920E-02 0. -1.
</event>
<event>
 5   0  0.7266519E-02  0.6044575E+03  0.7818609E-02  0.9896201E-01
        1   -1    0    0  501    0  0.00000000000E+00  0.00000000000E+00  0.23727997641E+03  0.23727997646E+03  0.50400001928E-02 0.  1.
       -1   -1    0    0    0  501  0.00000000000E+00  0.00000000000E+00 -0.38495545716E+03  0.38495545719E+03  0.50400001928E-02 0. -1.
    10030    2    1    2    0    0  0.00000000000E+00  0.00000000000E+00 -0.14767548075E+03  0.62223543365E+03  0.60445751486E+03 0.  0.
        4    1    3    3  502    0  0.74990936412E+02  0.17178235006E+03  0.17021698582E+03  0.25319607323E+03  0.12699999809E+01 0.  1.
       -4    1    3    3    0  502 -0.74990936412E+02 -0.17178235006E+03 -0.31789246657E+03  0.36903936042E+03  0.12699999809E+01 0. -1.
</event>
<event>
 5   0  0.1146468E-01  0.5813421E+03  0.7818609E-02  0.9944890E-01
       -2   -1    0    0    0  501  0.00000000000E+00  0.00000000000E+00  0.45390365792E+02  0.45390365863E+02  0.25500000920E-02 0.  1.
        2   -1    0    0  501    0  0.00000000000E+00  0.00000000000E+00 -0.18614004058E+04  0.18614004058E+04  0.25500000920E-02 0. -1.
    10030    2    1    2    0    0  0.00000000000E+00  0.00000000000E+00 -0.18160100400E+04  0.19067907717E+04  0.58134205206E+03 0.  0.
        4    1    3    3  502    0 -0.27272758598E+03 -0.28029860004E+02 -0.12246892180E+04  0.12550025111E+04  0.12699999809E+01 0. -1.
       -4    1    3    3    0  502  0.27272758598E+03  0.28029860004E+02 -0.59132082201E+03  0.65178826059E+03  0.12699999809E+01 0.  1.
</event>
<event>
 5   0  0.7221069E-02  0.5982338E+03  0.7818609E-02  0.9909077E-01
        1   -1    0    0  501    0  0.00000000000E+00  0.00000000000E+00  0.30601412422E+03  0.30601412426E+03  0.50400001928E-02 0.  1.
       -1   -1    0    0    0  501  0.00000000000E+00  0.00000000000E+00 -0.29237510368E+03  0.29237510373E+03  0.50400001928E-02 0. -1.
    10030    2    1    2    0    0  0.00000000000E+00  0.00000000000E+00  0.13639020535E+02  0.59838922799E+03  0.59823377144E+03 0.  0.
        5    1    3    3  502    0 -0.17552429024E+03 -0.22837860439E+03 -0.73720093783E+02  0.29735888357E+03  0.46999998093E+01 0.  1.
       -5    1    3    3    0  502  0.17552429024E+03  0.22837860439E+03  0.87359114319E+02  0.30103034442E+03  0.46999998093E+01 0. -1.
</event>
<event>
 5   0  0.7221069E-02  0.6068237E+03  0.7818609E-02  0.9891349E-01
       -1   -1    0    0    0  501  0.00000000000E+00  0.00000000000E+00  0.38688678985E+03  0.38688678988E+03  0.50400001928E-02 0. -1.
        1   -1    0    0  501    0  0.00000000000E+00  0.00000000000E+00 -0.23794752353E+03  0.23794752358E+03  0.50400001928E-02 0.  1.
    10030    2    1    2    0    0  0.00000000000E+00  0.00000000000E+00  0.14893926632E+03  0.62483431347E+03  0.60682370935E+03 0.  0.
        5    1    3    3  502    0 -0.19097950125E+03  0.23498594144E+03  0.93597891588E+02  0.31697668350E+03  0.46999998093E+01 0. -1.
       -5    1    3    3    0  502  0.19097950125E+03 -0.23498594144E+03  0.55341374735E+02  0.30785762997E+03  0.46999998093E+01 0.  1.
</event>
<event>
 5   0  0.7221069E-02  0.6047579E+03  0.7818609E-02  0.9895584E-01
       -1   -1    0    0    0  501  0.00000000000E+00  0.00000000000E+00  0.58062828180E+03  0.58062828183E+03  0.50400001928E-02 0.  1.
        1   -1    0    0  501    0  0.00000000000E+00  0.00000000000E+00 -0.15747258867E+03  0.15747258876E+03  0.50400001928E-02 0. -1.
    10030    2    1    2    0    0  0.00000000000E+00  0.00000000000E+00  0.42315569313E+03  0.73810087058E+03  0.60475793052E+03 0.  0.
        5    1    3    3  502    0 -0.16810385470E+03  0.99034099795E+02  0.49346683678E+03  0.53065833442E+03  0.46999998093E+01 0.  1.
       -5    1    3    3    0  502  0.16810385470E+03 -0.99034099795E+02 -0.70311143655E+02  0.20744253616E+03  0.46999998093E+01 0. -1.
</event>
<event>
 5   0  0.1206238E-01  0.5937477E+03  0.7818609E-02  0.9918463E-01
       -2   -1    0    0    0  501  0.00000000000E+00  0.00000000000E+00  0.30590838119E+03  0.30590838120E+03  0.25500000920E-02 0.  1.
        2   -1    0    0  501    0  0.00000000000E+00  0.00000000000E+00 -0.28810612944E+03  0.28810612945E+03  0.25500000920E-02 0. -1.
    10030    2    1    2    0    0  0.00000000000E+00  0.00000000000E+00  0.17802251751E+02  0.59401451065E+03  0.59374768942E+03 0.  0.
        5    1    3    3  502    0 -0.26024214337E+03  0.82035728026E+02  0.12581319675E+03  0.30051103862E+03  0.46999998093E+01 0. -1.
       -5    1    3    3    0  502  0.26024214337E+03 -0.82035728026E+02 -0.10801094500E+03  0.29350347203E+03  0.46999998093E+01 0.  1.
</event>
<event>
 5   0  0.1166419E-01  0.6043575E+03  0.7818609E-02  0.9896407E-01
       -2   -1    0    0    0  501  0.00000000000E+00  0.00000000000E+00  0.56535330114E+03  0.56535330115E+03  0.25500000920E-02 0. -1.
        2   -1    0    0  501    0  0.00000000000E+00  0.00000000000E+00 -0.16151316940E+03  0.16151316942E+03  0.25500000920E-02 0.  1.
    10030    2    1    2    0    0  0.00000000000E+00  0.00000000000E+00  0.40384013174E+03  0.72686647057E+03  0.60435752170E+03 0.  0.
        1    1    3    3  502    0 -0.35276379076E+02  0.19442643417E+03  0.47688043136E+03  0.51619861204E+03  0.50400001928E-02 0. -1.
       -1    1    3    3    0  502  0.35276379076E+02 -0.19442643417E+03 -0.73040299620E+02  0.21066785853E+03  0.50400001928E-02 0.  1.
</event>
<event>
 5   0  0.7123340E-02  0.6358538E+03  0.7818609E-02  0.9833692E-01
        1   -1    0    0  501    0  0.00000000000E+00  0.00000000000E+00  0.49003898830E+03  0.49003898833E+03  0.50400001928E-02 0. -1.
       -1   -1    0    0    0  501  0.00000000000E+00  0.00000000000E+00 -0.20626419631E+03  0.20626419637E+03  0.50400001928E-02 0.  1.
    10030    2    1    2    0    0  0.00000000000E+00  0.00000000000E+00  0.28377479199E+03  0.69630318470E+03  0.63585375084E+03 0.  0.
        2    1    3    3  502    0 -0.30439535698E+03  0.46317668765E+02  0.22863751857E+03  0.38350615991E+03  0.25500000920E-02 0. -1.
       -2    1    3    3    0  502  0.30439535698E+03 -0.46317668765E+02  0.55137273425E+02  0.31279702479E+03  0.25500000920E-02 0.  1.
</event>
<event>
 5   0  0.4695625E-02  0.6131384E+03  0.7818609E-02  0.9878517E-01
       -4   -1    0    0    0  501  0.00000000000E+00  0.00000000000E+00  0.40011546040E+03  0.40011747594E+03  0.12699999809E+01 0. -1.
        4   -1    0    0  501    0  0.00000000000E+00  0.00000000000E+00 -0.23488954991E+03  0.23489298320E+03  0.12699999809E+01 0.  1.
    10030    2    1    2    0    0  0.00000000000E+00  0.00000000000E+00  0.16522591049E+03  0.63501045914E+03  0.61313838708E+03 0.  0.
        4    1    3    3  502    0  0.17341534031E+02  0.17229119357E+03 -0.17938977762E+03  0.24933369087E+03  0.12699999809E+01 0.  1.
       -4    1    3    3    0  502 -0.17341534031E+02 -0.17229119357E+03  0.34461568812E+03  0.38567676827E+03  0.12699999809E+01 0. -1.
</event>
<event>
 5   0  0.1166419E-01  0.5804327E+03  0.7818609E-02  0.9946855E-01
       -2   -1    0    0    0  501  0.00000000000E+00  0.00000000000E+00  0.21503721604E+03  0.21503721606E+03  0.25500000920E-02 0. -1.
        2   -1    0    0  501    0  0.00000000000E+00  0.00000000000E+00 -0.39167881126E+03  0.39167881126E+03  0.25500000920E-02 0.  1.
    10030    2    1    2    0    0  0.00000000000E+00  0.00000000000E+00 -0.17664159521E+03  0.60671602732E+03  0.58043267021E+03 0.  0.
        1    1    3    3  502    0  0.13747043613E+02 -0.64506980100E+02 -0.38374094659E+03  0.38936775137E+03  0.50400001928E-02 0.  1.
       -1    1    3    3    0  502 -0.13747043613E+02  0.64506980100E+02  0.20709935138E+03  0.21734827595E+03  0.50400001928E-02 0. -1.
</event>
<event>
 5   0  0.4695625E-02  0.6122081E+03  0.7818609E-02  0.9880397E-01
        3   -1    0    0  501    0  0.00000000000E+00  0.00000000000E+00  0.66666569068E+03  0.66666569833E+03  0.10100000352E+00 0.  1.
       -3   -1    0    0    0  501  0.00000000000E+00  0.00000000000E+00 -0.14054969571E+03  0.14054973200E+03  0.10100000352E+00 0. -1.
    10030    2    1    2    0    0  0.00000000000E+00  0.00000000000E+00  0.52611599497E+03  0.80721543033E+03  0.61220806169E+03 0.  0.
        4    1    3    3  502    0  0.53627781802E+02 -0.14432957473E+03  0.61188638420E+03  0.63096238017E+03  0.12699999809E+01 0.  1.
       -4    1    3    3    0  502 -0.53627781802E+02  0.14432957473E+03 -0.85770389228E+02  0.17625305016E+03  0.12699999809E+01 0. -1.
</event>
<event>
 5   0  0.1166419E-01  0.5942849E+03  0.7818609E-02  0.9917334E-01
       -2   -1    0    0    0  501  0.00000000000E+00  0.00000000000E+00  0.97133946672E+02  0.97133946705E+02  0.25500000920E-02 0. -1.
        2   -1    0    0  501    0  0.00000000000E+00  0.00000000000E+00 -0.90898849752E+03  0.90898849753E+03  0.25500000920E-02 0.  1.
    10030    2    1    2    0    0  0.00000000000E+00  0.00000000000E+00 -0.81185455085E+03  0.10061224442E+04  0.59428491572E+03 0.  0.
        1    1    3    3  502    0 -0.20723372750E+02  0.12981613827E+03 -0.85707820498E+03  0.86710134206E+03  0.50400001928E-02 0.  1.
       -1    1    3    3    0  502  0.20723372750E+02 -0.12981613827E+03  0.45223654122E+02  0.13902110217E+03  0.50400001928E-02 0. -1.
</event>
<event>
 5   0  0.1175861E-01  0.5847871E+03  0.7818609E-02  0.9937480E-01
        2   -1    0    0  501    0  0.00000000000E+00  0.00000000000E+00  0.18614411966E+04  0.18614411966E+04  0.25500000920E-02 0. -1.
       -2   -1    0    0    0  501  0.00000000000E+00  0.00000000000E+00 -0.45928928563E+02  0.45928928634E+02  0.25500000920E-02 0.  1.
    10030    2    1    2    0    0  0.00000000000E+00  0.00000000000E+00  0.18155122681E+04  0.19073701253E+04  0.58478714012E+03 0.  0.
        3    1    3    3  502    0  0.15589409666E+03 -0.23741369167E+03  0.11343353074E+04  0.11693523123E+04  0.10100000352E+00 0. -1.
       -3    1    3    3    0  502 -0.15589409666E+03  0.23741369167E+03  0.68117696061E+03  0.73801781295E+03  0.10100000352E+00 0.  1.
</event>
<event>
 5   0  0.7266519E-02  0.5927931E+03  0.7818609E-02  0.9920472E-01
       -1   -1    0    0    0  501  0.00000000000E+00  0.00000000000E+00  0.83297847920E+02  0.83297848072E+02  0.50400001928E-02 0.  1.
        1   -1    0    0  501    0  0.00000000000E+00  0.00000000000E+00 -0.10546602448E+04  0.10546602448E+04  0.50400001928E-02 0. -1.
    10030    2    1    2    0    0  0.00000000000E+00  0.00000000000E+00 -0.97136239688E+03  0.11379580929E+04  0.59279314696E+03 0.  0.
        4    1    3    3  502    0  0.11282529450E+02  0.12173626920E+03 -0.10039961215E+04  0.10114132882E+04  0.12699999809E+01 0. -1.
       -4    1    3    3    0  502 -0.11282529450E+02 -0.12173626920E+03  0.32633724599E+02  0.12654480468E+03  0.12699999809E+01 0.  1.
</event>
<event>
 5   0  0.7266519E-02  0.6017285E+03  0.7818609E-02  0.9901826E-01
       -1   -1    0    0    0  501  0.00000000000E+00  0.00000000000E+00  0.19042370952E+03  0.19042370958E+03  0.50400001928E-02 0. -1.
        1   -1    0    0  501    0  0.00000000000E+00  0.00000000000E+00 -0.47535729699E+03  0.47535729702E+03  0.50400001928E-02 0.  1.
    10030    2    1    2    0    0  0.00000000000E+00  0.00000000000E+00 -0.28493358748E+03  0.66578100660E+03  0.60172850978E+03 0.  0.
        4    1    3    3  502    0  0.28188469905E+03 -0.97487855023E+02 -0.98838212922E+02  0.31421882609E+03  0.12699999809E+01 0. -1.
       -4    1    3    3    0  502 -0.28188469905E+03  0.97487855023E+02 -0.18609537456E+03  0.35156218051E+03  0.12699999809E+01 0.  1.
</event>
<event>
 5   0  0.7263385E-02  0.5918618E+03  0.7818609E-02  0.9922436E-01
        1   -1    0    0  501    0  0.00000000000E+00  0.00000000000E+00  0.57180746386E+03  0.57180746388E+03  0.50400001928E-02 0. -1.
       -1   -1    0    0    0  501  0.00000000000E+00  0.00000000000E+00 -0.15315485418E+03  0.15315485426E+03  0.50400001928E-02 0.  1.
    10030    2    1    2    0    0  0.00000000000E+00  0.00000000000E+00  0.41865260968E+03  0.72496231814E+03  0.59186177030E+03 0.  0.
        1    1    3    3  502    0  0.20655359298E+03  0.99828950850E+02  0.43830070889E+03  0.49470973069E+03  0.50400001928E-02 0. -1.
       -1    1    3    3    0  502 -0.20655359298E+03 -0.99828950850E+02 -0.19648099211E+02  0.23025258746E+03  0.50400001928E-02 0.  1.
</event>
<event>
 5   0  0.1206238E-01  0.6152731E+03  0.7818609E-02  0.9874216E-01
        2   -1    0    0  501    0  0.00000000000E+00  0.00000000000E+00  0.15225823692E+04  0.15225823692E+04  0.25500000920E-02 0. -1.
       -2   -1    0    0    0  501  0.00000000000E+00  0.00000000000E+00 -0.62157711351E+02  0.62157711403E+02  0.25500000920E-02 0.  1.
    10030    2    1    2    0    0  0.00000000000E+00  0.00000000000E+00  0.14604246578E+04  0.15847400806E+04  0.61527306281E+03 0.  0.
        5    1    3    3  502    0  0.24443455960E+03  0.12616007858E+03  0.10848094042E+04  0.11191506390E+04  0.46999998093E+01 0. -1.
       -5    1    3    3    0  502 -0.24443455960E+03 -0.12616007858E+03  0.37561525365E+03  0.46558944159E+03  0.46999998093E+01 0.  1.
</event>
<event>
 5   0  0.7263385E-02  0.5885565E+03  0.7818609E-02  0.9929436E-01
       -1   -1    0    0    0  501  0.00000000000E+00  0.00000000000E+00  0.37966998602E+03  0.37966998606E+03  0.50400001928E-02 0. -1.
        1   -1    0    0  501    0  0.00000000000E+00  0.00000000000E+00 -0.22809204231E+03  0.22809204236E+03  0.50400001928E-02 0.  1.
    10030    2    1    2    0    0  0.00000000000E+00  0.00000000000E+00  0.15157794372E+03  0.60776202842E+03  0.58855654798E+03 0.  0.
        1    1    3    3  502    0 -0.10730123547E+03 -0.14297609000E+03 -0.16559951317E+03  0.24367789443E+03  0.50400001928E-02 0.  1.
       -1    1    3    3    0  502  0.10730123547E+03  0.14297609000E+03  0.31717745689E+03  0.36408413399E+03  0.50400001928E-02 0. -1.
</event>
<event>
 5   0  0.4695625E-02  0.5961493E+03  0.7818609E-02  0.9913427E-01
       -3   -1    0    0    0  501  0.00000000000E+00  0.00000000000E+00  0.37962818107E+03  0.37962819450E+03  0.10100000352E+00 0.  1.
        3   -1    0    0  501    0  0.00000000000E+00  0.00000000000E+00 -0.23404082699E+03  0.23404084878E+03  0.10100000352E+00 0. -1.
    10030    2    1    2    0    0  0.00000000000E+00  0.00000000000E+00  0.14558735408E+03  0.61366904328E+03  0.59614932443E+03 0.  0.
        4    1    3    3  502    0 -0.34923141921E+02  0.28608570903E+03 -0.54820190831E+01  0.28826433041E+03  0.12699999809E+01 0. -1.
       -4    1    3    3    0  502  0.34923141921E+02 -0.28608570903E+03  0.15106937317E+03  0.32540471287E+03  0.12699999809E+01 0.  1.
</event>
<event>
 5   0  0.1206238E-01  0.6652611E+03  0.7818609E-02  0.9778557E-01
       -2   -1    0    0    0  501  0.00000000000E+00  0.00000000000E+00  0.27644879922E+03  0.27644879923E+03  0.25500000920E-02 0.  1.
        2   -1    0    0  501    0  0.00000000000E+00  0.00000000000E+00 -0.40022993792E+03  0.40022993793E+03  0.25500000920E-02 0. -1.
    10030    2    1    2    0    0  0.00000000000E+00  0.00000000000E+00 -0.12378113870E+03  0.67667873716E+03  0.66526110891E+03 0.  0.
        5    1    3    3  502    0 -0.11834903757E+03  0.17269149751E+03 -0.32476787761E+03  0.38642607615E+03  0.46999998093E+01 0. -1.
       -5    1    3    3    0  502  0.11834903757E+03 -0.17269149751E+03  0.20098673891E+03  0.29025266101E+03  0.46999998093E+01 0.  1.
</event>
<event>
 5   0  0.1166419E-01  0.5997921E+03  0.7818609E-02  0.9905837E-01
        2   -1    0    0  501    0  0.00000000000E+00  0.00000000000E+00  0.68936089174E+03  0.68936089174E+03  0.25500000920E-02 0.  1.
       -2   -1    0    0    0  501  0.00000000000E+00  0.00000000000E+00 -0.13046526150E+03  0.13046526152E+03  0.25500000920E-02 0. -1.
    10030    2    1    2    0    0  0.00000000000E+00  0.00000000000E+00  0.55889563024E+03  0.81982615327E+03  0.59979212739E+03 0.  0.
        1    1    3    3  502    0  0.61197376247E+02 -0.15810356668E+03  0.61757632348E+03  0.64042358795E+03  0.50400001928E-02 0.  1.
       -1    1    3    3    0  502 -0.61197376247E+02  0.15810356668E+03 -0.58680693241E+02  0.17940256532E+03  0.50400001928E-02 0. -1.
</event>
<event>
 5   0  0.1146468E-01  0.5537363E+03  0.7818609E-02  0.1000633E+00
       -2   -1    0    0    0  501  0.00000000000E+00  0.00000000000E+00  0.47070425987E+02  0.47070426056E+02  0.25500000920E-02 0. -1.
        2   -1    0    0  501    0  0.00000000000E+00  0.00000000000E+00 -0.16285378637E+04  0.16285378637E+04  0.25500000920E-02 0.  1.
    10030    2    1    2    0    0  0.00000000000E+00  0.00000000000E+00 -0.15814674377E+04  0.16756082898E+04  0.55373629478E+03 0.  0.
        4    1    3    3  502    0 -0.15843500101E+03 -0.16967816901E+03 -0.12472696694E+04  0.12686904948E+04  0.12699999809E+01 0.  1.
       -4    1    3    3    0  502  0.15843500101E+03  0.16967816901E+03 -0.33419776837E+03  0.40691779498E+03  0.12699999809E+01 0. -1.
</event>
<event>
 5   0  0.1206238E-01  0.6020092E+03  0.7818609E-02  0.9901246E-01
        2   -1    0    0  501    0  0.00000000000E+00  0.00000000000E+00  0.46547675130E+03  0.46547675130E+03  0.25500000920E-02 0.  1.
       -2   -1    0    0    0  501  0.00000000000E+00  0.00000000000E+00 -0.19464727517E+03  0.19464727518E+03  0.25500000920E-02 0. -1.
    10030    2    1    2    0    0  0.00000000000E+00  0.00000000000E+00  0.27082947613E+03  0.66012402649E+03  0.60200924013E+03 0.  0.
        5    1    3    3  502    0 -0.26422888398E+02  0.17023901350E+03  0.40602164380E+03  0.44108406906E+03  0.46999998093E+01 0.  1.
       -5    1    3    3    0  502  0.26422888398E+02 -0.17023901350E+03 -0.13519216767E+03  0.21903995742E+03  0.46999998093E+01 0. -1.
</event>
<event>
 5   0  0.7266519E-02  0.5989953E+03  0.7818609E-02  0.9907493E-01
        1   -1    0    0  501    0  0.00000000000E+00  0.00000000000E+00  0.34790799369E+03  0.34790799372E+03  0.50400001928E-02 0. -1.
       -1   -1    0    0    0  501  0.00000000000E+00  0.00000000000E+00 -0.25782345062E+03  0.25782345067E+03  0.50400001928E-02 0.  1.
    10030    2    1    2    0    0  0.00000000000E+00  0.00000000000E+00  0.90084543069E+02  0.60573144439E+03  0.59899529032E+03 0.  0.
        4    1    3    3  502    0 -0.15859332589E+02 -0.23240549888E+03 -0.14531219739E+03  0.27455615446E+03  0.12699999809E+01 0.  1.
       -4    1    3    3    0  502  0.15859332589E+02  0.23240549888E+03  0.23539674046E+03  0.33117528993E+03  0.12699999809E+01 0. -1.
</event>
<event>
 5   0  0.1166419E-01  0.5967179E+03  0.7818609E-02  0.9912239E-01
        2   -1    0    0  501    0  0.00000000000E+00  0.00000000000E+00  0.18972732664E+03  0.18972732665E+03  0.25500000920E-02 0. -1.
       -2   -1    0    0    0  501  0.00000000000E+00  0.00000000000E+00 -0.46918947701E+03  0.46918947701E+03  0.25500000920E-02 0.  1.
    10030    2    1    2    0    0  0.00000000000E+00  0.00000000000E+00 -0.27946215037E+03  0.65891680367E+03  0.59671790711E+03 0.  0.
        1    1    3    3  502    0  0.90765304606E+02 -0.19893240880E+03  0.84419442281E+02  0.23439088304E+03  0.50400001928E-02 0. -1.
       -1    1    3    3    0  502 -0.90765304606E+02  0.19893240880E+03 -0.36388159265E+03  0.42452592063E+03  0.50400001928E-02 0.  1.
</event>
<event>
 5   0  0.7266519E-02  0.6131704E+03  0.7818609E-02  0.9878452E-01
        1   -1    0    0  501    0  0.00000000000E+00  0.00000000000E+00  0.12535484236E+04  0.12535484236E+04  0.50400001928E-02 0.  1.
       -1   -1    0    0    0  501  0.00000000000E+00  0.00000000000E+00 -0.74982740926E+02  0.74982741095E+02  0.50400001928E-02 0. -1.
    10030    2    1    2    0    0  0.00000000000E+00  0.00000000000E+00  0.11785656827E+04  0.13285311647E+04  0.61317043896E+03 0.  0.
        4    1    3    3  502    0  0.47415199599E+02 -0.27954349584E+03  0.84195759705E+03  0.88841824348E+03  0.12699999809E+01 0.  1.
       -4    1    3    3    0  502 -0.47415199599E+02  0.27954349584E+03  0.33660808561E+03  0.44011292121E+03  0.12699999809E+01 0. -1.
</event>
<event>
 5   0  0.7123340E-02  0.5499678E+03  0.7818609E-02  0.1001501E+00
       -1   -1    0    0    0  501  0.00000000000E+00  0.00000000000E+00  0.87229607654E+03  0.87229607656E+03  0.50400001928E-02 0. -1.
        1   -1    0    0  501    0  0.00000000000E+00  0.00000000000E+00 -0.86686318661E+02  0.86686318807E+02  0.50400001928E-02 0.  1.
    10030    2    1    2    0    0  0.00000000000E+00  0.00000000000E+00  0.78560975788E+03  0.95898239536E+03  0.54996776536E+03 0.  0.
        2    1    3    3  502    0  0.16930701313E+02  0.76645325839E+02 -0.66737002474E+02  0.10302903535E+03  0.25500000920E-02 0.  1.
       -2    1    3    3    0  502 -0.16930701313E+02 -0.76645325839E+02  0.85234676035E+03  0.85595336001E+03  0.25500000920E-02 0. -1.
</event>
<event>
 5   0  0.4695625E-02  0.5965551E+03  0.7818609E-02  0.9912579E-01
        4   -1    0    0  501    0  0.00000000000E+00  0.00000000000E+00  0.38274708603E+03  0.38274919303E+03  0.12699999809E+01 0.  1.
       -4   -1    0    0    0  501  0.00000000000E+00  0.00000000000E+00 -0.23244536848E+03  0.23244883787E+03  0.12699999809E+01 0. -1.
    10030    2    1    2    0    0  0.00000000000E+00  0.00000000000E+00  0.15030171756E+03  0.61519803090E+03  0.59655511977E+03 0.  0.
        1    1    3    3  502    0  0.20675166169E+03  0.56999626528E+02 -0.13862996351E+03  0.25536928916E+03  0.50400001928E-02 0. -1.
       -1    1    3    3    0  502 -0.20675166169E+03 -0.56999626528E+02  0.28893168106E+03  0.35982874174E+03  0.50400001928E-02 0.  1.
</event>
<event>
 5   0  0.7263385E-02  0.5034015E+03  0.7818609E-02  0.1012895E+00
       -1   -1    0    0    0  501  0.00000000000E+00  0.00000000000E+00  0.11551488762E+03  0.11551488773E+03  0.50400001928E-02 0.  1.
        1   -1    0    0  501    0  0.00000000000E+00  0.00000000000E+00 -0.54844254659E+03  0.54844254661E+03  0.50400001928E-02 0. -1.
    10030    2    1    2    0    0  0.00000000000E+00  0.00000000000E+00 -0.43292765897E+03  0.66395743434E+03  0.50340154620E+03 0.  0.
        1    1    3    3  502    0 -0.84789302736E+02  0.81406048949E+02  0.77092209745E+02  0.14056806000E+03  0.50400001928E-02 0.  1.
       -1    1    3    3    0  502  0.84789302736E+02 -0.81406048949E+02 -0.51001986871E+03  0.52338937434E+03  0.50400001928E-02 0. -1.
</event>
<event>
 5   0  0.7266519E-02  0.6003418E+03  0.7818609E-02  0.9904697E-01
        1   -1    0    0  501    0  0.00000000000E+00  0.00000000000E+00  0.18514836566E+04  0.18514836566E+04  0.50400001928E-02 0.  1.
       -1   -1    0    0    0  501  0.00000000000E+00  0.00000000000E+00 -0.48665059707E+02  0.48665059968E+02  0.50400001928E-02 0. -1.
    10030    2    1    2    0    0  0.00000000000E+00  0.00000000000E+00  0.18028185969E+04  0.19001487166E+04  0.60034177916E+03 0.  0.
        4    1    3    3  502    0  0.22674204323E+03  0.17195699553E+03  0.12036697911E+04  0.12368523523E+04  0.12699999809E+01 0.  1.
       -4    1    3    3    0  502 -0.22674204323E+03 -0.17195699553E+03  0.59914880578E+03  0.66329636426E+03  0.12699999809E+01 0. -1.
</event>
<event>
 5   0  0.1146468E-01  0.6020908E+03  0.7818609E-02  0.9901078E-01
        2   -1    0    0  501    0  0.00000000000E+00  0.00000000000E+00  0.60040635351E+03  0.60040635352E+03  0.25500000920E-02 0. -1.
       -2   -1    0    0    0  501  0.00000000000E+00  0.00000000000E+00 -0.15094499304E+03  0.15094499306E+03  0.25500000920E-02 0.  1.
    10030    2    1    2    0    0  0.00000000000E+00  0.00000000000E+00  0.44946136048E+03  0.75135134658E+03  0.60209080000E+03 0.  0.
        4    1    3    3  502    0  0.38028976005E+02 -0.53591945019E+02 -0.14188215187E+03  0.15636642065E+03  0.12699999809E+01 0.  1.
       -4    1    3    3    0  502 -0.38028976005E+02  0.53591945019E+02  0.59134351235E+03  0.59498492593E+03  0.12699999809E+01 0. -1.
</event>
<event>
 5   0  0.1146468E-01  0.6179026E+03  0.7818609E-02  0.9868944E-01
       -2   -1    0    0    0  501  0.00000000000E+00  0.00000000000E+00  0.94676888118E+02  0.94676888152E+02  0.25500000920E-02 0. -1.
        2   -1    0    0  501    0  0.00000000000E+00  0.00000000000E+00 -0.10081755048E+04  0.10081755048E+04  0.25500000920E-02 0.  1.
    10030    2    1    2    0    0  0.00000000000E+00  0.00000000000E+00 -0.91349861672E+03  0.11028523930E+04  0.61790264442E+03 0.  0.
        4    1    3    3  502    0  0.36124496056E+02 -0.68106683480E+02  0.77228172827E+02  0.10912975363E+03  0.12699999809E+01 0. -1.
       -4    1    3    3    0  502 -0.36124496056E+02  0.68106683480E+02 -0.99072678954E+03  0.99372263936E+03  0.12699999809E+01 0.  1.
</event>
<event>
 5   0  0.7424930E-02  0.5195457E+03  0.7818609E-02  0.1008799E+00
        1   -1    0    0  501    0  0.00000000000E+00  0.00000000000E+00  0.29375045488E+03  0.29375045492E+03  0.50400001928E-02 0.  1.
       -1   -1    0    0    0  501  0.00000000000E+00  0.00000000000E+00 -0.22972533556E+03  0.22972533561E+03  0.50400001928E-02 0. -1.
    10030    2    1    2    0    0  0.00000000000E+00  0.00000000000E+00  0.64025119319E+02  0.52347579053E+03  0.51954565475E+03 0.  0.
        3    1    3    3  502    0  0.66934713130E+02  0.23563622312E+03  0.11913763030E+03  0.27239396216E+03  0.10100000352E+00 0.  1.
       -3    1    3    3    0  502 -0.66934713130E+02 -0.23563622312E+03 -0.55112510985E+02  0.25108182837E+03  0.10100000352E+00 0. -1.
</event>
<event>
 5   0  0.1219020E-01  0.5998682E+03  0.7818609E-02  0.9905679E-01
       -2   -1    0    0    0  501  0.00000000000E+00  0.00000000000E+00  0.12337502491E+03  0.12337502493E+03  0.25500000920E-02 0. -1.
        2   -1    0    0  501    0  0.00000000000E+00  0.00000000000E+00 -0.72916278541E+03  0.72916278542E+03  0.25500000920E-02 0.  1.
    10030    2    1    2    0    0  0.00000000000E+00  0.00000000000E+00 -0.60578776051E+03  0.85253781035E+03  0.59986824161E+03 0.  0.
        2    1    3    3  502    0  0.15204570670E+03  0.95603582596E+02  0.38499601866E+02  0.18368495115E+03  0.25500000920E-02 0. -1.
       -2    1    3    3    0  502 -0.15204570670E+03 -0.95603582596E+02 -0.64428736237E+03  0.66885285919E+03  0.25500000920E-02 0.  1.
</event>
<event>
 5   0  0.7221069E-02  0.6404283E+03  0.7818609E-02  0.9824907E-01
       -1   -1    0    0    0  501  0.00000000000E+00  0.00000000000E+00  0.13728825774E+03  0.13728825783E+03  0.50400001928E-02 0. -1.
        1   -1    0    0  501    0  0.00000000000E+00  0.00000000000E+00 -0.74687459317E+03  0.74687459319E+03  0.50400001928E-02 0.  1.
    10030    2    1    2    0    0  0.00000000000E+00  0.00000000000E+00 -0.60958633543E+03  0.88416285102E+03  0.64042833072E+03 0.  0.
        5    1    3    3  502    0 -0.15981527069E+02 -0.31606625459E+03 -0.37188618594E+03  0.48833872649E+03  0.46999998093E+01 0.  1.
       -5    1    3    3    0  502  0.15981527069E+02  0.31606625459E+03 -0.23770014949E+03  0.39582412453E+03  0.46999998093E+01 0. -1.
</event>
<event>
 5   0  0.1166419E-01  0.5956916E+03  0.7818609E-02  0.9914385E-01
       -2   -1    0    0    0  501  0.00000000000E+00  0.00000000000E+00  0.14281879765E+03  0.14281879768E+03  0.25500000920E-02 0. -1.
        2   -1    0    0  501    0  0.00000000000E+00  0.00000000000E+00 -0.62115150132E+03  0.62115150133E+03  0.25500000920E-02 0.  1.
    10030    2    1    2    0    0  0.00000000000E+00  0.00000000000E+00 -0.47833270367E+03  0.76397029900E+03  0.59569156647E+03 0.  0.
        1    1    3    3  502    0  0.78481778481E+02 -0.12167495184E+03 -0.57297918515E+03  0.59099012690E+03  0.50400001928E-02 0.  1.
       -1    1    3    3    0  502 -0.78481778481E+02  0.12167495184E+03  0.94646481477E+02  0.17298017210E+03  0.50400001928E-02 0. -1.
</event>
<event>
 5   0  0.1146468E-01  0.5826722E+03  0.7818609E-02  0.9942022E-01
        2   -1    0    0  501    0  0.00000000000E+00  0.00000000000E+00  0.11282415181E+04  0.11282415181E+04  0.25500000920E-02 0. -1.
       -2   -1    0    0    0  501  0.00000000000E+00  0.00000000000E+00 -0.75229212882E+02  0.75229212925E+02  0.25500000920E-02 0.  1.
    10030    2    1    2    0    0  0.00000000000E+00  0.00000000000E+00  0.10530123052E+04  0.12034707310E+04  0.58267219385E+03 0.  0.
        4    1    3    3  502    0 -0.19997328269E+03 -0.12893317503E+03  0.17927960370E+03  0.29791922834E+03  0.12699999809E+01 0.  1.
       -4    1    3    3    0  502  0.19997328269E+03  0.12893317503E+03  0.87373270148E+03  0.90555150265E+03  0.12699999809E+01 0. -1.
</event>
<event>
 5   0  0.7424930E-02  0.5797034E+03  0.7818609E-02  0.9948433E-01
        1   -1    0    0  501    0  0.00000000000E+00  0.00000000000E+00  0.83507173584E+03  0.83507173585E+03  0.50400001928E-02 0. -1.
       -1   -1    0    0    0  501  0.00000000000E+00  0.00000000000E+00 -0.10060692341E+03  0.10060692354E+03  0.50400001928E-02 0.  1.
    10030    2    1    2    0    0  0.00000000000E+00  0.00000000000E+00  0.73446481242E+03  0.93567865939E+03  0.57970336635E+03 0.  0.
        3    1    3    3  502    0  0.57587833031E+02  0.21084589046E+03  0.67450570513E+03  0.70903476959E+03  0.10100000352E+00 0. -1.
       -3    1    3    3    0  502 -0.57587833031E+02 -0.21084589046E+03  0.59959107290E+02  0.22664388980E+03  0.10100000352E+00 0.  1.
</event>
<event>
 5   0  0.1146468E-01  0.5956644E+03  0.7818609E-02  0.9914442E-01
        2   -1    0    0  501    0  0.00000000000E+00  0.00000000000E+00  0.15987721818E+04  0.15987721818E+04  0.25500000920E-02 0. -1.
       -2   -1    0    0    0  501  0.00000000000E+00  0.00000000000E+00 -0.55482588109E+02  0.55482588167E+02  0.25500000920E-02 0.  1.
    10030    2    1    2    0    0  0.00000000000E+00  0.00000000000E+00  0.15432895937E+04  0.16542547700E+04  0.59566439710E+03 0.  0.
        4    1    3    3  502    0  0.54606543479E+02 -0.16978647671E+03  0.10922929378E+03  0.20914581943E+03  0.12699999809E+01 0.  1.
       -4    1    3    3    0  502 -0.54606543479E+02  0.16978647671E+03  0.14340602999E+04  0.14451089506E+04  0.12699999809E+01 0. -1.
</event>
<event>
 5   0  0.1206238E-01  0.6006718E+03  0.7818609E-02  0.9904013E-01
       -2   -1    0    0    0  501  0.00000000000E+00  0.00000000000E+00  0.32220627034E+03  0.32220627035E+03  0.25500000920E-02 0. -1.
        2   -1    0    0  501    0  0.00000000000E+00  0.00000000000E+00 -0.27995004528E+03  0.27995004530E+03  0.25500000920E-02 0.  1.
    10030    2    1    2    0    0  0.00000000000E+00  0.00000000000E+00  0.42256225058E+02  0.60215631565E+03  0.60067182381E+03 0.  0.
        5    1    3    3  502    0  0.49362484679E+02  0.58793999170E+02 -0.26991020607E+03  0.28065458944E+03  0.46999998093E+01 0.  1.
       -5    1    3    3    0  502 -0.49362484679E+02 -0.58793999170E+02  0.31216643113E+03  0.32150172621E+03  0.46999998093E+01 0. -1.
</event>
<event>
 5   0  0.1166419E-01  0.5997943E+03  0.7818609E-02  0.9905833E-01
       -2   -1    0    0    0  501  0.00000000000E+00  0.00000000000E+00  0.52194878540E+02  0.52194878602E+02  0.25500000920E-02 0.  1.
        2   -1    0    0  501    0  0.00000000000E+00  0.00000000000E+00 -0.17231251931E+04  0.17231251931E+04  0.25500000920E-02 0. -1.
    10030    2    1    2    0    0  0.00000000000E+00  0.00000000000E+00 -0.16709303146E+04  0.17753200717E+04  0.59979433215E+03 0.  0.
        1    1    3    3  502    0  0.28688913850E+03  0.63072464438E+02 -0.65652578323E+03  0.71924239143E+03  0.50400001928E-02 0.  1.
       -1    1    3    3    0  502 -0.28688913850E+03 -0.63072464438E+02 -0.10144045313E+04  0.10560776803E+04  0.50400001928E-02 0. -1.
</event>
<event>
 5   0  0.7266519E-02  0.6368703E+03  0.7818609E-02  0.9831733E-01
       -1   -1    0    0    0  501  0.00000000000E+00  0.00000000000E+00  0.13182973459E+03  0.13182973469E+03  0.50400001928E-02 0. -1.
        1   -1    0    0  501    0  0.00000000000E+00  0.00000000000E+00 -0.76918125423E+03  0.76918125425E+03  0.50400001928E-02 0.  1.
    10030    2    1    2    0    0  0.00000000000E+00  0.00000000000E+00 -0.63735151964E+03  0.90101098894E+03  0.63687034992E+03 0.  0.
        4    1    3    3  502    0  0.10341478190E+03  0.21435547593E+03 -0.61797590299E+03  0.66222255832E+03  0.12699999809E+01 0.  1.
       -4    1    3    3    0  502 -0.10341478190E+03 -0.21435547593E+03 -0.19375616653E+02  0.23878843062E+03  0.12699999809E+01 0. -1.
</event>
<event>
 5   0  0.1166419E-01  0.6185274E+03  0.7818609E-02  0.9867696E-01
        2   -1    0    0  501    0  0.00000000000E+00  0.00000000000E+00  0.29650827995E+03  0.29650827996E+03  0.25500000920E-02 0. -1.
       -2   -1    0    0    0  501  0.00000000000E+00  0.00000000000E+00 -0.32256779857E+03  0.32256779858E+03  0.25500000920E-02 0.  1.
    10030    2    1    2    0    0  0.00000000000E+00  0.00000000000E+00 -0.26059518621E+02  0.61907607853E+03  0.61852735793E+03 0.  0.
        1    1    3    3  502    0  0.17473390133E+03 -0.73715242792E+02  0.23147807813E+03  0.29924567495E+03  0.50400001928E-02 0. -1.
       -1    1    3    3    0  502 -0.17473390133E+03  0.73715242792E+02 -0.25753759675E+03  0.31983040359E+03  0.50400001928E-02 0.  1.
</event>
<event>
 5   0  0.7123340E-02  0.6032243E+03  0.7818609E-02  0.9898739E-01
       -1   -1    0    0    0  501  0.00000000000E+00  0.00000000000E+00  0.35280964783E+03  0.35280964786E+03  0.50400001928E-02 0. -1.
        1   -1    0    0  501    0  0.00000000000E+00  0.00000000000E+00 -0.25784414304E+03  0.25784414309E+03  0.50400001928E-02 0.  1.
    10030    2    1    2    0    0  0.00000000000E+00  0.00000000000E+00  0.94965504784E+02  0.61065379096E+03  0.60322434078E+03 0.  0.
        2    1    3    3  502    0 -0.82971395828E+02 -0.80797289017E+02 -0.23443858834E+03  0.26148404569E+03  0.25500000920E-02 0.  1.
       -2    1    3    3    0  502  0.82971395828E+02  0.80797289017E+02  0.32940409313E+03  0.34916974527E+03  0.25500000920E-02 0. -1.
</event>
<event>
 5   0  0.1175861E-01  0.5499660E+03  0.7818609E-02  0.1001502E+00
       -2   -1    0    0    0  501  0.00000000000E+00  0.00000000000E+00  0.37311459328E+03  0.37311459329E+03  0.25500000920E-02 0.  1.
        2   -1    0    0  501    0  0.00000000000E+00  0.00000000000E+00 -0.20266067401E+03  0.20266067402E+03  0.25500000920E-02 0. -1.
    10030    2    1    2    0    0  0.00000000000E+00  0.00000000000E+00  0.17045391928E+03  0.57577526731E+03  0.54996601700E+03 0.  0.
        3    1    3    3  502    0 -0.16402890957E+03  0.17416790838E+03 -0.56691572931E+02  0.24587372395E+03  0.10100000352E+00 0. -1.
       -3    1    3    3    0  502  0.16402890957E+03 -0.17416790838E+03  0.22714549221E+03  0.32990154337E+03  0.10100000352E+00 0.  1.
</event>
<event>
 5   0  0.7266519E-02  0.6690053E+03  0.7818609E-02  0.9771756E-01
       -1   -1    0    0    0  501  0.00000000000E+00  0.00000000000E+00  0.27603501561E+03  0.27603501565E+03  0.50400001928E-02 0.  1.
        1   -1    0    0  501    0  0.00000000000E+00  0.00000000000E+00 -0.40535444799E+03  0.40535444803E+03  0.50400001928E-02 0. -1.
    10030    2    1    2    0    0  0.00000000000E+00  0.00000000000E+00 -0.12931943239E+03  0.68138946368E+03  0.66900529566E+03 0.  0.
        4    1    3    3  502    0 -0.10836738927E+03  0.83411344131E+02 -0.37558015199E+03  0.39970364879E+03  0.12699999809E+01 0. -1.
       -4    1    3    3    0  502  0.10836738927E+03 -0.83411344131E+02  0.24626071961E+03  0.28168581489E+03  0.12699999809E+01 0.  1.
</event>
<event>
 5   0  0.7266519E-02  0.5973743E+03  0.7818609E-02  0.9910869E-01
        1   -1    0    0  501    0  0.00000000000E+00  0.00000000000E+00  0.26218832794E+03  0.26218832799E+03  0.50400001928E-02 0.  1.
       -1   -1    0    0    0  501  0.00000000000E+00  0.00000000000E+00 -0.34026685876E+03  0.34026685880E+03  0.50400001928E-02 0. -1.
    10030    2    1    2    0    0  0.00000000000E+00  0.00000000000E+00 -0.78078530820E+02  0.60245518678E+03  0.59737425046E+03 0.  0.
        4    1    3    3  502    0  0.13170984661E+01 -0.15281427087E+03  0.21977249151E+03  0.26768544423E+03  0.12699999809E+01 0.  1.
       -4    1    3    3    0  502 -0.13170984661E+01  0.15281427087E+03 -0.29785102233E+03  0.33476974255E+03  0.12699999809E+01 0. -1.
</event>
<event>
 5   0  0.1166419E-01  0.5677988E+03  0.7818609E-02  0.9974561E-01
        2   -1    0    0  501    0  0.00000000000E+00  0.00000000000E+00  0.41308256904E+03  0.41308256905E+03  0.25500000920E-02 0.  1.
       -2   -1    0    0    0  501  0.00000000000E+00  0.00000000000E+00 -0.19511564783E+03  0.19511564785E+03  0.25500000920E-02 0. -1.
    10030    2    1    2    0    0  0.00000000000E+00  0.00000000000E+00  0.21796692121E+03  0.60819821690E+03  0.56779881322E+03 0.  0.
        1    1    3    3  502    0 -0.22854047499E+03 -0.12651820847E+03  0.22807534312E+03  0.34677942262E+03  0.50400001928E-02 0.  1.
       -1    1    3    3    0  502  0.22854047499E+03  0.12651820847E+03 -0.10108421919E+02  0.26141879428E+03  0.50400001928E-02 0. -1.
</event>
<event>
 5   0  0.1146468E-01  0.6107330E+03  0.7818609E-02  0.9883385E-01
       -2   -1    0    0    0  501  0.00000000000E+00  0.00000000000E+00  0.10726661161E+03  0.10726661165E+03  0.25500000920E-02 0. -1.
        2   -1    0    0  501    0  0.00000000000E+00  0.00000000000E+00 -0.86931714136E+03  0.86931714136E+03  0.25500000920E-02 0.  1.
    10030    2    1    2    0    0  0.00000000000E+00  0.00000000000E+00 -0.76205052974E+03  0.97658375301E+03  0.61073301594E+03 0.  0.
        4    1    3    3  502    0 -0.61354626786E+02  0.26004415588E+03 -0.61744328346E+03  0.67277423734E+03  0.12699999809E+01 0.  1.
       -4    1    3    3    0  502  0.61354626786E+02 -0.26004415588E+03 -0.14460724628E+03  0.30380951567E+03  0.12699999809E+01 0. -1.
</event>
<event>
 5   0  0.7221069E-02  0.5977418E+03  0.7818609E-02  0.9910102E-01
        1   -1    0    0  501    0  0.00000000000E+00  0.00000000000E+00  0.11834693260E+04  0.11834693260E+04  0.50400001928E-02 0. -1.
       -1   -1    0    0    0  501  0.00000000000E+00  0.00000000000E+00 -0.75476235866E+02  0.75476236034E+02  0.50400001928E-02 0.  1.
    10030    2    1    2    0    0  0.00000000000E+00  0.00000000000E+00  0.11079930901E+04  0.12589455620E+04  0.59774178406E+03 0.  0.
        5    1    3    3  502    0  0.13037619281E+03 -0.26383832016E+03  0.44469650458E+03  0.53327824071E+03  0.46999998093E+01 0.  1.
       -5    1    3    3    0  502 -0.13037619281E+03  0.26383832016E+03  0.66329658556E+03  0.72566732134E+03  0.46999998093E+01 0. -1.
</event>
<event>
 5   0  0.1166419E-01  0.5955210E+03  0.7818609E-02  0.9914742E-01
        2   -1    0    0  501    0  0.00000000000E+00  0.00000000000E+00  0.48559317083E+03  0.48559317084E+03  0.25500000920E-02 0. -1.
       -2   -1    0    0    0  501  0.00000000000E+00  0.00000000000E+00 -0.18258353626E+03  0.18258353628E+03  0.25500000920E-02 0.  1.
    10030    2    1    2    0    0  0.00000000000E+00  0.00000000000E+00  0.30300963457E+03  0.66817670712E+03  0.59552100995E+03 0.  0.
        1    1    3    3  502    0 -0.31286048364E+02  0.19071476155E+03  0.40565876771E+03  0.44934393614E+03  0.50400001928E-02 0. -1.
       -1    1    3    3    0  502  0.31286048364E+02 -0.19071476155E+03 -0.10264913314E+03  0.21883277098E+03  0.50400001928E-02 0.  1.
</event>
<event>
 5   0  0.1175861E-01  0.5883210E+03  0.7818609E-02  0.9929937E-01
       -2   -1    0    0    0  501  0.00000000000E+00  0.00000000000E+00  0.30943745765E+03  0.30943745766E+03  0.25500000920E-02 0. -1.
        2   -1    0    0  501    0  0.00000000000E+00  0.00000000000E+00 -0.27963775455E+03  0.27963775457E+03  0.25500000920E-02 0.  1.
    10030    2    1    2    0    0  0.00000000000E+00  0.00000000000E+00  0.29799703096E+02  0.58907521223E+03  0.58832098667E+03 0.  0.
        3    1    3    3  502    0 -0.17706160235E+03  0.23452725659E+03  0.15959623812E+01  0.29386459876E+03  0.10100000352E+00 0. -1.
       -3    1    3    3    0  502  0.17706160235E+03 -0.23452725659E+03  0.28203740715E+02  0.29521061346E+03  0.10100000352E+00 0.  1.
</event>
<event>
 5   0  0.7263385E-02  0.5928141E+03  0.7818609E-02  0.9920428E-01
        1   -1    0    0  501    0  0.00000000000E+00  0.00000000000E+00  0.22128541811E+03  0.22128541816E+03  0.50400001928E-02 0.  1.
       -1   -1    0    0    0  501  0.00000000000E+00  0.00000000000E+00 -0.39703082394E+03  0.39703082397E+03  0.50400001928E-02 0. -1.
    10030    2    1    2    0    0  0.00000000000E+00  0.00000000000E+00 -0.17574540583E+03  0.61831624213E+03  0.59281407508E+03 0.  0.
        1    1    3    3  502    0 -0.25612889581E+03  0.14443924325E+03 -0.48952226227E+02  0.29809566709E+03  0.50400001928E-02 0. -1.
       -1    1    3    3    0  502  0.25612889581E+03 -0.14443924325E+03 -0.12679317960E+03  0.32022057504E+03  0.50400001928E-02 0.  1.
</event>
<event>
 5   0  0.7266519E-02  0.6418120E+03  0.7818609E-02  0.9822266E-01
       -1   -1    0    0    0  501  0.00000000000E+00  0.00000000000E+00  0.22166158611E+03  0.22166158617E+03  0.50400001928E-02 0. -1.
        1   -1    0    0  501    0  0.00000000000E+00  0.00000000000E+00 -0.46458499300E+03  0.46458499303E+03  0.50400001928E-02 0.  1.
    10030    2    1    2    0    0  0.00000000000E+00  0.00000000000E+00 -0.24292340689E+03  0.68624657919E+03  0.64181195520E+03 0.  0.
        4    1    3    3  502    0 -0.29444043793E+03  0.67411572660E+02 -0.23731221770E+03  0.38413304100E+03  0.12699999809E+01 0.  1.
       -4    1    3    3    0  502  0.29444043793E+03 -0.67411572660E+02 -0.56111891845E+01  0.30211353819E+03  0.12699999809E+01 0. -1.
</event>
<event>
 5   0  0.7424930E-02  0.5927032E+03  0.7818609E-02  0.9920661E-01
        1   -1    0    0  501    0  0.00000000000E+00  0.00000000000E+00  0.16201930025E+03  0.16201930033E+03  0.50400001928E-02 0. -1.
       -1   -1    0    0    0  501  0.00000000000E+00  0.00000000000E+00 -0.54206045862E+03  0.54206045864E+03  0.50400001928E-02 0.  1.
    10030    2    1    2    0    0  0.00000000000E+00  0.00000000000E+00 -0.38004115836E+03  0.70407975897E+03  0.59270315077E+03 0.  0.
        3    1    3    3  502    0  0.74139052616E+02  0.78551723613E+02 -0.51784425641E+03  0.52898927825E+03  0.10100000352E+00 0.  1.
       -3    1    3    3    0  502 -0.74139052616E+02 -0.78551723613E+02  0.13780309805E+03  0.17509048072E+03  0.10100000352E+00 0. -1.
</event>
<event>
 5   0  0.7221069E-02  0.6470507E+03  0.7818609E-02  0.9812329E-01
        1   -1    0    0  501    0  0.00000000000E+00  0.00000000000E+00  0.36711503382E+03  0.36711503385E+03  0.50400001928E-02 0.  1.
       -1   -1    0    0    0  501  0.00000000000E+00  0.00000000000E+00 -0.28511134830E+03  0.28511134835E+03  0.50400001928E-02 0. -1.
    10030    2    1    2    0    0  0.00000000000E+00  0.00000000000E+00  0.82003685515E+02  0.65222638220E+03  0.64705073155E+03 0.  0.
        5    1    3    3  502    0 -0.28485166305E+03 -0.13221930855E+03  0.11923811750E+03  0.33594974946E+03  0.46999998093E+01 0.  1.
       -5    1    3    3    0  502  0.28485166305E+03  0.13221930855E+03 -0.37234431985E+02  0.31627663274E+03  0.46999998093E+01 0. -1.
</event>
<event>
 5   0  0.4695625E-02  0.5832012E+03  0.7818609E-02  0.9940884E-01
       -3   -1    0    0    0  501  0.00000000000E+00  0.00000000000E+00  0.19009296739E+03  0.19009299422E+03  0.10100000352E+00 0.  1.
        3   -1    0    0  501    0  0.00000000000E+00  0.00000000000E+00 -0.44731217804E+03  0.44731218944E+03  0.10100000352E+00 0. -1.
    10030    2    1    2    0    0  0.00000000000E+00  0.00000000000E+00 -0.25721921065E+03  0.63740518366E+03  0.58320120527E+03 0.  0.
        1    1    3    3  502    0 -0.28061642244E+01 -0.25250913390E+03  0.30758354838E+02  0.25439106446E+03  0.50400001928E-02 0.  1.
       -1    1    3    3    0  502  0.28061642244E+01  0.25250913390E+03 -0.28797756549E+03  0.38301411920E+03  0.50400001928E-02 0. -1.
</event>
<event>
 5   0  0.7424930E-02  0.5865492E+03  0.7818609E-02  0.9933712E-01
       -1   -1    0    0    0  501  0.00000000000E+00  0.00000000000E+00  0.55630088710E+03  0.55630088712E+03  0.50400001928E-02 0.  1.
        1   -1    0    0  501    0  0.00000000000E+00  0.00000000000E+00 -0.15461057707E+03  0.15461057716E+03  0.50400001928E-02 0. -1.
    10030    2    1    2    0    0  0.00000000000E+00  0.00000000000E+00  0.40169031003E+03  0.71091146428E+03  0.58654923483E+03 0.  0.
        3    1    3    3  502    0 -0.16533047736E+03 -0.18369888141E+03  0.94737992405E+01  0.24732409678E+03  0.10100000352E+00 0. -1.
       -3    1    3    3    0  502  0.16533047736E+03  0.18369888141E+03  0.39221651079E+03  0.46358736750E+03  0.10100000352E+00 0.  1.
</event>
<event>
 5   0  0.1146468E-01  0.6027780E+03  0.7818609E-02  0.9899659E-01
       -2   -1    0    0    0  501  0.00000000000E+00  0.00000000000E+00  0.82359997387E+02  0.82359997426E+02  0.25500000920E-02 0. -1.
        2   -1    0    0  501    0  0.00000000000E+00  0.00000000000E+00 -0.11029059044E+04  0.11029059044E+04  0.25500000920E-02 0.  1.
    10030    2    1    2    0    0  0.00000000000E+00  0.00000000000E+00 -0.10205459070E+04  0.11852659018E+04  0.60277799372E+03 0.  0.
        4    1    3    3  502    0  0.23897614388E+03  0.16445578679E+03 -0.34958068360E+03  0.45427257280E+03  0.12699999809E+01 0. -1.
       -4    1    3    3    0  502 -0.23897614388E+03 -0.16445578679E+03 -0.67096522339E+03  0.73099332901E+03  0.12699999809E+01 0.  1.
</event>
<event>
 5   0  0.1166419E-01  0.6049566E+03  0.7818609E-02  0.9895176E-01
        2   -1    0    0  501    0  0.00000000000E+00  0.00000000000E+00  0.92378216620E+03  0.92378216621E+03  0.25500000920E-02 0. -1.
       -2   -1    0    0    0  501  0.00000000000E+00  0.00000000000E+00 -0.99041865356E+02  0.99041865389E+02  0.25500000920E-02 0.  1.
    10030    2    1    2    0    0  0.00000000000E+00  0.00000000000E+00  0.82474030085E+03  0.10228240316E+04  0.60495655693E+03 0.  0.
        1    1    3    3  502    0 -0.10773830679E+03  0.71662677352E+02  0.87462599571E+03  0.88414575408E+03  0.50400001928E-02 0. -1.
       -1    1    3    3    0  502  0.10773830679E+03 -0.71662677352E+02 -0.49885694860E+02  0.13867827751E+03  0.50400001928E-02 0.  1.
</event>
<event>
 5   0  0.7123340E-02  0.4688513E+03  0.7818609E-02  0.1022245E+00
       -1   -1    0    0    0  501  0.00000000000E+00  0.00000000000E+00  0.27443678185E+03  0.27443678190E+03  0.50400001928E-02 0. -1.
        1   -1    0    0  501    0  0.00000000000E+00  0.00000000000E+00 -0.20024790615E+03  0.20024790621E+03  0.50400001928E-02 0.  1.
    10030    2    1    2    0    0  0.00000000000E+00  0.00000000000E+00  0.74188875706E+02  0.47468468811E+03  0.46885132382E+03 0.  0.
        2    1    3    3  502    0  0.29763673843E+02 -0.38415214380E+02  0.26928111359E+03  0.27363099810E+03  0.25500000920E-02 0. -1.
       -2    1    3    3    0  502 -0.29763673843E+02  0.38415214380E+02 -0.19509223789E+03  0.20105369001E+03  0.25500000920E-02 0.  1.
</event>
<event>
 5   0  0.1206238E-01  0.6066642E+03  0.7818609E-02  0.9891676E-01
       -2   -1    0    0    0  501  0.00000000000E+00  0.00000000000E+00  0.97069008905E+02  0.97069008938E+02  0.25500000920E-02 0.  1.
        2   -1    0    0  501    0  0.00000000000E+00  0.00000000000E+00 -0.94788611559E+03  0.94788611560E+03  0.25500000920E-02 0. -1.
    10030    2    1    2    0    0  0.00000000000E+00  0.00000000000E+00 -0.85081710669E+03  0.10449551245E+04  0.60666420964E+03 0.  0.
        5    1    3    3  502    0  0.24048040383E+03 -0.12453300198E+03 -0.66062995726E+03  0.71399812579E+03  0.46999998093E+01 0. -1.
       -5    1    3    3    0  502 -0.24048040383E+03  0.12453300198E+03 -0.19018714943E+03  0.33095699874E+03  0.46999998093E+01 0.  1.
</event>
<event>
 5   0  0.4695625E-02  0.6203954E+03  0.7818609E-02  0.9863973E-01
        3   -1    0    0  501    0  0.00000000000E+00  0.00000000000E+00  0.13445069715E+03  0.13445073508E+03  0.10100000352E+00 0.  1.
       -3   -1    0    0    0  501  0.00000000000E+00  0.00000000000E+00 -0.71567204750E+03  0.71567205462E+03  0.10100000352E+00 0. -1.
    10030    2    1    2    0    0  0.00000000000E+00  0.00000000000E+00 -0.58122135035E+03  0.85012278970E+03  0.62039543798E+03 0.  0.
        5    1    3    3  502    0 -0.20706043180E+03 -0.19311494052E+03 -0.11710157807E+03  0.30643477651E+03  0.46999998093E+01 0. -1.
       -5    1    3    3    0  502  0.20706043180E+03  0.19311494052E+03 -0.46411977229E+03  0.54368801320E+03  0.46999998093E+01 0.  1.
</event>
<event>
 5   0  0.4695625E-02  0.6000343E+03  0.7818609E-02  0.9905335E-01
       -3   -1    0    0    0  501  0.00000000000E+00  0.00000000000E+00  0.29138894704E+03  0.29138896454E+03  0.10100000352E+00 0. -1.
        3   -1    0    0  501    0  0.00000000000E+00  0.00000000000E+00 -0.30890081785E+03  0.30890083436E+03  0.10100000352E+00 0.  1.
    10030    2    1    2    0    0  0.00000000000E+00  0.00000000000E+00 -0.17511870810E+02  0.60028979890E+03  0.60003431323E+03 0.  0.
        5    1    3    3  502    0 -0.17904284756E+03  0.16722040420E+03 -0.18194579000E+03  0.30519725644E+03  0.46999998093E+01 0.  1.
       -5    1    3    3    0  502  0.17904284756E+03 -0.16722040420E+03  0.16443391919E+03  0.29509254247E+03  0.46999998093E+01 0. -1.
</event>
<event>
 5   0  0.7123340E-02  0.5997893E+03  0.7818609E-02  0.9905843E-01
       -1   -1    0    0    0  501  0.00000000000E+00  0.00000000000E+00  0.10634088160E+03  0.10634088172E+03  0.50400001928E-02 0. -1.
        1   -1    0    0  501    0  0.00000000000E+00  0.00000000000E+00 -0.84574062111E+03  0.84574062113E+03  0.50400001928E-02 0.  1.
    10030    2    1    2    0    0  0.00000000000E+00  0.00000000000E+00 -0.73939973951E+03  0.95208150285E+03  0.59978930741E+03 0.  0.
        2    1    3    3  502    0  0.18864104981E+03 -0.12498502669E+03 -0.68209173902E+03  0.71864862278E+03  0.25500000920E-02 0.  1.
       -2    1    3    3    0  502 -0.18864104981E+03  0.12498502669E+03 -0.57308000489E+02  0.23343288007E+03  0.25500000920E-02 0. -1.
</event>
<event>
 5   0  0.1219020E-01  0.6686564E+03  0.7818609E-02  0.9772388E-01
        2   -1    0    0  501    0  0.00000000000E+00  0.00000000000E+00  0.50068429149E+03  0.50068429149E+03  0.25500000920E-02 0.  1.
       -2   -1    0    0    0  501  0.00000000000E+00  0.00000000000E+00 -0.22324518376E+03  0.22324518377E+03  0.25500000920E-02 0. -1.
    10030    2    1    2    0    0  0.00000000000E+00  0.00000000000E+00  0.27743910773E+03  0.72392947527E+03  0.66865643395E+03 0.  0.
        2    1    3    3  502    0  0.95303746767E+02  0.38401879102E+02  0.48316605844E+03  0.49397059477E+03  0.25500000920E-02 0.  1.
       -2    1    3    3    0  502 -0.95303746767E+02 -0.38401879102E+02 -0.20572695071E+03  0.22995888050E+03  0.25500000920E-02 0. -1.
</event>
<event>
 5   0  0.1175861E-01  0.6700941E+03  0.7818609E-02  0.9769788E-01
       -2   -1    0    0    0  501  0.00000000000E+00  0.00000000000E+00  0.85934005095E+02  0.85934005132E+02  0.25500000920E-02 0. -1.
        2   -1    0    0  501    0  0.00000000000E+00  0.00000000000E+00 -0.13063106886E+04  0.13063106886E+04  0.25500000920E-02 0.  1.
    10030    2    1    2    0    0  0.00000000000E+00  0.00000000000E+00 -0.12203766835E+04  0.13922446937E+04  0.67009405130E+03 0.  0.
        3    1    3    3  502    0 -0.23844529988E+03  0.22178969546E+03 -0.77391298006E+03  0.83963571920E+03  0.10100000352E+00 0. -1.
       -3    1    3    3    0  502  0.23844529988E+03 -0.22178969546E+03 -0.44646370345E+03  0.55260897454E+03  0.10100000352E+00 0.  1.
</event>
<event>
 5   0  0.4695625E-02  0.4402272E+03  0.7818609E-02  0.1030677E+00
       -3   -1    0    0    0  501  0.00000000000E+00  0.00000000000E+00  0.22503204291E+03  0.22503206557E+03  0.10100000352E+00 0. -1.
        3   -1    0    0  501    0  0.00000000000E+00  0.00000000000E+00 -0.21530264545E+03  0.21530266914E+03  0.10100000352E+00 0.  1.
    10030    2    1    2    0    0  0.00000000000E+00  0.00000000000E+00  0.97293974565E+01  0.44033473471E+03  0.44022723384E+03 0.  0.
        4    1    3    3  502    0  0.15127299720E+03 -0.14387388884E+03  0.74632544239E+02  0.22170891983E+03  0.12699999809E+01 0. -1.
       -4    1    3    3    0  502 -0.15127299720E+03  0.14387388884E+03 -0.64903146782E+02  0.21862581488E+03  0.12699999809E+01 0.  1.
</event>
<event>
 5   0  0.1166419E-01  0.5955174E+03  0.7818609E-02  0.9914750E-01
        2   -1    0    0  501    0  0.00000000000E+00  0.00000000000E+00  0.25679630874E+03  0.25679630875E+03  0.25500000920E-02 0. -1.
       -2   -1    0    0    0  501  0.00000000000E+00  0.00000000000E+00 -0.34525511314E+03  0.34525511315E+03  0.25500000920E-02 0.  1.
    10030    2    1    2    0    0  0.00000000000E+00  0.00000000000E+00 -0.88458804397E+02  0.60205142190E+03  0.59551738391E+03 0.  0.
        1    1    3    3  502    0  0.75423228826E+02  0.91733728421E+02 -0.32027567889E+03  0.34158491022E+03  0.50400001928E-02 0.  1.
       -1    1    3    3    0  502 -0.75423228826E+02 -0.91733728421E+02  0.23181687450E+03  0.26046651167E+03  0.50400001928E-02 0. -1.
</event>
<event>
 5   0  0.1146468E-01  0.5915655E+03  0.7818609E-02  0.9923061E-01
       -2   -1    0    0    0  501  0.00000000000E+00  0.00000000000E+00  0.81395847538E+03  0.81395847539E+03  0.25500000920E-02 0. -1.
        2   -1    0    0  501    0  0.00000000000E+00  0.00000000000E+00 -0.10748391988E+03  0.10748391991E+03  0.25500000920E-02 0.  1.
    10030    2    1    2    0    0  0.00000000000E+00  0.00000000000E+00  0.70647455551E+03  0.92144239530E+03  0.59156554183E+03 0.  0.
        4    1    3    3  502    0 -0.10935251161E+03 -0.27482138424E+03  0.35162632079E+03  0.45948606878E+03  0.12699999809E+01 0.  1.
       -4    1    3    3    0  502  0.10935251161E+03  0.27482138424E+03  0.35484823472E+03  0.46195632652E+03  0.12699999809E+01 0. -1.
</event>
<event>
 5   0  0.7221069E-02  0.6271557E+03  0.7818609E-02  0.9850615E-01
        1   -1    0    0  501    0  0.00000000000E+00  0.00000000000E+00  0.92021244702E+03  0.92021244704E+03  0.50400001928E-02 0.  1.
       -1   -1    0    0    0  501  0.00000000000E+00  0.00000000000E+00 -0.10685691880E+03  0.10685691892E+03  0.50400001928E-02 0. -1.
    10030    2    1    2    0    0  0.00000000000E+00  0.00000000000E+00  0.81335552822E+03  0.10270693660E+04  0.62715569615E+03 0.  0.
        5    1    3    3  502    0 -0.12064792377E+03  0.17108529572E+03  0.24421667575E+02  0.21081889803E+03  0.46999998093E+01 0. -1.
       -5    1    3    3    0  502  0.12064792377E+03 -0.17108529572E+03  0.78893386064E+03  0.81625046793E+03  0.46999998093E+01 0.  1.
</event>
<event>
 5   0  0.7123340E-02  0.6029231E+03  0.7818609E-02  0.9899360E-01
       -1   -1    0    0    0  501  0.00000000000E+00  0.00000000000E+00  0.38606392956E+03  0.38606392959E+03  0.50400001928E-02 0. -1.
        1   -1    0    0  501    0  0.00000000000E+00  0.00000000000E+00 -0.23539898489E+03  0.23539898495E+03  0.50400001928E-02 0.  1.
    10030    2    1    2    0    0  0.00000000000E+00  0.00000000000E+00  0.15066494466E+03  0.62146291454E+03  0.60292307021E+03 0.  0.
        2    1    3    3  502    0 -0.18308933265E+02 -0.19064866675E+03  0.31529346098E+03  0.36890662465E+03  0.25500000920E-02 0. -1.
       -2    1    3    3    0  502  0.18308933265E+02  0.19064866675E+03 -0.16462851631E+03  0.25255628989E+03  0.25500000920E-02 0.  1.
</event>
<event>
 5   0  0.7221069E-02  0.6309540E+03  0.7818609E-02  0.9843189E-01
       -1   -1    0    0    0  501  0.00000000000E+00  0.00000000000E+00  0.12882451769E+03  0.12882451779E+03  0.50400001928E-02 0. -1.
        1   -1    0    0  501    0  0.00000000000E+00  0.00000000000E+00 -0.77256823941E+03  0.77256823943E+03  0.50400001928E-02 0.  1.
    10030    2    1    2    0    0  0.00000000000E+00  0.00000000000E+00 -0.64374372172E+03  0.90139275721E+03  0.63095397890E+03 0.  0.
        5    1    3    3  502    0 -0.14013336973E+03 -0.12718746553E+03  0.38665883599E+02  0.19321271504E+03  0.46999998093E+01 0. -1.
       -5    1    3    3    0  502  0.14013336973E+03  0.12718746553E+03 -0.68240960532E+03  0.70818004217E+03  0.46999998093E+01 0.  1.
</event>
<event>
 5   0  0.1175861E-01  0.5516612E+03  0.7818609E-02  0.1001110E+00
        2   -1    0    0  501    0  0.00000000000E+00  0.00000000000E+00  0.32580492085E+03  0.32580492086E+03  0.25500000920E-02 0.  1.
       -2   -1    0    0    0  501  0.00000000000E+00  0.00000000000E+00 -0.23352166840E+03  0.23352166842E+03  0.25500000920E-02 0. -1.
    10030    2    1    2    0    0  0.00000000000E+00  0.00000000000E+00  0.92283252452E+02  0.55932658928E+03  0.55166115940E+03 0.  0.
        3    1    3    3  502    0  0.17636272998E+03 -0.19513460391E+03 -0.38085986879E+02  0.26576658700E+03  0.10100000352E+00 0. -1.
       -3    1    3    3    0  502 -0.17636272998E+03  0.19513460391E+03  0.13036923933E+03  0.29356000227E+03  0.10100000352E+00 0.  1.
</event>
<event>
 5   0  0.1219020E-01  0.6254119E+03  0.7818609E-02  0.9854043E-01
        2   -1    0    0  501    0  0.00000000000E+00  0.00000000000E+00  0.91778826805E+03  0.91778826805E+03  0.25500000920E-02 0. -1.
       -2   -1    0    0    0  501  0.00000000000E+00  0.00000000000E+00 -0.10654418845E+03  0.10654418848E+03  0.25500000920E-02 0.  1.
    10030    2    1    2    0    0  0.00000000000E+00  0.00000000000E+00  0.81124407960E+03  0.10243324565E+04  0.62541188415E+03 0.  0.
        2    1    3    3  502    0  0.17395178028E+03 -0.11653762873E+03  0.78602987967E+03  0.81343912649E+03  0.25500000920E-02 0. -1.
       -2    1    3    3    0  502 -0.17395178028E+03  0.11653762873E+03  0.25214199926E+02  0.21089333004E+03  0.25500000920E-02 0.  1.
</event>
<event>
 5   0  0.1206238E-01  0.6094796E+03  0.7818609E-02  0.9885932E-01
       -2   -1    0    0    0  501  0.00000000000E+00  0.00000000000E+00  0.81164447902E+03  0.81164447902E+03  0.25500000920E-02 0.  1.
        2   -1    0    0  501    0  0.00000000000E+00  0.00000000000E+00 -0.11441749983E+03  0.11441749986E+03  0.25500000920E-02 0. -1.
    10030    2    1    2    0    0  0.00000000000E+00  0.00000000000E+00  0.69722697918E+03  0.92606197888E+03  0.60947955522E+03 0.  0.
        5    1    3    3  502    0 -0.30105957486E+03 -0.16741199420E+02  0.41531471167E+03  0.51324997331E+03  0.46999998093E+01 0.  1.
       -5    1    3    3    0  502  0.30105957486E+03  0.16741199420E+02  0.28191226751E+03  0.41281200558E+03  0.46999998093E+01 0. -1.
</event>
<event>
 5   0  0.7266519E-02  0.6416777E+03  0.7818609E-02  0.9822522E-01
       -1   -1    0    0    0  501  0.00000000000E+00  0.00000000000E+00  0.70558568194E+02  0.70558568374E+02  0.50400001928E-02 0.  1.
        1   -1    0    0  501    0  0.00000000000E+00  0.00000000000E+00 -0.14588954869E+04  0.14588954869E+04  0.50400001928E-02 0. -1.
    10030    2    1    2    0    0  0.00000000000E+00  0.00000000000E+00 -0.13883369187E+04  0.15294540553E+04  0.64167772860E+03 0.  0.
        4    1    3    3  502    0  0.30057803222E+03  0.43030120010E+02 -0.94115050326E+03  0.98892094091E+03  0.12699999809E+01 0. -1.
       -4    1    3    3    0  502 -0.30057803222E+03 -0.43030120010E+02 -0.44718641547E+03  0.54053311440E+03  0.12699999809E+01 0.  1.
</event>
<event>
 5   0  0.7263385E-02  0.5957961E+03  0.7818609E-02  0.9914166E-01
       -1   -1    0    0    0  501  0.00000000000E+00  0.00000000000E+00  0.95428245728E+02  0.95428245861E+02  0.50400001928E-02 0.  1.
        1   -1    0    0  501    0  0.00000000000E+00  0.00000000000E+00 -0.92994750813E+03  0.92994750815E+03  0.50400001928E-02 0. -1.
    10030    2    1    2    0    0  0.00000000000E+00  0.00000000000E+00 -0.83451926240E+03  0.10253757540E+04  0.59579613760E+03 0.  0.
        1    1    3    3  502    0 -0.16101673509E+03 -0.24922928104E+03 -0.37167260638E+03  0.47558611194E+03  0.50400001928E-02 0.  1.
       -1    1    3    3    0  502  0.16101673509E+03  0.24922928104E+03 -0.46284665603E+03  0.54978964207E+03  0.50400001928E-02 0. -1.
</event>
<event>
 5   0  0.1219020E-01  0.6184962E+03  0.7818609E-02  0.9867758E-01
        2   -1    0    0  501    0  0.00000000000E+00  0.00000000000E+00  0.30234296232E+03  0.30234296233E+03  0.25500000920E-02 0. -1.
       -2   -1    0    0    0  501  0.00000000000E+00  0.00000000000E+00 -0.31631094963E+03  0.31631094964E+03  0.25500000920E-02 0.  1.
    10030    2    1    2    0    0  0.00000000000E+00  0.00000000000E+00 -0.13967987302E+02  0.61865391197E+03  0.61849620704E+03 0.  0.
        2    1    3    3  502    0 -0.53678003487E+02  0.98670920727E+02 -0.29518436124E+03  0.31583395286E+03  0.25500000920E-02 0.  1.
       -2    1    3    3    0  502  0.53678003487E+02 -0.98670920727E+02  0.28121637394E+03  0.30281995910E+03  0.25500000920E-02 0. -1.
</event>
<event>
 5   0  0.4695625E-02  0.6180415E+03  0.7818609E-02  0.9868667E-01
        3   -1    0    0  501    0  0.00000000000E+00  0.00000000000E+00  0.98587071783E+03  0.98587072301E+03  0.10100000352E+00 0. -1.
       -3   -1    0    0    0  501  0.00000000000E+00  0.00000000000E+00 -0.96862395335E+02  0.96862447993E+02  0.10100000352E+00 0.  1.
    10030    2    1    2    0    0  0.00000000000E+00  0.00000000000E+00  0.88900832250E+03  0.10827331710E+04  0.61804152135E+03 0.  0.
        2    1    3    3  502    0  0.24491761075E+03  0.85471346902E+02  0.15029381846E+03  0.29979696307E+03  0.25500000920E-02 0.  1.
       -2    1    3    3    0  502 -0.24491761075E+03 -0.85471346902E+02  0.73871450404E+03  0.78293620793E+03  0.25500000920E-02 0. -1.
</event>
<event>
 5   0  0.7266519E-02  0.6053390E+03  0.7818609E-02  0.9894391E-01
        1   -1    0    0  501    0  0.00000000000E+00  0.00000000000E+00  0.76055244934E+03  0.76055244936E+03  0.50400001928E-02 0. -1.
       -1   -1    0    0    0  501  0.00000000000E+00  0.00000000000E+00 -0.12045036954E+03  0.12045036964E+03  0.50400001928E-02 0.  1.
    10030    2    1    2    0    0  0.00000000000E+00  0.00000000000E+00  0.64010207980E+03  0.88100281900E+03  0.60533899141E+03 0.  0.
        4    1    3    3  502    0 -0.48055853771E+02  0.17138842718E+03 -0.36218352458E+02  0.18165004819E+03  0.12699999809E+01 0.  1.
       -4    1    3    3    0  502  0.48055853771E+02 -0.17138842718E+03  0.67632043226E+03  0.69935277081E+03  0.12699999809E+01 0. -1.
</event>
<event>
 5   0  0.1146468E-01  0.5973315E+03  0.7818609E-02  0.9910958E-01
       -2   -1    0    0    0  501  0.00000000000E+00  0.00000000000E+00  0.18765028224E+03  0.18765028226E+03  0.25500000920E-02 0. -1.
        2   -1    0    0  501    0  0.00000000000E+00  0.00000000000E+00 -0.47535886455E+03  0.47535886456E+03  0.25500000920E-02 0.  1.
    10030    2    1    2    0    0  0.00000000000E+00  0.00000000000E+00 -0.28770858231E+03  0.66300914681E+03  0.59733148286E+03 0.  0.
        4    1    3    3  502    0  0.21745470261E+03 -0.55750556295E+02  0.74794772975E+02  0.23662320930E+03  0.12699999809E+01 0. -1.
       -4    1    3    3    0  502 -0.21745470261E+03  0.55750556295E+02 -0.36250335529E+03  0.42638593751E+03  0.12699999809E+01 0.  1.
</event>
<event>
 5   0  0.7221069E-02  0.6034494E+03  0.7818609E-02  0.9898275E-01
       -1   -1    0    0    0  501  0.00000000000E+00  0.00000000000E+00  0.84311641360E+02  0.84311641511E+02  0.50400001928E-02 0. -1.
        1   -1    0    0  501    0  0.00000000000E+00  0.00000000000E+00 -0.10797771348E+04  0.10797771348E+04  0.50400001928E-02 0.  1.
    10030    2    1    2    0    0  0.00000000000E+00  0.00000000000E+00 -0.99546549346E+03  0.11640887763E+04  0.60344936038E+03 0.  0.
        5    1    3    3  502    0  0.30049587164E+03 -0.25418570823E+02 -0.48138461878E+03  0.56806435711E+03  0.46999998093E+01 0.  1.
       -5    1    3    3    0  502 -0.30049587164E+03  0.25418570823E+02 -0.51408087468E+03  0.59602441924E+03  0.46999998093E+01 0. -1.
</event>
<event>
 5   0  0.1206238E-01  0.6070806E+03  0.7818609E-02  0.9890824E-01
       -2   -1    0    0    0  501  0.00000000000E+00  0.00000000000E+00  0.69962824873E+02  0.69962824919E+02  0.25500000920E-02 0. -1.
        2   -1    0    0  501    0  0.00000000000E+00  0.00000000000E+00 -0.13169381338E+04  0.13169381338E+04  0.25500000920E-02 0.  1.
    10030    2    1    2    0    0  0.00000000000E+00  0.00000000000E+00 -0.12469753089E+04  0.13869009587E+04  0.60708059450E+03 0.  0.
        5    1    3    3  502    0 -0.24918941045E+03  0.16773091646E+03 -0.52428488005E+03  0.60425635956E+03  0.46999998093E+01 0. -1.
       -5    1    3    3    0  502  0.24918941045E+03 -0.16773091646E+03 -0.72269042883E+03  0.78264459912E+03  0.46999998093E+01 0.  1.
</event>
<event>
 5   0  0.1166419E-01  0.5868258E+03  0.7818609E-02  0.9933122E-01
        2   -1    0    0  501    0  0.00000000000E+00  0.00000000000E+00  0.13467319310E+04  0.13467319310E+04  0.25500000920E-02 0.  1.
       -2   -1    0    0    0  501  0.00000000000E+00  0.00000000000E+00 -0.63925954069E+02  0.63925954120E+02  0.25500000920E-02 0. -1.
    10030    2    1    2    0    0  0.00000000000E+00  0.00000000000E+00  0.12828059769E+04  0.14106578851E+04  0.58682577857E+03 0.  0.
        1    1    3    3  502    0  0.13470578998E+03  0.26023248939E+03  0.67742309967E+03  0.73808444936E+03  0.50400001928E-02 0. -1.
       -1    1    3    3    0  502 -0.13470578998E+03 -0.26023248939E+03  0.60538287721E+03  0.67257343572E+03  0.50400001928E-02 0.  1.
</event>
<event>
 5   0  0.7263385E-02  0.5986119E+03  0.7818609E-02  0.9908290E-01
        1   -1    0    0  501    0  0.00000000000E+00  0.00000000000E+00  0.37761029356E+03  0.37761029359E+03  0.50400001928E-02 0.  1.
       -1   -1    0    0    0  501  0.00000000000E+00  0.00000000000E+00 -0.23723941014E+03  0.23723941020E+03  0.50400001928E-02 0. -1.
    10030    2    1    2    0    0  0.00000000000E+00  0.00000000000E+00  0.14037088342E+03  0.61484970379E+03  0.59861187204E+03 0.  0.
        1    1    3    3  502    0  0.85840098895E+02 -0.13561816924E+03  0.32967091027E+03  0.36666567812E+03  0.50400001928E-02 0.  1.
       -1    1    3    3    0  502 -0.85840098895E+02  0.13561816924E+03 -0.18930002686E+03  0.24818402567E+03  0.50400001928E-02 0. -1.
</event>
<event>
 5   0  0.4695625E-02  0.5883224E+03  0.7818609E-02  0.9929934E-01
       -3   -1    0    0    0  501  0.00000000000E+00  0.00000000000E+00  0.41126419886E+03  0.41126421126E+03  0.10100000352E+00 0. -1.
        3   -1    0    0  501    0  0.00000000000E+00  0.00000000000E+00 -0.21040198581E+03  0.21040201005E+03  0.10100000352E+00 0.  1.
    10030    2    1    2    0    0  0.00000000000E+00  0.00000000000E+00  0.20086221305E+03  0.62166622132E+03  0.58832241339E+03 0.  0.
        1    1    3    3  502    0 -0.19077358495E+03  0.12735107648E+03 -0.94175117443E+02  0.24795525840E+03  0.50400001928E-02 0.  1.
       -1    1    3    3    0  502  0.19077358495E+03 -0.12735107648E+03  0.29503733049E+03  0.37371096292E+03  0.50400001928E-02 0. -1.
</event>
<event>
 5   0  0.7123340E-02  0.5979740E+03  0.7818609E-02  0.9909618E-01
       -1   -1    0    0    0  501  0.00000000000E+00  0.00000000000E+00  0.14600132400E+03  0.14600132409E+03  0.50400001928E-02 0.  1.
        1   -1    0    0  501    0  0.00000000000E+00  0.00000000000E+00 -0.61227676383E+03  0.61227676385E+03  0.50400001928E-02 0. -1.
    10030    2    1    2    0    0  0.00000000000E+00  0.00000000000E+00 -0.46627543983E+03  0.75827808794E+03  0.59797397340E+03 0.  0.
        2    1    3    3  502    0  0.20290857121E+03 -0.21105905285E+03 -0.15626028346E+03  0.33186606976E+03  0.25500000920E-02 0. -1.
       -2    1    3    3    0  502 -0.20290857121E+03  0.21105905285E+03 -0.31001515637E+03  0.42641201818E+03  0.25500000920E-02 0.  1.
</event>
<event>
 5   0  0.7266519E-02  0.5945522E+03  0.7818609E-02  0.9916773E-01
       -1   -1    0    0    0  501  0.00000000000E+00  0.00000000000E+00  0.43872788212E+03  0.43872788215E+03  0.50400001928E-02 0.  1.
        1   -1    0    0  501    0  0.00000000000E+00  0.00000000000E+00 -0.20143027396E+03  0.20143027402E+03  0.50400001928E-02 0. -1.
    10030    2    1    2    0    0  0.00000000000E+00  0.00000000000E+00  0.23729760816E+03  0.64015815618E+03  0.59455219290E+03 0.  0.
        4    1    3    3  502    0 -0.65986461524E+02 -0.28086817105E+03  0.19576926387E+03  0.34866654584E+03  0.12699999809E+01 0. -1.
       -4    1    3    3    0  502  0.65986461524E+02  0.28086817105E+03  0.41528344295E+02  0.29149161033E+03  0.12699999809E+01 0.  1.
</event>
<event>
 5   0  0.7266519E-02  0.6071960E+03  0.7818609E-02  0.9890588E-01
        1   -1    0    0  501    0  0.00000000000E+00  0.00000000000E+00  0.41754762467E+03  0.41754762470E+03  0.50400001928E-02 0.  1.
       -1   -1    0    0    0  501  0.00000000000E+00  0.00000000000E+00 -0.22074544555E+03  0.22074544561E+03  0.50400001928E-02 0. -1.
    10030    2    1    2    0    0  0.00000000000E+00  0.00000000000E+00  0.19680217911E+03  0.63829307031E+03  0.60719596993E+03 0.  0.
        4    1    3    3  502    0  0.19391666238E+03  0.22999815329E+03  0.55477279046E+02  0.30591201979E+03  0.12699999809E+01 0.  1.
       -4    1    3    3    0  502 -0.19391666238E+03 -0.22999815329E+03  0.14132490006E+03  0.33238105052E+03  0.12699999809E+01 0. -1.
</event>
<event>
 5   0  0.7263385E-02  0.6217209E+03  0.7818609E-02  0.9861339E-01
       -1   -1    0    0    0  501  0.00000000000E+00  0.00000000000E+00  0.96396670180E+02  0.96396670312E+02  0.50400001928E-02 0. -1.
        1   -1    0    0  501    0  0.00000000000E+00  0.00000000000E+00 -0.10024641885E+04  0.10024641885E+04  0.50400001928E-02 0.  1.
    10030    2    1    2    0    0  0.00000000000E+00  0.00000000000E+00 -0.90606751833E+03  0.10988608588E+04  0.62172086929E+03 0.  0.
        1    1    3    3  502    0  0.22598269281E+03  0.20614770193E+03 -0.55095047424E+03  0.63016781697E+03  0.50400001928E-02 0.  1.
       -1    1    3    3    0  502 -0.22598269281E+03 -0.20614770193E+03 -0.35511704409E+03  0.46869304186E+03  0.50400001928E-02 0. -1.
</event>
<event>
 5   0  0.1206238E-01  0.6104060E+03  0.7818609E-02  0.9884049E-01
       -2   -1    0    0    0  501  0.00000000000E+00  0.00000000000E+00  0.10257050405E+03  0.10257050408E+03  0.25500000920E-02 0. -1.
        2   -1    0    0  501    0  0.00000000000E+00  0.00000000000E+00 -0.90814495439E+03  0.90814495440E+03  0.25500000920E-02 0.  1.
    10030    2    1    2    0    0  0.00000000000E+00  0.00000000000E+00 -0.80557445034E+03  0.10107154585E+04  0.61040604762E+03 0.  0.
        5    1    3    3  502    0  0.58651931988E+02  0.14140701143E+03 -0.83990434587E+03  0.85375487829E+03  0.46999998093E+01 0.  1.
       -5    1    3    3    0  502 -0.58651931988E+02 -0.14140701143E+03  0.34329895528E+02  0.15696058018E+03  0.46999998093E+01 0. -1.
</event>
<event>
 5   0  0.1219020E-01  0.6025714E+03  0.7818609E-02  0.9900086E-01
       -2   -1    0    0    0  501  0.00000000000E+00  0.00000000000E+00  0.23565161714E+03  0.23565161716E+03  0.25500000920E-02 0. -1.
        2   -1    0    0  501    0  0.00000000000E+00  0.00000000000E+00 -0.38520025861E+03  0.38520025862E+03  0.25500000920E-02 0.  1.
    10030    2    1    2    0    0  0.00000000000E+00  0.00000000000E+00 -0.14954864147E+03  0.62085187577E+03  0.60257136962E+03 0.  0.
        2    1    3    3  502    0  0.26712405397E+03 -0.14225000668E+02 -0.21759951336E+03  0.34482917376E+03  0.25500000920E-02 0.  1.
       -2    1    3    3    0  502 -0.26712405397E+03  0.14225000668E+02  0.68050871894E+02  0.27602270201E+03  0.25500000920E-02 0. -1.
</event>
<event>
 5   0  0.7123340E-02  0.6056105E+03  0.7818609E-02  0.9893834E-01
        1   -1    0    0  501    0  0.00000000000E+00  0.00000000000E+00  0.35216352587E+03  0.35216352590E+03  0.50400001928E-02 0. -1.
       -1   -1    0    0    0  501  0.00000000000E+00  0.00000000000E+00 -0.26036491510E+03  0.26036491515E+03  0.50400001928E-02 0.  1.
    10030    2    1    2    0    0  0.00000000000E+00  0.00000000000E+00  0.91798610768E+02  0.61252844105E+03  0.60561052349E+03 0.  0.
        2    1    3    3  502    0 -0.19070673421E+03 -0.22156578705E+03 -0.33936321142E+02  0.29429938899E+03  0.25500000920E-02 0.  1.
       -2    1    3    3    0  502  0.19070673421E+03  0.22156578705E+03  0.12573493191E+03  0.31822905206E+03  0.25500000920E-02 0. -1.
</event>
<event>
 5   0  0.7266519E-02  0.5986409E+03  0.7818609E-02  0.9908230E-01
       -1   -1    0    0    0  501  0.00000000000E+00  0.00000000000E+00  0.11923108994E+03  0.11923109005E+03  0.50400001928E-02 0.  1.
        1   -1    0    0  501    0  0.00000000000E+00  0.00000000000E+00 -0.75142078371E+03  0.75142078372E+03  0.50400001928E-02 0. -1.
    10030    2    1    2    0    0  0.00000000000E+00  0.00000000000E+00 -0.63218969377E+03  0.87065187377E+03  0.59864085761E+03 0.  0.
        4    1    3    3  502    0  0.21666898108E+03 -0.33418859833E+01 -0.15792501550E+02  0.21727317268E+03  0.12699999809E+01 0.  1.
       -4    1    3    3    0  502 -0.21666898108E+03  0.33418859833E+01 -0.61639719222E+03  0.65337870109E+03  0.12699999809E+01 0. -1.
</event>
<event>
 5   0  0.7424930E-02  0.5830078E+03  0.7818609E-02  0.9941300E-01
        1   -1    0    0  501    0  0.00000000000E+00  0.00000000000E+00  0.37804188837E+03  0.37804188841E+03  0.50400001928E-02 0. -1.
       -1   -1    0    0    0  501  0.00000000000E+00  0.00000000000E+00 -0.22477544584E+03  0.22477544590E+03  0.50400001928E-02 0.  1.
    10030    2    1    2    0    0  0.00000000000E+00  0.00000000000E+00  0.15326644253E+03  0.60281733430E+03  0.58300783540E+03 0.  0.
        3    1    3    3  502    0 -0.14255697910E+03 -0.18699036176E+03  0.25478568610E+03  0.34670397132E+03  0.10100000352E+00 0. -1.
       -3    1    3    3    0  502  0.14255697910E+03  0.18699036176E+03 -0.10151924357E+03  0.25611336299E+03  0.10100000352E+00 0.  1.
</event>
<event>
 5   0  0.7263385E-02  0.5868246E+03  0.7818609E-02  0.9933124E-01
       -1   -1    0    0    0  501  0.00000000000E+00  0.00000000000E+00  0.29290920975E+03  0.29290920979E+03  0.50400001928E-02 0. -1.
        1   -1    0    0  501    0  0.00000000000E+00  0.00000000000E+00 -0.29391622179E+03  0.29391622183E+03  0.50400001928E-02 0.  1.
    10030    2    1    2    0    0  0.00000000000E+00  0.00000000000E+00 -0.10070120397E+01  0.58682543162E+03  0.58682456759E+03 0.  0.
        1    1    3    3  502    0 -0.70061051371E+02 -0.39017127757E+02  0.28173773062E+03  0.29292838042E+03  0.50400001928E-02 0. -1.
       -1    1    3    3    0  502  0.70061051371E+02  0.39017127757E+02 -0.28274474266E+03  0.29389705120E+03  0.50400001928E-02 0.  1.
</event>
<event>
 5   0  0.7123340E-02  0.5942515E+03  0.7818609E-02  0.9917405E-01
       -1   -1    0    0    0  501  0.00000000000E+00  0.00000000000E+00  0.92233869262E+02  0.92233869400E+02  0.50400001928E-02 0. -1.
        1   -1    0    0  501    0  0.00000000000E+00  0.00000000000E+00 -0.95717228459E+03  0.95717228460E+03  0.50400001928E-02 0.  1.
    10030    2    1    2    0    0  0.00000000000E+00  0.00000000000E+00 -0.86493841532E+03  0.10494061540E+04  0.59425147349E+03 0.  0.
        2    1    3    3  502    0  0.21806969091E+03 -0.34970996742E+02 -0.81469501480E+02  0.23540314438E+03  0.25500000920E-02 0. -1.
       -2    1    3    3    0  502 -0.21806969091E+03  0.34970996742E+02 -0.78346891384E+03  0.81400300962E+03  0.25500000920E-02 0.  1.
</event>
<event>
 5   0  0.7266519E-02  0.5906682E+03  0.7818609E-02  0.9924958E-01
       -1   -1    0    0    0  501  0.00000000000E+00  0.00000000000E+00  0.36178949714E+03  0.36178949717E+03  0.50400001928E-02 0. -1.
        1   -1    0    0  501    0  0.00000000000E+00  0.00000000000E+00 -0.24108555424E+03  0.24108555429E+03  0.50400001928E-02 0.  1.
    10030    2    1    2    0    0  0.00000000000E+00  0.00000000000E+00  0.12070394290E+03  0.60287505146E+03  0.59066816898E+03 0.  0.
        4    1    3    3  502    0  0.17463693144E+03  0.13361473227E+03 -0.14087633969E+03  0.26114882823E+03  0.12699999809E+01 0.  1.
       -4    1    3    3    0  502 -0.17463693144E+03 -0.13361473227E+03  0.26158028259E+03  0.34172622323E+03  0.12699999809E+01 0. -1.
</event>
<event>
 5   0  0.7424930E-02  0.6003906E+03  0.7818609E-02  0.9904596E-01
       -1   -1    0    0    0  501  0.00000000000E+00  0.00000000000E+00  0.13124651048E+03  0.13124651057E+03  0.50400001928E-02 0. -1.
        1   -1    0    0  501    0  0.00000000000E+00  0.00000000000E+00 -0.68662552120E+03  0.68662552122E+03  0.50400001928E-02 0.  1.
    10030    2    1    2    0    0  0.00000000000E+00  0.00000000000E+00 -0.55537901072E+03  0.81787203179E+03  0.60039055192E+03 0.  0.
        3    1    3    3  502    0 -0.21813513474E+03  0.19200506344E+03 -0.17512941713E+03  0.33929221084E+03  0.10100000352E+00 0. -1.
       -3    1    3    3    0  502  0.21813513474E+03 -0.19200506344E+03 -0.38024959359E+03  0.47857982095E+03  0.10100000352E+00 0.  1.
</event>
<event>
 5   0  0.1219020E-01  0.6335661E+03  0.7818609E-02  0.9838114E-01
        2   -1    0    0  501    0  0.00000000000E+00  0.00000000000E+00  0.68257848335E+03  0.68257848336E+03  0.25500000920E-02 0. -1.
       -2   -1    0    0    0  501  0.00000000000E+00  0.00000000000E+00 -0.14701826530E+03  0.14701826532E+03  0.25500000920E-02 0.  1.
    10030    2    1    2    0    0  0.00000000000E+00  0.00000000000E+00  0.53556021805E+03  0.82959674868E+03  0.63356611199E+03 0.  0.
        2    1    3    3  502    0  0.87013468006E+02  0.30432076982E+03  0.25075628972E+03  0.40380835974E+03  0.25500000920E-02 0. -1.
       -2    1    3    3    0  502 -0.87013468006E+02 -0.30432076982E+03  0.28480392833E+03  0.42578838894E+03  0.25500000920E-02 0.  1.
</event>
<event>
 5   0  0.7221069E-02  0.6127276E+03  0.7818609E-02  0.9879347E-01
       -1   -1    0    0    0  501  0.00000000000E+00  0.00000000000E+00  0.32941873165E+03  0.32941873169E+03  0.50400001928E-02 0. -1.
        1   -1    0    0  501    0  0.00000000000E+00  0.00000000000E+00 -0.28492240486E+03  0.28492240491E+03  0.50400001928E-02 0.  1.
    10030    2    1    2    0    0  0.00000000000E+00  0.00000000000E+00  0.44496326788E+02  0.61434113660E+03  0.61272759773E+03 0.  0.
        5    1    3    3  502    0  0.12128511986E+03 -0.27999760631E+03  0.49299713737E+02  0.30912989440E+03  0.46999998093E+01 0. -1.
       -5    1    3    3    0  502 -0.12128511986E+03  0.27999760631E+03 -0.48033869483E+01  0.30521124220E+03  0.46999998093E+01 0.  1.
</event>
<event>
 5   0  0.1166419E-01  0.5944509E+03  0.7818609E-02  0.9916986E-01
       -2   -1    0    0    0  501  0.00000000000E+00  0.00000000000E+00  0.22114680331E+03  0.22114680333E+03  0.25500000920E-02 0.  1.
        2   -1    0    0  501    0  0.00000000000E+00  0.00000000000E+00 -0.39947655728E+03  0.39947655729E+03  0.25500000920E-02 0. -1.
    10030    2    1    2    0    0  0.00000000000E+00  0.00000000000E+00 -0.17832975397E+03  0.62062336062E+03  0.59445088493E+03 0.  0.
        1    1    3    3  502    0  0.24229693746E+03  0.16836484983E+03 -0.12664002942E+03  0.32107978080E+03  0.50400001928E-02 0.  1.
       -1    1    3    3    0  502 -0.24229693746E+03 -0.16836484983E+03 -0.51689724548E+02  0.29954357982E+03  0.50400001928E-02 0. -1.
</event>
<event>
 5   0  0.7424930E-02  0.6003687E+03  0.7818609E-02  0.9904642E-01
        1   -1    0    0  501    0  0.00000000000E+00  0.00000000000E+00  0.15303273498E+03  0.15303273506E+03  0.50400001928E-02 0. -1.
       -1   -1    0    0    0  501  0.00000000000E+00  0.00000000000E+00 -0.58883239188E+03  0.58883239190E+03  0.50400001928E-02 0.  1.
    10030    2    1    2    0    0  0.00000000000E+00  0.00000000000E+00 -0.43579965690E+03  0.74186512696E+03  0.60036865812E+03 0.  0.
        3    1    3    3  502    0  0.22424029139E+02 -0.24156841734E+01 -0.58778393594E+03  0.58821648919E+03  0.10100000352E+00 0.  1.
       -3    1    3    3    0  502 -0.22424029139E+02  0.24156841734E+01  0.15198427904E+03  0.15364863777E+03  0.10100000352E+00 0. -1.
</event>
<event>
 5   0  0.1166419E-01  0.5769268E+03  0.7818609E-02  0.9954467E-01
        2   -1    0    0  501    0  0.00000000000E+00  0.00000000000E+00  0.86326161745E+03  0.86326161746E+03  0.25500000920E-02 0.  1.
       -2   -1    0    0    0  501  0.00000000000E+00  0.00000000000E+00 -0.96391546714E+02  0.96391546748E+02  0.25500000920E-02 0. -1.
    10030    2    1    2    0    0  0.00000000000E+00  0.00000000000E+00  0.76687007074E+03  0.95965316421E+03  0.57692676327E+03 0.  0.
        1    1    3    3  502    0  0.69773990627E+02  0.23395716666E+03  0.63900615619E+03  0.68405645474E+03  0.50400001928E-02 0.  1.
       -1    1    3    3    0  502 -0.69773990627E+02 -0.23395716666E+03  0.12786391455E+03  0.27559670947E+03  0.50400001928E-02 0. -1.
</event>
<event>
 5   0  0.7263385E-02  0.6384139E+03  0.7818609E-02  0.9828766E-01
       -1   -1    0    0    0  501  0.00000000000E+00  0.00000000000E+00  0.26527226802E+03  0.26527226807E+03  0.50400001928E-02 0.  1.
        1   -1    0    0  501    0  0.00000000000E+00  0.00000000000E+00 -0.38410756551E+03  0.38410756555E+03  0.50400001928E-02 0. -1.
    10030    2    1    2    0    0  0.00000000000E+00  0.00000000000E+00 -0.11883529749E+03  0.64937983361E+03  0.63841392558E+03 0.  0.
        1    1    3    3  502    0 -0.15628580884E+03  0.23986968434E+03 -0.20301752915E+03  0.35096842689E+03  0.50400001928E-02 0. -1.
       -1    1    3    3    0  502  0.15628580884E+03 -0.23986968434E+03  0.84182231654E+02  0.29841140672E+03  0.50400001928E-02 0.  1.
</event>
<event>
 5   0  0.1206238E-01  0.5820117E+03  0.7818609E-02  0.9943445E-01
        2   -1    0    0  501    0  0.00000000000E+00  0.00000000000E+00  0.20058465032E+04  0.20058465032E+04  0.25500000920E-02 0.  1.
       -2   -1    0    0    0  501  0.00000000000E+00  0.00000000000E+00 -0.42218780130E+02  0.42218780207E+02  0.25500000920E-02 0. -1.
    10030    2    1    2    0    0  0.00000000000E+00  0.00000000000E+00  0.19636277230E+04  0.20480652834E+04  0.58201165820E+03 0.  0.
        5    1    3    3  502    0 -0.49759870846E+02  0.14311583261E+03  0.18559300841E+04  0.18621108327E+04  0.46999998093E+01 0.  1.
       -5    1    3    3    0  502  0.49759870846E+02 -0.14311583261E+03  0.10769763897E+03  0.18595445068E+03  0.46999998093E+01 0. -1.
</event>
<event>
 5   0  0.7123340E-02  0.6005569E+03  0.7818609E-02  0.9904251E-01
       -1   -1    0    0    0  501  0.00000000000E+00  0.00000000000E+00  0.74193534316E+03  0.74193534317E+03  0.50400001928E-02 0.  1.
        1   -1    0    0  501    0  0.00000000000E+00  0.00000000000E+00 -0.12152965158E+03  0.12152965168E+03  0.50400001928E-02 0. -1.
    10030    2    1    2    0    0  0.00000000000E+00  0.00000000000E+00  0.62040569158E+03  0.86346499486E+03  0.60055688757E+03 0.  0.
        2    1    3    3  502    0 -0.27817814435E+02 -0.29368774384E+03  0.22962563063E+03  0.37383719977E+03  0.25500000920E-02 0.  1.
       -2    1    3    3    0  502  0.27817814435E+02  0.29368774384E+03  0.39078006095E+03  0.48962779509E+03  0.25500000920E-02 0. -1.
</event>
<event>
 5   0  0.1175861E-01  0.5941254E+03  0.7818609E-02  0.9917669E-01
        2   -1    0    0  501    0  0.00000000000E+00  0.00000000000E+00  0.67155060105E+03  0.67155060106E+03  0.25500000920E-02 0.  1.
       -2   -1    0    0    0  501  0.00000000000E+00  0.00000000000E+00 -0.13140671821E+03  0.13140671824E+03  0.25500000920E-02 0. -1.
    10030    2    1    2    0    0  0.00000000000E+00  0.00000000000E+00  0.54014388284E+03  0.80295731929E+03  0.59412544335E+03 0.  0.
        3    1    3    3  502    0 -0.62425176238E+02  0.28578176718E+03  0.34001265879E+03  0.44852730064E+03  0.10100000352E+00 0. -1.
       -3    1    3    3    0  502  0.62425176238E+02 -0.28578176718E+03  0.20013122405E+03  0.35443001865E+03  0.10100000352E+00 0.  1.
</event>
<event>
 5   0  0.1219020E-01  0.6079560E+03  0.7818609E-02  0.9889036E-01
       -2   -1    0    0    0  501  0.00000000000E+00  0.00000000000E+00  0.62398250373E+02  0.62398250425E+02  0.25500000920E-02 0.  1.
        2   -1    0    0  501    0  0.00000000000E+00  0.00000000000E+00 -0.14808529387E+04  0.14808529387E+04  0.25500000920E-02 0. -1.
    10030    2    1    2    0    0  0.00000000000E+00  0.00000000000E+00 -0.14184546884E+04  0.15432511892E+04  0.60795602630E+03 0.  0.
        2    1    3    3  502    0  0.56935156942E+02  0.75782321883E+02 -0.14423801407E+04  0.14454912808E+04  0.25500000920E-02 0. -1.
       -2    1    3    3    0  502 -0.56935156942E+02 -0.75782321883E+02  0.23925452388E+02  0.97759908370E+02  0.25500000920E-02 0.  1.
</event>
<event>
 5   0  0.4695625E-02  0.5929880E+03  0.7818609E-02  0.9920061E-01
       -4   -1    0    0    0  501  0.00000000000E+00  0.00000000000E+00  0.10504838171E+03  0.10505605836E+03  0.12699999809E+01 0. -1.
        4   -1    0    0  501    0  0.00000000000E+00  0.00000000000E+00 -0.83680140278E+03  0.83680236650E+03  0.12699999809E+01 0.  1.
    10030    2    1    2    0    0  0.00000000000E+00  0.00000000000E+00 -0.73175302107E+03  0.94185842487E+03  0.59298803415E+03 0.  0.
        3    1    3    3  502    0  0.22462558040E+03  0.18630333260E+03 -0.28268840811E+03  0.40629832561E+03  0.10100000352E+00 0. -1.
       -3    1    3    3    0  502 -0.22462558040E+03 -0.18630333260E+03 -0.44906461296E+03  0.53556009926E+03  0.10100000352E+00 0.  1.
</event>
<event>
 5   0  0.1206238E-01  0.6070042E+03  0.7818609E-02  0.9890980E-01
        2   -1    0    0  501    0  0.00000000000E+00  0.00000000000E+00  0.33737743287E+03  0.33737743288E+03  0.25500000920E-02 0.  1.
       -2   -1    0    0    0  501  0.00000000000E+00  0.00000000000E+00 -0.27302808890E+03  0.27302808891E+03  0.25500000920E-02 0. -1.
    10030    2    1    2    0    0  0.00000000000E+00  0.00000000000E+00  0.64349343971E+02  0.61040552179E+03  0.60700417046E+03 0.  0.
        5    1    3    3  502    0 -0.22206893681E+03  0.20514078567E+03  0.56818171483E+01  0.30240986704E+03  0.46999998093E+01 0. -1.
       -5    1    3    3    0  502  0.22206893681E+03 -0.20514078567E+03  0.58667526823E+02  0.30799565474E+03  0.46999998093E+01 0.  1.
</event>
<event>
 5   0  0.1206238E-01  0.6060341E+03  0.7818609E-02  0.9892966E-01
       -2   -1    0    0    0  501  0.00000000000E+00  0.00000000000E+00  0.62693439919E+02  0.62693439971E+02  0.25500000920E-02 0. -1.
        2   -1    0    0  501    0  0.00000000000E+00  0.00000000000E+00 -0.14645762723E+04  0.14645762723E+04  0.25500000920E-02 0.  1.
    10030    2    1    2    0    0  0.00000000000E+00  0.00000000000E+00 -0.14018828324E+04  0.15272697123E+04  0.60603407355E+03 0.  0.
        5    1    3    3  502    0 -0.10774301310E+03  0.19228918718E+03 -0.12248175939E+04  0.12445014731E+04  0.46999998093E+01 0.  1.
       -5    1    3    3    0  502  0.10774301310E+03 -0.19228918718E+03 -0.17706523851E+03  0.28276823914E+03  0.46999998093E+01 0. -1.
</event>
<event>
 5   0  0.1175861E-01  0.5978591E+03  0.7818609E-02  0.9909858E-01
        2   -1    0    0  501    0  0.00000000000E+00  0.00000000000E+00  0.78515922600E+03  0.78515922601E+03  0.25500000920E-02 0.  1.
       -2   -1    0    0    0  501  0.00000000000E+00  0.00000000000E+00 -0.11380987052E+03  0.11380987055E+03  0.25500000920E-02 0. -1.
    10030    2    1    2    0    0  0.00000000000E+00  0.00000000000E+00  0.67134935548E+03  0.89896909656E+03  0.59785907994E+03 0.  0.
        3    1    3    3  502    0  0.15265381563E+03 -0.14724034633E+03  0.65242697824E+03  0.68603489645E+03  0.10100000352E+00 0.  1.
       -3    1    3    3    0  502 -0.15265381563E+03  0.14724034633E+03  0.18922377239E+02  0.21293420011E+03  0.10100000352E+00 0. -1.
</event>
<event>
 5   0  0.1166419E-01  0.6005804E+03  0.7818609E-02  0.9904203E-01
       -2   -1    0    0    0  501  0.00000000000E+00  0.00000000000E+00  0.94579324474E+02  0.94579324508E+02  0.25500000920E-02 0.  1.
        2   -1    0    0  501    0  0.00000000000E+00  0.00000000000E+00 -0.95342400853E+03  0.95342400853E+03  0.25500000920E-02 0. -1.
    10030    2    1    2    0    0  0.00000000000E+00  0.00000000000E+00 -0.85884468405E+03  0.10480033330E+04  0.60058038158E+03 0.  0.
        1    1    3    3  502    0 -0.78262050839E+02 -0.21006987071E+03 -0.77806959029E+03  0.80972006678E+03  0.50400001928E-02 0. -1.
       -1    1    3    3    0  502  0.78262050839E+02  0.21006987071E+03 -0.80775093763E+02  0.23828326626E+03  0.50400001928E-02 0.  1.
</event>
<event>
 5   0  0.7221069E-02  0.5792621E+03  0.7818609E-02  0.9949390E-01
       -1   -1    0    0    0  501  0.00000000000E+00  0.00000000000E+00  0.51120063622E+02  0.51120063871E+02  0.50400001928E-02 0. -1.
        1   -1    0    0  501    0  0.00000000000E+00  0.00000000000E+00 -0.16409634312E+04  0.16409634312E+04  0.50400001928E-02 0.  1.
    10030    2    1    2    0    0  0.00000000000E+00  0.00000000000E+00 -0.15898433676E+04  0.16920834951E+04  0.57926213486E+03 0.  0.
        5    1    3    3  502    0  0.16910072483E+03 -0.10801691726E+02 -0.14809287592E+04  0.14905984743E+04  0.46999998093E+01 0.  1.
       -5    1    3    3    0  502 -0.16910072483E+03  0.10801691726E+02 -0.10891460832E+03  0.20148502075E+03  0.46999998093E+01 0. -1.
</event>
<event>
 5   0  0.7263385E-02  0.5967143E+03  0.7818609E-02  0.9912246E-01
       -1   -1    0    0    0  501  0.00000000000E+00  0.00000000000E+00  0.20584110848E+03  0.20584110855E+03  0.50400001928E-02 0. -1.
        1   -1    0    0  501    0  0.00000000000E+00  0.00000000000E+00 -0.43245492771E+03  0.43245492774E+03  0.50400001928E-02 0.  1.
    10030    2    1    2    0    0  0.00000000000E+00  0.00000000000E+00 -0.22661381922E+03  0.63829603628E+03  0.59671434277E+03 0.  0.
        1    1    3    3  502    0  0.21387498699E+03  0.20802321439E+03 -0.11428372946E+03  0.31949481784E+03  0.50400001928E-02 0.  1.
       -1    1    3    3    0  502 -0.21387498699E+03 -0.20802321439E+03 -0.11233008977E+03  0.31880121844E+03  0.50400001928E-02 0. -1.
</event>
<event>
 5   0  0.4695625E-02  0.5071226E+03  0.7818609E-02  0.1011936E+00
       -3   -1    0    0    0  501  0.00000000000E+00  0.00000000000E+00  0.19761593775E+03  0.19761596356E+03  0.10100000352E+00 0.  1.
        3   -1    0    0  501    0  0.00000000000E+00  0.00000000000E+00 -0.32534483549E+03  0.32534485117E+03  0.10100000352E+00 0. -1.
    10030    2    1    2    0    0  0.00000000000E+00  0.00000000000E+00 -0.12772889774E+03  0.52296081473E+03  0.50712261084E+03 0.  0.
        1    1    3    3  502    0 -0.12442076086E+03 -0.13744979686E+03  0.11451285869E+03  0.21791321029E+03  0.50400001928E-02 0.  1.
       -1    1    3    3    0  502  0.12442076086E+03  0.13744979686E+03 -0.24224175643E+03  0.30504760444E+03  0.50400001928E-02 0. -1.
</event>
<event>
 5   0  0.1219020E-01  0.5892684E+03  0.7818609E-02  0.9927924E-01
        2   -1    0    0  501    0  0.00000000000E+00  0.00000000000E+00  0.12275164152E+03  0.12275164154E+03  0.25500000920E-02 0. -1.
       -2   -1    0    0    0  501  0.00000000000E+00  0.00000000000E+00 -0.70719468948E+03  0.70719468949E+03  0.25500000920E-02 0.  1.
    10030    2    1    2    0    0  0.00000000000E+00  0.00000000000E+00 -0.58444304796E+03  0.82994633103E+03  0.58926839053E+03 0.  0.
        2    1    3    3  502    0  0.26368453011E+03 -0.13055464726E+03 -0.31382444377E+03  0.43018580736E+03  0.25500000920E-02 0.  1.
       -2    1    3    3    0  502 -0.26368453011E+03  0.13055464726E+03 -0.27061860420E+03  0.39976052367E+03  0.25500000920E-02 0. -1.
</event>
<event>
 5   0  0.7123340E-02  0.5998095E+03  0.7818609E-02  0.9905801E-01
        1   -1    0    0  501    0  0.00000000000E+00  0.00000000000E+00  0.83038376167E+03  0.83038376168E+03  0.50400001928E-02 0. -1.
       -1   -1    0    0    0  501  0.00000000000E+00  0.00000000000E+00 -0.10831479374E+03  0.10831479386E+03  0.50400001928E-02 0.  1.
    10030    2    1    2    0    0  0.00000000000E+00  0.00000000000E+00  0.72206896792E+03  0.93869855554E+03  0.59980945619E+03 0.  0.
        2    1    3    3  502    0  0.89408751859E+02 -0.90532366853E+02 -0.63978435427E+02  0.14241936162E+03  0.25500000920E-02 0.  1.
       -2    1    3    3    0  502 -0.89408751859E+02  0.90532366853E+02  0.78604740335E+03  0.79627919392E+03  0.25500000920E-02 0. -1.
</event>
<event>
 5   0  0.1166419E-01  0.6034629E+03  0.7818609E-02  0.9898248E-01
        2   -1    0    0  501    0  0.00000000000E+00  0.00000000000E+00  0.16798498608E+04  0.16798498608E+04  0.25500000920E-02 0.  1.
       -2   -1    0    0    0  501  0.00000000000E+00  0.00000000000E+00 -0.54196436442E+02  0.54196436502E+02  0.25500000920E-02 0. -1.
    10030    2    1    2    0    0  0.00000000000E+00  0.00000000000E+00  0.16256534244E+04  0.17340462973E+04  0.60346292767E+03 0.  0.
        1    1    3    3  502    0 -0.37658696598E+02  0.24725327580E+03  0.12978388775E+04  0.13217178639E+04  0.50400001928E-02 0.  1.
       -1    1    3    3    0  502  0.37658696598E+02 -0.24725327580E+03  0.32781454689E+03  0.41232843341E+03  0.50400001928E-02 0. -1.
</event>
<event>
 5   0  0.1206238E-01  0.5869842E+03  0.7818609E-02  0.9932784E-01
       -2   -1    0    0    0  501  0.00000000000E+00  0.00000000000E+00  0.44857862374E+03  0.44857862375E+03  0.25500000920E-02 0. -1.
        2   -1    0    0  501    0  0.00000000000E+00  0.00000000000E+00 -0.19202342706E+03  0.19202342708E+03  0.25500000920E-02 0.  1.
    10030    2    1    2    0    0  0.00000000000E+00  0.00000000000E+00  0.25655519667E+03  0.64060205083E+03  0.58698417235E+03 0.  0.
        5    1    3    3  502    0 -0.35193022289E+02  0.23310194570E+03 -0.62443895956E+02  0.24391883086E+03  0.46999998093E+01 0.  1.
       -5    1    3    3    0  502  0.35193022289E+02 -0.23310194570E+03  0.31899909263E+03  0.39668321997E+03  0.46999998093E+01 0. -1.
</event>
<event>
 5   0  0.4695625E-02  0.5388091E+03  0.7818609E-02  0.1004118E+00
       -3   -1    0    0    0  501  0.00000000000E+00  0.00000000000E+00  0.18698810509E+03  0.18698813237E+03  0.10100000352E+00 0.  1.
        3   -1    0    0  501    0  0.00000000000E+00  0.00000000000E+00 -0.38814657435E+03  0.38814658749E+03  0.10100000352E+00 0. -1.
    10030    2    1    2    0    0  0.00000000000E+00  0.00000000000E+00 -0.20115846926E+03  0.57513471985E+03  0.53880907215E+03 0.  0.
        1    1    3    3  502    0  0.15041144458E+03 -0.19760684265E+02  0.13706156261E+03  0.20445038341E+03  0.50400001928E-02 0.  1.
       -1    1    3    3    0  502 -0.15041144458E+03  0.19760684265E+02 -0.33822003187E+03  0.37068433645E+03  0.50400001928E-02 0. -1.
</event>
<event>
 5   0  0.7424930E-02  0.5976261E+03  0.7818609E-02  0.9910343E-01
       -1   -1    0    0    0  501  0.00000000000E+00  0.00000000000E+00  0.27570180172E+03  0.27570180176E+03  0.50400001928E-02 0. -1.
        1   -1    0    0  501    0  0.00000000000E+00  0.00000000000E+00 -0.32386168713E+03  0.32386168717E+03  0.50400001928E-02 0.  1.
    10030    2    1    2    0    0  0.00000000000E+00  0.00000000000E+00 -0.48159885412E+02  0.59956348893E+03  0.59762613957E+03 0.  0.
        3    1    3    3  502    0  0.24402882154E+03 -0.51215450731E+02 -0.18928358796E+03  0.31305171299E+03  0.10100000352E+00 0.  1.
       -3    1    3    3    0  502 -0.24402882154E+03  0.51215450731E+02  0.14112370254E+03  0.28651177594E+03  0.10100000352E+00 0. -1.
</event>
<event>
 5   0  0.7221069E-02  0.5987277E+03  0.7818609E-02  0.9908049E-01
        1   -1    0    0  501    0  0.00000000000E+00  0.00000000000E+00  0.15108814424E+04  0.15108814424E+04  0.50400001928E-02 0. -1.
       -1   -1    0    0    0  501  0.00000000000E+00  0.00000000000E+00 -0.59315509288E+02  0.59315509502E+02  0.50400001928E-02 0.  1.
    10030    2    1    2    0    0  0.00000000000E+00  0.00000000000E+00  0.14515659331E+04  0.15701969519E+04  0.59872765898E+03 0.  0.
        5    1    3    3  502    0 -0.91955895155E+02 -0.18328818984E+03  0.15393239943E+03  0.25645218030E+03  0.46999998093E+01 0.  1.
       -5    1    3    3    0  502  0.91955895155E+02  0.18328818984E+03  0.12976335337E+04  0.13137447716E+04  0.46999998093E+01 0. -1.
</event>
<event>
 5   0  0.1166419E-01  0.5948880E+03  0.7818609E-02  0.9916069E-01
        2   -1    0    0  501    0  0.00000000000E+00  0.00000000000E+00  0.59324279195E+03  0.59324279195E+03  0.25500000920E-02 0. -1.
       -2   -1    0    0    0  501  0.00000000000E+00  0.00000000000E+00 -0.14913445488E+03  0.14913445490E+03  0.25500000920E-02 0.  1.
    10030    2    1    2    0    0  0.00000000000E+00  0.00000000000E+00  0.44410833707E+03  0.74237724685E+03  0.59488802441E+03 0.  0.
        1    1    3    3  502    0  0.63143803987E+02  0.11866158565E+03  0.55317910083E+03  0.56927570606E+03  0.50400001928E-02 0. -1.
       -1    1    3    3    0  502 -0.63143803987E+02 -0.11866158565E+03 -0.10907076376E+03  0.17310154079E+03  0.50400001928E-02 0.  1.
</event>
<event>
 5   0  0.1146468E-01  0.6116073E+03  0.7818609E-02  0.9881613E-01
        2   -1    0    0  501    0  0.00000000000E+00  0.00000000000E+00  0.49904010549E+03  0.49904010549E+03  0.25500000920E-02 0. -1.
       -2   -1    0    0    0  501  0.00000000000E+00  0.00000000000E+00 -0.18739147105E+03  0.18739147107E+03  0.25500000920E-02 0.  1.
    10030    2    1    2    0    0  0.00000000000E+00  0.00000000000E+00  0.31164863444E+03  0.68643157656E+03  0.61160725793E+03 0.  0.
        4    1    3    3  502    0  0.96188079200E+02  0.23471421768E+03  0.34751578498E+03  0.43024614382E+03  0.12699999809E+01 0. -1.
       -4    1    3    3    0  502 -0.96188079200E+02 -0.23471421768E+03 -0.35867150540E+02  0.25618543274E+03  0.12699999809E+01 0.  1.
</event>
<event>
 5   0  0.4695625E-02  0.6114731E+03  0.7818609E-02  0.9881885E-01
       -4   -1    0    0    0  501  0.00000000000E+00  0.00000000000E+00  0.19418442764E+03  0.19418858060E+03  0.12699999809E+01 0.  1.
        4   -1    0    0  501    0  0.00000000000E+00  0.00000000000E+00 -0.48136133142E+03  0.48136300677E+03  0.12699999809E+01 0. -1.
    10030    2    1    2    0    0  0.00000000000E+00  0.00000000000E+00 -0.28717690378E+03  0.67555158737E+03  0.61147311726E+03 0.  0.
        1    1    3    3  502    0 -0.66434236576E+02 -0.19149462569E+01 -0.47328683006E+03  0.47793053715E+03  0.50400001928E-02 0. -1.
       -1    1    3    3    0  502  0.66434236576E+02  0.19149462569E+01  0.18610992627E+03  0.19762105022E+03  0.50400001928E-02 0.  1.
</event>
<event>
 5   0  0.7123340E-02  0.6029605E+03  0.7818609E-02  0.9899283E-01
        1   -1    0    0  501    0  0.00000000000E+00  0.00000000000E+00  0.40697059316E+03  0.40697059319E+03  0.50400001928E-02 0.  1.
       -1   -1    0    0    0  501  0.00000000000E+00  0.00000000000E+00 -0.22333389932E+03  0.22333389937E+03  0.50400001928E-02 0. -1.
    10030    2    1    2    0    0  0.00000000000E+00  0.00000000000E+00  0.18363669384E+03  0.63030449256E+03  0.60296046140E+03 0.  0.
        2    1    3    3  502    0  0.12439124015E+03  0.15660004070E+03 -0.14400839565E+03  0.24644506771E+03  0.25500000920E-02 0. -1.
       -2    1    3    3    0  502 -0.12439124015E+03 -0.15660004070E+03  0.32764508949E+03  0.38385942485E+03  0.25500000920E-02 0.  1.
</event>
<event>
 5   0  0.1175861E-01  0.5998372E+03  0.7818609E-02  0.9905744E-01
       -2   -1    0    0    0  501  0.00000000000E+00  0.00000000000E+00  0.13011520586E+03  0.13011520588E+03  0.25500000920E-02 0.  1.
        2   -1    0    0  501    0  0.00000000000E+00  0.00000000000E+00 -0.69131942868E+03  0.69131942869E+03  0.25500000920E-02 0. -1.
    10030    2    1    2    0    0  0.00000000000E+00  0.00000000000E+00 -0.56120422282E+03  0.82143463457E+03  0.59983721055E+03 0.  0.
        3    1    3    3  502    0 -0.73059823505E+02  0.22192997094E+01 -0.67893539436E+03  0.68285865522E+03  0.10100000352E+00 0. -1.
       -3    1    3    3    0  502  0.73059823505E+02 -0.22192997094E+01  0.11773117153E+03  0.13857597935E+03  0.10100000352E+00 0.  1.
</event>
<event>
 5   0  0.7266519E-02  0.5280915E+03  0.7818609E-02  0.1006696E+00
        1   -1    0    0  501    0  0.00000000000E+00  0.00000000000E+00  0.12124669276E+04  0.12124669276E+04  0.50400001928E-02 0.  1.
       -1   -1    0    0    0  501  0.00000000000E+00  0.00000000000E+00 -0.57502727358E+02  0.57502727579E+02  0.50400001928E-02 0. -1.
    10030    2    1    2    0    0  0.00000000000E+00  0.00000000000E+00  0.11549642002E+04  0.12699696552E+04  0.52809148948E+03 0.  0.
        4    1    3    3  502    0  0.20100758265E+03  0.14329915879E+03  0.80281655629E+03  0.83991352718E+03  0.12699999809E+01 0.  1.
       -4    1    3    3    0  502 -0.20100758265E+03 -0.14329915879E+03  0.35214764394E+03  0.43005612799E+03  0.12699999809E+01 0. -1.
</event>
<event>
 5   0  0.1206238E-01  0.6290056E+03  0.7818609E-02  0.9846991E-01
        2   -1    0    0  501    0  0.00000000000E+00  0.00000000000E+00  0.13101389533E+04  0.13101389533E+04  0.25500000920E-02 0.  1.
       -2   -1    0    0    0  501  0.00000000000E+00  0.00000000000E+00 -0.75497332353E+02  0.75497332396E+02  0.25500000920E-02 0. -1.
    10030    2    1    2    0    0  0.00000000000E+00  0.00000000000E+00  0.12346416210E+04  0.13856362857E+04  0.62900555171E+03 0.  0.
        5    1    3    3  502    0 -0.17428720562E+03  0.77710561841E+02  0.66706228357E+02  0.20220477829E+03  0.46999998093E+01 0. -1.
       -5    1    3    3    0  502  0.17428720562E+03 -0.77710561841E+02  0.11679353926E+04  0.11834315074E+04  0.46999998093E+01 0.  1.
</event>
<event>
 5   0  0.7123340E-02  0.5987858E+03  0.7818609E-02  0.9907928E-01
       -1   -1    0    0    0  501  0.00000000000E+00  0.00000000000E+00  0.53926202487E+02  0.53926202722E+02  0.50400001928E-02 0.  1.
        1   -1    0    0  501    0  0.00000000000E+00  0.00000000000E+00 -0.16621993722E+04  0.16621993722E+04  0.50400001928E-02 0. -1.
    10030    2    1    2    0    0  0.00000000000E+00  0.00000000000E+00 -0.16082731697E+04  0.17161255750E+04  0.59878577181E+03 0.  0.
        2    1    3    3  502    0 -0.91521956110E+02  0.22989524944E+03 -0.32108004465E+03  0.40536463739E+03  0.25500000920E-02 0.  1.
       -2    1    3    3    0  502  0.91521956110E+02 -0.22989524944E+03 -0.12871931251E+04  0.13107609376E+04  0.25500000920E-02 0. -1.
</event>
<event>
 5   0  0.1166419E-01  0.6061172E+03  0.7818609E-02  0.9892795E-01
       -2   -1    0    0    0  501  0.00000000000E+00  0.00000000000E+00  0.52250243466E+02  0.52250243528E+02  0.25500000920E-02 0. -1.
        2   -1    0    0  501    0  0.00000000000E+00  0.00000000000E+00 -0.17577817215E+04  0.17577817215E+04  0.25500000920E-02 0.  1.
    10030    2    1    2    0    0  0.00000000000E+00  0.00000000000E+00 -0.17055314781E+04  0.18100319651E+04  0.60611722618E+03 0.  0.
        1    1    3    3  502    0  0.22306403676E+03 -0.20442351722E+03 -0.80121604059E+03  0.85644245727E+03  0.50400001928E-02 0.  1.
       -1    1    3    3    0  502 -0.22306403676E+03  0.20442351722E+03 -0.90431543748E+03  0.95358950780E+03  0.50400001928E-02 0. -1.
</event>
<event>
 5   0  0.1219020E-01  0.6151854E+03  0.7818609E-02  0.9874393E-01
       -2   -1    0    0    0  501  0.00000000000E+00  0.00000000000E+00  0.13130425592E+03  0.13130425595E+03  0.25500000920E-02 0. -1.
        2   -1    0    0  501    0  0.00000000000E+00  0.00000000000E+00 -0.72056502410E+03  0.72056502411E+03  0.25500000920E-02 0.  1.
    10030    2    1    2    0    0  0.00000000000E+00  0.00000000000E+00 -0.58926076818E+03  0.85186928005E+03  0.61518535205E+03 0.  0.
        2    1    3    3  502    0  0.21163494036E+03 -0.11865319759E+03 -0.32826191968E+02  0.24483767718E+03  0.25500000920E-02 0. -1.
       -2    1    3    3    0  502 -0.21163494036E+03  0.11865319759E+03 -0.55643457621E+03  0.60703160288E+03  0.25500000920E-02 0.  1.
</event>
<event>
 5   0  0.4695625E-02  0.5973955E+03  0.7818609E-02  0.9910824E-01
       -3   -1    0    0    0  501  0.00000000000E+00  0.00000000000E+00  0.56753542028E+03  0.56753542927E+03  0.10100000352E+00 0. -1.
        3   -1    0    0  501    0  0.00000000000E+00  0.00000000000E+00 -0.15720660516E+03  0.15720663761E+03  0.10100000352E+00 0.  1.
    10030    2    1    2    0    0  0.00000000000E+00  0.00000000000E+00  0.41032881512E+03  0.72474206688E+03  0.59739545277E+03 0.  0.
        2    1    3    3  502    0  0.25613299238E+03  0.77664569231E+02  0.36603838051E+03  0.45345340567E+03  0.25500000920E-02 0. -1.
       -2    1    3    3    0  502 -0.25613299238E+03 -0.77664569231E+02  0.44290434604E+02  0.27128866121E+03  0.25500000920E-02 0.  1.
</event>
<event>
 5   0  0.7266519E-02  0.6025996E+03  0.7818609E-02  0.9900027E-01
       -1   -1    0    0    0  501  0.00000000000E+00  0.00000000000E+00  0.67672484283E+03  0.67672484285E+03  0.50400001928E-02 0. -1.
        1   -1    0    0  501    0  0.00000000000E+00  0.00000000000E+00 -0.13414842964E+03  0.13414842974E+03  0.50400001928E-02 0.  1.
    10030    2    1    2    0    0  0.00000000000E+00  0.00000000000E+00  0.54257641319E+03  0.81087327259E+03  0.60259961836E+03 0.  0.
        4    1    3    3  502    0 -0.13791438719E+03 -0.23168417080E+03  0.45223367588E+03  0.52651195969E+03  0.12699999809E+01 0.  1.
       -4    1    3    3    0  502  0.13791438719E+03  0.23168417080E+03  0.90342737306E+02  0.28436131290E+03  0.12699999809E+01 0. -1.
</event>
<event>
 5   0  0.4695625E-02  0.5963940E+03  0.7818609E-02  0.9912916E-01
       -3   -1    0    0    0  501  0.00000000000E+00  0.00000000000E+00  0.10826719937E+04  0.10826719984E+04  0.10100000352E+00 0. -1.
        3   -1    0    0  501    0  0.00000000000E+00  0.00000000000E+00 -0.82131438296E+02  0.82131500398E+02  0.10100000352E+00 0.  1.
    10030    2    1    2    0    0  0.00000000000E+00  0.00000000000E+00  0.10005405554E+04  0.11648034988E+04  0.59639398707E+03 0.  0.
        4    1    3    3  502    0  0.14911888123E+02 -0.98255371152E+02  0.10493710872E+04  0.10540672531E+04  0.12699999809E+01 0. -1.
       -4    1    3    3    0  502 -0.14911888123E+02  0.98255371152E+02 -0.48830531875E+02  0.11073624570E+03  0.12699999809E+01 0.  1.
</event>
<event>
 5   0  0.1146468E-01  0.5923344E+03  0.7818609E-02  0.9921439E-01
       -2   -1    0    0    0  501  0.00000000000E+00  0.00000000000E+00  0.12434511389E+03  0.12434511392E+03  0.25500000920E-02 0.  1.
        2   -1    0    0  501    0  0.00000000000E+00  0.00000000000E+00 -0.70541583879E+03  0.70541583880E+03  0.25500000920E-02 0. -1.
    10030    2    1    2    0    0  0.00000000000E+00  0.00000000000E+00 -0.58107072490E+03  0.82976095271E+03  0.59233440835E+03 0.  0.
        4    1    3    3  502    0  0.15056587322E+03 -0.23976474528E+03 -0.41230452357E+03  0.50015382465E+03  0.12699999809E+01 0. -1.
       -4    1    3    3    0  502 -0.15056587322E+03  0.23976474528E+03 -0.16876620133E+03  0.32960712806E+03  0.12699999809E+01 0.  1.
</event>
<event>
 5   0  0.1206238E-01  0.5914922E+03  0.7818609E-02  0.9923216E-01
        2   -1    0    0  501    0  0.00000000000E+00  0.00000000000E+00  0.43004589468E+03  0.43004589469E+03  0.25500000920E-02 0. -1.
       -2   -1    0    0    0  501  0.00000000000E+00  0.00000000000E+00 -0.20338703085E+03  0.20338703086E+03  0.25500000920E-02 0.  1.
    10030    2    1    2    0    0  0.00000000000E+00  0.00000000000E+00  0.22665886383E+03  0.63343292555E+03  0.59149220672E+03 0.  0.
        5    1    3    3  502    0 -0.46064576651E+02 -0.23789050169E+03 -0.68187920185E+02  0.25176480786E+03  0.46999998093E+01 0.  1.
       -5    1    3    3    0  502  0.46064576651E+02  0.23789050169E+03  0.29484678402E+03  0.38166811769E+03  0.46999998093E+01 0. -1.
</event>
<event>
 5   0  0.7266519E-02  0.6189658E+03  0.7818609E-02  0.9866821E-01
        1   -1    0    0  501    0  0.00000000000E+00  0.00000000000E+00  0.10253434113E+04  0.10253434113E+04  0.50400001928E-02 0.  1.
       -1   -1    0    0    0  501  0.00000000000E+00  0.00000000000E+00 -0.93412278777E+02  0.93412278913E+02  0.50400001928E-02 0. -1.
    10030    2    1    2    0    0  0.00000000000E+00  0.00000000000E+00  0.93193113254E+03  0.11187556902E+04  0.61896579764E+03 0.  0.
        4    1    3    3  502    0 -0.11866372982E+02  0.30842671241E+03  0.50679191552E+03  0.59338647295E+03  0.12699999809E+01 0. -1.
       -4    1    3    3    0  502  0.11866372982E+02 -0.30842671241E+03  0.42513921702E+03  0.52536921730E+03  0.12699999809E+01 0.  1.
</event>
<event>
 5   0  0.1146468E-01  0.6049947E+03  0.7818609E-02  0.9895098E-01
        2   -1    0    0  501    0  0.00000000000E+00  0.00000000000E+00  0.21221687263E+03  0.21221687264E+03  0.25500000920E-02 0. -1.
       -2   -1    0    0    0  501  0.00000000000E+00  0.00000000000E+00 -0.43118456860E+03  0.43118456860E+03  0.25500000920E-02 0.  1.
    10030    2    1    2    0    0  0.00000000000E+00  0.00000000000E+00 -0.21896769597E+03  0.64340144125E+03  0.60499467991E+03 0.  0.
        4    1    3    3  502    0 -0.52934402092E+02  0.94591710331E+02 -0.40981821900E+03  0.42391299593E+03  0.12699999809E+01 0.  1.
       -4    1    3    3    0  502  0.52934402092E+02 -0.94591710331E+02  0.19085052303E+03  0.21948844532E+03  0.12699999809E+01 0. -1.
</event>
<event>
 5   0  0.4695625E-02  0.6006129E+03  0.7818609E-02  0.9904135E-01
       -3   -1    0    0    0  501  0.00000000000E+00  0.00000000000E+00  0.12402366039E+03  0.12402370151E+03  0.10100000352E+00 0.  1.
        3   -1    0    0  501    0  0.00000000000E+00  0.00000000000E+00 -0.72715115974E+03  0.72715116675E+03  0.10100000352E+00 0. -1.
    10030    2    1    2    0    0  0.00000000000E+00  0.00000000000E+00 -0.60312749935E+03  0.85117486826E+03  0.60061291685E+03 0.  0.
        4    1    3    3  502    0  0.22772511838E+02 -0.27550291062E+03 -0.46781447934E+03  0.54338976898E+03  0.12699999809E+01 0.  1.
       -4    1    3    3    0  502 -0.22772511838E+02  0.27550291062E+03 -0.13531302001E+03  0.30778509928E+03  0.12699999809E+01 0. -1.
</event>
<event>
 5   0  0.7424930E-02  0.5931887E+03  0.7818609E-02  0.9919639E-01
       -1   -1    0    0    0  501  0.00000000000E+00  0.00000000000E+00  0.13635086445E+03  0.13635086454E+03  0.50400001928E-02 0.  1.
        1   -1    0    0  501    0  0.00000000000E+00  0.00000000000E+00 -0.64516072283E+03  0.64516072284E+03  0.50400001928E-02 0. -1.
    10030    2    1    2    0    0  0.00000000000E+00  0.00000000000E+00 -0.50880985838E+03  0.78151158739E+03  0.59318874672E+03 0.  0.
        3    1    3    3  502    0  0.73476227930E+02 -0.14935794849E+03  0.69012232090E+02  0.18019226184E+03  0.10100000352E+00 0.  1.
       -3    1    3    3    0  502 -0.73476227930E+02  0.14935794849E+03 -0.57782209047E+03  0.60131932555E+03  0.10100000352E+00 0. -1.
</event>
<event>
 5   0  0.7123340E-02  0.6001105E+03  0.7818609E-02  0.9905177E-01
        1   -1    0    0  501    0  0.00000000000E+00  0.00000000000E+00  0.30067032202E+03  0.30067032206E+03  0.50400001928E-02 0.  1.
       -1   -1    0    0    0  501  0.00000000000E+00  0.00000000000E+00 -0.29944144823E+03  0.29944144828E+03  0.50400001928E-02 0. -1.
    10030    2    1    2    0    0  0.00000000000E+00  0.00000000000E+00  0.12288737828E+01  0.60011177034E+03  0.60011051213E+03 0.  0.
        2    1    3    3  502    0  0.16906094581E+03 -0.98916423849E+02 -0.22669000880E+03  0.29959042442E+03  0.25500000920E-02 0. -1.
       -2    1    3    3    0  502 -0.16906094581E+03  0.98916423849E+02  0.22791888259E+03  0.30052134592E+03  0.25500000920E-02 0.  1.
</event>
<event>
 5   0  0.7123340E-02  0.4234834E+03  0.7818609E-02  0.1035939E+00
        1   -1    0    0  501    0  0.00000000000E+00  0.00000000000E+00  0.81352183986E+03  0.81352183987E+03  0.50400001928E-02 0.  1.
       -1   -1    0    0    0  501  0.00000000000E+00  0.00000000000E+00 -0.55111660839E+02  0.55111661069E+02  0.50400001928E-02 0. -1.
    10030    2    1    2    0    0  0.00000000000E+00  0.00000000000E+00  0.75841017902E+03  0.86863350094E+03  0.42348336369E+03 0.  0.
        2    1    3    3  502    0  0.14823101702E+03  0.64503237047E+02  0.98701954235E+02  0.18940743854E+03  0.25500000920E-02 0. -1.
       -2    1    3    3    0  502 -0.14823101702E+03 -0.64503237047E+02  0.65970822478E+03  0.67922606240E+03  0.25500000920E-02 0.  1.
</event>
<event>
 5   0  0.7263385E-02  0.6152976E+03  0.7818609E-02  0.9874167E-01
        1   -1    0    0  501    0  0.00000000000E+00  0.00000000000E+00  0.13204417402E+04  0.13204417402E+04  0.50400001928E-02 0. -1.
       -1   -1    0    0    0  501  0.00000000000E+00  0.00000000000E+00 -0.71678883691E+02  0.71678883868E+02  0.50400001928E-02 0.  1.
    10030    2    1    2    0    0  0.00000000000E+00  0.00000000000E+00  0.12487628565E+04  0.13921206241E+04  0.61529761920E+03 0.  0.
        1    1    3    3  502    0 -0.29515548805E+03  0.33247453674E+02  0.44301802798E+03  0.53337334808E+03  0.50400001928E-02 0.  1.
       -1    1    3    3    0  502  0.29515548805E+03 -0.33247453674E+02  0.80574482854E+03  0.85874727600E+03  0.50400001928E-02 0. -1.
</event>
<event>
 5   0  0.7221069E-02  0.6092177E+03  0.7818609E-02  0.9886465E-01
       -1   -1    0    0    0  501  0.00000000000E+00  0.00000000000E+00  0.23835472953E+03  0.23835472958E+03  0.50400001928E-02 0. -1.
        1   -1    0    0  501    0  0.00000000000E+00  0.00000000000E+00 -0.38927931161E+03  0.38927931165E+03  0.50400001928E-02 0.  1.
    10030    2    1    2    0    0  0.00000000000E+00  0.00000000000E+00 -0.15092458209E+03  0.62763404123E+03  0.60921774451E+03 0.  0.
        5    1    3    3  502    0  0.64958669411E+02 -0.70085666570E+02  0.22247329767E+03  0.24217367232E+03  0.46999998093E+01 0. -1.
       -5    1    3    3    0  502 -0.64958669411E+02  0.70085666570E+02 -0.37339787976E+03  0.38546036890E+03  0.46999998093E+01 0.  1.
</event>
<event>
 5   0  0.7123340E-02  0.5742518E+03  0.7818609E-02  0.9960314E-01
        1   -1    0    0  501    0  0.00000000000E+00  0.00000000000E+00  0.14123619316E+04  0.14123619316E+04  0.50400001928E-02 0.  1.
       -1   -1    0    0    0  501  0.00000000000E+00  0.00000000000E+00 -0.58371215419E+02  0.58371215636E+02  0.50400001928E-02 0. -1.
    10030    2    1    2    0    0  0.00000000000E+00  0.00000000000E+00  0.13539907162E+04  0.14707331472E+04  0.57425180096E+03 0.  0.
        2    1    3    3  502    0 -0.22107912163E+03 -0.16479238199E+03  0.47196458692E+03  0.54661053639E+03  0.25500000920E-02 0. -1.
       -2    1    3    3    0  502  0.22107912163E+03  0.16479238199E+03  0.88202612927E+03  0.92412261086E+03  0.25500000920E-02 0.  1.
</event>
<event>
 5   0  0.1146468E-01  0.6082346E+03  0.7818609E-02  0.9888468E-01
        2   -1    0    0  501    0  0.00000000000E+00  0.00000000000E+00  0.25515074984E+03  0.25515074985E+03  0.25500000920E-02 0. -1.
       -2   -1    0    0    0  501  0.00000000000E+00  0.00000000000E+00 -0.36248116912E+03  0.36248116913E+03  0.25500000920E-02 0.  1.
    10030    2    1    2    0    0  0.00000000000E+00  0.00000000000E+00 -0.10733041928E+03  0.61763191898E+03  0.60823463272E+03 0.  0.
        4    1    3    3  502    0 -0.28343660490E+03 -0.10864092629E+03 -0.34761211678E+02  0.30553087340E+03  0.12699999809E+01 0.  1.
       -4    1    3    3    0  502  0.28343660490E+03  0.10864092629E+03 -0.72569207604E+02  0.31210104558E+03  0.12699999809E+01 0. -1.
</event>
<event>
 5   0  0.1146468E-01  0.6134132E+03  0.7818609E-02  0.9877962E-01
       -2   -1    0    0    0  501  0.00000000000E+00  0.00000000000E+00  0.71595079541E+02  0.71595079586E+02  0.25500000920E-02 0. -1.
        2   -1    0    0  501    0  0.00000000000E+00  0.00000000000E+00 -0.13139021839E+04  0.13139021839E+04  0.25500000920E-02 0.  1.
    10030    2    1    2    0    0  0.00000000000E+00  0.00000000000E+00 -0.12423071044E+04  0.13854972635E+04  0.61341317691E+03 0.  0.
        4    1    3    3  502    0  0.23043789544E+03 -0.74061493610E+02 -0.19570408122E+03  0.31126906174E+03  0.12699999809E+01 0. -1.
       -4    1    3    3    0  502 -0.23043789544E+03  0.74061493610E+02 -0.10466030232E+04  0.10742282018E+04  0.12699999809E+01 0.  1.
</event>
<event>
 5   0  0.1166419E-01  0.5700217E+03  0.7818609E-02  0.9969630E-01
        2   -1    0    0  501    0  0.00000000000E+00  0.00000000000E+00  0.10948982534E+04  0.10948982534E+04  0.25500000920E-02 0.  1.
       -2   -1    0    0    0  501  0.00000000000E+00  0.00000000000E+00 -0.74190636268E+02  0.74190636312E+02  0.25500000920E-02 0. -1.
    10030    2    1    2    0    0  0.00000000000E+00  0.00000000000E+00  0.10207076171E+04  0.11690888897E+04  0.57002174729E+03 0.  0.
        1    1    3    3  502    0 -0.84100963329E+02 -0.19127319078E+03  0.11280281298E+03  0.23745079530E+03  0.50400001928E-02 0. -1.
       -1    1    3    3    0  502  0.84100963329E+02  0.19127319078E+03  0.90790480415E+03  0.93163809442E+03  0.50400001928E-02 0.  1.
</event>
<event>
 5   0  0.7266519E-02  0.5484541E+03  0.7818609E-02  0.1001852E+00
        1   -1    0    0  501    0  0.00000000000E+00  0.00000000000E+00  0.66664215859E+03  0.66664215861E+03  0.50400001928E-02 0. -1.
       -1   -1    0    0    0  501  0.00000000000E+00  0.00000000000E+00 -0.11280486332E+03  0.11280486343E+03  0.50400001928E-02 0.  1.
    10030    2    1    2    0    0  0.00000000000E+00  0.00000000000E+00  0.55383729527E+03  0.77944702204E+03  0.54845410977E+03 0.  0.
        4    1    3    3  502    0  0.19387648931E+03 -0.13403175814E+03  0.77720064822E+02  0.24818264781E+03  0.12699999809E+01 0. -1.
       -4    1    3    3    0  502 -0.19387648931E+03  0.13403175814E+03  0.47611723045E+03  0.53126437423E+03  0.12699999809E+01 0.  1.
</event>
<event>
 5   0  0.7266519E-02  0.6090457E+03  0.7818609E-02  0.9886815E-01
        1   -1    0    0  501    0  0.00000000000E+00  0.00000000000E+00  0.16175440217E+03  0.16175440225E+03  0.50400001928E-02 0. -1.
       -1   -1    0    0    0  501  0.00000000000E+00  0.00000000000E+00 -0.57330232851E+03  0.57330232853E+03  0.50400001928E-02 0.  1.
    10030    2    1    2    0    0  0.00000000000E+00  0.00000000000E+00 -0.41154792634E+03  0.73505673078E+03  0.60904573045E+03 0.  0.
        4    1    3    3  502    0  0.27724321476E+03 -0.42127805947E+02 -0.62493080217E+02  0.28730741400E+03  0.12699999809E+01 0.  1.
       -4    1    3    3    0  502 -0.27724321476E+03  0.42127805947E+02 -0.34905484613E+03  0.44774931677E+03  0.12699999809E+01 0. -1.
</event>
<event>
 5   0  0.1206238E-01  0.5980250E+03  0.7818609E-02  0.9909512E-01
        2   -1    0    0  501    0  0.00000000000E+00  0.00000000000E+00  0.91321918881E+03  0.91321918882E+03  0.25500000920E-02 0.  1.
       -2   -1    0    0    0  501  0.00000000000E+00  0.00000000000E+00 -0.97904723714E+02  0.97904723747E+02  0.25500000920E-02 0. -1.
    10030    2    1    2    0    0  0.00000000000E+00  0.00000000000E+00  0.81531446510E+03  0.10111239126E+04  0.59802499075E+03 0.  0.
        5    1    3    3  502    0  0.18728055409E+03 -0.12064930092E+03  0.74477920492E+03  0.77739849101E+03  0.46999998093E+01 0.  1.
       -5    1    3    3    0  502 -0.18728055409E+03  0.12064930092E+03  0.70535260183E+02  0.23372542155E+03  0.46999998093E+01 0. -1.
</event>
<event>
 5   0  0.7221069E-02  0.5902452E+03  0.7818609E-02  0.9925853E-01
       -1   -1    0    0    0  501  0.00000000000E+00  0.00000000000E+00  0.10203102519E+03  0.10203102532E+03  0.50400001928E-02 0.  1.
        1   -1    0    0  501    0  0.00000000000E+00  0.00000000000E+00 -0.85363590695E+03  0.85363590697E+03  0.50400001928E-02 0. -1.
    10030    2    1    2    0    0  0.00000000000E+00  0.00000000000E+00 -0.75160488176E+03  0.95566693229E+03  0.59024519242E+03 0.  0.
        5    1    3    3  502    0 -0.10324544247E+03 -0.25083860319E+03 -0.56389459964E+03  0.62576260334E+03  0.46999998093E+01 0. -1.
       -5    1    3    3    0  502  0.10324544247E+03  0.25083860319E+03 -0.18771028212E+03  0.32990432894E+03  0.46999998093E+01 0.  1.
</event>
<event>
 5   0  0.7221069E-02  0.5900788E+03  0.7818609E-02  0.9926206E-01
        1   -1    0    0  501    0  0.00000000000E+00  0.00000000000E+00  0.10360094436E+04  0.10360094436E+04  0.50400001928E-02 0.  1.
       -1   -1    0    0    0  501  0.00000000000E+00  0.00000000000E+00 -0.84022638769E+02  0.84022638921E+02  0.50400001928E-02 0. -1.
    10030    2    1    2    0    0  0.00000000000E+00  0.00000000000E+00  0.95198680484E+03  0.11200320825E+04  0.59007879926E+03 0.  0.
        5    1    3    3  502    0 -0.24992414685E+02  0.31043181899E+02  0.10308051215E+04  0.10315859578E+04  0.46999998093E+01 0.  1.
       -5    1    3    3    0  502  0.24992414685E+02 -0.31043181899E+02 -0.78818316656E+02  0.88446124691E+02  0.46999998093E+01 0. -1.
</event>
<event>
 5   0  0.1219020E-01  0.5793051E+03  0.7818609E-02  0.9949296E-01
        2   -1    0    0  501    0  0.00000000000E+00  0.00000000000E+00  0.12279770450E+03  0.12279770452E+03  0.25500000920E-02 0.  1.
       -2   -1    0    0    0  501  0.00000000000E+00  0.00000000000E+00 -0.68322623341E+03  0.68322623341E+03  0.25500000920E-02 0. -1.
    10030    2    1    2    0    0  0.00000000000E+00  0.00000000000E+00 -0.56042852891E+03  0.80602393794E+03  0.57930514628E+03 0.  0.
        2    1    3    3  502    0  0.65488781011E+02 -0.24566442748E+03 -0.87126208413E+02  0.26875782327E+03  0.25500000920E-02 0.  1.
       -2    1    3    3    0  502 -0.65488781011E+02  0.24566442748E+03 -0.47330232050E+03  0.53726611467E+03  0.25500000920E-02 0. -1.
</event>
<event>
 5   0  0.7424930E-02  0.6129186E+03  0.7818609E-02  0.9878961E-01
       -1   -1    0    0    0  501  0.00000000000E+00  0.00000000000E+00  0.71989521294E+02  0.71989521471E+02  0.50400001928E-02 0.  1.
        1   -1    0    0  501    0  0.00000000000E+00  0.00000000000E+00 -0.13045969171E+04  0.13045969171E+04  0.50400001928E-02 0. -1.
    10030    2    1    2    0    0  0.00000000000E+00  0.00000000000E+00 -0.12326073958E+04  0.13765864386E+04  0.61291861669E+03 0.  0.
        3    1    3    3  502    0 -0.25019643415E+03 -0.63876942102E+02 -0.24562768351E+03  0.35638671201E+03  0.10100000352E+00 0.  1.
       -3    1    3    3    0  502  0.25019643415E+03  0.63876942102E+02 -0.98697971227E+03  0.10201997265E+04  0.10100000352E+00 0. -1.
</event>
<event>
 5   0  0.1175861E-01  0.6207258E+03  0.7818609E-02  0.9863316E-01
        2   -1    0    0  501    0  0.00000000000E+00  0.00000000000E+00  0.29865044188E+03  0.29865044189E+03  0.25500000920E-02 0. -1.
       -2   -1    0    0    0  501  0.00000000000E+00  0.00000000000E+00 -0.32253469861E+03  0.32253469862E+03  0.25500000920E-02 0.  1.
    10030    2    1    2    0    0  0.00000000000E+00  0.00000000000E+00 -0.23884256731E+02  0.62118514050E+03  0.62072580183E+03 0.  0.
        3    1    3    3  502    0  0.11555839374E+03 -0.24208955628E+03  0.14426317456E+03  0.30458655479E+03  0.10100000352E+00 0. -1.
       -3    1    3    3    0  502 -0.11555839374E+03  0.24208955628E+03 -0.16814743130E+03  0.31659858571E+03  0.10100000352E+00 0.  1.
</event>
<event>
 5   0  0.4695625E-02  0.5992761E+03  0.7818609E-02  0.9906909E-01
        3   -1    0    0  501    0  0.00000000000E+00  0.00000000000E+00  0.12136486953E+03  0.12136491155E+03  0.10100000352E+00 0.  1.
       -3   -1    0    0    0  501  0.00000000000E+00  0.00000000000E+00 -0.73977707502E+03  0.73977708192E+03  0.10100000352E+00 0. -1.
    10030    2    1    2    0    0  0.00000000000E+00  0.00000000000E+00 -0.61841220549E+03  0.86114199347E+03  0.59927612752E+03 0.  0.
        4    1    3    3  502    0 -0.29281863835E+03  0.43105812461E+02 -0.24210573936E+03  0.38238418896E+03  0.12699999809E+01 0.  1.
       -4    1    3    3    0  502  0.29281863835E+03 -0.43105812461E+02 -0.37630646613E+03  0.47875780451E+03  0.12699999809E+01 0. -1.
</event>
<event>
 5   0  0.1146468E-01  0.5991216E+03  0.7818609E-02  0.9907230E-01
       -2   -1    0    0    0  501  0.00000000000E+00  0.00000000000E+00  0.22987015843E+03  0.22987015844E+03  0.25500000920E-02 0.  1.
        2   -1    0    0  501    0  0.00000000000E+00  0.00000000000E+00 -0.39037982295E+03  0.39037982295E+03  0.25500000920E-02 0. -1.
    10030    2    1    2    0    0  0.00000000000E+00  0.00000000000E+00 -0.16050966452E+03  0.62024998140E+03  0.59912159619E+03 0.  0.
        4    1    3    3  502    0 -0.61670768732E+02  0.62358975810E+02  0.21627808099E+03  0.23338754636E+03  0.12699999809E+01 0.  1.
       -4    1    3    3    0  502  0.61670768732E+02 -0.62358975810E+02 -0.37678774551E+03  0.38686243504E+03  0.12699999809E+01 0. -1.
</event>
<event>
 5   0  0.1146468E-01  0.5943610E+03  0.7818609E-02  0.9917175E-01
        2   -1    0    0  501    0  0.00000000000E+00  0.00000000000E+00  0.89209756775E+03  0.89209756776E+03  0.25500000920E-02 0.  1.
       -2   -1    0    0    0  501  0.00000000000E+00  0.00000000000E+00 -0.98998428090E+02  0.98998428123E+02  0.25500000920E-02 0. -1.
    10030    2    1    2    0    0  0.00000000000E+00  0.00000000000E+00  0.79309913966E+03  0.99109599588E+03  0.59436102473E+03 0.  0.
        4    1    3    3  502    0  0.24161234000E+03  0.14811097038E+03  0.54570691157E+03  0.61490733336E+03  0.12699999809E+01 0.  1.
       -4    1    3    3    0  502 -0.24161234000E+03 -0.14811097038E+03  0.24739222809E+03  0.37618866252E+03  0.12699999809E+01 0. -1.
</event>
<event>
 5   0  0.7123340E-02  0.5982284E+03  0.7818609E-02  0.9909088E-01
        1   -1    0    0  501    0  0.00000000000E+00  0.00000000000E+00  0.23922817129E+03  0.23922817134E+03  0.50400001928E-02 0.  1.
       -1   -1    0    0    0  501  0.00000000000E+00  0.00000000000E+00 -0.37399152962E+03  0.37399152965E+03  0.50400001928E-02 0. -1.
    10030    2    1    2    0    0  0.00000000000E+00  0.00000000000E+00 -0.13476335833E+03  0.61321970100E+03  0.59822841703E+03 0.  0.
        2    1    3    3  502    0  0.27592446900E+03 -0.95047216610E+02 -0.15603373740E+00  0.29183610183E+03  0.25500000920E-02 0.  1.
       -2    1    3    3    0  502 -0.27592446900E+03  0.95047216610E+02 -0.13460732459E+03  0.32138359917E+03  0.25500000920E-02 0. -1.
</event>
<event>
 5   0  0.1166419E-01  0.5989880E+03  0.7818609E-02  0.9907508E-01
        2   -1    0    0  501    0  0.00000000000E+00  0.00000000000E+00  0.60981006985E+03  0.60981006986E+03  0.25500000920E-02 0. -1.
       -2   -1    0    0    0  501  0.00000000000E+00  0.00000000000E+00 -0.14708947884E+03  0.14708947886E+03  0.25500000920E-02 0.  1.
    10030    2    1    2    0    0  0.00000000000E+00  0.00000000000E+00  0.46272059101E+03  0.75689954872E+03  0.59898796441E+03 0.  0.
        1    1    3    3  502    0 -0.19720335252E+03  0.69586141908E+02 -0.39555902853E+02  0.21282871721E+03  0.50400001928E-02 0.  1.
       -1    1    3    3    0  502  0.19720335252E+03 -0.69586141908E+02  0.50227649387E+03  0.54407083152E+03  0.50400001928E-02 0. -1.
</event>
<event>
 5   0  0.7263385E-02  0.6201508E+03  0.7818609E-02  0.9864459E-01
       -1   -1    0    0    0  501  0.00000000000E+00  0.00000000000E+00  0.13978076058E+03  0.13978076067E+03  0.50400001928E-02 0. -1.
        1   -1    0    0  501    0  0.00000000000E+00  0.00000000000E+00 -0.68783972228E+03  0.68783972230E+03  0.50400001928E-02 0.  1.
    10030    2    1    2    0    0  0.00000000000E+00  0.00000000000E+00 -0.54805896170E+03  0.82762048297E+03  0.62015081901E+03 0.  0.
        1    1    3    3  502    0  0.24082483984E+03  0.70541908618E+02 -0.51710028498E+03  0.57477427666E+03  0.50400001928E-02 0.  1.
       -1    1    3    3    0  502 -0.24082483984E+03 -0.70541908618E+02 -0.30958676721E+02  0.25284620631E+03  0.50400001928E-02 0. -1.
</event>
<event>
 5   0  0.7221069E-02  0.6107823E+03  0.7818609E-02  0.9883285E-01
       -1   -1    0    0    0  501  0.00000000000E+00  0.00000000000E+00  0.10351366457E+03  0.10351366469E+03  0.50400001928E-02 0. -1.
        1   -1    0    0  501    0  0.00000000000E+00  0.00000000000E+00 -0.90097998520E+03  0.90097998521E+03  0.50400001928E-02 0.  1.
    10030    2    1    2    0    0  0.00000000000E+00  0.00000000000E+00 -0.79746632063E+03  0.10044936499E+04  0.61078225266E+03 0.  0.
        5    1    3    3  502    0 -0.12707155782E+03  0.27563200770E+03 -0.45380806556E+03  0.54597072709E+03  0.46999998093E+01 0.  1.
       -5    1    3    3    0  502  0.12707155782E+03 -0.27563200770E+03 -0.34365825507E+03  0.45852292282E+03  0.46999998093E+01 0. -1.
</event>
<event>
 5   0  0.1166419E-01  0.6040858E+03  0.7818609E-02  0.9896965E-01
        2   -1    0    0  501    0  0.00000000000E+00  0.00000000000E+00  0.91585626836E+03  0.91585626836E+03  0.25500000920E-02 0.  1.
       -2   -1    0    0    0  501  0.00000000000E+00  0.00000000000E+00 -0.99611610496E+02  0.99611610529E+02  0.25500000920E-02 0. -1.
    10030    2    1    2    0    0  0.00000000000E+00  0.00000000000E+00  0.81624465786E+03  0.10154678789E+04  0.60408581474E+03 0.  0.
        1    1    3    3  502    0  0.71472143440E+02  0.29531681271E+02  0.89893249587E+03  0.90225274710E+03  0.50400001928E-02 0.  1.
       -1    1    3    3    0  502 -0.71472143440E+02 -0.29531681271E+02 -0.82687838010E+02  0.11321513179E+03  0.50400001928E-02 0. -1.
</event>
<event>
 5   0  0.7221069E-02  0.5958212E+03  0.7818609E-02  0.9914114E-01
        1   -1    0    0  501    0  0.00000000000E+00  0.00000000000E+00  0.70195033192E+03  0.70195033194E+03  0.50400001928E-02 0.  1.
       -1   -1    0    0    0  501  0.00000000000E+00  0.00000000000E+00 -0.12643449869E+03  0.12643449879E+03  0.50400001928E-02 0. -1.
    10030    2    1    2    0    0  0.00000000000E+00  0.00000000000E+00  0.57551583323E+03  0.82838483073E+03  0.59582124290E+03 0.  0.
        5    1    3    3  502    0 -0.69579922457E+02 -0.12830840615E+03  0.64877202168E+03  0.66500499157E+03  0.46999998093E+01 0.  1.
       -5    1    3    3    0  502  0.69579922457E+02  0.12830840615E+03 -0.73256188458E+02  0.16337983916E+03  0.46999998093E+01 0. -1.
</event>
<event>
 5   0  0.7424930E-02  0.5821605E+03  0.7818609E-02  0.9943124E-01
        1   -1    0    0  501    0  0.00000000000E+00  0.00000000000E+00  0.86071327157E+02  0.86071327305E+02  0.50400001928E-02 0. -1.
       -1   -1    0    0    0  501  0.00000000000E+00  0.00000000000E+00 -0.98438953413E+03  0.98438953414E+03  0.50400001928E-02 0.  1.
    10030    2    1    2    0    0  0.00000000000E+00  0.00000000000E+00 -0.89831820697E+03  0.10704608614E+04  0.58216050614E+03 0.  0.
        3    1    3    3  502    0  0.69982291597E+02 -0.29438689020E+02 -0.96586256974E+03  0.96884192280E+03  0.10100000352E+00 0.  1.
       -3    1    3    3    0  502 -0.69982291597E+02  0.29438689020E+02  0.67544362770E+02  0.10161893865E+03  0.10100000352E+00 0. -1.
</event>
<event>
 5   0  0.7266519E-02  0.5932261E+03  0.7818609E-02  0.9919560E-01
        1   -1    0    0  501    0  0.00000000000E+00  0.00000000000E+00  0.12539893302E+04  0.12539893302E+04  0.50400001928E-02 0. -1.
       -1   -1    0    0    0  501  0.00000000000E+00  0.00000000000E+00 -0.70159519456E+02  0.70159519637E+02  0.50400001928E-02 0.  1.
    10030    2    1    2    0    0  0.00000000000E+00  0.00000000000E+00  0.11838298108E+04  0.13241488499E+04  0.59322605788E+03 0.  0.
        4    1    3    3  502    0 -0.30684220678E+02 -0.12918504533E+02  0.12497994235E+04  0.12502434247E+04  0.12699999809E+01 0. -1.
       -4    1    3    3    0  502  0.30684220678E+02  0.12918504533E+02 -0.65969612752E+02  0.73905425137E+02  0.12699999809E+01 0.  1.
</event>
<event>
 5   0  0.1206238E-01  0.5896371E+03  0.7818609E-02  0.9927142E-01
        2   -1    0    0  501    0  0.00000000000E+00  0.00000000000E+00  0.24389061891E+03  0.24389061892E+03  0.25500000920E-02 0.  1.
       -2   -1    0    0    0  501  0.00000000000E+00  0.00000000000E+00 -0.35638092850E+03  0.35638092850E+03  0.25500000920E-02 0. -1.
    10030    2    1    2    0    0  0.00000000000E+00  0.00000000000E+00 -0.11249030959E+03  0.60027154742E+03  0.58963705862E+03 0.  0.
        5    1    3    3  502    0 -0.21119343178E+03 -0.17597240069E+03 -0.16459267522E+03  0.32043999464E+03  0.46999998093E+01 0.  1.
       -5    1    3    3    0  502  0.21119343178E+03  0.17597240069E+03  0.52102365626E+02  0.27983155278E+03  0.46999998093E+01 0. -1.
</event>
<event>
 5   0  0.1166419E-01  0.5234295E+03  0.7818609E-02  0.1007838E+00
        2   -1    0    0  501    0  0.00000000000E+00  0.00000000000E+00  0.20870901709E+03  0.20870901710E+03  0.25500000920E-02 0. -1.
       -2   -1    0    0    0  501  0.00000000000E+00  0.00000000000E+00 -0.32818234226E+03  0.32818234227E+03  0.25500000920E-02 0.  1.
    10030    2    1    2    0    0  0.00000000000E+00  0.00000000000E+00 -0.11947332518E+03  0.53689135938E+03  0.52342951421E+03 0.  0.
        1    1    3    3  502    0 -0.75483129317E+02  0.24296099254E+03 -0.12268994379E+03  0.28245454332E+03  0.50400001928E-02 0.  1.
       -1    1    3    3    0  502  0.75483129317E+02 -0.24296099254E+03  0.32166186127E+01  0.25443681606E+03  0.50400001928E-02 0. -1.
</event>
<event>
 5   0  0.7123340E-02  0.6277117E+03  0.7818609E-02  0.9849524E-01
        1   -1    0    0  501    0  0.00000000000E+00  0.00000000000E+00  0.16578894789E+03  0.16578894796E+03  0.50400001928E-02 0. -1.
       -1   -1    0    0    0  501  0.00000000000E+00  0.00000000000E+00 -0.59416207265E+03  0.59416207267E+03  0.50400001928E-02 0.  1.
    10030    2    1    2    0    0  0.00000000000E+00  0.00000000000E+00 -0.42837312476E+03  0.75995102063E+03  0.62771173299E+03 0.  0.
        2    1    3    3  502    0 -0.28644199409E+03 -0.12287392967E+03 -0.25880896977E+03  0.40512849987E+03  0.25500000920E-02 0. -1.
       -2    1    3    3    0  502  0.28644199409E+03  0.12287392967E+03 -0.16956415499E+03  0.35482252075E+03  0.25500000920E-02 0.  1.
</event>
<event>
 5   0  0.7221069E-02  0.6186551E+03  0.7818609E-02  0.9867441E-01
        1   -1    0    0  501    0  0.00000000000E+00  0.00000000000E+00  0.29836531104E+03  0.29836531109E+03  0.50400001928E-02 0. -1.
       -1   -1    0    0    0  501  0.00000000000E+00  0.00000000000E+00 -0.32069258840E+03  0.32069258844E+03  0.50400001928E-02 0.  1.
    10030    2    1    2    0    0  0.00000000000E+00  0.00000000000E+00 -0.22327277357E+02  0.61905789952E+03  0.61865513467E+03 0.  0.
        5    1    3    3  502    0  0.45800959038E+02  0.19171310694E+03  0.22733962101E+03  0.30092696207E+03  0.46999998093E+01 0. -1.
       -5    1    3    3    0  502 -0.45800959038E+02 -0.19171310694E+03 -0.24966689837E+03  0.31813093745E+03  0.46999998093E+01 0.  1.
</event>
<event>
 5   0  0.1175861E-01  0.5876606E+03  0.7818609E-02  0.9931342E-01
        2   -1    0    0  501    0  0.00000000000E+00  0.00000000000E+00  0.28275729215E+03  0.28275729217E+03  0.25500000920E-02 0.  1.
       -2   -1    0    0    0  501  0.00000000000E+00  0.00000000000E+00 -0.30533693594E+03  0.30533693595E+03  0.25500000920E-02 0. -1.
    10030    2    1    2    0    0  0.00000000000E+00  0.00000000000E+00 -0.22579643781E+02  0.58809422811E+03  0.58766060003E+03 0.  0.
        3    1    3    3  502    0  0.22630308308E+03  0.40506324114E+02 -0.19440677380E+03  0.30107781653E+03  0.10100000352E+00 0. -1.
       -3    1    3    3    0  502 -0.22630308308E+03 -0.40506324114E+02  0.17182713002E+03  0.28701641158E+03  0.10100000352E+00 0.  1.
</event>
<event>
 5   0  0.1166419E-01  0.6162276E+03  0.7818609E-02  0.9872299E-01
        2   -1    0    0  501    0  0.00000000000E+00  0.00000000000E+00  0.19138014759E+03  0.19138014761E+03  0.25500000920E-02 0. -1.
       -2   -1    0    0    0  501  0.00000000000E+00  0.00000000000E+00 -0.49604989712E+03  0.49604989713E+03  0.25500000920E-02 0.  1.
    10030    2    1    2    0    0  0.00000000000E+00  0.00000000000E+00 -0.30466974953E+03  0.68743004474E+03  0.61622756359E+03 0.  0.
        1    1    3    3  502    0  0.17944084638E+03  0.15154159119E+03 -0.37480230982E+03  0.44231283350E+03  0.50400001928E-02 0.  1.
       -1    1    3    3    0  502 -0.17944084638E+03 -0.15154159119E+03  0.70132560291E+02  0.24511721124E+03  0.50400001928E-02 0. -1.
</event>
<event>
 5   0  0.4695625E-02  0.6005464E+03  0.7818609E-02  0.9904273E-01
        3   -1    0    0  501    0  0.00000000000E+00  0.00000000000E+00  0.35387139672E+03  0.35387141114E+03  0.10100000352E+00 0.  1.
       -3   -1    0    0    0  501  0.00000000000E+00  0.00000000000E+00 -0.25479311069E+03  0.25479313070E+03  0.10100000352E+00 0. -1.
    10030    2    1    2    0    0  0.00000000000E+00  0.00000000000E+00  0.99078286036E+02  0.60866454184E+03  0.60054643262E+03 0.  0.
        1    1    3    3  502    0 -0.21678233855E+03 -0.30202329241E+02  0.25788361516E+03  0.33824654025E+03  0.50400001928E-02 0.  1.
       -1    1    3    3    0  502  0.21678233855E+03  0.30202329241E+02 -0.15880532912E+03  0.27041800159E+03  0.50400001928E-02 0. -1.
</event>
<event>
 5   0  0.7221069E-02  0.5914913E+03  0.7818609E-02  0.9923218E-01
        1   -1    0    0  501    0  0.00000000000E+00  0.00000000000E+00  0.27014510035E+03  0.27014510039E+03  0.50400001928E-02 0. -1.
       -1   -1    0    0    0  501  0.00000000000E+00  0.00000000000E+00 -0.32377226012E+03  0.32377226016E+03  0.50400001928E-02 0.  1.
    10030    2    1    2    0    0  0.00000000000E+00  0.00000000000E+00 -0.53627159777E+02  0.59391736055E+03  0.59149130078E+03 0.  0.
        5    1    3    3  502    0  0.22146435284E+03 -0.95359463842E+02 -0.19869839092E+03  0.31247884324E+03  0.46999998093E+01 0.  1.
       -5    1    3    3    0  502 -0.22146435284E+03  0.95359463842E+02  0.14507123115E+03  0.28143851731E+03  0.46999998093E+01 0. -1.
</event>
<event>
 5   0  0.7123340E-02  0.5613376E+03  0.7818609E-02  0.9989033E-01
        1   -1    0    0  501    0  0.00000000000E+00  0.00000000000E+00  0.16868481372E+03  0.16868481380E+03  0.50400001928E-02 0.  1.
       -1   -1    0    0    0  501  0.00000000000E+00  0.00000000000E+00 -0.46699503179E+03  0.46699503182E+03  0.50400001928E-02 0. -1.
    10030    2    1    2    0    0  0.00000000000E+00  0.00000000000E+00 -0.29831021807E+03  0.63567984562E+03  0.56133758107E+03 0.  0.
        2    1    3    3  502    0 -0.21938366220E+03 -0.13896863723E+02  0.48463078164E+02  0.22510216350E+03  0.25500000920E-02 0.  1.
       -2    1    3    3    0  502  0.21938366220E+03  0.13896863723E+02 -0.34677329623E+03  0.41057768211E+03  0.25500000920E-02 0. -1.
</event>
<event>
 5   0  0.7221069E-02  0.5306962E+03  0.7818609E-02  0.1006063E+00
        1   -1    0    0  501    0  0.00000000000E+00  0.00000000000E+00  0.10450970688E+03  0.10450970700E+03  0.50400001928E-02 0. -1.
       -1   -1    0    0    0  501  0.00000000000E+00  0.00000000000E+00 -0.67371370094E+03  0.67371370096E+03  0.50400001928E-02 0.  1.
    10030    2    1    2    0    0  0.00000000000E+00  0.00000000000E+00 -0.56920399406E+03  0.77822340796E+03  0.53069622746E+03 0.  0.
        5    1    3    3  502    0 -0.11625918440E+03 -0.21856423050E+02 -0.63283771636E+03  0.64381640740E+03  0.46999998093E+01 0.  1.
       -5    1    3    3    0  502  0.11625918440E+03  0.21856423050E+02  0.63633722307E+02  0.13440700056E+03  0.46999998093E+01 0. -1.
</event>
<event>
 5   0  0.7123340E-02  0.5960397E+03  0.7818609E-02  0.9913657E-01
       -1   -1    0    0    0  501  0.00000000000E+00  0.00000000000E+00  0.25030913635E+03  0.25030913640E+03  0.50400001928E-02 0.  1.
        1   -1    0    0  501    0  0.00000000000E+00  0.00000000000E+00 -0.35482452063E+03  0.35482452066E+03  0.50400001928E-02 0. -1.
    10030    2    1    2    0    0  0.00000000000E+00  0.00000000000E+00 -0.10451538428E+03  0.60513365706E+03  0.59603966089E+03 0.  0.
        2    1    3    3  502    0 -0.20329664022E+03  0.21474278689E+03 -0.14654350713E+02  0.29607218452E+03  0.25500000920E-02 0. -1.
       -2    1    3    3    0  502  0.20329664022E+03 -0.21474278689E+03 -0.89861033562E+02  0.30906147254E+03  0.25500000920E-02 0.  1.
</event>
<event>
 5   0  0.7221069E-02  0.5721495E+03  0.7818609E-02  0.9964933E-01
        1   -1    0    0  501    0  0.00000000000E+00  0.00000000000E+00  0.46269417871E+03  0.46269417873E+03  0.50400001928E-02 0. -1.
       -1   -1    0    0    0  501  0.00000000000E+00  0.00000000000E+00 -0.17687442826E+03  0.17687442833E+03  0.50400001928E-02 0.  1.
    10030    2    1    2    0    0  0.00000000000E+00  0.00000000000E+00  0.28581975044E+03  0.63956860707E+03  0.57214952015E+03 0.  0.
        5    1    3    3  502    0 -0.25792991694E+03  0.36507217676E+02  0.10853611877E+02  0.26076907387E+03  0.46999998093E+01 0.  1.
       -5    1    3    3    0  502  0.25792991694E+03 -0.36507217676E+02  0.27496613857E+03  0.37879953320E+03  0.46999998093E+01 0. -1.
</event>
<event>
 5   0  0.4695625E-02  0.6084616E+03  0.7818609E-02  0.9888005E-01
       -4   -1    0    0    0  501  0.00000000000E+00  0.00000000000E+00  0.94139068413E+03  0.94139154079E+03  0.12699999809E+01 0. -1.
        4   -1    0    0  501    0  0.00000000000E+00  0.00000000000E+00 -0.98313771794E+02  0.98321974270E+02  0.12699999809E+01 0.  1.
    10030    2    1    2    0    0  0.00000000000E+00  0.00000000000E+00  0.84307691233E+03  0.10397135151E+04  0.60846159557E+03 0.  0.
        3    1    3    3  502    0 -0.26683419303E+03 -0.59362188976E+02  0.19335681884E+03  0.33483014446E+03  0.10100000352E+00 0.  1.
       -3    1    3    3    0  502  0.26683419303E+03  0.59362188976E+02  0.64972009349E+03  0.70488337059E+03  0.10100000352E+00 0. -1.
</event>
<event>
 5   0  0.1175861E-01  0.6037105E+03  0.7818609E-02  0.9897738E-01
       -2   -1    0    0    0  501  0.00000000000E+00  0.00000000000E+00  0.84755193403E+02  0.84755193441E+02  0.25500000920E-02 0.  1.
        2   -1    0    0  501    0  0.00000000000E+00  0.00000000000E+00 -0.10750561244E+04  0.10750561244E+04  0.25500000920E-02 0. -1.
    10030    2    1    2    0    0  0.00000000000E+00  0.00000000000E+00 -0.99030093104E+03  0.11598113179E+04  0.60371049277E+03 0.  0.
        3    1    3    3  502    0  0.47758351478E+02 -0.64116457459E+02  0.64045323971E+02  0.10243824470E+03  0.10100000352E+00 0.  1.
       -3    1    3    3    0  502 -0.47758351478E+02  0.64116457459E+02 -0.10543462550E+04  0.10573730732E+04  0.10100000352E+00 0. -1.
</event>
<event>
 5   0  0.1219020E-01  0.5680525E+03  0.7818609E-02  0.9973998E-01
       -2   -1    0    0    0  501  0.00000000000E+00  0.00000000000E+00  0.39015578713E+02  0.39015578797E+02  0.25500000920E-02 0.  1.
        2   -1    0    0  501    0  0.00000000000E+00  0.00000000000E+00 -0.20676587002E+04  0.20676587002E+04  0.25500000920E-02 0. -1.
    10030    2    1    2    0    0  0.00000000000E+00  0.00000000000E+00 -0.20286431215E+04  0.21066742790E+04  0.56805246539E+03 0.  0.
        2    1    3    3  502    0  0.79535499520E+02  0.21406640189E+03 -0.38801331987E+03  0.45022733869E+03  0.25500000920E-02 0.  1.
       -2    1    3    3    0  502 -0.79535499520E+02 -0.21406640189E+03 -0.16406298016E+04  0.16564469403E+04  0.25500000920E-02 0. -1.
</event>
<event>
 5   0  0.1166419E-01  0.6036652E+03  0.7818609E-02  0.9897831E-01
        2   -1    0    0  501    0  0.00000000000E+00  0.00000000000E+00  0.16158123621E+04  0.16158123621E+04  0.25500000920E-02 0.  1.
       -2   -1    0    0    0  501  0.00000000000E+00  0.00000000000E+00 -0.56382121950E+02  0.56382122008E+02  0.25500000920E-02 0. -1.
    10030    2    1    2    0    0  0.00000000000E+00  0.00000000000E+00  0.15594302401E+04  0.16721944841E+04  0.60366523736E+03 0.  0.
        1    1    3    3  502    0 -0.45958788284E+02 -0.28013077484E+03  0.49563147748E+03  0.57117074743E+03  0.50400001928E-02 0. -1.
       -1    1    3    3    0  502  0.45958788284E+02  0.28013077484E+03  0.10637987627E+04  0.11010237367E+04  0.50400001928E-02 0.  1.
</event>
<event>
 5   0  0.7123340E-02  0.5868640E+03  0.7818609E-02  0.9933040E-01
       -1   -1    0    0    0  501  0.00000000000E+00  0.00000000000E+00  0.11533779542E+03  0.11533779553E+03  0.50400001928E-02 0.  1.
        1   -1    0    0  501    0  0.00000000000E+00  0.00000000000E+00 -0.74652307465E+03  0.74652307467E+03  0.50400001928E-02 0. -1.
    10030    2    1    2    0    0  0.00000000000E+00  0.00000000000E+00 -0.63118527923E+03  0.86186087019E+03  0.58686395600E+03 0.  0.
        2    1    3    3  502    0  0.12992641779E+03 -0.26306003789E+03 -0.32230138796E+03  0.43584359839E+03  0.25500000920E-02 0. -1.
       -2    1    3    3    0  502 -0.12992641779E+03  0.26306003789E+03 -0.30888389128E+03  0.42601727180E+03  0.25500000920E-02 0.  1.
</event>
<event>
 5   0  0.1146468E-01  0.5865880E+03  0.7818609E-02  0.9933629E-01
       -2   -1    0    0    0  501  0.00000000000E+00  0.00000000000E+00  0.20264101120E+03  0.20264101122E+03  0.25500000920E-02 0.  1.
        2   -1    0    0  501    0  0.00000000000E+00  0.00000000000E+00 -0.42450122487E+03  0.42450122488E+03  0.25500000920E-02 0. -1.
    10030    2    1    2    0    0  0.00000000000E+00  0.00000000000E+00 -0.22186021367E+03  0.62714223609E+03  0.58658795579E+03 0.  0.
        4    1    3    3  502    0 -0.22676549996E+03 -0.18015421635E+03 -0.61453125337E+02  0.29606795360E+03  0.12699999809E+01 0.  1.
       -4    1    3    3    0  502  0.22676549996E+03  0.18015421635E+03 -0.16040708833E+03  0.33107428249E+03  0.12699999809E+01 0. -1.
</event>
<event>
 5   0  0.7266519E-02  0.5626917E+03  0.7818609E-02  0.9985983E-01
        1   -1    0    0  501    0  0.00000000000E+00  0.00000000000E+00  0.14269497226E+04  0.14269497226E+04  0.50400001928E-02 0.  1.
       -1   -1    0    0    0  501  0.00000000000E+00  0.00000000000E+00 -0.55471810925E+02  0.55471811153E+02  0.50400001928E-02 0. -1.
    10030    2    1    2    0    0  0.00000000000E+00  0.00000000000E+00  0.13714779116E+04  0.14824215337E+04  0.56269169315E+03 0.  0.
        4    1    3    3  502    0 -0.16161375189E+03 -0.17843654192E+03  0.30219011969E+03  0.38636651722E+03  0.12699999809E+01 0. -1.
       -4    1    3    3    0  502  0.16161375189E+03  0.17843654192E+03  0.10692877919E+04  0.10960550165E+04  0.12699999809E+01 0.  1.
</event>
<event>
 5   0  0.7123340E-02  0.5905320E+03  0.7818609E-02  0.9925246E-01
       -1   -1    0    0    0  501  0.00000000000E+00  0.00000000000E+00  0.10771548204E+03  0.10771548216E+03  0.50400001928E-02 0. -1.
        1   -1    0    0  501    0  0.00000000000E+00  0.00000000000E+00 -0.80937310283E+03  0.80937310284E+03  0.50400001928E-02 0.  1.
    10030    2    1    2    0    0  0.00000000000E+00  0.00000000000E+00 -0.70165762079E+03  0.91708858500E+03  0.59053201093E+03 0.  0.
        2    1    3    3  502    0  0.60498648258E+02  0.24761344199E+03 -0.11938938597E+03  0.28147171897E+03  0.25500000920E-02 0. -1.
       -2    1    3    3    0  502 -0.60498648258E+02 -0.24761344199E+03 -0.58226823482E+03  0.63561686603E+03  0.25500000920E-02 0.  1.
</event>
<event>
 5   0  0.1175861E-01  0.5909287E+03  0.7818609E-02  0.9924407E-01
       -2   -1    0    0    0  501  0.00000000000E+00  0.00000000000E+00  0.13421653717E+03  0.13421653720E+03  0.25500000920E-02 0.  1.
        2   -1    0    0  501    0  0.00000000000E+00  0.00000000000E+00 -0.65043534313E+03  0.65043534314E+03  0.25500000920E-02 0. -1.
    10030    2    1    2    0    0  0.00000000000E+00  0.00000000000E+00 -0.51621880596E+03  0.78465188033E+03  0.59092869086E+03 0.  0.
        3    1    3    3  502    0  0.68004112174E+02 -0.42001736637E+02  0.11958825290E+03  0.14384041708E+03  0.10100000352E+00 0.  1.
       -3    1    3    3    0  502 -0.68004112174E+02  0.42001736637E+02 -0.63580705885E+03  0.64081146326E+03  0.10100000352E+00 0. -1.
</event>
<event>
 5   0  0.7221069E-02  0.5952032E+03  0.7818609E-02  0.9915408E-01
       -1   -1    0    0    0  501  0.00000000000E+00  0.00000000000E+00  0.23671275854E+03  0.23671275859E+03  0.50400001928E-02 0.  1.
        1   -1    0    0  501    0  0.00000000000E+00  0.00000000000E+00 -0.37415268056E+03  0.37415268059E+03  0.50400001928E-02 0. -1.
    10030    2    1    2    0    0  0.00000000000E+00  0.00000000000E+00 -0.13743992202E+03  0.61086543918E+03  0.59520320280E+03 0.  0.
        5    1    3    3  502    0  0.51657711921E+02 -0.65516799173E+02  0.22442461910E+03  0.23947749337E+03  0.46999998093E+01 0.  1.
       -5    1    3    3    0  502 -0.51657711921E+02  0.65516799173E+02 -0.36186454112E+03  0.37138794581E+03  0.46999998093E+01 0. -1.
</event>
<event>
 5   0  0.1175861E-01  0.6357594E+03  0.7818609E-02  0.9833874E-01
       -2   -1    0    0    0  501  0.00000000000E+00  0.00000000000E+00  0.14526746758E+03  0.14526746760E+03  0.25500000920E-02 0.  1.
        2   -1    0    0  501    0  0.00000000000E+00  0.00000000000E+00 -0.69559622729E+03  0.69559622730E+03  0.25500000920E-02 0. -1.
    10030    2    1    2    0    0  0.00000000000E+00  0.00000000000E+00 -0.55032875972E+03  0.84086369490E+03  0.63575939602E+03 0.  0.
        3    1    3    3  502    0  0.18960094248E+03  0.13268205379E+03  0.13075610079E+02  0.23178443988E+03  0.10100000352E+00 0.  1.
       -3    1    3    3    0  502 -0.18960094248E+03 -0.13268205379E+03 -0.56340436979E+03  0.60907925502E+03  0.10100000352E+00 0. -1.
</event>
<event>
 5   0  0.4695625E-02  0.4426256E+03  0.7818609E-02  0.1029944E+00
       -3   -1    0    0    0  501  0.00000000000E+00  0.00000000000E+00  0.36158499766E+03  0.36158501176E+03  0.10100000352E+00 0.  1.
        3   -1    0    0  501    0  0.00000000000E+00  0.00000000000E+00 -0.13545737057E+03  0.13545740822E+03  0.10100000352E+00 0. -1.
    10030    2    1    2    0    0  0.00000000000E+00  0.00000000000E+00  0.22612762709E+03  0.49704241999E+03  0.44262564717E+03 0.  0.
        3    1    3    3  502    0 -0.21005264738E+02 -0.74641369838E+02 -0.11970424686E+03  0.14262423411E+03  0.10100000352E+00 0. -1.
       -3    1    3    3    0  502  0.21005264738E+02  0.74641369838E+02  0.34583187395E+03  0.35441818587E+03  0.10100000352E+00 0.  1.
</event>
<event>
 5   0  0.7266519E-02  0.5899835E+03  0.7818609E-02  0.9926408E-01
        1   -1    0    0  501    0  0.00000000000E+00  0.00000000000E+00  0.23041380800E+04  0.23041380800E+04  0.50400001928E-02 0. -1.
       -1   -1    0    0    0  501  0.00000000000E+00  0.00000000000E+00 -0.37766895501E+02  0.37766895838E+02  0.50400001928E-02 0.  1.
    10030    2    1    2    0    0  0.00000000000E+00  0.00000000000E+00  0.22663711845E+04  0.23419049759E+04  0.58998353363E+03 0.  0.
        4    1    3    3  502    0  0.14123189407E+01 -0.25100973004E+03  0.51810596779E+03  0.57571111331E+03  0.12699999809E+01 0.  1.
       -4    1    3    3    0  502 -0.14123189407E+01  0.25100973004E+03  0.17482652167E+04  0.17661938626E+04  0.12699999809E+01 0. -1.
</event>
<event>
 5   0  0.7221069E-02  0.5979235E+03  0.7818609E-02  0.9909723E-01
        1   -1    0    0  501    0  0.00000000000E+00  0.00000000000E+00  0.88054861913E+02  0.88054862058E+02  0.50400001928E-02 0.  1.
       -1   -1    0    0    0  501  0.00000000000E+00  0.00000000000E+00 -0.10150278356E+04  0.10150278356E+04  0.50400001928E-02 0. -1.
    10030    2    1    2    0    0  0.00000000000E+00  0.00000000000E+00 -0.92697297369E+03  0.11030826977E+04  0.59792352685E+03 0.  0.
        5    1    3    3  502    0 -0.22558216011E+03 -0.16127716009E+03 -0.66940423788E+03  0.72458385092E+03  0.46999998093E+01 0. -1.
       -5    1    3    3    0  502  0.22558216011E+03  0.16127716009E+03 -0.25756873581E+03  0.37849884675E+03  0.46999998093E+01 0.  1.
</event>
<event>
 5   0  0.1206238E-01  0.4660847E+03  0.7818609E-02  0.1023031E+00
       -2   -1    0    0    0  501  0.00000000000E+00  0.00000000000E+00  0.59465313925E+02  0.59465313980E+02  0.25500000920E-02 0.  1.
        2   -1    0    0  501    0  0.00000000000E+00  0.00000000000E+00 -0.91328413552E+03  0.91328413552E+03  0.25500000920E-02 0. -1.
    10030    2    1    2    0    0  0.00000000000E+00  0.00000000000E+00 -0.85381882159E+03  0.97274944950E+03  0.46608466119E+03 0.  0.
        5    1    3    3  502    0 -0.14488855453E+03  0.17958725609E+03 -0.35952716492E+03  0.42723079020E+03  0.46999998093E+01 0.  1.
       -5    1    3    3    0  502  0.14488855453E+03 -0.17958725609E+03 -0.49429165667E+03  0.54551865929E+03  0.46999998093E+01 0. -1.
</event>
<event>
 5   0  0.7263385E-02  0.5781448E+03  0.7818609E-02  0.9951816E-01
        1   -1    0    0  501    0  0.00000000000E+00  0.00000000000E+00  0.15046558102E+03  0.15046558110E+03  0.50400001928E-02 0.  1.
       -1   -1    0    0    0  501  0.00000000000E+00  0.00000000000E+00 -0.55536188662E+03  0.55536188665E+03  0.50400001928E-02 0. -1.
    10030    2    1    2    0    0  0.00000000000E+00  0.00000000000E+00 -0.40489630561E+03  0.70582746775E+03  0.57814478804E+03 0.  0.
        1    1    3    3  502    0  0.11219108880E+03  0.12240074526E+03  0.86442136121E+02  0.18719248321E+03  0.50400001928E-02 0.  1.
       -1    1    3    3    0  502 -0.11219108880E+03 -0.12240074526E+03 -0.49133844173E+03  0.51863498454E+03  0.50400001928E-02 0. -1.
</event>
<event>
 5   0  0.1206238E-01  0.6147048E+03  0.7818609E-02  0.9875359E-01
        2   -1    0    0  501    0  0.00000000000E+00  0.00000000000E+00  0.54349991492E+03  0.54349991493E+03  0.25500000920E-02 0.  1.
       -2   -1    0    0    0  501  0.00000000000E+00  0.00000000000E+00 -0.17380957214E+03  0.17380957216E+03  0.25500000920E-02 0. -1.
    10030    2    1    2    0    0  0.00000000000E+00  0.00000000000E+00  0.36969034278E+03  0.71730948708E+03  0.61470476711E+03 0.  0.
        5    1    3    3  502    0  0.66755899839E+02 -0.11479901230E+03  0.50824805235E+03  0.52533164392E+03  0.46999998093E+01 0.  1.
       -5    1    3    3    0  502 -0.66755899839E+02  0.11479901230E+03 -0.13855770956E+03  0.19197784316E+03  0.46999998093E+01 0. -1.
</event>
<event>
 5   0  0.7123340E-02  0.6109166E+03  0.7818609E-02  0.9883013E-01
       -1   -1    0    0    0  501  0.00000000000E+00  0.00000000000E+00  0.20775776347E+03  0.20775776353E+03  0.50400001928E-02 0.  1.
        1   -1    0    0  501    0  0.00000000000E+00  0.00000000000E+00 -0.44910361253E+03  0.44910361256E+03  0.50400001928E-02 0. -1.
    10030    2    1    2    0    0  0.00000000000E+00  0.00000000000E+00 -0.24134584906E+03  0.65686137609E+03  0.61091656430E+03 0.  0.
        2    1    3    3  502    0  0.16708221948E+03 -0.23517696476E+03 -0.22862326468E+03  0.36809410478E+03  0.25500000920E-02 0. -1.
       -2    1    3    3    0  502 -0.16708221948E+03  0.23517696476E+03 -0.12722584385E+02  0.28876727131E+03  0.25500000920E-02 0.  1.
</event>
<event>
 5   0  0.7424930E-02  0.5682887E+03  0.7818609E-02  0.9973473E-01
       -1   -1    0    0    0  501  0.00000000000E+00  0.00000000000E+00  0.16666107547E+03  0.16666107554E+03  0.50400001928E-02 0.  1.
        1   -1    0    0  501    0  0.00000000000E+00  0.00000000000E+00 -0.48444432153E+03  0.48444432155E+03  0.50400001928E-02 0. -1.
    10030    2    1    2    0    0  0.00000000000E+00  0.00000000000E+00 -0.31778324606E+03  0.65110539710E+03  0.56828870009E+03 0.  0.
        3    1    3    3  502    0  0.13828654541E+03 -0.19103578757E+03  0.22699026183E+02  0.23692424267E+03  0.10100000352E+00 0.  1.
       -3    1    3    3    0  502 -0.13828654541E+03  0.19103578757E+03 -0.34048227224E+03  0.41418115443E+03  0.10100000352E+00 0. -1.
</event>
<event>
 5   0  0.4695625E-02  0.5929603E+03  0.7818609E-02  0.9920120E-01
       -3   -1    0    0    0  501  0.00000000000E+00  0.00000000000E+00  0.35429808816E+03  0.35429810255E+03  0.10100000352E+00 0.  1.
        3   -1    0    0  501    0  0.00000000000E+00  0.00000000000E+00 -0.24809745883E+03  0.24809747939E+03  0.10100000352E+00 0. -1.
    10030    2    1    2    0    0  0.00000000000E+00  0.00000000000E+00  0.10620062933E+03  0.60239558194E+03  0.59296025455E+03 0.  0.
        1    1    3    3  502    0  0.18481510007E+03  0.91580946821E+02 -0.16325983676E+03  0.26305411108E+03  0.50400001928E-02 0. -1.
       -1    1    3    3    0  502 -0.18481510007E+03 -0.91580946821E+02  0.26946046609E+03  0.33934147086E+03  0.50400001928E-02 0.  1.
</event>
<event>
 5   0  0.7221069E-02  0.6000083E+03  0.7818609E-02  0.9905389E-01
        1   -1    0    0  501    0  0.00000000000E+00  0.00000000000E+00  0.80189344770E+03  0.80189344772E+03  0.50400001928E-02 0.  1.
       -1   -1    0    0    0  501  0.00000000000E+00  0.00000000000E+00 -0.11223748271E+03  0.11223748282E+03  0.50400001928E-02 0. -1.
    10030    2    1    2    0    0  0.00000000000E+00  0.00000000000E+00  0.68965596499E+03  0.91413093053E+03  0.60000834003E+03 0.  0.
        5    1    3    3  502    0  0.84456836958E+01 -0.85276102614E+02  0.78279213909E+03  0.78748267680E+03  0.46999998093E+01 0.  1.
       -5    1    3    3    0  502 -0.84456836958E+01  0.85276102614E+02 -0.93136174094E+02  0.12664825373E+03  0.46999998093E+01 0. -1.
</event>
<event>
 5   0  0.1219020E-01  0.5404350E+03  0.7818609E-02  0.1003732E+00
       -2   -1    0    0    0  501  0.00000000000E+00  0.00000000000E+00  0.13477506986E+03  0.13477506989E+03  0.25500000920E-02 0. -1.
        2   -1    0    0  501    0  0.00000000000E+00  0.00000000000E+00 -0.54177300605E+03  0.54177300606E+03  0.25500000920E-02 0.  1.
    10030    2    1    2    0    0  0.00000000000E+00  0.00000000000E+00 -0.40699793619E+03  0.67654807595E+03  0.54043499054E+03 0.  0.
        2    1    3    3  502    0  0.11902594428E+02 -0.18340803383E+03 -0.45147222737E+03  0.48744984431E+03  0.25500000920E-02 0.  1.
       -2    1    3    3    0  502 -0.11902594428E+02  0.18340803383E+03  0.44474291177E+02  0.18909823164E+03  0.25500000920E-02 0. -1.
</event>
<event>
 5   0  0.1166419E-01  0.5937600E+03  0.7818609E-02  0.9918437E-01
       -2   -1    0    0    0  501  0.00000000000E+00  0.00000000000E+00  0.76406323193E+02  0.76406323236E+02  0.25500000920E-02 0. -1.
        2   -1    0    0  501    0  0.00000000000E+00  0.00000000000E+00 -0.11535398451E+04  0.11535398451E+04  0.25500000920E-02 0.  1.
    10030    2    1    2    0    0  0.00000000000E+00  0.00000000000E+00 -0.10771335219E+04  0.12299461683E+04  0.59376001297E+03 0.  0.
        1    1    3    3  502    0  0.20639193040E+03  0.60321608825E+02 -0.96258983537E+03  0.98631410646E+03  0.50400001928E-02 0.  1.
       -1    1    3    3    0  502 -0.20639193040E+03 -0.60321608825E+02 -0.11454368655E+03  0.24363206189E+03  0.50400001928E-02 0. -1.
</event>
<event>
 5   0  0.7266519E-02  0.6040651E+03  0.7818609E-02  0.9897008E-01
        1   -1    0    0  501    0  0.00000000000E+00  0.00000000000E+00  0.52848015781E+03  0.52848015784E+03  0.50400001928E-02 0.  1.
       -1   -1    0    0    0  501  0.00000000000E+00  0.00000000000E+00 -0.17261510965E+03  0.17261510972E+03  0.50400001928E-02 0. -1.
    10030    2    1    2    0    0  0.00000000000E+00  0.00000000000E+00  0.35586504816E+03  0.70109526756E+03  0.60406509723E+03 0.  0.
        4    1    3    3  502    0  0.24925798949E+03 -0.12226497353E+03  0.31596332722E+03  0.42060992157E+03  0.12699999809E+01 0.  1.
       -4    1    3    3    0  502 -0.24925798949E+03  0.12226497353E+03  0.39901720943E+02  0.28048534598E+03  0.12699999809E+01 0. -1.
</event>
<event>
 5   0  0.7424930E-02  0.6037520E+03  0.7818609E-02  0.9897652E-01
        1   -1    0    0  501    0  0.00000000000E+00  0.00000000000E+00  0.51888094486E+03  0.51888094488E+03  0.50400001928E-02 0. -1.
       -1   -1    0    0    0  501  0.00000000000E+00  0.00000000000E+00 -0.17562628213E+03  0.17562628220E+03  0.50400001928E-02 0.  1.
    10030    2    1    2    0    0  0.00000000000E+00  0.00000000000E+00  0.34325466273E+03  0.69450722709E+03  0.60375203933E+03 0.  0.
        3    1    3    3  502    0 -0.13235947862E+03  0.23865885521E+03  0.23187010208E+02  0.27388816767E+03  0.10100000352E+00 0.  1.
       -3    1    3    3    0  502  0.13235947862E+03 -0.23865885521E+03  0.32006765252E+03  0.42061905941E+03  0.10100000352E+00 0. -1.
</event>
<event>
 5   0  0.7424930E-02  0.6025249E+03  0.7818609E-02  0.9900182E-01
       -1   -1    0    0    0  501  0.00000000000E+00  0.00000000000E+00  0.86394216750E+02  0.86394216897E+02  0.50400001928E-02 0.  1.
        1   -1    0    0  501    0  0.00000000000E+00  0.00000000000E+00 -0.10505223744E+04  0.10505223744E+04  0.50400001928E-02 0. -1.
    10030    2    1    2    0    0  0.00000000000E+00  0.00000000000E+00 -0.96412815766E+03  0.11369165913E+04  0.60252488017E+03 0.  0.
        3    1    3    3  502    0  0.95486729286E+02 -0.21977625821E+03 -0.82660011147E+03  0.86063178749E+03  0.10100000352E+00 0. -1.
       -3    1    3    3    0  502 -0.95486729286E+02  0.21977625821E+03 -0.13752804618E+03  0.27628480383E+03  0.10100000352E+00 0.  1.
</event>
<event>
 5   0  0.7123340E-02  0.5988860E+03  0.7818609E-02  0.9907720E-01
        1   -1    0    0  501    0  0.00000000000E+00  0.00000000000E+00  0.36071226000E+03  0.36071226004E+03  0.50400001928E-02 0. -1.
       -1   -1    0    0    0  501  0.00000000000E+00  0.00000000000E+00 -0.24858069107E+03  0.24858069112E+03  0.50400001928E-02 0.  1.
    10030    2    1    2    0    0  0.00000000000E+00  0.00000000000E+00  0.11213156893E+03  0.60929295116E+03  0.59888597544E+03 0.  0.
        2    1    3    3  502    0  0.24785379960E+03 -0.32679656328E+02  0.22375299895E+03  0.33550688585E+03  0.25500000920E-02 0. -1.
       -2    1    3    3    0  502 -0.24785379960E+03  0.32679656328E+02 -0.11162143001E+03  0.27378606531E+03  0.25500000920E-02 0.  1.
</event>
<event>
 5   0  0.1166419E-01  0.6008158E+03  0.7818609E-02  0.9903715E-01
       -2   -1    0    0    0  501  0.00000000000E+00  0.00000000000E+00  0.79068759748E+02  0.79068759789E+02  0.25500000920E-02 0.  1.
        2   -1    0    0  501    0  0.00000000000E+00  0.00000000000E+00 -0.11413470463E+04  0.11413470463E+04  0.25500000920E-02 0. -1.
    10030    2    1    2    0    0  0.00000000000E+00  0.00000000000E+00 -0.10622782865E+04  0.12204158061E+04  0.60081576351E+03 0.  0.
        1    1    3    3  502    0 -0.26101326388E+03  0.14475873653E+03 -0.60037755255E+03  0.67047462395E+03  0.50400001928E-02 0. -1.
       -1    1    3    3    0  502  0.26101326388E+03 -0.14475873653E+03 -0.46190073400E+03  0.54994118214E+03  0.50400001928E-02 0.  1.
</event>
<event>
 5   0  0.1175861E-01  0.5739743E+03  0.7818609E-02  0.9960922E-01
        2   -1    0    0  501    0  0.00000000000E+00  0.00000000000E+00  0.11325901512E+03  0.11325901515E+03  0.25500000920E-02 0.  1.
       -2   -1    0    0    0  501  0.00000000000E+00  0.00000000000E+00 -0.72719714479E+03  0.72719714480E+03  0.25500000920E-02 0. -1.
    10030    2    1    2    0    0  0.00000000000E+00  0.00000000000E+00 -0.61393812967E+03  0.84045615994E+03  0.57397432845E+03 0.  0.
        3    1    3    3  502    0  0.10526540400E+02 -0.19964416240E+03 -0.54812338592E+01  0.19999663437E+03  0.10100000352E+00 0.  1.
       -3    1    3    3    0  502 -0.10526540400E+02  0.19964416240E+03 -0.60845689582E+03  0.64045952557E+03  0.10100000352E+00 0. -1.
</event>
<event>
 5   0  0.7424930E-02  0.5952488E+03  0.7818609E-02  0.9915313E-01
        1   -1    0    0  501    0  0.00000000000E+00  0.00000000000E+00  0.78508285036E+03  0.78508285038E+03  0.50400001928E-02 0. -1.
       -1   -1    0    0    0  501  0.00000000000E+00  0.00000000000E+00 -0.11282920942E+03  0.11282920953E+03  0.50400001928E-02 0.  1.
    10030    2    1    2    0    0  0.00000000000E+00  0.00000000000E+00  0.67225364094E+03  0.89791205991E+03  0.59524877956E+03 0.  0.
        3    1    3    3  502    0 -0.18745030067E+03 -0.22401900395E+03  0.42223016435E+03  0.51342034557E+03  0.10100000352E+00 0. -1.
       -3    1    3    3    0  502  0.18745030067E+03  0.22401900395E+03  0.25002347659E+03  0.38449171435E+03  0.10100000352E+00 0.  1.
</event>
<event>
 5   0  0.1146468E-01  0.5833557E+03  0.7818609E-02  0.9940552E-01
        2   -1    0    0  501    0  0.00000000000E+00  0.00000000000E+00  0.22369646229E+03  0.22369646231E+03  0.25500000920E-02 0.  1.
       -2   -1    0    0    0  501  0.00000000000E+00  0.00000000000E+00 -0.38031883490E+03  0.38031883491E+03  0.25500000920E-02 0. -1.
    10030    2    1    2    0    0  0.00000000000E+00  0.00000000000E+00 -0.15662237261E+03  0.60401529722E+03  0.58335573339E+03 0.  0.
        4    1    3    3  502    0 -0.23544786697E+03 -0.15979410411E+03 -0.14464656183E+03  0.31920854394E+03  0.12699999809E+01 0. -1.
       -4    1    3    3    0  502  0.23544786697E+03  0.15979410411E+03 -0.11975810775E+02  0.28480675328E+03  0.12699999809E+01 0.  1.
</event>
<event>
 5   0  0.7424930E-02  0.5968644E+03  0.7818609E-02  0.9911933E-01
        1   -1    0    0  501    0  0.00000000000E+00  0.00000000000E+00  0.60570545304E+03  0.60570545306E+03  0.50400001928E-02 0. -1.
       -1   -1    0    0    0  501  0.00000000000E+00  0.00000000000E+00 -0.14703809094E+03  0.14703809102E+03  0.50400001928E-02 0.  1.
    10030    2    1    2    0    0  0.00000000000E+00  0.00000000000E+00  0.45866736210E+03  0.75274354409E+03  0.59686438502E+03 0.  0.
        3    1    3    3  502    0  0.18264052643E+03  0.17746397722E+03  0.33099168833E+02  0.25680068202E+03  0.10100000352E+00 0.  1.
       -3    1    3    3    0  502 -0.18264052643E+03 -0.17746397722E+03  0.42556819327E+03  0.49594286206E+03  0.10100000352E+00 0. -1.
</event>
<event>
 5   0  0.7424930E-02  0.6020788E+03  0.7818609E-02  0.9901103E-01
        1   -1    0    0  501    0  0.00000000000E+00  0.00000000000E+00  0.39474970322E+03  0.39474970325E+03  0.50400001928E-02 0. -1.
       -1   -1    0    0    0  501  0.00000000000E+00  0.00000000000E+00 -0.22957516130E+03  0.22957516136E+03  0.50400001928E-02 0.  1.
    10030    2    1    2    0    0  0.00000000000E+00  0.00000000000E+00  0.16517454191E+03  0.62432486461E+03  0.60207882148E+03 0.  0.
        3    1    3    3  502    0 -0.21207262241E+02  0.57296473160E+02 -0.22307890552E+03  0.23129384362E+03  0.10100000352E+00 0.  1.
       -3    1    3    3    0  502  0.21207262241E+02 -0.57296473160E+02  0.38825344744E+03  0.39303102098E+03  0.10100000352E+00 0. -1.
</event>
<event>
 5   0  0.1206238E-01  0.5967991E+03  0.7818609E-02  0.9912069E-01
       -2   -1    0    0    0  501  0.00000000000E+00  0.00000000000E+00  0.36496369168E+03  0.36496369169E+03  0.25500000920E-02 0. -1.
        2   -1    0    0  501    0  0.00000000000E+00  0.00000000000E+00 -0.24397575878E+03  0.24397575879E+03  0.25500000920E-02 0.  1.
    10030    2    1    2    0    0  0.00000000000E+00  0.00000000000E+00  0.12098793290E+03  0.60893945049E+03  0.59679910728E+03 0.  0.
        5    1    3    3  502    0  0.86570587260E+01 -0.27034298904E+02  0.36354495311E+03  0.36468180776E+03  0.46999998093E+01 0. -1.
       -5    1    3    3    0  502 -0.86570587260E+01  0.27034298904E+02 -0.24255702020E+03  0.24425764273E+03  0.46999998093E+01 0.  1.
</event>
<event>
 5   0  0.7266519E-02  0.6181144E+03  0.7818609E-02  0.9868521E-01
       -1   -1    0    0    0  501  0.00000000000E+00  0.00000000000E+00  0.10746375101E+04  0.10746375101E+04  0.50400001928E-02 0.  1.
        1   -1    0    0  501    0  0.00000000000E+00  0.00000000000E+00 -0.88882403751E+02  0.88882403894E+02  0.50400001928E-02 0. -1.
    10030    2    1    2    0    0  0.00000000000E+00  0.00000000000E+00  0.98575510631E+03  0.11635199140E+04  0.61811443971E+03 0.  0.
        4    1    3    3  502    0  0.30058547809E+03 -0.36547547334E+02  0.60933220014E+03  0.68042243928E+03  0.12699999809E+01 0.  1.
       -4    1    3    3    0  502 -0.30058547809E+03  0.36547547334E+02  0.37642290617E+03  0.48309747468E+03  0.12699999809E+01 0. -1.
</event>
<event>
 5   0  0.7424930E-02  0.6029682E+03  0.7818609E-02  0.9899267E-01
       -1   -1    0    0    0  501  0.00000000000E+00  0.00000000000E+00  0.25759891146E+03  0.25759891151E+03  0.50400001928E-02 0.  1.
        1   -1    0    0  501    0  0.00000000000E+00  0.00000000000E+00 -0.35284571983E+03  0.35284571987E+03  0.50400001928E-02 0. -1.
    10030    2    1    2    0    0  0.00000000000E+00  0.00000000000E+00 -0.95246808371E+02  0.61044463138E+03  0.60296823588E+03 0.  0.
        3    1    3    3  502    0 -0.11491641341E+03  0.95933490286E+01  0.23438905119E+03  0.26122031303E+03  0.10100000352E+00 0.  1.
       -3    1    3    3    0  502  0.11491641341E+03 -0.95933490286E+01 -0.32963585956E+03  0.34922431835E+03  0.10100000352E+00 0. -1.
</event>
<event>
 5   0  0.1219020E-01  0.6011534E+03  0.7818609E-02  0.9903016E-01
        2   -1    0    0  501    0  0.00000000000E+00  0.00000000000E+00  0.80519582948E+03  0.80519582949E+03  0.25500000920E-02 0.  1.
       -2   -1    0    0    0  501  0.00000000000E+00  0.00000000000E+00 -0.11220419290E+03  0.11220419293E+03  0.25500000920E-02 0. -1.
    10030    2    1    2    0    0  0.00000000000E+00  0.00000000000E+00  0.69299163658E+03  0.91740002242E+03  0.60115338538E+03 0.  0.
        2    1    3    3  502    0  0.21747706575E+03  0.20592237379E+03  0.38528463435E+03  0.48800056110E+03  0.25500000920E-02 0.  1.
       -2    1    3    3    0  502 -0.21747706575E+03 -0.20592237379E+03  0.30770700223E+03  0.42939946132E+03  0.25500000920E-02 0. -1.
</event>
<event>
 5   0  0.7266519E-02  0.6031385E+03  0.7818609E-02  0.9898916E-01
        1   -1    0    0  501    0  0.00000000000E+00  0.00000000000E+00  0.53305328301E+03  0.53305328304E+03  0.50400001928E-02 0.  1.
       -1   -1    0    0    0  501  0.00000000000E+00  0.00000000000E+00 -0.17060959750E+03  0.17060959758E+03  0.50400001928E-02 0. -1.
    10030    2    1    2    0    0  0.00000000000E+00  0.00000000000E+00  0.36244368551E+03  0.70366288061E+03  0.60313847861E+03 0.  0.
        4    1    3    3  502    0 -0.99929576993E+02 -0.98502367371E+01 -0.15052972629E+03  0.18095236643E+03  0.12699999809E+01 0. -1.
       -4    1    3    3    0  502  0.99929576993E+02  0.98502367371E+01  0.51297341180E+03  0.52271051418E+03  0.12699999809E+01 0.  1.
</event>
<event>
 5   0  0.1166419E-01  0.5777833E+03  0.7818609E-02  0.9952602E-01
       -2   -1    0    0    0  501  0.00000000000E+00  0.00000000000E+00  0.42793770616E+02  0.42793770692E+02  0.25500000920E-02 0.  1.
        2   -1    0    0  501    0  0.00000000000E+00  0.00000000000E+00 -0.19502458684E+04  0.19502458684E+04  0.25500000920E-02 0. -1.
    10030    2    1    2    0    0  0.00000000000E+00  0.00000000000E+00 -0.19074520978E+04  0.19930396391E+04  0.57778326183E+03 0.  0.
        1    1    3    3  502    0  0.22176978117E+03 -0.20459829805E+02 -0.31900747622E+03  0.38905810669E+03  0.50400001928E-02 0.  1.
       -1    1    3    3    0  502 -0.22176978117E+03  0.20459829805E+02 -0.15884446216E+04  0.16039815324E+04  0.50400001928E-02 0. -1.
</event>
<event>
 5   0  0.4695625E-02  0.5905309E+03  0.7818609E-02  0.9925249E-01
       -4   -1    0    0    0  501  0.00000000000E+00  0.00000000000E+00  0.82787637527E+03  0.82787734939E+03  0.12699999809E+01 0. -1.
        4   -1    0    0  501    0  0.00000000000E+00  0.00000000000E+00 -0.10530273688E+03  0.10531039500E+03  0.12699999809E+01 0.  1.
    10030    2    1    2    0    0  0.00000000000E+00  0.00000000000E+00  0.72257363839E+03  0.93318774439E+03  0.59053086574E+03 0.  0.
        3    1    3    3  502    0  0.20927050439E+03 -0.13925147778E+03  0.60608084019E+03  0.65613955309E+03  0.10100000352E+00 0. -1.
       -3    1    3    3    0  502 -0.20927050439E+03  0.13925147778E+03  0.11649279820E+03  0.27704819131E+03  0.10100000352E+00 0.  1.
</event>
<event>
 5   0  0.7266519E-02  0.6202521E+03  0.7818609E-02  0.9864258E-01
        1   -1    0    0  501    0  0.00000000000E+00  0.00000000000E+00  0.56174913846E+03  0.56174913848E+03  0.50400001928E-02 0.  1.
       -1   -1    0    0    0  501  0.00000000000E+00  0.00000000000E+00 -0.17121194553E+03  0.17121194560E+03  0.50400001928E-02 0. -1.
    10030    2    1    2    0    0  0.00000000000E+00  0.00000000000E+00  0.39053719293E+03  0.73296108408E+03  0.62025208723E+03 0.  0.
        4    1    3    3  502    0 -0.19560222066E+03 -0.16724821638E+03 -0.92205050928E+01  0.25752441675E+03  0.12699999809E+01 0. -1.
       -4    1    3    3    0  502  0.19560222066E+03  0.16724821638E+03  0.39975769802E+03  0.47543666733E+03  0.12699999809E+01 0.  1.
</event>
<event>
 5   0  0.1175861E-01  0.5947415E+03  0.7818609E-02  0.9916376E-01
       -2   -1    0    0    0  501  0.00000000000E+00  0.00000000000E+00  0.11767568079E+03  0.11767568081E+03  0.25500000920E-02 0. -1.
        2   -1    0    0  501    0  0.00000000000E+00  0.00000000000E+00 -0.75146683942E+03  0.75146683942E+03  0.25500000920E-02 0.  1.
    10030    2    1    2    0    0  0.00000000000E+00  0.00000000000E+00 -0.63379115863E+03  0.86914252024E+03  0.59474153018E+03 0.  0.
        3    1    3    3  502    0  0.14014059175E+03 -0.17120821898E+03 -0.26534251679E+02  0.22283562645E+03  0.10100000352E+00 0. -1.
       -3    1    3    3    0  502 -0.14014059175E+03  0.17120821898E+03 -0.60725690695E+03  0.64630689378E+03  0.10100000352E+00 0.  1.
</event>
<event>
 5   0  0.7424930E-02  0.6213627E+03  0.7818609E-02  0.9862050E-01
        1   -1    0    0  501    0  0.00000000000E+00  0.00000000000E+00  0.52867800278E+03  0.52867800281E+03  0.50400001928E-02 0.  1.
       -1   -1    0    0    0  501  0.00000000000E+00  0.00000000000E+00 -0.18257406882E+03  0.18257406889E+03  0.50400001928E-02 0. -1.
    10030    2    1    2    0    0  0.00000000000E+00  0.00000000000E+00  0.34610393397E+03  0.71125207169E+03  0.62136267701E+03 0.  0.
        3    1    3    3  502    0 -0.17097632911E+03  0.22830262137E+03  0.32077327400E+02  0.28702605661E+03  0.10100000352E+00 0. -1.
       -3    1    3    3    0  502  0.17097632911E+03 -0.22830262137E+03  0.31402660657E+03  0.42422601508E+03  0.10100000352E+00 0.  1.
</event>
<event>
 5   0  0.1219020E-01  0.5896515E+03  0.7818609E-02  0.9927111E-01
       -2   -1    0    0    0  501  0.00000000000E+00  0.00000000000E+00  0.85712156483E+02  0.85712156521E+02  0.25500000920E-02 0.  1.
        2   -1    0    0  501    0  0.00000000000E+00  0.00000000000E+00 -0.10141179324E+04  0.10141179324E+04  0.25500000920E-02 0. -1.
    10030    2    1    2    0    0  0.00000000000E+00  0.00000000000E+00 -0.92840577589E+03  0.10998300889E+04  0.58965154094E+03 0.  0.
        2    1    3    3  502    0  0.23162659305E+03  0.14697704072E+03 -0.26271499830E+03  0.37983193579E+03  0.25500000920E-02 0.  1.
       -2    1    3    3    0  502 -0.23162659305E+03 -0.14697704072E+03 -0.66569077759E+03  0.71999815311E+03  0.25500000920E-02 0. -1.
</event>
<event>
 5   0  0.1175861E-01  0.6110458E+03  0.7818609E-02  0.9882751E-01
       -2   -1    0    0    0  501  0.00000000000E+00  0.00000000000E+00  0.87024967655E+02  0.87024967693E+02  0.25500000920E-02 0. -1.
        2   -1    0    0  501    0  0.00000000000E+00  0.00000000000E+00 -0.10726143333E+04  0.10726143333E+04  0.25500000920E-02 0.  1.
    10030    2    1    2    0    0  0.00000000000E+00  0.00000000000E+00 -0.98558936563E+03  0.11596393010E+04  0.61104575175E+03 0.  0.
        3    1    3    3  502    0 -0.12553337396E+03  0.26990316918E+03 -0.36216534952E+03  0.46879643696E+03  0.10100000352E+00 0. -1.
       -3    1    3    3    0  502  0.12553337396E+03 -0.26990316918E+03 -0.62342401611E+03  0.69084286402E+03  0.10100000352E+00 0.  1.
</event>
<event>
 5   0  0.1219020E-01  0.5972096E+03  0.7818609E-02  0.9911212E-01
        2   -1    0    0  501    0  0.00000000000E+00  0.00000000000E+00  0.17498829207E+03  0.17498829209E+03  0.25500000920E-02 0.  1.
       -2   -1    0    0    0  501  0.00000000000E+00  0.00000000000E+00 -0.50954740280E+03  0.50954740281E+03  0.25500000920E-02 0. -1.
    10030    2    1    2    0    0  0.00000000000E+00  0.00000000000E+00 -0.33455911073E+03  0.68453569490E+03  0.59720961062E+03 0.  0.
        2    1    3    3  502    0 -0.87360014125E+02 -0.21428071335E+03 -0.38359970000E+03  0.44799188166E+03  0.25500000920E-02 0. -1.
       -2    1    3    3    0  502  0.87360014125E+02  0.21428071335E+03  0.49040589266E+02  0.23654381324E+03  0.25500000920E-02 0.  1.
</event>
<event>
 5   0  0.1146468E-01  0.5876882E+03  0.7818609E-02  0.9931283E-01
        2   -1    0    0  501    0  0.00000000000E+00  0.00000000000E+00  0.25575986274E+04  0.25575986274E+04  0.25500000920E-02 0. -1.
       -2   -1    0    0    0  501  0.00000000000E+00  0.00000000000E+00 -0.33759934631E+02  0.33759934727E+02  0.25500000920E-02 0.  1.
    10030    2    1    2    0    0  0.00000000000E+00  0.00000000000E+00  0.25238386927E+04  0.25913585621E+04  0.58768822550E+03 0.  0.
        4    1    3    3  502    0 -0.20836417180E+03 -0.56667131385E+01  0.34868148837E+03  0.40623654803E+03  0.12699999809E+01 0.  1.
       -4    1    3    3    0  502  0.20836417180E+03  0.56667131385E+01  0.21751572044E+04  0.21851220140E+04  0.12699999809E+01 0. -1.
</event>
<event>
 5   0  0.7221069E-02  0.5693133E+03  0.7818609E-02  0.9971199E-01
        1   -1    0    0  501    0  0.00000000000E+00  0.00000000000E+00  0.74565571297E+03  0.74565571299E+03  0.50400001928E-02 0.  1.
       -1   -1    0    0    0  501  0.00000000000E+00  0.00000000000E+00 -0.10866866674E+03  0.10866866685E+03  0.50400001928E-02 0. -1.
    10030    2    1    2    0    0  0.00000000000E+00  0.00000000000E+00  0.63698704624E+03  0.85432437984E+03  0.56931331349E+03 0.  0.
        5    1    3    3  502    0 -0.54670617157E+02  0.82134043558E+02  0.71911321074E+03  0.72586553668E+03  0.46999998093E+01 0.  1.
       -5    1    3    3    0  502  0.54670617157E+02 -0.82134043558E+02 -0.82126164502E+02  0.12845884316E+03  0.46999998093E+01 0. -1.
</event>
<event>
 5   0  0.7266519E-02  0.6041172E+03  0.7818609E-02  0.9896901E-01
       -1   -1    0    0    0  501  0.00000000000E+00  0.00000000000E+00  0.57774724305E+03  0.57774724307E+03  0.50400001928E-02 0.  1.
        1   -1    0    0  501    0  0.00000000000E+00  0.00000000000E+00 -0.15792266387E+03  0.15792266395E+03  0.50400001928E-02 0. -1.
    10030    2    1    2    0    0  0.00000000000E+00  0.00000000000E+00  0.41982457918E+03  0.73566990702E+03  0.60411715322E+03 0.  0.
        4    1    3    3  502    0 -0.92129714437E+02  0.83164084551E+02 -0.12543339550E+03  0.17646330737E+03  0.12699999809E+01 0. -1.
       -4    1    3    3    0  502  0.92129714437E+02 -0.83164084551E+02  0.54525797468E+03  0.55920659965E+03  0.12699999809E+01 0.  1.
</event>
<event>
 5   0  0.1219020E-01  0.6045987E+03  0.7818609E-02  0.9895911E-01
       -2   -1    0    0    0  501  0.00000000000E+00  0.00000000000E+00  0.38955811193E+02  0.38955811276E+02  0.25500000920E-02 0. -1.
        2   -1    0    0  501    0  0.00000000000E+00  0.00000000000E+00 -0.23458601246E+04  0.23458601246E+04  0.25500000920E-02 0.  1.
    10030    2    1    2    0    0  0.00000000000E+00  0.00000000000E+00 -0.23069043134E+04  0.23848159359E+04  0.60459865762E+03 0.  0.
        2    1    3    3  502    0  0.51091801731E+02 -0.29781398624E+03 -0.11890270833E+04  0.12268206664E+04  0.25500000920E-02 0. -1.
       -2    1    3    3    0  502 -0.51091801731E+02  0.29781398624E+03 -0.11178772301E+04  0.11579952695E+04  0.25500000920E-02 0.  1.
</event>
<event>
 5   0  0.1219020E-01  0.6015365E+03  0.7818609E-02  0.9902223E-01
       -2   -1    0    0    0  501  0.00000000000E+00  0.00000000000E+00  0.30162601590E+03  0.30162601592E+03  0.25500000920E-02 0. -1.
        2   -1    0    0  501    0  0.00000000000E+00  0.00000000000E+00 -0.29991296946E+03  0.29991296947E+03  0.25500000920E-02 0.  1.
    10030    2    1    2    0    0  0.00000000000E+00  0.00000000000E+00  0.17130464419E+01  0.60153898539E+03  0.60153654620E+03 0.  0.
        2    1    3    3  502    0 -0.12865106443E+03 -0.32507321379E+02 -0.26905887576E+03  0.30000083493E+03  0.25500000920E-02 0.  1.
       -2    1    3    3    0  502  0.12865106443E+03  0.32507321379E+02  0.27077192221E+03  0.30153815046E+03  0.25500000920E-02 0. -1.
</event>
<event>
 5   0  0.4695625E-02  0.6151549E+03  0.7818609E-02  0.9874454E-01
       -3   -1    0    0    0  501  0.00000000000E+00  0.00000000000E+00  0.24866108673E+03  0.24866110724E+03  0.10100000352E+00 0. -1.
        3   -1    0    0  501    0  0.00000000000E+00  0.00000000000E+00 -0.38045305200E+03  0.38045306540E+03  0.10100000352E+00 0.  1.
    10030    2    1    2    0    0  0.00000000000E+00  0.00000000000E+00 -0.13179196527E+03  0.62911417264E+03  0.61515487490E+03 0.  0.
        2    1    3    3  502    0 -0.15732419167E+03  0.86499395990E+02 -0.32130473289E+03  0.36806219335E+03  0.25500000920E-02 0.  1.
       -2    1    3    3    0  502  0.15732419167E+03 -0.86499395990E+02  0.18951276762E+03  0.26105197929E+03  0.25500000920E-02 0. -1.
</event>
<event>
 5   0  0.1175861E-01  0.6212481E+03  0.7818609E-02  0.9862278E-01
        2   -1    0    0  501    0  0.00000000000E+00  0.00000000000E+00  0.54870743830E+03  0.54870743831E+03  0.25500000920E-02 0.  1.
       -2   -1    0    0    0  501  0.00000000000E+00  0.00000000000E+00 -0.17584471610E+03  0.17584471612E+03  0.25500000920E-02 0. -1.
    10030    2    1    2    0    0  0.00000000000E+00  0.00000000000E+00  0.37286272220E+03  0.72455215443E+03  0.62124811056E+03 0.  0.
        3    1    3    3  502    0  0.30121222551E+03  0.46299859139E+02  0.11631047192E+03  0.32619107565E+03  0.10100000352E+00 0. -1.
       -3    1    3    3    0  502 -0.30121222551E+03 -0.46299859139E+02  0.25655225028E+03  0.39836107877E+03  0.10100000352E+00 0.  1.
</event>
<event>
 5   0  0.4695625E-02  0.5991724E+03  0.7818609E-02  0.9907125E-01
        4   -1    0    0  501    0  0.00000000000E+00  0.00000000000E+00  0.45582351046E+03  0.45582527968E+03  0.12699999809E+01 0.  1.
       -4   -1    0    0    0  501  0.00000000000E+00  0.00000000000E+00 -0.19689631913E+03  0.19690041490E+03  0.12699999809E+01 0. -1.
    10030    2    1    2    0    0  0.00000000000E+00  0.00000000000E+00  0.25892719134E+03  0.65272569457E+03  0.59917238082E+03 0.  0.
        1    1    3    3  502    0  0.15909344122E+03 -0.69421283833E+02 -0.13653640554E+03  0.22084435187E+03  0.50400001928E-02 0. -1.
       -1    1    3    3    0  502 -0.15909344122E+03  0.69421283833E+02  0.39546359688E+03  0.43188134270E+03  0.50400001928E-02 0.  1.
</event>
<event>
 5   0  0.7263385E-02  0.6383676E+03  0.7818609E-02  0.9828855E-01
        1   -1    0    0  501    0  0.00000000000E+00  0.00000000000E+00  0.47532265610E+03  0.47532265613E+03  0.50400001928E-02 0. -1.
       -1   -1    0    0    0  501  0.00000000000E+00  0.00000000000E+00 -0.21433501555E+03  0.21433501561E+03  0.50400001928E-02 0.  1.
    10030    2    1    2    0    0  0.00000000000E+00  0.00000000000E+00  0.26098764055E+03  0.68965767173E+03  0.63836757097E+03 0.  0.
        1    1    3    3  502    0  0.42487629729E+02  0.11689737181E+03 -0.18707654556E+03  0.22465045769E+03  0.50400001928E-02 0.  1.
       -1    1    3    3    0  502 -0.42487629729E+02 -0.11689737181E+03  0.44806418611E+03  0.46500721405E+03  0.50400001928E-02 0. -1.
</event>
<event>
 5   0  0.1219020E-01  0.6015930E+03  0.7818609E-02  0.9902107E-01
        2   -1    0    0  501    0  0.00000000000E+00  0.00000000000E+00  0.17501796291E+04  0.17501796291E+04  0.25500000920E-02 0.  1.
       -2   -1    0    0    0  501  0.00000000000E+00  0.00000000000E+00 -0.51696708446E+02  0.51696708509E+02  0.25500000920E-02 0. -1.
    10030    2    1    2    0    0  0.00000000000E+00  0.00000000000E+00  0.16984829207E+04  0.18018763376E+04  0.60159297228E+03 0.  0.
        2    1    3    3  502    0  0.95730252412E+02  0.28429951317E+03  0.91540918853E+03  0.96330912840E+03  0.25500000920E-02 0.  1.
       -2    1    3    3    0  502 -0.95730252412E+02 -0.28429951317E+03  0.78307373215E+03  0.83856720923E+03  0.25500000920E-02 0. -1.
</event>
<event>
 5   0  0.1206238E-01  0.6457509E+03  0.7818609E-02  0.9814785E-01
        2   -1    0    0  501    0  0.00000000000E+00  0.00000000000E+00  0.15771762965E+04  0.15771762965E+04  0.25500000920E-02 0. -1.
       -2   -1    0    0    0  501  0.00000000000E+00  0.00000000000E+00 -0.66098218937E+02  0.66098218986E+02  0.25500000920E-02 0.  1.
    10030    2    1    2    0    0  0.00000000000E+00  0.00000000000E+00  0.15110780776E+04  0.16432745155E+04  0.64575086276E+03 0.  0.
        5    1    3    3  502    0  0.10322921227E+03 -0.30571845066E+03  0.78178981607E+03  0.84577623983E+03  0.46999998093E+01 0. -1.
       -5    1    3    3    0  502 -0.10322921227E+03  0.30571845066E+03  0.72928826148E+03  0.79749827565E+03  0.46999998093E+01 0.  1.
</event>
<event>
 5   0  0.4695625E-02  0.6019579E+03  0.7818609E-02  0.9901352E-01
       -4   -1    0    0    0  501  0.00000000000E+00  0.00000000000E+00  0.20073048004E+03  0.20073449758E+03  0.12699999809E+01 0. -1.
        4   -1    0    0  501    0  0.00000000000E+00  0.00000000000E+00 -0.45128383926E+03  0.45128562627E+03  0.12699999809E+01 0.  1.
    10030    2    1    2    0    0  0.00000000000E+00  0.00000000000E+00 -0.25055335922E+03  0.65202012385E+03  0.60195785242E+03 0.  0.
        1    1    3    3  502    0  0.21579511278E+03  0.88075888186E+02  0.80990107120E+02  0.24674742199E+03  0.50400001928E-02 0.  1.
       -1    1    3    3    0  502 -0.21579511278E+03 -0.88075888186E+02 -0.33154346634E+03  0.40527270187E+03  0.50400001928E-02 0. -1.
</event>
<event>
 5   0  0.7221069E-02  0.6011151E+03  0.7818609E-02  0.9903095E-01
        1   -1    0    0  501    0  0.00000000000E+00  0.00000000000E+00  0.30824669666E+03  0.30824669670E+03  0.50400001928E-02 0. -1.
       -1   -1    0    0    0  501  0.00000000000E+00  0.00000000000E+00 -0.29306021292E+03  0.29306021296E+03  0.50400001928E-02 0.  1.
    10030    2    1    2    0    0  0.00000000000E+00  0.00000000000E+00  0.15186483742E+02  0.60130690967E+03  0.60111510572E+03 0.  0.
        5    1    3    3  502    0 -0.25659084315E+03 -0.12627148211E+03 -0.84791002441E+02  0.29832021734E+03  0.46999998093E+01 0.  1.
       -5    1    3    3    0  502  0.25659084315E+03  0.12627148211E+03  0.99977486183E+02  0.30298669232E+03  0.46999998093E+01 0. -1.
</event>
<event>
 5   0  0.1146468E-01  0.6054171E+03  0.7818609E-02  0.9894231E-01
        2   -1    0    0  501    0  0.00000000000E+00  0.00000000000E+00  0.28320387207E+03  0.28320387208E+03  0.25500000920E-02 0. -1.
       -2   -1    0    0    0  501  0.00000000000E+00  0.00000000000E+00 -0.32355649651E+03  0.32355649652E+03  0.25500000920E-02 0.  1.
    10030    2    1    2    0    0  0.00000000000E+00  0.00000000000E+00 -0.40352624435E+02  0.60676036860E+03  0.60541705510E+03 0.  0.
        4    1    3    3  502    0  0.13009276265E+03 -0.27326490061E+03 -0.14418397073E+02  0.30299725391E+03  0.12699999809E+01 0. -1.
       -4    1    3    3    0  502 -0.13009276265E+03  0.27326490061E+03 -0.25934227362E+02  0.30376311470E+03  0.12699999809E+01 0.  1.
</event>
<event>
 5   0  0.7424930E-02  0.6349475E+03  0.7818609E-02  0.9835441E-01
        1   -1    0    0  501    0  0.00000000000E+00  0.00000000000E+00  0.44352991576E+03  0.44352991579E+03  0.50400001928E-02 0.  1.
       -1   -1    0    0    0  501  0.00000000000E+00  0.00000000000E+00 -0.22724412581E+03  0.22724412586E+03  0.50400001928E-02 0. -1.
    10030    2    1    2    0    0  0.00000000000E+00  0.00000000000E+00  0.21628578995E+03  0.67077404165E+03  0.63494745610E+03 0.  0.
        3    1    3    3  502    0 -0.78761027862E+02 -0.28926213657E+03  0.21850601282E+03  0.37097273619E+03  0.10100000352E+00 0.  1.
       -3    1    3    3    0  502  0.78761027862E+02  0.28926213657E+03 -0.22202228641E+01  0.29980130545E+03  0.10100000352E+00 0. -1.
</event>
<event>
 5   0  0.7123340E-02  0.6181346E+03  0.7818609E-02  0.9868481E-01
       -1   -1    0    0    0  501  0.00000000000E+00  0.00000000000E+00  0.17129646424E+03  0.17129646431E+03  0.50400001928E-02 0.  1.
        1   -1    0    0  501    0  0.00000000000E+00  0.00000000000E+00 -0.55764482663E+03  0.55764482665E+03  0.50400001928E-02 0. -1.
    10030    2    1    2    0    0  0.00000000000E+00  0.00000000000E+00 -0.38634836239E+03  0.72894129096E+03  0.61813457155E+03 0.  0.
        2    1    3    3  502    0  0.24351300777E+03 -0.22467482044E+02 -0.41604872496E+03  0.48259705164E+03  0.25500000920E-02 0. -1.
       -2    1    3    3    0  502 -0.24351300777E+03  0.22467482044E+02  0.29700362569E+02  0.24634423932E+03  0.25500000920E-02 0.  1.
</event>
<event>
 5   0  0.1219020E-01  0.6053516E+03  0.7818609E-02  0.9894365E-01
       -2   -1    0    0    0  501  0.00000000000E+00  0.00000000000E+00  0.21061143969E+03  0.21061143971E+03  0.25500000920E-02 0.  1.
        2   -1    0    0  501    0  0.00000000000E+00  0.00000000000E+00 -0.43498410465E+03  0.43498410466E+03  0.25500000920E-02 0. -1.
    10030    2    1    2    0    0  0.00000000000E+00  0.00000000000E+00 -0.22437266496E+03  0.64559554437E+03  0.60535156243E+03 0.  0.
        2    1    3    3  502    0  0.29847220290E+03 -0.22244139502E+02 -0.64109818583E+02  0.30608908261E+03  0.25500000920E-02 0. -1.
       -2    1    3    3    0  502 -0.29847220290E+03  0.22244139502E+02 -0.16026284637E+03  0.33950646176E+03  0.25500000920E-02 0.  1.
</event>
<event>
 5   0  0.1206238E-01  0.8069916E+03  0.7818609E-02  0.9549952E-01
       -2   -1    0    0    0  501  0.00000000000E+00  0.00000000000E+00  0.13408880457E+03  0.13408880459E+03  0.25500000920E-02 0. -1.
        2   -1    0    0  501    0  0.00000000000E+00  0.00000000000E+00 -0.12141867864E+04  0.12141867864E+04  0.25500000920E-02 0.  1.
    10030    2    1    2    0    0  0.00000000000E+00  0.00000000000E+00 -0.10800979818E+04  0.13482755910E+04  0.80699158540E+03 0.  0.
        5    1    3    3  502    0 -0.29154078026E+02 -0.15070325230E+03  0.83353883513E+02  0.17473233934E+03  0.46999998093E+01 0. -1.
       -5    1    3    3    0  502  0.29154078026E+02  0.15070325230E+03 -0.11634518653E+04  0.11735432516E+04  0.46999998093E+01 0.  1.
</event>
<event>
 5   0  0.7266519E-02  0.5944269E+03  0.7818609E-02  0.9917036E-01
       -1   -1    0    0    0  501  0.00000000000E+00  0.00000000000E+00  0.90320087462E+02  0.90320087603E+02  0.50400001928E-02 0.  1.
        1   -1    0    0  501    0  0.00000000000E+00  0.00000000000E+00 -0.97803101819E+03  0.97803101820E+03  0.50400001928E-02 0. -1.
    10030    2    1    2    0    0  0.00000000000E+00  0.00000000000E+00 -0.88771093073E+03  0.10683511058E+04  0.59442694147E+03 0.  0.
        4    1    3    3  502    0 -0.10214528667E+01 -0.14251132149E+03  0.24899293249E+02  0.14467932756E+03  0.12699999809E+01 0.  1.
       -4    1    3    3    0  502  0.10214528667E+01  0.14251132149E+03 -0.91261022398E+03  0.92367177825E+03  0.12699999809E+01 0. -1.
</event>
<event>
 5   0  0.1206238E-01  0.5716572E+03  0.7818609E-02  0.9966018E-01
        2   -1    0    0  501    0  0.00000000000E+00  0.00000000000E+00  0.17221662053E+04  0.17221662053E+04  0.25500000920E-02 0.  1.
       -2   -1    0    0    0  501  0.00000000000E+00  0.00000000000E+00 -0.47439082315E+02  0.47439082384E+02  0.25500000920E-02 0. -1.
    10030    2    1    2    0    0  0.00000000000E+00  0.00000000000E+00  0.16747271229E+04  0.17696052876E+04  0.57165718550E+03 0.  0.
        5    1    3    3  502    0 -0.23671784247E+03  0.10030749790E+03  0.45098767145E+03  0.51914246684E+03  0.46999998093E+01 0. -1.
       -5    1    3    3    0  502  0.23671784247E+03 -0.10030749790E+03  0.12237394515E+04  0.12504628208E+04  0.46999998093E+01 0.  1.
</event>
<event>
 5   0  0.4695625E-02  0.5979593E+03  0.7818609E-02  0.9909649E-01
        3   -1    0    0  501    0  0.00000000000E+00  0.00000000000E+00  0.27139126985E+03  0.27139128864E+03  0.10100000352E+00 0. -1.
       -3   -1    0    0    0  501  0.00000000000E+00  0.00000000000E+00 -0.32937246843E+03  0.32937248392E+03  0.10100000352E+00 0.  1.
    10030    2    1    2    0    0  0.00000000000E+00  0.00000000000E+00 -0.57981198581E+02  0.60076377256E+03  0.59795927205E+03 0.  0.
        3    1    3    3  502    0  0.29341543820E+03 -0.20714227429E+02  0.24805973532E+02  0.29518984589E+03  0.10100000352E+00 0. -1.
       -3    1    3    3    0  502 -0.29341543820E+03  0.20714227429E+02 -0.82787172113E+02  0.30557392667E+03  0.10100000352E+00 0.  1.
</event>
<event>
 5   0  0.7424930E-02  0.5957929E+03  0.7818609E-02  0.9914173E-01
        1   -1    0    0  501    0  0.00000000000E+00  0.00000000000E+00  0.61147076765E+03  0.61147076767E+03  0.50400001928E-02 0. -1.
       -1   -1    0    0    0  501  0.00000000000E+00  0.00000000000E+00 -0.14512927024E+03  0.14512927033E+03  0.50400001928E-02 0.  1.
    10030    2    1    2    0    0  0.00000000000E+00  0.00000000000E+00  0.46634149741E+03  0.75660003801E+03  0.59579293828E+03 0.  0.
        3    1    3    3  502    0 -0.14134686551E+03 -0.51392643415E+02  0.55971685537E+03  0.57957148703E+03  0.10100000352E+00 0. -1.
       -3    1    3    3    0  502  0.14134686551E+03  0.51392643415E+02 -0.93375357962E+02  0.17702855098E+03  0.10100000352E+00 0.  1.
</event>
<event>
 5   0  0.1219020E-01  0.5887721E+03  0.7818609E-02  0.9928978E-01
       -2   -1    0    0    0  501  0.00000000000E+00  0.00000000000E+00  0.33769650229E+03  0.33769650230E+03  0.25500000920E-02 0.  1.
        2   -1    0    0  501    0  0.00000000000E+00  0.00000000000E+00 -0.25663029237E+03  0.25663029238E+03  0.25500000920E-02 0. -1.
    10030    2    1    2    0    0  0.00000000000E+00  0.00000000000E+00  0.81066209924E+02  0.59432679468E+03  0.58877211932E+03 0.  0.
        2    1    3    3  502    0 -0.75765477067E+02 -0.23209887316E+03  0.20656237102E+03  0.31980979904E+03  0.25500000920E-02 0.  1.
       -2    1    3    3    0  502  0.75765477067E+02  0.23209887316E+03 -0.12549616109E+03  0.27451699564E+03  0.25500000920E-02 0. -1.
</event>
<event>
 5   0  0.1175861E-01  0.6010572E+03  0.7818609E-02  0.9903215E-01
        2   -1    0    0  501    0  0.00000000000E+00  0.00000000000E+00  0.56477575919E+03  0.56477575920E+03  0.25500000920E-02 0. -1.
       -2   -1    0    0    0  501  0.00000000000E+00  0.00000000000E+00 -0.15991736582E+03  0.15991736585E+03  0.25500000920E-02 0.  1.
    10030    2    1    2    0    0  0.00000000000E+00  0.00000000000E+00  0.40485839337E+03  0.72469312504E+03  0.60105724087E+03 0.  0.
        3    1    3    3  502    0 -0.10872819140E+03 -0.46160553646E+02 -0.13075545625E+03  0.17620901185E+03  0.10100000352E+00 0.  1.
       -3    1    3    3    0  502  0.10872819140E+03  0.46160553646E+02  0.53561384961E+03  0.54848411319E+03  0.10100000352E+00 0. -1.
</event>
<event>
 5   0  0.1166419E-01  0.5485770E+03  0.7818609E-02  0.1001824E+00
       -2   -1    0    0    0  501  0.00000000000E+00  0.00000000000E+00  0.21635024868E+03  0.21635024870E+03  0.25500000920E-02 0. -1.
        2   -1    0    0  501    0  0.00000000000E+00  0.00000000000E+00 -0.34774247707E+03  0.34774247708E+03  0.25500000920E-02 0.  1.
    10030    2    1    2    0    0  0.00000000000E+00  0.00000000000E+00 -0.13139222839E+03  0.56409272578E+03  0.54857696415E+03 0.  0.
        1    1    3    3  502    0 -0.93160966376E+02  0.25774008820E+03 -0.77204287652E+02  0.28472692317E+03  0.50400001928E-02 0. -1.
       -1    1    3    3    0  502  0.93160966376E+02 -0.25774008820E+03 -0.54187940741E+02  0.27936580261E+03  0.50400001928E-02 0.  1.
</event>
<event>
 5   0  0.7266519E-02  0.6522783E+03  0.7818609E-02  0.9802514E-01
       -1   -1    0    0    0  501  0.00000000000E+00  0.00000000000E+00  0.23191488904E+03  0.23191488910E+03  0.50400001928E-02 0. -1.
        1   -1    0    0  501    0  0.00000000000E+00  0.00000000000E+00 -0.45864555158E+03  0.45864555161E+03  0.50400001928E-02 0.  1.
    10030    2    1    2    0    0  0.00000000000E+00  0.00000000000E+00 -0.22673066254E+03  0.69056044070E+03  0.65227826035E+03 0.  0.
        4    1    3    3  502    0  0.21562711545E+03  0.24344307879E+03 -0.13941714640E+03  0.35383377332E+03  0.12699999809E+01 0.  1.
       -4    1    3    3    0  502 -0.21562711545E+03 -0.24344307879E+03 -0.87313516137E+02  0.33672666739E+03  0.12699999809E+01 0. -1.
</event>
<event>
 5   0  0.1175861E-01  0.5914958E+03  0.7818609E-02  0.9923208E-01
        2   -1    0    0  501    0  0.00000000000E+00  0.00000000000E+00  0.49389351692E+03  0.49389351693E+03  0.25500000920E-02 0. -1.
       -2   -1    0    0    0  501  0.00000000000E+00  0.00000000000E+00 -0.17709653286E+03  0.17709653288E+03  0.25500000920E-02 0.  1.
    10030    2    1    2    0    0  0.00000000000E+00  0.00000000000E+00  0.31679698406E+03  0.67099004981E+03  0.59149583079E+03 0.  0.
        3    1    3    3  502    0  0.13559959366E+03  0.58690236099E+02  0.44902299121E+03  0.47270863167E+03  0.10100000352E+00 0. -1.
       -3    1    3    3    0  502 -0.13559959366E+03 -0.58690236099E+02 -0.13222600715E+03  0.19828141814E+03  0.10100000352E+00 0.  1.
</event>
<event>
 5   0  0.7266519E-02  0.5335614E+03  0.7818609E-02  0.1005372E+00
       -1   -1    0    0    0  501  0.00000000000E+00  0.00000000000E+00  0.15034650765E+03  0.15034650774E+03  0.50400001928E-02 0.  1.
        1   -1    0    0  501    0  0.00000000000E+00  0.00000000000E+00 -0.47338613762E+03  0.47338613765E+03  0.50400001928E-02 0. -1.
    10030    2    1    2    0    0  0.00000000000E+00  0.00000000000E+00 -0.32303962997E+03  0.62373264539E+03  0.53356144013E+03 0.  0.
        4    1    3    3  502    0  0.11839851602E+02 -0.25468748216E+03 -0.69737079709E+02  0.26433079435E+03  0.12699999809E+01 0.  1.
       -4    1    3    3    0  502 -0.11839851602E+02  0.25468748216E+03 -0.25330255026E+03  0.35940185103E+03  0.12699999809E+01 0. -1.
</event>
<event>
 5   0  0.1206238E-01  0.5915074E+03  0.7818609E-02  0.9923184E-01
        2   -1    0    0  501    0  0.00000000000E+00  0.00000000000E+00  0.33972701130E+03  0.33972701131E+03  0.25500000920E-02 0. -1.
       -2   -1    0    0    0  501  0.00000000000E+00  0.00000000000E+00 -0.25747218319E+03  0.25747218320E+03  0.25500000920E-02 0.  1.
    10030    2    1    2    0    0  0.00000000000E+00  0.00000000000E+00  0.82254828110E+02  0.59719919451E+03  0.59150741430E+03 0.  0.
        5    1    3    3  502    0  0.21204924219E+03 -0.20421082223E+03  0.69346756032E+02  0.30248636928E+03  0.46999998093E+01 0.  1.
       -5    1    3    3    0  502 -0.21204924219E+03  0.20421082223E+03  0.12908072078E+02  0.29471282523E+03  0.46999998093E+01 0. -1.
</event>
<event>
 5   0  0.7266519E-02  0.6378943E+03  0.7818609E-02  0.9829764E-01
        1   -1    0    0  501    0  0.00000000000E+00  0.00000000000E+00  0.14850542130E+03  0.14850542139E+03  0.50400001928E-02 0. -1.
       -1   -1    0    0    0  501  0.00000000000E+00  0.00000000000E+00 -0.68500712267E+03  0.68500712269E+03  0.50400001928E-02 0.  1.
    10030    2    1    2    0    0  0.00000000000E+00  0.00000000000E+00 -0.53650170137E+03  0.83351254407E+03  0.63789425892E+03 0.  0.
        4    1    3    3  502    0  0.17313984822E+03  0.15551970243E+03  0.16715068989E+02  0.23333407663E+03  0.12699999809E+01 0. -1.
       -4    1    3    3    0  502 -0.17313984822E+03 -0.15551970243E+03 -0.55321677036E+03  0.60017846745E+03  0.12699999809E+01 0.  1.
</event>
<event>
 5   0  0.7424930E-02  0.5978734E+03  0.7818609E-02  0.9909828E-01
        1   -1    0    0  501    0  0.00000000000E+00  0.00000000000E+00  0.31177143372E+03  0.31177143376E+03  0.50400001928E-02 0.  1.
       -1   -1    0    0    0  501  0.00000000000E+00  0.00000000000E+00 -0.28663036470E+03  0.28663036474E+03  0.50400001928E-02 0. -1.
    10030    2    1    2    0    0  0.00000000000E+00  0.00000000000E+00  0.25141069025E+02  0.59840179850E+03  0.59787343067E+03 0.  0.
        3    1    3    3  502    0 -0.26972999822E+03 -0.56197224735E+02  0.12865039557E+03  0.30407784281E+03  0.10100000352E+00 0.  1.
       -3    1    3    3    0  502  0.26972999822E+03  0.56197224735E+02 -0.10350932655E+03  0.29432395569E+03  0.10100000352E+00 0. -1.
</event>
<event>
 5   0  0.1166419E-01  0.5968717E+03  0.7818609E-02  0.9911918E-01
       -2   -1    0    0    0  501  0.00000000000E+00  0.00000000000E+00  0.14824344185E+03  0.14824344187E+03  0.25500000920E-02 0.  1.
        2   -1    0    0  501    0  0.00000000000E+00  0.00000000000E+00 -0.60079517170E+03  0.60079517171E+03  0.25500000920E-02 0. -1.
    10030    2    1    2    0    0  0.00000000000E+00  0.00000000000E+00 -0.45255172985E+03  0.74903861358E+03  0.59687165826E+03 0.  0.
        1    1    3    3  502    0 -0.27133716386E+03  0.11586846304E+03 -0.28260281656E+03  0.40855074247E+03  0.50400001928E-02 0. -1.
       -1    1    3    3    0  502  0.27133716386E+03 -0.11586846304E+03 -0.16994891330E+03  0.34048787111E+03  0.50400001928E-02 0.  1.
</event>
<event>
 5   0  0.1146468E-01  0.6779651E+03  0.7818609E-02  0.9755675E-01
       -2   -1    0    0    0  501  0.00000000000E+00  0.00000000000E+00  0.95046449262E+02  0.95046449296E+02  0.25500000920E-02 0.  1.
        2   -1    0    0  501    0  0.00000000000E+00  0.00000000000E+00 -0.12089792349E+04  0.12089792349E+04  0.25500000920E-02 0. -1.
    10030    2    1    2    0    0  0.00000000000E+00  0.00000000000E+00 -0.11139327856E+04  0.13040256842E+04  0.67796514227E+03 0.  0.
        4    1    3    3  502    0 -0.23954734302E+03 -0.56892188968E+02 -0.10051235960E+04  0.10348404257E+04  0.12699999809E+01 0. -1.
       -4    1    3    3    0  502  0.23954734302E+03  0.56892188968E+02 -0.10880918969E+03  0.26918525846E+03  0.12699999809E+01 0.  1.
</event>
<event>
 5   0  0.1175861E-01  0.5995367E+03  0.7818609E-02  0.9906368E-01
       -2   -1    0    0    0  501  0.00000000000E+00  0.00000000000E+00  0.70158110275E+03  0.70158110275E+03  0.25500000920E-02 0.  1.
        2   -1    0    0  501    0  0.00000000000E+00  0.00000000000E+00 -0.12808364737E+03  0.12808364739E+03  0.25500000920E-02 0. -1.
    10030    2    1    2    0    0  0.00000000000E+00  0.00000000000E+00  0.57349745538E+03  0.82966475014E+03  0.59953670972E+03 0.  0.
        3    1    3    3  502    0 -0.26708027419E+03 -0.97577491521E+02  0.41808861147E+03  0.50561975530E+03  0.10100000352E+00 0.  1.
       -3    1    3    3    0  502  0.26708027419E+03  0.97577491521E+02  0.15540884391E+03  0.32404499484E+03  0.10100000352E+00 0. -1.
</event>
<event>
 5   0  0.7123340E-02  0.5720241E+03  0.7818609E-02  0.9965209E-01
       -1   -1    0    0    0  501  0.00000000000E+00  0.00000000000E+00  0.30539098651E+02  0.30539099067E+02  0.50400001928E-02 0.  1.
        1   -1    0    0  501    0  0.00000000000E+00  0.00000000000E+00 -0.26786286111E+04  0.26786286111E+04  0.50400001928E-02 0. -1.
    10030    2    1    2    0    0  0.00000000000E+00  0.00000000000E+00 -0.26480895124E+04  0.27091677101E+04  0.57202413925E+03 0.  0.
        2    1    3    3  502    0  0.15256219468E+03 -0.43331561958E+02 -0.19679095633E+03  0.25274399698E+03  0.25500000920E-02 0.  1.
       -2    1    3    3    0  502 -0.15256219468E+03  0.43331561958E+02 -0.24512985561E+04  0.24564237132E+04  0.25500000920E-02 0. -1.
</event>
<event>
 5   0  0.7123340E-02  0.5900676E+03  0.7818609E-02  0.9926230E-01
       -1   -1    0    0    0  501  0.00000000000E+00  0.00000000000E+00  0.17775222959E+03  0.17775222966E+03  0.50400001928E-02 0. -1.
        1   -1    0    0  501    0  0.00000000000E+00  0.00000000000E+00 -0.48969817751E+03  0.48969817754E+03  0.50400001928E-02 0.  1.
    10030    2    1    2    0    0  0.00000000000E+00  0.00000000000E+00 -0.31194594793E+03  0.66745040719E+03  0.59006759921E+03 0.  0.
        2    1    3    3  502    0 -0.22133094571E+02  0.28480642560E+03 -0.23940473518E+03  0.37271866223E+03  0.25500000920E-02 0.  1.
       -2    1    3    3    0  502  0.22133094571E+02 -0.28480642560E+03 -0.72541212743E+02  0.29473174497E+03  0.25500000920E-02 0. -1.
</event>
<event>
 5   0  0.1206238E-01  0.5872624E+03  0.7818609E-02  0.9932191E-01
       -2   -1    0    0    0  501  0.00000000000E+00  0.00000000000E+00  0.31475268115E+03  0.31475268116E+03  0.25500000920E-02 0.  1.
        2   -1    0    0  501    0  0.00000000000E+00  0.00000000000E+00 -0.27392703545E+03  0.27392703546E+03  0.25500000920E-02 0. -1.
    10030    2    1    2    0    0  0.00000000000E+00  0.00000000000E+00  0.40825645700E+02  0.58867971662E+03  0.58726235654E+03 0.  0.
        5    1    3    3  502    0 -0.26947065425E+03 -0.10970514091E+03  0.59846391707E+02  0.29707462369E+03  0.46999998093E+01 0.  1.
       -5    1    3    3    0  502  0.26947065425E+03  0.10970514091E+03 -0.19020746007E+02  0.29160509293E+03  0.46999998093E+01 0. -1.
</event>
<event>
 5   0  0.7263385E-02  0.5817826E+03  0.7818609E-02  0.9943939E-01
       -1   -1    0    0    0  501  0.00000000000E+00  0.00000000000E+00  0.58155867625E+02  0.58155867843E+02  0.50400001928E-02 0. -1.
        1   -1    0    0  501    0  0.00000000000E+00  0.00000000000E+00 -0.14550165446E+04  0.14550165446E+04  0.50400001928E-02 0.  1.
    10030    2    1    2    0    0  0.00000000000E+00  0.00000000000E+00 -0.13968606769E+04  0.15131724124E+04  0.58178260452E+03 0.  0.
        1    1    3    3  502    0  0.18183928178E+03  0.22685706858E+03 -0.72284243795E+03  0.77912184162E+03  0.50400001928E-02 0. -1.
       -1    1    3    3    0  502 -0.18183928178E+03 -0.22685706858E+03 -0.67401823899E+03  0.73405057080E+03  0.50400001928E-02 0.  1.
</event>
<event>
 5   0  0.1175861E-01  0.5747072E+03  0.7818609E-02  0.9959316E-01
       -2   -1    0    0    0  501  0.00000000000E+00  0.00000000000E+00  0.14774056366E+03  0.14774056368E+03  0.25500000920E-02 0. -1.
        2   -1    0    0  501    0  0.00000000000E+00  0.00000000000E+00 -0.55889935417E+03  0.55889935418E+03  0.25500000920E-02 0.  1.
    10030    2    1    2    0    0  0.00000000000E+00  0.00000000000E+00 -0.41115879051E+03  0.70663991786E+03  0.57470724939E+03 0.  0.
        3    1    3    3  502    0  0.24482950767E+03  0.14622780846E+03 -0.24901691145E+03  0.37859409951E+03  0.10100000352E+00 0.  1.
       -3    1    3    3    0  502 -0.24482950767E+03 -0.14622780846E+03 -0.16214187906E+03  0.32804581835E+03  0.10100000352E+00 0. -1.
</event>
<event>
 5   0  0.4695625E-02  0.5861091E+03  0.7818609E-02  0.9934652E-01
        4   -1    0    0  501    0  0.00000000000E+00  0.00000000000E+00  0.10649065234E+04  0.10649072807E+04  0.12699999809E+01 0.  1.
       -4   -1    0    0    0  501  0.00000000000E+00  0.00000000000E+00 -0.80640706870E+02  0.80650706782E+02  0.12699999809E+01 0. -1.
    10030    2    1    2    0    0  0.00000000000E+00  0.00000000000E+00  0.98426581650E+03  0.11455579874E+04  0.58610912386E+03 0.  0.
        3    1    3    3  502    0  0.30432582820E+02 -0.21936961189E+03  0.86723548886E+03  0.89506791477E+03  0.10100000352E+00 0.  1.
       -3    1    3    3    0  502 -0.30432582820E+02  0.21936961189E+03  0.11703032763E+03  0.25049007267E+03  0.10100000352E+00 0. -1.
</event>
<event>
 5   0  0.7266519E-02  0.5884214E+03  0.7818609E-02  0.9929723E-01
        1   -1    0    0  501    0  0.00000000000E+00  0.00000000000E+00  0.24972299365E+03  0.24972299370E+03  0.50400001928E-02 0. -1.
       -1   -1    0    0    0  501  0.00000000000E+00  0.00000000000E+00 -0.34662385596E+03  0.34662385600E+03  0.50400001928E-02 0.  1.
    10030    2    1    2    0    0  0.00000000000E+00  0.00000000000E+00 -0.96900862313E+02  0.59634684970E+03  0.58842143743E+03 0.  0.
        4    1    3    3  502    0 -0.16869935856E+03 -0.21939436412E+03  0.52718815779E+02  0.28173435542E+03  0.12699999809E+01 0. -1.
       -4    1    3    3    0  502  0.16869935856E+03  0.21939436412E+03 -0.14961967809E+03  0.31461249428E+03  0.12699999809E+01 0.  1.
</event>
<event>
 5   0  0.7221069E-02  0.6195059E+03  0.7818609E-02  0.9865744E-01
       -1   -1    0    0    0  501  0.00000000000E+00  0.00000000000E+00  0.14978252621E+03  0.14978252630E+03  0.50400001928E-02 0. -1.
        1   -1    0    0  501    0  0.00000000000E+00  0.00000000000E+00 -0.64057464302E+03  0.64057464304E+03  0.50400001928E-02 0.  1.
    10030    2    1    2    0    0  0.00000000000E+00  0.00000000000E+00 -0.49079211681E+03  0.79035716934E+03  0.61950589441E+03 0.  0.
        5    1    3    3  502    0  0.23661802648E+03 -0.24339550508E+02 -0.49845333700E+03  0.55232085181E+03  0.46999998093E+01 0.  1.
       -5    1    3    3    0  502 -0.23661802648E+03  0.24339550508E+02  0.76612201924E+01  0.23803631754E+03  0.46999998093E+01 0. -1.
</event>
<event>
 5   0  0.1146468E-01  0.5964460E+03  0.7818609E-02  0.9912807E-01
       -2   -1    0    0    0  501  0.00000000000E+00  0.00000000000E+00  0.25215566711E+03  0.25215566712E+03  0.25500000920E-02 0.  1.
        2   -1    0    0  501    0  0.00000000000E+00  0.00000000000E+00 -0.35270656812E+03  0.35270656813E+03  0.25500000920E-02 0. -1.
    10030    2    1    2    0    0  0.00000000000E+00  0.00000000000E+00 -0.10055090101E+03  0.60486223524E+03  0.59644600756E+03 0.  0.
        4    1    3    3  502    0 -0.16027712361E+03  0.10668489064E+03  0.18067680639E+03  0.26403814784E+03  0.12699999809E+01 0.  1.
       -4    1    3    3    0  502  0.16027712361E+03 -0.10668489064E+03 -0.28122770740E+03  0.34082408741E+03  0.12699999809E+01 0. -1.
</event>
<event>
 5   0  0.7221069E-02  0.4136960E+03  0.7818609E-02  0.1039138E+00
       -1   -1    0    0    0  501  0.00000000000E+00  0.00000000000E+00  0.79114814772E+02  0.79114814932E+02  0.50400001928E-02 0.  1.
        1   -1    0    0  501    0  0.00000000000E+00  0.00000000000E+00 -0.54081012746E+03  0.54081012749E+03  0.50400001928E-02 0. -1.
    10030    2    1    2    0    0  0.00000000000E+00  0.00000000000E+00 -0.46169531269E+03  0.61992494242E+03  0.41369599040E+03 0.  0.
        5    1    3    3  502    0  0.19052349278E+03  0.65186244215E+02 -0.16031356044E+03  0.25743149651E+03  0.46999998093E+01 0. -1.
       -5    1    3    3    0  502 -0.19052349278E+03 -0.65186244215E+02 -0.30138175225E+03  0.36249344591E+03  0.46999998093E+01 0.  1.
</event>
<event>
 5   0  0.1219020E-01  0.5426966E+03  0.7818609E-02  0.1003199E+00
        2   -1    0    0  501    0  0.00000000000E+00  0.00000000000E+00  0.41384874892E+03  0.41384874892E+03  0.25500000920E-02 0. -1.
       -2   -1    0    0    0  501  0.00000000000E+00  0.00000000000E+00 -0.17791496891E+03  0.17791496893E+03  0.25500000920E-02 0.  1.
    10030    2    1    2    0    0  0.00000000000E+00  0.00000000000E+00  0.23593378000E+03  0.59176371786E+03  0.54269655354E+03 0.  0.
        2    1    3    3  502    0  0.45832391024E+02 -0.63779720665E+02  0.40118370254E+03  0.40879924661E+03  0.25500000920E-02 0. -1.
       -2    1    3    3    0  502 -0.45832391024E+02  0.63779720665E+02 -0.16524992254E+03  0.18296447125E+03  0.25500000920E-02 0.  1.
</event>
<event>
 5   0  0.7123340E-02  0.5981143E+03  0.7818609E-02  0.9909326E-01
       -1   -1    0    0    0  501  0.00000000000E+00  0.00000000000E+00  0.89161123935E+03  0.89161123936E+03  0.50400001928E-02 0. -1.
        1   -1    0    0  501    0  0.00000000000E+00  0.00000000000E+00 -0.10030736190E+03  0.10030736203E+03  0.50400001928E-02 0.  1.
    10030    2    1    2    0    0  0.00000000000E+00  0.00000000000E+00  0.79130387745E+03  0.99191860139E+03  0.59811427447E+03 0.  0.
        2    1    3    3  502    0 -0.13663124203E+03  0.20711410251E+03  0.11878776070E+03  0.27509067570E+03  0.25500000920E-02 0.  1.
       -2    1    3    3    0  502  0.13663124203E+03 -0.20711410251E+03  0.67251611675E+03  0.71682792569E+03  0.25500000920E-02 0. -1.
</event>
<event>
 5   0  0.7266519E-02  0.5930730E+03  0.7818609E-02  0.9919882E-01
        1   -1    0    0  501    0  0.00000000000E+00  0.00000000000E+00  0.27373362699E+03  0.27373362704E+03  0.50400001928E-02 0.  1.
       -1   -1    0    0    0  501  0.00000000000E+00  0.00000000000E+00 -0.32123895430E+03  0.32123895434E+03  0.50400001928E-02 0. -1.
    10030    2    1    2    0    0  0.00000000000E+00  0.00000000000E+00 -0.47505327312E+02  0.59497258138E+03  0.59307302794E+03 0.  0.
        4    1    3    3  502    0 -0.19588198421E+02 -0.76233726840E+02 -0.31056521918E+03  0.32038671460E+03  0.12699999809E+01 0. -1.
       -4    1    3    3    0  502  0.19588198421E+02  0.76233726840E+02  0.26305989187E+03  0.27458586678E+03  0.12699999809E+01 0.  1.
</event>
<event>
 5   0  0.1219020E-01  0.5961543E+03  0.7818609E-02  0.9913417E-01
       -2   -1    0    0    0  501  0.00000000000E+00  0.00000000000E+00  0.18382797749E+03  0.18382797750E+03  0.25500000920E-02 0. -1.
        2   -1    0    0  501    0  0.00000000000E+00  0.00000000000E+00 -0.48333216199E+03  0.48333216200E+03  0.25500000920E-02 0.  1.
    10030    2    1    2    0    0  0.00000000000E+00  0.00000000000E+00 -0.29950418451E+03  0.66716013951E+03  0.59615425454E+03 0.  0.
        2    1    3    3  502    0 -0.31800186631E+02 -0.16975970966E+03 -0.42162903703E+03  0.45563214962E+03  0.25500000920E-02 0.  1.
       -2    1    3    3    0  502  0.31800186631E+02  0.16975970966E+03  0.12212485252E+03  0.21152798988E+03  0.25500000920E-02 0. -1.
</event>
<event>
 5   0  0.1166419E-01  0.6026128E+03  0.7818609E-02  0.9900000E-01
       -2   -1    0    0    0  501  0.00000000000E+00  0.00000000000E+00  0.41505373734E+03  0.41505373734E+03  0.25500000920E-02 0. -1.
        2   -1    0    0  501    0  0.00000000000E+00  0.00000000000E+00 -0.21873203306E+03  0.21873203307E+03  0.25500000920E-02 0.  1.
    10030    2    1    2    0    0  0.00000000000E+00  0.00000000000E+00  0.19632170428E+03  0.63378577042E+03  0.60261280373E+03 0.  0.
        1    1    3    3  502    0 -0.89290541779E+02  0.49896159686E+02 -0.19991336680E+03  0.22456130979E+03  0.50400001928E-02 0.  1.
       -1    1    3    3    0  502  0.89290541779E+02 -0.49896159686E+02  0.39623507108E+03  0.40922446063E+03  0.50400001928E-02 0. -1.
</event>
<event>
 5   0  0.7123340E-02  0.5881088E+03  0.7818609E-02  0.9930388E-01
        1   -1    0    0  501    0  0.00000000000E+00  0.00000000000E+00  0.22530233974E+03  0.22530233980E+03  0.50400001928E-02 0.  1.
       -1   -1    0    0    0  501  0.00000000000E+00  0.00000000000E+00 -0.38378644112E+03  0.38378644116E+03  0.50400001928E-02 0. -1.
    10030    2    1    2    0    0  0.00000000000E+00  0.00000000000E+00 -0.15848410138E+03  0.60908878095E+03  0.58810877624E+03 0.  0.
        2    1    3    3  502    0  0.19739934738E+03 -0.88821278725E+02  0.12688631371E+03  0.25091006060E+03  0.25500000920E-02 0.  1.
       -2    1    3    3    0  502 -0.19739934738E+03  0.88821278725E+02 -0.28537041509E+03  0.35817872035E+03  0.25500000920E-02 0. -1.
</event>
<event>
 5   0  0.7263385E-02  0.6020291E+03  0.7818609E-02  0.9901205E-01
        1   -1    0    0  501    0  0.00000000000E+00  0.00000000000E+00  0.91230148462E+03  0.91230148464E+03  0.50400001928E-02 0. -1.
       -1   -1    0    0    0  501  0.00000000000E+00  0.00000000000E+00 -0.99319971866E+02  0.99319971994E+02  0.50400001928E-02 0.  1.
    10030    2    1    2    0    0  0.00000000000E+00  0.00000000000E+00  0.81298151276E+03  0.10116214566E+04  0.60202909517E+03 0.  0.
        1    1    3    3  502    0  0.27447681405E+03 -0.10293007906E+03  0.52141554839E+03  0.59816912053E+03  0.50400001928E-02 0. -1.
       -1    1    3    3    0  502 -0.27447681405E+03  0.10293007906E+03  0.29156596437E+03  0.41345233610E+03  0.50400001928E-02 0.  1.
</event>
<event>
 5   0  0.7266519E-02  0.5891619E+03  0.7818609E-02  0.9928150E-01
        1   -1    0    0  501    0  0.00000000000E+00  0.00000000000E+00  0.63391225659E+03  0.63391225661E+03  0.50400001928E-02 0. -1.
       -1   -1    0    0    0  501  0.00000000000E+00  0.00000000000E+00 -0.13689267287E+03  0.13689267296E+03  0.50400001928E-02 0.  1.
    10030    2    1    2    0    0  0.00000000000E+00  0.00000000000E+00  0.49701958372E+03  0.77080492957E+03  0.58916192413E+03 0.  0.
        4    1    3    3  502    0 -0.59517951896E+02  0.25049073229E+03  0.61241968151E+02  0.26465106295E+03  0.12699999809E+01 0.  1.
       -4    1    3    3    0  502  0.59517951896E+02 -0.25049073229E+03  0.43577761557E+03  0.50615386662E+03  0.12699999809E+01 0. -1.
</event>
<event>
 5   0  0.1146468E-01  0.6082419E+03  0.7818609E-02  0.9888453E-01
        2   -1    0    0  501    0  0.00000000000E+00  0.00000000000E+00  0.27921702246E+04  0.27921702246E+04  0.25500000920E-02 0.  1.
       -2   -1    0    0    0  501  0.00000000000E+00  0.00000000000E+00 -0.33124611929E+02  0.33124612027E+02  0.25500000920E-02 0. -1.
    10030    2    1    2    0    0  0.00000000000E+00  0.00000000000E+00  0.27590456126E+04  0.28252948366E+04  0.60824191000E+03 0.  0.
        4    1    3    3  502    0 -0.79151481694E+02  0.21519577573E+03  0.45152110176E+03  0.50640605958E+03  0.12699999809E+01 0. -1.
       -4    1    3    3    0  502  0.79151481694E+02 -0.21519577573E+03  0.23075245109E+04  0.23188887770E+04  0.12699999809E+01 0.  1.
</event>
<event>
 5   0  0.7424930E-02  0.6311080E+03  0.7818609E-02  0.9842889E-01
        1   -1    0    0  501    0  0.00000000000E+00  0.00000000000E+00  0.89180424244E+03  0.89180424245E+03  0.50400001928E-02 0.  1.
       -1   -1    0    0    0  501  0.00000000000E+00  0.00000000000E+00 -0.11165490797E+03  0.11165490808E+03  0.50400001928E-02 0. -1.
    10030    2    1    2    0    0  0.00000000000E+00  0.00000000000E+00  0.78014933447E+03  0.10034591505E+04  0.63110798024E+03 0.  0.
        3    1    3    3  502    0 -0.21209619374E+03  0.18313142902E+03  0.15937510065E+03  0.32236989407E+03  0.10100000352E+00 0. -1.
       -3    1    3    3    0  502  0.21209619374E+03 -0.18313142902E+03  0.62077423382E+03  0.68108925647E+03  0.10100000352E+00 0.  1.
</event>
<event>
 5   0  0.7263385E-02  0.6407917E+03  0.7818609E-02  0.9824213E-01
       -1   -1    0    0    0  501  0.00000000000E+00  0.00000000000E+00  0.64590398031E+02  0.64590398228E+02  0.50400001928E-02 0.  1.
        1   -1    0    0  501    0  0.00000000000E+00  0.00000000000E+00 -0.15892995890E+04  0.15892995890E+04  0.50400001928E-02 0. -1.
    10030    2    1    2    0    0  0.00000000000E+00  0.00000000000E+00 -0.15247091909E+04  0.16538899872E+04  0.64079167664E+03 0.  0.
        1    1    3    3  502    0 -0.13049609389E+03  0.61056673891E+02 -0.23732973963E+02  0.14601507466E+03  0.50400001928E-02 0.  1.
       -1    1    3    3    0  502  0.13049609389E+03 -0.61056673891E+02 -0.15009762170E+04  0.15078749125E+04  0.50400001928E-02 0. -1.
</event>
<event>
 5   0  0.7263385E-02  0.6157360E+03  0.7818609E-02  0.9873286E-01
       -1   -1    0    0    0  501  0.00000000000E+00  0.00000000000E+00  0.14443838980E+03  0.14443838989E+03  0.50400001928E-02 0. -1.
        1   -1    0    0  501    0  0.00000000000E+00  0.00000000000E+00 -0.65621551233E+03  0.65621551235E+03  0.50400001928E-02 0.  1.
    10030    2    1    2    0    0  0.00000000000E+00  0.00000000000E+00 -0.51177712253E+03  0.80065390223E+03  0.61573602137E+03 0.  0.
        1    1    3    3  502    0  0.29904450301E+03  0.16189793134E+02 -0.34868612645E+03  0.45964305606E+03  0.50400001928E-02 0. -1.
       -1    1    3    3    0  502 -0.29904450301E+03 -0.16189793134E+02 -0.16309099608E+03  0.34101084618E+03  0.50400001928E-02 0.  1.
</event>
<event>
 5   0  0.1146468E-01  0.6014383E+03  0.7818609E-02  0.9902427E-01
       -2   -1    0    0    0  501  0.00000000000E+00  0.00000000000E+00  0.19693370058E+03  0.19693370060E+03  0.25500000920E-02 0.  1.
        2   -1    0    0  501    0  0.00000000000E+00  0.00000000000E+00 -0.45920020233E+03  0.45920020233E+03  0.25500000920E-02 0. -1.
    10030    2    1    2    0    0  0.00000000000E+00  0.00000000000E+00 -0.26226650174E+03  0.65613390294E+03  0.60143826004E+03 0.  0.
        4    1    3    3  502    0 -0.10703271714E+03 -0.75099999004E+02 -0.42656366892E+03  0.44615489343E+03  0.12699999809E+01 0. -1.
       -4    1    3    3    0  502  0.10703271714E+03  0.75099999004E+02  0.16429716718E+03  0.20997900950E+03  0.12699999809E+01 0.  1.
</event>
<event>
 5   0  0.1175861E-01  0.6127169E+03  0.7818609E-02  0.9879368E-01
       -2   -1    0    0    0  501  0.00000000000E+00  0.00000000000E+00  0.20599142357E+03  0.20599142359E+03  0.25500000920E-02 0.  1.
        2   -1    0    0  501    0  0.00000000000E+00  0.00000000000E+00 -0.45562815607E+03  0.45562815607E+03  0.25500000920E-02 0. -1.
    10030    2    1    2    0    0  0.00000000000E+00  0.00000000000E+00 -0.24963673250E+03  0.66161957966E+03  0.61271687587E+03 0.  0.
        3    1    3    3  502    0 -0.40926286601E+02  0.23233930858E+03  0.86226268815E+02  0.25118020400E+03  0.10100000352E+00 0.  1.
       -3    1    3    3    0  502  0.40926286601E+02 -0.23233930858E+03 -0.33586300131E+03  0.41043937566E+03  0.10100000352E+00 0. -1.
</event>
<event>
 5   0  0.4695625E-02  0.6110802E+03  0.7818609E-02  0.9882681E-01
       -3   -1    0    0    0  501  0.00000000000E+00  0.00000000000E+00  0.47622847250E+03  0.47622848321E+03  0.10100000352E+00 0.  1.
        3   -1    0    0  501    0  0.00000000000E+00  0.00000000000E+00 -0.19602928986E+03  0.19602931588E+03  0.10100000352E+00 0. -1.
    10030    2    1    2    0    0  0.00000000000E+00  0.00000000000E+00  0.28019918264E+03  0.67225779909E+03  0.61108016371E+03 0.  0.
        3    1    3    3  502    0  0.16435351727E+03 -0.54203105033E+02  0.41711141566E+03  0.45158830644E+03  0.10100000352E+00 0.  1.
       -3    1    3    3    0  502 -0.16435351727E+03  0.54203105033E+02 -0.13691223302E+03  0.22066949265E+03  0.10100000352E+00 0. -1.
</event>
<event>
 5   0  0.1206238E-01  0.6113926E+03  0.7818609E-02  0.9882048E-01
        2   -1    0    0  501    0  0.00000000000E+00  0.00000000000E+00  0.23171540599E+03  0.23171540600E+03  0.25500000920E-02 0. -1.
       -2   -1    0    0    0  501  0.00000000000E+00  0.00000000000E+00 -0.40329738237E+03  0.40329738238E+03  0.25500000920E-02 0.  1.
    10030    2    1    2    0    0  0.00000000000E+00  0.00000000000E+00 -0.17158197638E+03  0.63501278838E+03  0.61139256357E+03 0.  0.
        5    1    3    3  502    0  0.22703798603E+03 -0.20377485076E+03 -0.66147636353E+02  0.31219871348E+03  0.46999998093E+01 0. -1.
       -5    1    3    3    0  502 -0.22703798603E+03  0.20377485076E+03 -0.10543434003E+03  0.32281407491E+03  0.46999998093E+01 0.  1.
</event>
<event>
 5   0  0.1175861E-01  0.6174041E+03  0.7818609E-02  0.9869942E-01
       -2   -1    0    0    0  501  0.00000000000E+00  0.00000000000E+00  0.74521994818E+02  0.74521994861E+02  0.25500000920E-02 0. -1.
        2   -1    0    0  501    0  0.00000000000E+00  0.00000000000E+00 -0.12787762250E+04  0.12787762250E+04  0.25500000920E-02 0.  1.
    10030    2    1    2    0    0  0.00000000000E+00  0.00000000000E+00 -0.12042542302E+04  0.13532982199E+04  0.61740409861E+03 0.  0.
        3    1    3    3  502    0  0.28988981914E+03  0.92427651089E+02 -0.71640076566E+03  0.77833735948E+03  0.10100000352E+00 0.  1.
       -3    1    3    3    0  502 -0.28988981914E+03 -0.92427651089E+02 -0.48785346452E+03  0.57496086038E+03  0.10100000352E+00 0. -1.
</event>
<event>
 5   0  0.7221069E-02  0.5975513E+03  0.7818609E-02  0.9910499E-01
       -1   -1    0    0    0  501  0.00000000000E+00  0.00000000000E+00  0.20232717179E+03  0.20232717185E+03  0.50400001928E-02 0. -1.
        1   -1    0    0  501    0  0.00000000000E+00  0.00000000000E+00 -0.44120074919E+03  0.44120074922E+03  0.50400001928E-02 0.  1.
    10030    2    1    2    0    0  0.00000000000E+00  0.00000000000E+00 -0.23887357740E+03  0.64352792107E+03  0.59755133605E+03 0.  0.
        5    1    3    3  502    0  0.22584033726E+03  0.73271823757E+02 -0.31469373972E+03  0.39424213106E+03  0.46999998093E+01 0.  1.
       -5    1    3    3    0  502 -0.22584033726E+03 -0.73271823757E+02  0.75820162315E+02  0.24928579001E+03  0.46999998093E+01 0. -1.
</event>
<event>
 5   0  0.1206238E-01  0.6012938E+03  0.7818609E-02  0.9902725E-01
       -2   -1    0    0    0  501  0.00000000000E+00  0.00000000000E+00  0.65284809266E+02  0.65284809316E+02  0.25500000920E-02 0.  1.
        2   -1    0    0  501    0  0.00000000000E+00  0.00000000000E+00 -0.13845267218E+04  0.13845267218E+04  0.25500000920E-02 0. -1.
    10030    2    1    2    0    0  0.00000000000E+00  0.00000000000E+00 -0.13192419125E+04  0.14498115311E+04  0.60129381501E+03 0.  0.
        5    1    3    3  502    0 -0.11046809100E+03 -0.19922663254E+02  0.12768202445E+02  0.11307178530E+03  0.46999998093E+01 0.  1.
       -5    1    3    3    0  502  0.11046809100E+03  0.19922663254E+02 -0.13320101149E+04  0.13367397458E+04  0.46999998093E+01 0. -1.
</event>
<event>
 5   0  0.1219020E-01  0.5747483E+03  0.7818609E-02  0.9959226E-01
        2   -1    0    0  501    0  0.00000000000E+00  0.00000000000E+00  0.34218134758E+03  0.34218134759E+03  0.25500000920E-02 0. -1.
       -2   -1    0    0    0  501  0.00000000000E+00  0.00000000000E+00 -0.24134540893E+03  0.24134540895E+03  0.25500000920E-02 0.  1.
    10030    2    1    2    0    0  0.00000000000E+00  0.00000000000E+00  0.10083593864E+03  0.58352675653E+03  0.57474828322E+03 0.  0.
        2    1    3    3  502    0  0.33710991563E+02 -0.58167192449E+02 -0.23324889943E+03  0.24274452069E+03  0.25500000920E-02 0.  1.
       -2    1    3    3    0  502 -0.33710991563E+02  0.58167192449E+02  0.33408483808E+03  0.34078223585E+03  0.25500000920E-02 0. -1.
</event>
<event>
 5   0  0.1206238E-01  0.6058509E+03  0.7818609E-02  0.9893341E-01
       -2   -1    0    0    0  501  0.00000000000E+00  0.00000000000E+00  0.14965324729E+03  0.14965324731E+03  0.25500000920E-02 0.  1.
        2   -1    0    0  501    0  0.00000000000E+00  0.00000000000E+00 -0.61317625521E+03  0.61317625522E+03  0.25500000920E-02 0. -1.
    10030    2    1    2    0    0  0.00000000000E+00  0.00000000000E+00 -0.46352300792E+03  0.76282950252E+03  0.60585086535E+03 0.  0.
        5    1    3    3  502    0  0.11216844276E+03 -0.27445999099E+03 -0.15382221254E+03  0.33405599721E+03  0.46999998093E+01 0. -1.
       -5    1    3    3    0  502 -0.11216844276E+03  0.27445999099E+03 -0.30970079538E+03  0.42877350531E+03  0.46999998093E+01 0.  1.
</event>
<event>
 5   0  0.7263385E-02  0.6052128E+03  0.7818609E-02  0.9894650E-01
        1   -1    0    0  501    0  0.00000000000E+00  0.00000000000E+00  0.36828390403E+03  0.36828390406E+03  0.50400001928E-02 0.  1.
       -1   -1    0    0    0  501  0.00000000000E+00  0.00000000000E+00 -0.24864140439E+03  0.24864140444E+03  0.50400001928E-02 0. -1.
    10030    2    1    2    0    0  0.00000000000E+00  0.00000000000E+00  0.11964249965E+03  0.61692530850E+03  0.60521277956E+03 0.  0.
        1    1    3    3  502    0 -0.40993807196E+02 -0.26754409912E+03 -0.78112996839E+02  0.28171257960E+03  0.50400001928E-02 0. -1.
       -1    1    3    3    0  502  0.40993807196E+02  0.26754409912E+03  0.19775549648E+03  0.33521272890E+03  0.50400001928E-02 0.  1.
</event>
<event>
 5   0  0.4695625E-02  0.6024374E+03  0.7818609E-02  0.9900362E-01
        3   -1    0    0  501    0  0.00000000000E+00  0.00000000000E+00  0.25888446391E+03  0.25888448361E+03  0.10100000352E+00 0.  1.
       -3   -1    0    0    0  501  0.00000000000E+00  0.00000000000E+00 -0.35047560288E+03  0.35047561743E+03  0.10100000352E+00 0. -1.
    10030    2    1    2    0    0  0.00000000000E+00  0.00000000000E+00 -0.91591138970E+02  0.60936010104E+03  0.60243737932E+03 0.  0.
        5    1    3    3  502    0  0.19819927175E+03  0.10727941454E+03  0.15629719303E+03  0.27430407699E+03  0.46999998093E+01 0.  1.
       -5    1    3    3    0  502 -0.19819927175E+03 -0.10727941454E+03 -0.24788833200E+03  0.33505602404E+03  0.46999998093E+01 0. -1.
</event>
<event>
 5   0  0.1219020E-01  0.6088175E+03  0.7818609E-02  0.9887280E-01
       -2   -1    0    0    0  501  0.00000000000E+00  0.00000000000E+00  0.48049403050E+02  0.48049403117E+02  0.25500000920E-02 0. -1.
        2   -1    0    0  501    0  0.00000000000E+00  0.00000000000E+00 -0.19285292895E+04  0.19285292895E+04  0.25500000920E-02 0.  1.
    10030    2    1    2    0    0  0.00000000000E+00  0.00000000000E+00 -0.18804798865E+04  0.19765786927E+04  0.60881748068E+03 0.  0.
        2    1    3    3  502    0  0.25098079128E+03  0.69041147329E+02 -0.42786887507E+03  0.50082912443E+03  0.25500000920E-02 0. -1.
       -2    1    3    3    0  502 -0.25098079128E+03 -0.69041147329E+02 -0.14526110114E+04  0.14757495682E+04  0.25500000920E-02 0.  1.
</event>
<event>
 5   0  0.7221069E-02  0.5941312E+03  0.7818609E-02  0.9917657E-01
       -1   -1    0    0    0  501  0.00000000000E+00  0.00000000000E+00  0.14202270734E+03  0.14202270743E+03  0.50400001928E-02 0. -1.
        1   -1    0    0  501    0  0.00000000000E+00  0.00000000000E+00 -0.62136526410E+03  0.62136526413E+03  0.50400001928E-02 0.  1.
    10030    2    1    2    0    0  0.00000000000E+00  0.00000000000E+00 -0.47934255677E+03  0.76338797155E+03  0.59413122152E+03 0.  0.
        5    1    3    3  502    0  0.18575016066E+03 -0.21999302920E+03 -0.14590284298E+03  0.32281540339E+03  0.46999998093E+01 0. -1.
       -5    1    3    3    0  502 -0.18575016066E+03  0.21999302920E+03 -0.33343971379E+03  0.44057256816E+03  0.46999998093E+01 0.  1.
</event>
<event>
 5   0  0.7424930E-02  0.6345347E+03  0.7818609E-02  0.9836239E-01
        1   -1    0    0  501    0  0.00000000000E+00  0.00000000000E+00  0.27957269963E+03  0.27957269968E+03  0.50400001928E-02 0. -1.
       -1   -1    0    0    0  501  0.00000000000E+00  0.00000000000E+00 -0.36004437175E+03  0.36004437178E+03  0.50400001928E-02 0.  1.
    10030    2    1    2    0    0  0.00000000000E+00  0.00000000000E+00 -0.80471672119E+02  0.63961707146E+03  0.63453471780E+03 0.  0.
        3    1    3    3  502    0  0.27989900332E+02 -0.17123058857E+03 -0.30798567987E+03  0.35349474988E+03  0.10100000352E+00 0.  1.
       -3    1    3    3    0  502 -0.27989900332E+02  0.17123058857E+03  0.22751400775E+03  0.28612232158E+03  0.10100000352E+00 0. -1.
</event>
<event>
 5   0  0.1146468E-01  0.6082659E+03  0.7818609E-02  0.9888404E-01
       -2   -1    0    0    0  501  0.00000000000E+00  0.00000000000E+00  0.22841759126E+03  0.22841759127E+03  0.25500000920E-02 0. -1.
        2   -1    0    0  501    0  0.00000000000E+00  0.00000000000E+00 -0.40494623378E+03  0.40494623379E+03  0.25500000920E-02 0.  1.
    10030    2    1    2    0    0  0.00000000000E+00  0.00000000000E+00 -0.17652864252E+03  0.63336382506E+03  0.60826587383E+03 0.  0.
        4    1    3    3  502    0 -0.63553181185E+02  0.10452993861E+03  0.20166617472E+03  0.23587363954E+03  0.12699999809E+01 0. -1.
       -4    1    3    3    0  502  0.63553181185E+02 -0.10452993861E+03 -0.37819481724E+03  0.39749018552E+03  0.12699999809E+01 0.  1.
</event>
<event>
 5   0  0.7424930E-02  0.6007315E+03  0.7818609E-02  0.9903890E-01
       -1   -1    0    0    0  501  0.00000000000E+00  0.00000000000E+00  0.21295198951E+03  0.21295198957E+03  0.50400001928E-02 0.  1.
        1   -1    0    0  501    0  0.00000000000E+00  0.00000000000E+00 -0.42366159608E+03  0.42366159611E+03  0.50400001928E-02 0. -1.
    10030    2    1    2    0    0  0.00000000000E+00  0.00000000000E+00 -0.21070960656E+03  0.63661358568E+03  0.60073148675E+03 0.  0.
        3    1    3    3  502    0  0.13305082584E+03 -0.13835519590E+03  0.13947483533E+03  0.23727183225E+03  0.10100000352E+00 0.  1.
       -3    1    3    3    0  502 -0.13305082584E+03  0.13835519590E+03 -0.35018444189E+03  0.39934175343E+03  0.10100000352E+00 0. -1.
</event>
<event>
 5   0  0.7266519E-02  0.5951254E+03  0.7818609E-02  0.9915571E-01
        1   -1    0    0  501    0  0.00000000000E+00  0.00000000000E+00  0.81683847925E+03  0.81683847927E+03  0.50400001928E-02 0.  1.
       -1   -1    0    0    0  501  0.00000000000E+00  0.00000000000E+00 -0.10839787064E+03  0.10839787076E+03  0.50400001928E-02 0. -1.
    10030    2    1    2    0    0  0.00000000000E+00  0.00000000000E+00  0.70844060861E+03  0.92523635003E+03  0.59512537123E+03 0.  0.
        4    1    3    3  502    0  0.76191901908E+02 -0.12753785920E+03 -0.46609276073E+02  0.15570853850E+03  0.12699999809E+01 0. -1.
       -4    1    3    3    0  502 -0.76191901908E+02  0.12753785920E+03  0.75504988469E+03  0.76952781152E+03  0.12699999809E+01 0.  1.
</event>
<event>
 5   0  0.7424930E-02  0.4104197E+03  0.7818609E-02  0.1040230E+00
        1   -1    0    0  501    0  0.00000000000E+00  0.00000000000E+00  0.14566647495E+04  0.14566647495E+04  0.50400001928E-02 0. -1.
       -1   -1    0    0    0  501  0.00000000000E+00  0.00000000000E+00 -0.28909246096E+02  0.28909246535E+02  0.50400001928E-02 0.  1.
    10030    2    1    2    0    0  0.00000000000E+00  0.00000000000E+00  0.14277555034E+04  0.14855739961E+04  0.41041968791E+03 0.  0.
        3    1    3    3  502    0 -0.19735710075E+03 -0.33245903915E+02  0.87800203920E+03  0.90052357347E+03  0.10100000352E+00 0. -1.
       -3    1    3    3    0  502  0.19735710075E+03  0.33245903915E+02  0.54975346422E+03  0.58505042259E+03  0.10100000352E+00 0.  1.
</event>
<event>
 5   0  0.1206238E-01  0.6324190E+03  0.7818609E-02  0.9840340E-01
        2   -1    0    0  501    0  0.00000000000E+00  0.00000000000E+00  0.84268953178E+03  0.84268953179E+03  0.25500000920E-02 0.  1.
       -2   -1    0    0    0  501  0.00000000000E+00  0.00000000000E+00 -0.11865396051E+03  0.11865396054E+03  0.25500000920E-02 0. -1.
    10030    2    1    2    0    0  0.00000000000E+00  0.00000000000E+00  0.72403557127E+03  0.96134349233E+03  0.63241900807E+03 0.  0.
        5    1    3    3  502    0  0.21683541444E+03  0.17893228150E+03  0.58194504444E+03  0.64630989708E+03  0.46999998093E+01 0.  1.
       -5    1    3    3    0  502 -0.21683541444E+03 -0.17893228150E+03  0.14209052683E+03  0.31503359525E+03  0.46999998093E+01 0. -1.
</event>
<event>
 5   0  0.7266519E-02  0.5972336E+03  0.7818609E-02  0.9911162E-01
        1   -1    0    0  501    0  0.00000000000E+00  0.00000000000E+00  0.31137971137E+03  0.31137971141E+03  0.50400001928E-02 0. -1.
       -1   -1    0    0    0  501  0.00000000000E+00  0.00000000000E+00 -0.28637703908E+03  0.28637703913E+03  0.50400001928E-02 0.  1.
    10030    2    1    2    0    0  0.00000000000E+00  0.00000000000E+00  0.25002672290E+02  0.59775675054E+03  0.59723362196E+03 0.  0.
        4    1    3    3  502    0 -0.56536784067E+02  0.15892174789E+03 -0.23412443601E+03  0.28856263504E+03  0.12699999809E+01 0.  1.
       -4    1    3    3    0  502  0.56536784067E+02 -0.15892174789E+03  0.25912710830E+03  0.30919411550E+03  0.12699999809E+01 0. -1.
</event>
<event>
 5   0  0.7221069E-02  0.5970739E+03  0.7818609E-02  0.9911495E-01
       -1   -1    0    0    0  501  0.00000000000E+00  0.00000000000E+00  0.15138042522E+03  0.15138042530E+03  0.50400001928E-02 0.  1.
        1   -1    0    0  501    0  0.00000000000E+00  0.00000000000E+00 -0.58874397364E+03  0.58874397366E+03  0.50400001928E-02 0. -1.
    10030    2    1    2    0    0  0.00000000000E+00  0.00000000000E+00 -0.43736354842E+03  0.74012439896E+03  0.59707390870E+03 0.  0.
        5    1    3    3  502    0  0.51663320392E+02  0.10365408620E+03  0.12234845902E+03  0.16853635716E+03  0.46999998093E+01 0.  1.
       -5    1    3    3    0  502 -0.51663320392E+02 -0.10365408620E+03 -0.55971200744E+03  0.57158804180E+03  0.46999998093E+01 0. -1.
</event>
<event>
 5   0  0.1206238E-01  0.6180434E+03  0.7818609E-02  0.9868663E-01
        2   -1    0    0  501    0  0.00000000000E+00  0.00000000000E+00  0.97034106745E+03  0.97034106746E+03  0.25500000920E-02 0. -1.
       -2   -1    0    0    0  501  0.00000000000E+00  0.00000000000E+00 -0.98413245334E+02  0.98413245367E+02  0.25500000920E-02 0.  1.
    10030    2    1    2    0    0  0.00000000000E+00  0.00000000000E+00  0.87192782212E+03  0.10687543128E+04  0.61804340802E+03 0.  0.
        5    1    3    3  502    0 -0.38938876966E+02 -0.24004709200E+02  0.96439153671E+03  0.96548722844E+03  0.46999998093E+01 0. -1.
       -5    1    3    3    0  502  0.38938876966E+02  0.24004709200E+02 -0.92463714590E+02  0.10326708438E+03  0.46999998093E+01 0.  1.
</event>
<event>
 5   0  0.7221069E-02  0.6167021E+03  0.7818609E-02  0.9871348E-01
        1   -1    0    0  501    0  0.00000000000E+00  0.00000000000E+00  0.41902378539E+03  0.41902378542E+03  0.50400001928E-02 0.  1.
       -1   -1    0    0    0  501  0.00000000000E+00  0.00000000000E+00 -0.22690922839E+03  0.22690922845E+03  0.50400001928E-02 0. -1.
    10030    2    1    2    0    0  0.00000000000E+00  0.00000000000E+00  0.19211455700E+03  0.64593301387E+03  0.61670207993E+03 0.  0.
        5    1    3    3  502    0  0.92908979731E+01  0.14357016545E+03  0.38167192625E+03  0.40791452839E+03  0.46999998093E+01 0.  1.
       -5    1    3    3    0  502 -0.92908979731E+01 -0.14357016545E+03 -0.18955736925E+03  0.23801848547E+03  0.46999998093E+01 0. -1.
</event>
<event>
 5   0  0.1146468E-01  0.6106612E+03  0.7818609E-02  0.9883531E-01
       -2   -1    0    0    0  501  0.00000000000E+00  0.00000000000E+00  0.59869376711E+02  0.59869376765E+02  0.25500000920E-02 0. -1.
        2   -1    0    0  501    0  0.00000000000E+00  0.00000000000E+00 -0.15571697390E+04  0.15571697390E+04  0.25500000920E-02 0.  1.
    10030    2    1    2    0    0  0.00000000000E+00  0.00000000000E+00 -0.14973003623E+04  0.16170391158E+04  0.61066122115E+03 0.  0.
        4    1    3    3  502    0 -0.45463606963E+02  0.19142845175E+03 -0.13038935829E+03  0.23603980460E+03  0.12699999809E+01 0. -1.
       -4    1    3    3    0  502  0.45463606963E+02 -0.19142845175E+03 -0.13669110040E+04  0.13809993112E+04  0.12699999809E+01 0.  1.
</event>
<event>
 5   0  0.7123340E-02  0.5999378E+03  0.7818609E-02  0.9905535E-01
        1   -1    0    0  501    0  0.00000000000E+00  0.00000000000E+00  0.69429172817E+03  0.69429172819E+03  0.50400001928E-02 0. -1.
       -1   -1    0    0    0  501  0.00000000000E+00  0.00000000000E+00 -0.12960164032E+03  0.12960164042E+03  0.50400001928E-02 0.  1.
    10030    2    1    2    0    0  0.00000000000E+00  0.00000000000E+00  0.56469008785E+03  0.82389336861E+03  0.59993781972E+03 0.  0.
        2    1    3    3  502    0  0.62136468527E+02  0.51954828657E+02 -0.11430063550E+03  0.14008882976E+03  0.25500000920E-02 0.  1.
       -2    1    3    3    0  502 -0.62136468527E+02 -0.51954828657E+02  0.67899072335E+03  0.68380453885E+03  0.25500000920E-02 0. -1.
</event>
<event>
 5   0  0.7123340E-02  0.6007515E+03  0.7818609E-02  0.9903848E-01
        1   -1    0    0  501    0  0.00000000000E+00  0.00000000000E+00  0.78051087442E+02  0.78051087605E+02  0.50400001928E-02 0. -1.
       -1   -1    0    0    0  501  0.00000000000E+00  0.00000000000E+00 -0.11559810322E+04  0.11559810322E+04  0.50400001928E-02 0.  1.
    10030    2    1    2    0    0  0.00000000000E+00  0.00000000000E+00 -0.10779299447E+04  0.12340321198E+04  0.60075145187E+03 0.  0.
        2    1    3    3  502    0  0.63407574068E+00 -0.18796754724E+03 -0.10202380908E+04  0.10374092552E+04  0.25500000920E-02 0.  1.
       -2    1    3    3    0  502 -0.63407574068E+00  0.18796754724E+03 -0.57691853961E+02  0.19662286461E+03  0.25500000920E-02 0. -1.
</event>
<event>
 5   0  0.7263385E-02  0.5644441E+03  0.7818609E-02  0.9982049E-01
       -1   -1    0    0    0  501  0.00000000000E+00  0.00000000000E+00  0.23808016240E+03  0.23808016246E+03  0.50400001928E-02 0.  1.
        1   -1    0    0  501    0  0.00000000000E+00  0.00000000000E+00 -0.33454819721E+03  0.33454819725E+03  0.50400001928E-02 0. -1.
    10030    2    1    2    0    0  0.00000000000E+00  0.00000000000E+00 -0.96468034806E+02  0.57262835970E+03  0.56444411291E+03 0.  0.
        1    1    3    3  502    0 -0.28163449410E+03  0.26579155030E+01 -0.66501670289E+02  0.28939164632E+03  0.50400001928E-02 0. -1.
       -1    1    3    3    0  502  0.28163449410E+03 -0.26579155030E+01 -0.29966364517E+02  0.28323671339E+03  0.50400001928E-02 0.  1.
</event>
<event>
 5   0  0.1175861E-01  0.6738918E+03  0.7818609E-02  0.9762953E-01
       -2   -1    0    0    0  501  0.00000000000E+00  0.00000000000E+00  0.65853440548E+02  0.65853440597E+02  0.25500000920E-02 0.  1.
        2   -1    0    0  501    0  0.00000000000E+00  0.00000000000E+00 -0.17240184866E+04  0.17240184866E+04  0.25500000920E-02 0. -1.
    10030    2    1    2    0    0  0.00000000000E+00  0.00000000000E+00 -0.16581650460E+04  0.17898719272E+04  0.67389182798E+03 0.  0.
        3    1    3    3  502    0  0.47494819837E+02 -0.14528568465E+03 -0.31528640292E+02  0.15606970697E+03  0.10100000352E+00 0.  1.
       -3    1    3    3    0  502 -0.47494819837E+02  0.14528568465E+03 -0.16266364057E+04  0.16338022202E+04  0.10100000352E+00 0. -1.
</event>
<event>
 5   0  0.7123340E-02  0.6102829E+03  0.7818609E-02  0.9884299E-01
       -1   -1    0    0    0  501  0.00000000000E+00  0.00000000000E+00  0.15261251016E+03  0.15261251024E+03  0.50400001928E-02 0.  1.
        1   -1    0    0  501    0  0.00000000000E+00  0.00000000000E+00 -0.61011578824E+03  0.61011578826E+03  0.50400001928E-02 0. -1.
    10030    2    1    2    0    0  0.00000000000E+00  0.00000000000E+00 -0.45750327808E+03  0.76272829850E+03  0.61028289168E+03 0.  0.
        2    1    3    3  502    0  0.11200380886E+03  0.16962511752E+03  0.55679682447E+02  0.21075521521E+03  0.25500000920E-02 0.  1.
       -2    1    3    3    0  502 -0.11200380886E+03 -0.16962511752E+03 -0.51318296053E+03  0.55197308329E+03  0.25500000920E-02 0. -1.
</event>
<event>
 5   0  0.4695625E-02  0.5773127E+03  0.7818609E-02  0.9953626E-01
        3   -1    0    0  501    0  0.00000000000E+00  0.00000000000E+00  0.29791642676E+03  0.29791644388E+03  0.10100000352E+00 0.  1.
       -3   -1    0    0    0  501  0.00000000000E+00  0.00000000000E+00 -0.27968409162E+03  0.27968410986E+03  0.10100000352E+00 0. -1.
    10030    2    1    2    0    0  0.00000000000E+00  0.00000000000E+00  0.18232335138E+02  0.57760055374E+03  0.57731272430E+03 0.  0.
        1    1    3    3  502    0 -0.25967350044E+03 -0.64118308010E+02  0.11771064864E+03  0.29222813192E+03  0.50400001928E-02 0.  1.
       -1    1    3    3    0  502  0.25967350044E+03  0.64118308010E+02 -0.99478313503E+02  0.28537242182E+03  0.50400001928E-02 0. -1.
</event>
<event>
 5   0  0.7123340E-02  0.5323039E+03  0.7818609E-02  0.1005675E+00
       -1   -1    0    0    0  501  0.00000000000E+00  0.00000000000E+00  0.92200044318E+02  0.92200044456E+02  0.50400001928E-02 0. -1.
        1   -1    0    0  501    0  0.00000000000E+00  0.00000000000E+00 -0.76829539457E+03  0.76829539458E+03  0.50400001928E-02 0.  1.
    10030    2    1    2    0    0  0.00000000000E+00  0.00000000000E+00 -0.67609535025E+03  0.86049543904E+03  0.53230393384E+03 0.  0.
        2    1    3    3  502    0 -0.15357170160E+03  0.21598605290E+03 -0.37773146642E+03  0.46142746268E+03  0.25500000920E-02 0.  1.
       -2    1    3    3    0  502  0.15357170160E+03 -0.21598605290E+03 -0.29836388382E+03  0.39906797636E+03  0.25500000920E-02 0. -1.
</event>
<event>
 5   0  0.1206238E-01  0.6061038E+03  0.7818609E-02  0.9892823E-01
        2   -1    0    0  501    0  0.00000000000E+00  0.00000000000E+00  0.14714100553E+04  0.14714100553E+04  0.25500000920E-02 0.  1.
       -2   -1    0    0    0  501  0.00000000000E+00  0.00000000000E+00 -0.62416631205E+02  0.62416631257E+02  0.25500000920E-02 0. -1.
    10030    2    1    2    0    0  0.00000000000E+00  0.00000000000E+00  0.14089934241E+04  0.15338266866E+04  0.60610381558E+03 0.  0.
        5    1    3    3  502    0  0.20893230482E+03 -0.14085289518E+03  0.27858180769E+03  0.37566229469E+03  0.46999998093E+01 0. -1.
       -5    1    3    3    0  502 -0.20893230482E+03  0.14085289518E+03  0.11304116164E+04  0.11581643919E+04  0.46999998093E+01 0.  1.
</event>
<event>
 5   0  0.1146468E-01  0.5727252E+03  0.7818609E-02  0.9963666E-01
        2   -1    0    0  501    0  0.00000000000E+00  0.00000000000E+00  0.83060142641E+02  0.83060142680E+02  0.25500000920E-02 0.  1.
       -2   -1    0    0    0  501  0.00000000000E+00  0.00000000000E+00 -0.98727906518E+03  0.98727906519E+03  0.25500000920E-02 0. -1.
    10030    2    1    2    0    0  0.00000000000E+00  0.00000000000E+00 -0.90421892254E+03  0.10703392079E+04  0.57272520463E+03 0.  0.
        4    1    3    3  502    0  0.12063292853E+03  0.74993870577E+02 -0.91679494756E+03  0.92773432234E+03  0.12699999809E+01 0. -1.
       -4    1    3    3    0  502 -0.12063292853E+03 -0.74993870577E+02  0.12576025022E+02  0.14260488553E+03  0.12699999809E+01 0.  1.
</event>
<event>
 5   0  0.7123340E-02  0.5443027E+03  0.7818609E-02  0.1002821E+00
       -1   -1    0    0    0  501  0.00000000000E+00  0.00000000000E+00  0.17519351092E+03  0.17519351099E+03  0.50400001928E-02 0.  1.
        1   -1    0    0  501    0  0.00000000000E+00  0.00000000000E+00 -0.42276885364E+03  0.42276885367E+03  0.50400001928E-02 0. -1.
    10030    2    1    2    0    0  0.00000000000E+00  0.00000000000E+00 -0.24757534272E+03  0.59796236466E+03  0.54430270919E+03 0.  0.
        2    1    3    3  502    0 -0.23120345099E+03  0.34831183629E+02  0.29219960585E+02  0.23563118046E+03  0.25500000920E-02 0.  1.
       -2    1    3    3    0  502  0.23120345099E+03 -0.34831183629E+02 -0.27679530331E+03  0.36233118420E+03  0.25500000920E-02 0. -1.
</event>
<event>
 5   0  0.7263385E-02  0.6209168E+03  0.7818609E-02  0.9862936E-01
       -1   -1    0    0    0  501  0.00000000000E+00  0.00000000000E+00  0.36633088044E+03  0.36633088048E+03  0.50400001928E-02 0. -1.
        1   -1    0    0  501    0  0.00000000000E+00  0.00000000000E+00 -0.26310752822E+03  0.26310752827E+03  0.50400001928E-02 0.  1.
    10030    2    1    2    0    0  0.00000000000E+00  0.00000000000E+00  0.10322335222E+03  0.62943840875E+03  0.62091678183E+03 0.  0.
        1    1    3    3  502    0 -0.21177281466E+03 -0.78366338003E+02 -0.16437441642E+03  0.27929904540E+03  0.50400001928E-02 0.  1.
       -1    1    3    3    0  502  0.21177281466E+03  0.78366338003E+02  0.26759776864E+03  0.35013936335E+03  0.50400001928E-02 0. -1.
</event>
<event>
 5   0  0.7424930E-02  0.5856939E+03  0.7818609E-02  0.9935539E-01
       -1   -1    0    0    0  501  0.00000000000E+00  0.00000000000E+00  0.18642051659E+03  0.18642051666E+03  0.50400001928E-02 0.  1.
        1   -1    0    0  501    0  0.00000000000E+00  0.00000000000E+00 -0.46003166358E+03  0.46003166360E+03  0.50400001928E-02 0. -1.
    10030    2    1    2    0    0  0.00000000000E+00  0.00000000000E+00 -0.27361114698E+03  0.64645218027E+03  0.58569391462E+03 0.  0.
        3    1    3    3  502    0  0.76420506784E+02  0.12866651773E+03 -0.41464095177E+03  0.44082002646E+03  0.10100000352E+00 0. -1.
       -3    1    3    3    0  502 -0.76420506784E+02 -0.12866651773E+03  0.14102980479E+03  0.20563215381E+03  0.10100000352E+00 0.  1.
</event>
<event>
 5   0  0.1219020E-01  0.6123993E+03  0.7818609E-02  0.9880010E-01
       -2   -1    0    0    0  501  0.00000000000E+00  0.00000000000E+00  0.10206240913E+03  0.10206240916E+03  0.25500000920E-02 0.  1.
        2   -1    0    0  501    0  0.00000000000E+00  0.00000000000E+00 -0.91863631169E+03  0.91863631170E+03  0.25500000920E-02 0. -1.
    10030    2    1    2    0    0  0.00000000000E+00  0.00000000000E+00 -0.81657390257E+03  0.10206987209E+04  0.61239933083E+03 0.  0.
        2    1    3    3  502    0  0.11475250657E+03 -0.26707269050E+03 -0.24788054609E+03  0.38202189062E+03  0.25500000920E-02 0. -1.
       -2    1    3    3    0  502 -0.11475250657E+03  0.26707269050E+03 -0.56869335648E+03  0.63867683024E+03  0.25500000920E-02 0.  1.
</event>
<event>
 5   0  0.7263385E-02  0.6031240E+03  0.7818609E-02  0.9898946E-01
        1   -1    0    0  501    0  0.00000000000E+00  0.00000000000E+00  0.10270774288E+04  0.10270774288E+04  0.50400001928E-02 0. -1.
       -1   -1    0    0    0  501  0.00000000000E+00  0.00000000000E+00 -0.88542141669E+02  0.88542141812E+02  0.50400001928E-02 0.  1.
    10030    2    1    2    0    0  0.00000000000E+00  0.00000000000E+00  0.93853528713E+03  0.11156195706E+04  0.60312398491E+03 0.  0.
        1    1    3    3  502    0 -0.13707152704E+03 -0.59890740273E+02  0.95361620301E+03  0.96527683437E+03  0.50400001928E-02 0. -1.
       -1    1    3    3    0  502  0.13707152704E+03  0.59890740273E+02 -0.15080915884E+02  0.15034273625E+03  0.50400001928E-02 0.  1.
</event>
<event>
 5   0  0.1206238E-01  0.6012096E+03  0.7818609E-02  0.9902900E-01
       -2   -1    0    0    0  501  0.00000000000E+00  0.00000000000E+00  0.40843558243E+03  0.40843558244E+03  0.25500000920E-02 0. -1.
        2   -1    0    0  501    0  0.00000000000E+00  0.00000000000E+00 -0.22124236934E+03  0.22124236936E+03  0.25500000920E-02 0.  1.
    10030    2    1    2    0    0  0.00000000000E+00  0.00000000000E+00  0.18719321309E+03  0.62967795179E+03  0.60120963395E+03 0.  0.
        5    1    3    3  502    0 -0.25837053767E+03 -0.15179936594E+03  0.11799751387E+03  0.32209297650E+03  0.46999998093E+01 0. -1.
       -5    1    3    3    0  502  0.25837053767E+03  0.15179936594E+03  0.69195699215E+02  0.30758497529E+03  0.46999998093E+01 0.  1.
</event>
<event>
 5   0  0.7263385E-02  0.4363977E+03  0.7818609E-02  0.1031858E+00
        1   -1    0    0  501    0  0.00000000000E+00  0.00000000000E+00  0.31244012618E+03  0.31244012622E+03  0.50400001928E-02 0.  1.
       -1   -1    0    0    0  501  0.00000000000E+00  0.00000000000E+00 -0.15238353451E+03  0.15238353459E+03  0.50400001928E-02 0. -1.
    10030    2    1    2    0    0  0.00000000000E+00  0.00000000000E+00  0.16005659167E+03  0.46482366082E+03  0.43639766626E+03 0.  0.
        1    1    3    3  502    0  0.76173681018E+02  0.17374108679E+03 -0.34800951342E+02  0.19287172203E+03  0.50400001928E-02 0.  1.
       -1    1    3    3    0  502 -0.76173681018E+02 -0.17374108679E+03  0.19485754301E+03  0.27195193879E+03  0.50400001928E-02 0. -1.
</event>
<event>
 5   0  0.1219020E-01  0.5988223E+03  0.7818609E-02  0.9907852E-01
       -2   -1    0    0    0  501  0.00000000000E+00  0.00000000000E+00  0.15703206998E+03  0.15703207000E+03  0.25500000920E-02 0.  1.
        2   -1    0    0  501    0  0.00000000000E+00  0.00000000000E+00 -0.57088366970E+03  0.57088366970E+03  0.25500000920E-02 0. -1.
    10030    2    1    2    0    0  0.00000000000E+00  0.00000000000E+00 -0.41385159972E+03  0.72791573970E+03  0.59882232550E+03 0.  0.
        2    1    3    3  502    0  0.25990044511E+02  0.29187114907E+02  0.15391826657E+03  0.15880240200E+03  0.25500000920E-02 0.  1.
       -2    1    3    3    0  502 -0.25990044511E+02 -0.29187114907E+02 -0.56776986629E+03  0.56911333771E+03  0.25500000920E-02 0. -1.
</event>
<event>
 5   0  0.4695625E-02  0.6150576E+03  0.7818609E-02  0.9874650E-01
        3   -1    0    0  501    0  0.00000000000E+00  0.00000000000E+00  0.17691647094E+03  0.17691649977E+03  0.10100000352E+00 0. -1.
       -3   -1    0    0    0  501  0.00000000000E+00  0.00000000000E+00 -0.53456833922E+03  0.53456834876E+03  0.10100000352E+00 0.  1.
    10030    2    1    2    0    0  0.00000000000E+00  0.00000000000E+00 -0.35765186828E+03  0.71148484853E+03  0.61505758332E+03 0.  0.
        2    1    3    3  502    0 -0.22534013136E+03  0.20910554470E+03 -0.18854934106E+03  0.36063022287E+03  0.25500000920E-02 0. -1.
       -2    1    3    3    0  502  0.22534013136E+03 -0.20910554470E+03 -0.16910252722E+03  0.35085462566E+03  0.25500000920E-02 0.  1.
</event>
<event>
 5   0  0.1206238E-01  0.6092069E+03  0.7818609E-02  0.9886487E-01
        2   -1    0    0  501    0  0.00000000000E+00  0.00000000000E+00  0.58631775125E+03  0.58631775126E+03  0.25500000920E-02 0. -1.
       -2   -1    0    0    0  501  0.00000000000E+00  0.00000000000E+00 -0.15824740029E+03  0.15824740031E+03  0.25500000920E-02 0.  1.
    10030    2    1    2    0    0  0.00000000000E+00  0.00000000000E+00  0.42807035096E+03  0.74456515157E+03  0.60920689389E+03 0.  0.
        5    1    3    3  502    0 -0.26844437810E+03 -0.13155050742E+03  0.14284077950E+03  0.33135101995E+03  0.46999998093E+01 0.  1.
       -5    1    3    3    0  502  0.26844437810E+03  0.13155050742E+03  0.28522957146E+03  0.41321413162E+03  0.46999998093E+01 0. -1.
</event>
<event>
 5   0  0.7263385E-02  0.6053024E+03  0.7818609E-02  0.9894466E-01
        1   -1    0    0  501    0  0.00000000000E+00  0.00000000000E+00  0.85546945087E+03  0.85546945089E+03  0.50400001928E-02 0. -1.
       -1   -1    0    0    0  501  0.00000000000E+00  0.00000000000E+00 -0.10707306944E+03  0.10707306956E+03  0.50400001928E-02 0.  1.
    10030    2    1    2    0    0  0.00000000000E+00  0.00000000000E+00  0.74839638143E+03  0.96254252045E+03  0.60530237067E+03 0.  0.
        1    1    3    3  502    0 -0.25319990898E+03  0.11255394462E+03  0.56777765243E+03  0.63178322784E+03  0.50400001928E-02 0. -1.
       -1    1    3    3    0  502  0.25319990898E+03 -0.11255394462E+03  0.18061872900E+03  0.33075929261E+03  0.50400001928E-02 0.  1.
</event>
<event>
 5   0  0.7123340E-02  0.5969696E+03  0.7818609E-02  0.9911713E-01
       -1   -1    0    0    0  501  0.00000000000E+00  0.00000000000E+00  0.51390480622E+03  0.51390480625E+03  0.50400001928E-02 0.  1.
        1   -1    0    0  501    0  0.00000000000E+00  0.00000000000E+00 -0.17336515268E+03  0.17336515276E+03  0.50400001928E-02 0. -1.
    10030    2    1    2    0    0  0.00000000000E+00  0.00000000000E+00  0.34053965354E+03  0.68726995900E+03  0.59696963148E+03 0.  0.
        2    1    3    3  502    0  0.75038144344E+02 -0.65184194891E+02  0.49429195989E+03  0.50418671540E+03  0.25500000920E-02 0.  1.
       -2    1    3    3    0  502 -0.75038144344E+02  0.65184194891E+02 -0.15375230635E+03  0.18308324360E+03  0.25500000920E-02 0. -1.
</event>
<event>
 5   0  0.1175861E-01  0.6213637E+03  0.7818609E-02  0.9862048E-01
        2   -1    0    0  501    0  0.00000000000E+00  0.00000000000E+00  0.35089421187E+03  0.35089421187E+03  0.25500000920E-02 0.  1.
       -2   -1    0    0    0  501  0.00000000000E+00  0.00000000000E+00 -0.27507781892E+03  0.27507781893E+03  0.25500000920E-02 0. -1.
    10030    2    1    2    0    0  0.00000000000E+00  0.00000000000E+00  0.75816392946E+02  0.62597203081E+03  0.62136370824E+03 0.  0.
        3    1    3    3  502    0  0.12303707742E+03 -0.28127262090E+03 -0.10098074302E+02  0.30717159861E+03  0.10100000352E+00 0.  1.
       -3    1    3    3    0  502 -0.12303707742E+03  0.28127262090E+03  0.85914467248E+02  0.31880043220E+03  0.10100000352E+00 0. -1.
</event>
<event>
 5   0  0.7424930E-02  0.6009773E+03  0.7818609E-02  0.9903381E-01
       -1   -1    0    0    0  501  0.00000000000E+00  0.00000000000E+00  0.24402872141E+03  0.24402872147E+03  0.50400001928E-02 0.  1.
        1   -1    0    0  501    0  0.00000000000E+00  0.00000000000E+00 -0.37001143871E+03  0.37001143875E+03  0.50400001928E-02 0. -1.
    10030    2    1    2    0    0  0.00000000000E+00  0.00000000000E+00 -0.12598271730E+03  0.61404016021E+03  0.60097726521E+03 0.  0.
        3    1    3    3  502    0  0.50407927831E+01 -0.20809126326E+03  0.15843567104E+03  0.26158986122E+03  0.10100000352E+00 0.  1.
       -3    1    3    3    0  502 -0.50407927831E+01  0.20809126326E+03 -0.28441838834E+03  0.35245029899E+03  0.10100000352E+00 0. -1.
</event>
<event>
 5   0  0.1166419E-01  0.6012455E+03  0.7818609E-02  0.9902825E-01
       -2   -1    0    0    0  501  0.00000000000E+00  0.00000000000E+00  0.85199147692E+03  0.85199147692E+03  0.25500000920E-02 0. -1.
        2   -1    0    0  501    0  0.00000000000E+00  0.00000000000E+00 -0.10607388545E+03  0.10607388548E+03  0.25500000920E-02 0.  1.
    10030    2    1    2    0    0  0.00000000000E+00  0.00000000000E+00  0.74591759146E+03  0.95806536240E+03  0.60124552837E+03 0.  0.
        1    1    3    3  502    0  0.14576678341E+03 -0.18388557977E+03  0.67239587194E+03  0.71216435618E+03  0.50400001928E-02 0. -1.
       -1    1    3    3    0  502 -0.14576678341E+03  0.18388557977E+03  0.73521719523E+02  0.24590100622E+03  0.50400001928E-02 0.  1.
</event>
<event>
 5   0  0.7263385E-02  0.6409493E+03  0.7818609E-02  0.9823912E-01
        1   -1    0    0  501    0  0.00000000000E+00  0.00000000000E+00  0.44496839971E+03  0.44496839973E+03  0.50400001928E-02 0.  1.
       -1   -1    0    0    0  501  0.00000000000E+00  0.00000000000E+00 -0.23081188020E+03  0.23081188025E+03  0.50400001928E-02 0. -1.
    10030    2    1    2    0    0  0.00000000000E+00  0.00000000000E+00  0.21415651951E+03  0.67578027999E+03  0.64094927410E+03 0.  0.
        1    1    3    3  502    0 -0.22900684685E+03 -0.21668762081E+03  0.16770372549E+03  0.35710250697E+03  0.50400001928E-02 0.  1.
       -1    1    3    3    0  502  0.22900684685E+03  0.21668762081E+03  0.46452794018E+02  0.31867777302E+03  0.50400001928E-02 0. -1.
</event>
<event>
 5   0  0.1219020E-01  0.6096381E+03  0.7818609E-02  0.9885609E-01
        2   -1    0    0  501    0  0.00000000000E+00  0.00000000000E+00  0.51499015460E+03  0.51499015460E+03  0.25500000920E-02 0.  1.
       -2   -1    0    0    0  501  0.00000000000E+00  0.00000000000E+00 -0.18042026316E+03  0.18042026317E+03  0.25500000920E-02 0. -1.
    10030    2    1    2    0    0  0.00000000000E+00  0.00000000000E+00  0.33456989144E+03  0.69541041778E+03  0.60963811962E+03 0.  0.
        2    1    3    3  502    0  0.21725071765E+03  0.11725112407E+03  0.37123946058E+03  0.44583005452E+03  0.25500000920E-02 0.  1.
       -2    1    3    3    0  502 -0.21725071765E+03 -0.11725112407E+03 -0.36669569137E+02  0.24958036326E+03  0.25500000920E-02 0. -1.
</event>
<event>
 5   0  0.7424930E-02  0.5959807E+03  0.7818609E-02  0.9913780E-01
       -1   -1    0    0    0  501  0.00000000000E+00  0.00000000000E+00  0.63506629375E+02  0.63506629575E+02  0.50400001928E-02 0.  1.
        1   -1    0    0  501    0  0.00000000000E+00  0.00000000000E+00 -0.13982514440E+04  0.13982514440E+04  0.50400001928E-02 0. -1.
    10030    2    1    2    0    0  0.00000000000E+00  0.00000000000E+00 -0.13347448146E+04  0.14617580736E+04  0.59598065868E+03 0.  0.
        3    1    3    3  502    0  0.44252800040E+02 -0.27336317687E+03 -0.93730793013E+03  0.97735965891E+03  0.10100000352E+00 0. -1.
       -3    1    3    3    0  502 -0.44252800040E+02  0.27336317687E+03 -0.39743688451E+03  0.48439841469E+03  0.10100000352E+00 0.  1.
</event>
<event>
 5   0  0.1146468E-01  0.5962317E+03  0.7818609E-02  0.9913255E-01
        2   -1    0    0  501    0  0.00000000000E+00  0.00000000000E+00  0.12575823100E+04  0.12575823100E+04  0.25500000920E-02 0.  1.
       -2   -1    0    0    0  501  0.00000000000E+00  0.00000000000E+00 -0.70669772220E+02  0.70669772266E+02  0.25500000920E-02 0. -1.
    10030    2    1    2    0    0  0.00000000000E+00  0.00000000000E+00  0.11869125378E+04  0.13282520823E+04  0.59623168459E+03 0.  0.
        4    1    3    3  502    0  0.16550814341E+03  0.24415684384E+03  0.49722561656E+03  0.57813530993E+03  0.12699999809E+01 0. -1.
       -4    1    3    3    0  502 -0.16550814341E+03 -0.24415684384E+03  0.68968692122E+03  0.75011677233E+03  0.12699999809E+01 0.  1.
</event>
<event>
 5   0  0.1166419E-01  0.6060272E+03  0.7818609E-02  0.9892980E-01
        2   -1    0    0  501    0  0.00000000000E+00  0.00000000000E+00  0.88667590211E+03  0.88667590212E+03  0.25500000920E-02 0.  1.
       -2   -1    0    0    0  501  0.00000000000E+00  0.00000000000E+00 -0.10355218870E+03  0.10355218874E+03  0.25500000920E-02 0. -1.
    10030    2    1    2    0    0  0.00000000000E+00  0.00000000000E+00  0.78312371341E+03  0.99022809085E+03  0.60602716227E+03 0.  0.
        1    1    3    3  502    0  0.56045622940E+02 -0.13139122688E+03 -0.45084822376E+02  0.14979121332E+03  0.50400001928E-02 0. -1.
       -1    1    3    3    0  502 -0.56045622940E+02  0.13139122688E+03  0.82820853578E+03  0.84043687754E+03  0.50400001928E-02 0.  1.
</event>
<event>
 5   0  0.7424930E-02  0.6016497E+03  0.7818609E-02  0.9901989E-01
        1   -1    0    0  501    0  0.00000000000E+00  0.00000000000E+00  0.22381083605E+03  0.22381083611E+03  0.50400001928E-02 0. -1.
       -1   -1    0    0    0  501  0.00000000000E+00  0.00000000000E+00 -0.40433966164E+03  0.40433966168E+03  0.50400001928E-02 0.  1.
    10030    2    1    2    0    0  0.00000000000E+00  0.00000000000E+00 -0.18052882560E+03  0.62815049778E+03  0.60164972450E+03 0.  0.
        3    1    3    3  502    0  0.12442599465E+03  0.27019752896E+03 -0.13703788333E+03  0.32751782314E+03  0.10100000352E+00 0. -1.
       -3    1    3    3    0  502 -0.12442599465E+03 -0.27019752896E+03 -0.43490942267E+02  0.30063267464E+03  0.10100000352E+00 0.  1.
</event>
<event>
 5   0  0.7221069E-02  0.5543632E+03  0.7818609E-02  0.1000489E+00
        1   -1    0    0  501    0  0.00000000000E+00  0.00000000000E+00  0.28412168274E+03  0.28412168279E+03  0.50400001928E-02 0. -1.
       -1   -1    0    0    0  501  0.00000000000E+00  0.00000000000E+00 -0.27041106041E+03  0.27041106046E+03  0.50400001928E-02 0.  1.
    10030    2    1    2    0    0  0.00000000000E+00  0.00000000000E+00  0.13710622335E+02  0.55453274325E+03  0.55436322224E+03 0.  0.
        5    1    3    3  502    0  0.19118309573E+03 -0.50293318351E+02  0.20114951746E+03  0.28207022589E+03  0.46999998093E+01 0. -1.
       -5    1    3    3    0  502 -0.19118309573E+03  0.50293318351E+02 -0.18743889512E+03  0.27246251736E+03  0.46999998093E+01 0.  1.
</event>
<event>
 5   0  0.7424930E-02  0.5983563E+03  0.7818609E-02  0.9908822E-01
        1   -1    0    0  501    0  0.00000000000E+00  0.00000000000E+00  0.13980686316E+03  0.13980686325E+03  0.50400001928E-02 0.  1.
       -1   -1    0    0    0  501  0.00000000000E+00  0.00000000000E+00 -0.64022292953E+03  0.64022292955E+03  0.50400001928E-02 0. -1.
    10030    2    1    2    0    0  0.00000000000E+00  0.00000000000E+00 -0.50041606637E+03  0.78002979281E+03  0.59835628031E+03 0.  0.
        3    1    3    3  502    0 -0.11111747980E+03 -0.26844667618E+03 -0.34327631852E+03  0.44972141746E+03  0.10100000352E+00 0. -1.
       -3    1    3    3    0  502  0.11111747980E+03  0.26844667618E+03 -0.15713974785E+03  0.33030837534E+03  0.10100000352E+00 0.  1.
</event>
<event>
 5   0  0.7221069E-02  0.5983299E+03  0.7818609E-02  0.9908877E-01
        1   -1    0    0  501    0  0.00000000000E+00  0.00000000000E+00  0.38852623321E+03  0.38852623324E+03  0.50400001928E-02 0.  1.
       -1   -1    0    0    0  501  0.00000000000E+00  0.00000000000E+00 -0.23035679392E+03  0.23035679397E+03  0.50400001928E-02 0. -1.
    10030    2    1    2    0    0  0.00000000000E+00  0.00000000000E+00  0.15816943929E+03  0.61888302722E+03  0.59832986709E+03 0.  0.
        5    1    3    3  502    0  0.69816330633E+02  0.21589790657E+03  0.28069385358E+03  0.36096724992E+03  0.46999998093E+01 0.  1.
       -5    1    3    3    0  502 -0.69816330633E+02 -0.21589790657E+03 -0.12252441428E+03  0.25791577729E+03  0.46999998093E+01 0. -1.
</event>
<event>
 5   0  0.1219020E-01  0.6119080E+03  0.7818609E-02  0.9881004E-01
       -2   -1    0    0    0  501  0.00000000000E+00  0.00000000000E+00  0.52185030800E+02  0.52185030863E+02  0.25500000920E-02 0.  1.
        2   -1    0    0  501    0  0.00000000000E+00  0.00000000000E+00 -0.17937681439E+04  0.17937681439E+04  0.25500000920E-02 0. -1.
    10030    2    1    2    0    0  0.00000000000E+00  0.00000000000E+00 -0.17415831131E+04  0.18459531748E+04  0.61190798622E+03 0.  0.
        2    1    3    3  502    0  0.99410670367E+02  0.22943268484E+03 -0.14026756882E+04  0.14247880279E+04  0.25500000920E-02 0.  1.
       -2    1    3    3    0  502 -0.99410670367E+02 -0.22943268484E+03 -0.33890742494E+03  0.42116514688E+03  0.25500000920E-02 0. -1.
</event>
<event>
 5   0  0.7424930E-02  0.5884035E+03  0.7818609E-02  0.9929762E-01
        1   -1    0    0  501    0  0.00000000000E+00  0.00000000000E+00  0.37030788964E+03  0.37030788967E+03  0.50400001928E-02 0. -1.
       -1   -1    0    0    0  501  0.00000000000E+00  0.00000000000E+00 -0.23373703016E+03  0.23373703022E+03  0.50400001928E-02 0.  1.
    10030    2    1    2    0    0  0.00000000000E+00  0.00000000000E+00  0.13657085948E+03  0.60404491989E+03  0.58840348876E+03 0.  0.
        3    1    3    3  502    0 -0.14977159257E+03  0.22280487581E+03 -0.55250980381E+02  0.27409163369E+03  0.10100000352E+00 0.  1.
       -3    1    3    3    0  502  0.14977159257E+03 -0.22280487581E+03  0.19182183986E+03  0.32995328620E+03  0.10100000352E+00 0. -1.
</event>
<event>
 5   0  0.1166419E-01  0.5953323E+03  0.7818609E-02  0.9915138E-01
       -2   -1    0    0    0  501  0.00000000000E+00  0.00000000000E+00  0.82686954644E+02  0.82686954684E+02  0.25500000920E-02 0. -1.
        2   -1    0    0  501    0  0.00000000000E+00  0.00000000000E+00 -0.10715732551E+04  0.10715732551E+04  0.25500000920E-02 0.  1.
    10030    2    1    2    0    0  0.00000000000E+00  0.00000000000E+00 -0.98888630043E+03  0.11542602098E+04  0.59533227416E+03 0.  0.
        1    1    3    3  502    0  0.14809384265E+03  0.24953068425E+03 -0.62316559463E+03  0.68741014466E+03  0.50400001928E-02 0.  1.
       -1    1    3    3    0  502 -0.14809384265E+03 -0.24953068425E+03 -0.36572070580E+03  0.46685006510E+03  0.50400001928E-02 0. -1.
</event>
<event>
 5   0  0.1146468E-01  0.5978154E+03  0.7818609E-02  0.9909949E-01
       -2   -1    0    0    0  501  0.00000000000E+00  0.00000000000E+00  0.20429036581E+03  0.20429036583E+03  0.25500000920E-02 0.  1.
        2   -1    0    0  501    0  0.00000000000E+00  0.00000000000E+00 -0.43734711910E+03  0.43734711910E+03  0.25500000920E-02 0. -1.
    10030    2    1    2    0    0  0.00000000000E+00  0.00000000000E+00 -0.23305675329E+03  0.64163748493E+03  0.59781536599E+03 0.  0.
        4    1    3    3  502    0 -0.24754172819E+03 -0.11240999358E+03 -0.24985705571E+03  0.36924663172E+03  0.12699999809E+01 0.  1.
       -4    1    3    3    0  502  0.24754172819E+03  0.11240999358E+03  0.16800302422E+02  0.27239085321E+03  0.12699999809E+01 0. -1.
</event>
<event>
 5   0  0.7424930E-02  0.6040081E+03  0.7818609E-02  0.9897125E-01
        1   -1    0    0  501    0  0.00000000000E+00  0.00000000000E+00  0.10374760478E+04  0.10374760478E+04  0.50400001928E-02 0.  1.
       -1   -1    0    0    0  501  0.00000000000E+00  0.00000000000E+00 -0.87911844396E+02  0.87911844541E+02  0.50400001928E-02 0. -1.
    10030    2    1    2    0    0  0.00000000000E+00  0.00000000000E+00  0.94956420343E+03  0.11253878924E+04  0.60400805614E+03 0.  0.
        3    1    3    3  502    0  0.28535389691E+03  0.60750234259E+02  0.32939296066E+03  0.44001951114E+03  0.10100000352E+00 0. -1.
       -3    1    3    3    0  502 -0.28535389691E+03 -0.60750234259E+02  0.62017124277E+03  0.68536838124E+03  0.10100000352E+00 0.  1.
</event>
<event>
 5   0  0.1175861E-01  0.6094212E+03  0.7818609E-02  0.9886050E-01
        2   -1    0    0  501    0  0.00000000000E+00  0.00000000000E+00  0.15830716708E+04  0.15830716708E+04  0.25500000920E-02 0. -1.
       -2   -1    0    0    0  501  0.00000000000E+00  0.00000000000E+00 -0.58650890504E+02  0.58650890560E+02  0.25500000920E-02 0.  1.
    10030    2    1    2    0    0  0.00000000000E+00  0.00000000000E+00  0.15244207803E+04  0.16417225614E+04  0.60942124437E+03 0.  0.
        3    1    3    3  502    0 -0.15866487656E+03 -0.28221703877E+02  0.65548041653E+02  0.17397575575E+03  0.10100000352E+00 0.  1.
       -3    1    3    3    0  502  0.15866487656E+03  0.28221703877E+02  0.14588727386E+04  0.14677468056E+04  0.10100000352E+00 0. -1.
</event>
<event>
 5   0  0.1175861E-01  0.6061406E+03  0.7818609E-02  0.9892748E-01
        2   -1    0    0  501    0  0.00000000000E+00  0.00000000000E+00  0.18741596074E+04  0.18741596074E+04  0.25500000920E-02 0.  1.
       -2   -1    0    0    0  501  0.00000000000E+00  0.00000000000E+00 -0.49009485906E+02  0.49009485973E+02  0.25500000920E-02 0. -1.
    10030    2    1    2    0    0  0.00000000000E+00  0.00000000000E+00  0.18251501214E+04  0.19231690933E+04  0.60614057422E+03 0.  0.
        3    1    3    3  502    0 -0.25018489667E+03 -0.14788673042E+03  0.11853006036E+04  0.12204099715E+04  0.10100000352E+00 0.  1.
       -3    1    3    3    0  502  0.25018489667E+03  0.14788673042E+03  0.63984951787E+03  0.70275912180E+03  0.10100000352E+00 0. -1.
</event>
<event>
 5   0  0.7123340E-02  0.6780237E+03  0.7818609E-02  0.9755571E-01
       -1   -1    0    0    0  501  0.00000000000E+00  0.00000000000E+00  0.11578945932E+03  0.11578945943E+03  0.50400001928E-02 0. -1.
        1   -1    0    0  501    0  0.00000000000E+00  0.00000000000E+00 -0.99256917071E+03  0.99256917072E+03  0.50400001928E-02 0.  1.
    10030    2    1    2    0    0  0.00000000000E+00  0.00000000000E+00 -0.87677971139E+03  0.11083586302E+04  0.67802373906E+03 0.  0.
        2    1    3    3  502    0  0.19722332719E+03  0.16065137637E+03 -0.80473239190E+03  0.84397874860E+03  0.25500000920E-02 0.  1.
       -2    1    3    3    0  502 -0.19722332719E+03 -0.16065137637E+03 -0.72047319493E+02  0.26437988155E+03  0.25500000920E-02 0. -1.
</event>
<event>
 5   0  0.7221069E-02  0.5891676E+03  0.7818609E-02  0.9928138E-01
        1   -1    0    0  501    0  0.00000000000E+00  0.00000000000E+00  0.13788062407E+03  0.13788062416E+03  0.50400001928E-02 0. -1.
       -1   -1    0    0    0  501  0.00000000000E+00  0.00000000000E+00 -0.62938221162E+03  0.62938221164E+03  0.50400001928E-02 0.  1.
    10030    2    1    2    0    0  0.00000000000E+00  0.00000000000E+00 -0.49150158755E+03  0.76726283580E+03  0.58916758961E+03 0.  0.
        5    1    3    3  502    0 -0.23863846068E+03 -0.71429829097E+02 -0.41052036610E+02  0.25250325762E+03  0.46999998093E+01 0. -1.
       -5    1    3    3    0  502  0.23863846068E+03  0.71429829097E+02 -0.45044955094E+03  0.51475957819E+03  0.46999998093E+01 0.  1.
</event>
<event>
 5   0  0.7263385E-02  0.6058034E+03  0.7818609E-02  0.9893439E-01
       -1   -1    0    0    0  501  0.00000000000E+00  0.00000000000E+00  0.28488417714E+03  0.28488417718E+03  0.50400001928E-02 0. -1.
        1   -1    0    0  501    0  0.00000000000E+00  0.00000000000E+00 -0.32205871418E+03  0.32205871422E+03  0.50400001928E-02 0.  1.
    10030    2    1    2    0    0  0.00000000000E+00  0.00000000000E+00 -0.37174537043E+02  0.60694289141E+03  0.60580337340E+03 0.  0.
        1    1    3    3  502    0 -0.10899427804E+02 -0.41923322259E+02  0.28176500853E+03  0.28507522259E+03  0.50400001928E-02 0. -1.
       -1    1    3    3    0  502  0.10899427804E+02  0.41923322259E+02 -0.31893954557E+03  0.32186766882E+03  0.50400001928E-02 0.  1.
</event>
<event>
 5   0  0.1206238E-01  0.6137885E+03  0.7818609E-02  0.9877205E-01
        2   -1    0    0  501    0  0.00000000000E+00  0.00000000000E+00  0.36276173706E+03  0.36276173707E+03  0.25500000920E-02 0. -1.
       -2   -1    0    0    0  501  0.00000000000E+00  0.00000000000E+00 -0.25963071870E+03  0.25963071871E+03  0.25500000920E-02 0.  1.
    10030    2    1    2    0    0  0.00000000000E+00  0.00000000000E+00  0.10313101836E+03  0.62239245578E+03  0.61378853204E+03 0.  0.
        5    1    3    3  502    0 -0.85744473463E+01  0.23513686659E+03 -0.14817058928E+03  0.27809976754E+03  0.46999998093E+01 0.  1.
       -5    1    3    3    0  502  0.85744473463E+01 -0.23513686659E+03  0.25130160764E+03  0.34429268825E+03  0.46999998093E+01 0. -1.
</event>
<event>
 5   0  0.1175861E-01  0.6029162E+03  0.7818609E-02  0.9899374E-01
       -2   -1    0    0    0  501  0.00000000000E+00  0.00000000000E+00  0.15974366532E+03  0.15974366534E+03  0.25500000920E-02 0. -1.
        2   -1    0    0  501    0  0.00000000000E+00  0.00000000000E+00 -0.56889255917E+03  0.56889255918E+03  0.25500000920E-02 0.  1.
    10030    2    1    2    0    0  0.00000000000E+00  0.00000000000E+00 -0.40914889386E+03  0.72863622452E+03  0.60291618848E+03 0.  0.
        3    1    3    3  502    0  0.30255616464E+02 -0.12091885727E+03  0.12714214751E+03  0.17805029696E+03  0.10100000352E+00 0. -1.
       -3    1    3    3    0  502 -0.30255616464E+02  0.12091885727E+03 -0.53629104137E+03  0.55058592756E+03  0.10100000352E+00 0.  1.
</event>
<event>
 5   0  0.1146468E-01  0.6018536E+03  0.7818609E-02  0.9901568E-01
       -2   -1    0    0    0  501  0.00000000000E+00  0.00000000000E+00  0.47649390824E+03  0.47649390825E+03  0.25500000920E-02 0.  1.
        2   -1    0    0  501    0  0.00000000000E+00  0.00000000000E+00 -0.19004849954E+03  0.19004849955E+03  0.25500000920E-02 0. -1.
    10030    2    1    2    0    0  0.00000000000E+00  0.00000000000E+00  0.28644540870E+03  0.66654240780E+03  0.60185364436E+03 0.  0.
        4    1    3    3  502    0 -0.14357606654E+03 -0.19520200906E+03  0.34083132219E+03  0.41819315431E+03  0.12699999809E+01 0.  1.
       -4    1    3    3    0  502  0.14357606654E+03  0.19520200906E+03 -0.54385913486E+02  0.24834925349E+03  0.12699999809E+01 0. -1.
</event>
<event>
 5   0  0.1175861E-01  0.6151914E+03  0.7818609E-02  0.9874380E-01
        2   -1    0    0  501    0  0.00000000000E+00  0.00000000000E+00  0.62062643537E+03  0.62062643537E+03  0.25500000920E-02 0.  1.
       -2   -1    0    0    0  501  0.00000000000E+00  0.00000000000E+00 -0.15245099712E+03  0.15245099714E+03  0.25500000920E-02 0. -1.
    10030    2    1    2    0    0  0.00000000000E+00  0.00000000000E+00  0.46817543825E+03  0.77307743251E+03  0.61519141385E+03 0.  0.
        3    1    3    3  502    0 -0.19658267955E+03  0.14274682056E+03 -0.29946850686E+01  0.24296169044E+03  0.10100000352E+00 0. -1.
       -3    1    3    3    0  502  0.19658267955E+03 -0.14274682056E+03  0.47117012332E+03  0.53011574207E+03  0.10100000352E+00 0.  1.
</event>
<event>
 5   0  0.7221069E-02  0.6715029E+03  0.7818609E-02  0.9767247E-01
        1   -1    0    0  501    0  0.00000000000E+00  0.00000000000E+00  0.18211771487E+03  0.18211771494E+03  0.50400001928E-02 0.  1.
       -1   -1    0    0    0  501  0.00000000000E+00  0.00000000000E+00 -0.61898990677E+03  0.61898990679E+03  0.50400001928E-02 0. -1.
    10030    2    1    2    0    0  0.00000000000E+00  0.00000000000E+00 -0.43687219190E+03  0.80110762172E+03  0.67150287381E+03 0.  0.
        5    1    3    3  502    0  0.31959556528E+03 -0.87743785862E+02 -0.28231089872E+03  0.43538698975E+03  0.46999998093E+01 0. -1.
       -5    1    3    3    0  502 -0.31959556528E+03  0.87743785862E+02 -0.15456129318E+03  0.36572063198E+03  0.46999998093E+01 0.  1.
</event>
<event>
 5   0  0.7266519E-02  0.5960671E+03  0.7818609E-02  0.9913599E-01
       -1   -1    0    0    0  501  0.00000000000E+00  0.00000000000E+00  0.81760324114E+02  0.81760324270E+02  0.50400001928E-02 0.  1.
        1   -1    0    0  501    0  0.00000000000E+00  0.00000000000E+00 -0.10863949529E+04  0.10863949529E+04  0.50400001928E-02 0. -1.
    10030    2    1    2    0    0  0.00000000000E+00  0.00000000000E+00 -0.10046346288E+04  0.11681552772E+04  0.59606712228E+03 0.  0.
        4    1    3    3  502    0 -0.19831150021E+03 -0.21942944578E+03 -0.57420801823E+03  0.64590494184E+03  0.12699999809E+01 0.  1.
       -4    1    3    3    0  502  0.19831150021E+03  0.21942944578E+03 -0.43042661058E+03  0.52225033537E+03  0.12699999809E+01 0. -1.
</event>
<event>
 5   0  0.7221069E-02  0.5977795E+03  0.7818609E-02  0.9910024E-01
        1   -1    0    0  501    0  0.00000000000E+00  0.00000000000E+00  0.88921515635E+03  0.88921515636E+03  0.50400001928E-02 0. -1.
       -1   -1    0    0    0  501  0.00000000000E+00  0.00000000000E+00 -0.10046508754E+03  0.10046508767E+03  0.50400001928E-02 0.  1.
    10030    2    1    2    0    0  0.00000000000E+00  0.00000000000E+00  0.78875006880E+03  0.98968024403E+03  0.59777948642E+03 0.  0.
        5    1    3    3  502    0  0.76269700447E+02  0.24593908302E+03  0.64551229557E+03  0.69499015353E+03  0.46999998093E+01 0. -1.
       -5    1    3    3    0  502 -0.76269700447E+02 -0.24593908302E+03  0.14323777323E+03  0.29469009050E+03  0.46999998093E+01 0.  1.
</event>
<event>
 5   0  0.7266519E-02  0.6406373E+03  0.7818609E-02  0.9824508E-01
        1   -1    0    0  501    0  0.00000000000E+00  0.00000000000E+00  0.12699463363E+04  0.12699463363E+04  0.50400001928E-02 0.  1.
       -1   -1    0    0    0  501  0.00000000000E+00  0.00000000000E+00 -0.80793992652E+02  0.80793992809E+02  0.50400001928E-02 0. -1.
    10030    2    1    2    0    0  0.00000000000E+00  0.00000000000E+00  0.11891523436E+04  0.13507403291E+04  0.64063729231E+03 0.  0.
        4    1    3    3  502    0  0.31860915762E+03 -0.17365827309E+01  0.52504229011E+03  0.61415456551E+03  0.12699999809E+01 0. -1.
       -4    1    3    3    0  502 -0.31860915762E+03  0.17365827309E+01  0.66411005353E+03  0.73658576360E+03  0.12699999809E+01 0.  1.
</event>
<event>
 5   0  0.1175861E-01  0.5899796E+03  0.7818609E-02  0.9926416E-01
       -2   -1    0    0    0  501  0.00000000000E+00  0.00000000000E+00  0.93538860221E+02  0.93538860255E+02  0.25500000920E-02 0.  1.
        2   -1    0    0  501    0  0.00000000000E+00  0.00000000000E+00 -0.93029756694E+03  0.93029756694E+03  0.25500000920E-02 0. -1.
    10030    2    1    2    0    0  0.00000000000E+00  0.00000000000E+00 -0.83675870672E+03  0.10238364272E+04  0.58997957286E+03 0.  0.
        3    1    3    3  502    0  0.12911983927E+02 -0.11440305154E+03 -0.88969990835E+03  0.89711800486E+03  0.10100000352E+00 0. -1.
       -3    1    3    3    0  502 -0.12911983927E+02  0.11440305154E+03  0.52941201627E+02  0.12671842234E+03  0.10100000352E+00 0.  1.
</event>
<event>
 5   0  0.7424930E-02  0.6070165E+03  0.7818609E-02  0.9890955E-01
        1   -1    0    0  501    0  0.00000000000E+00  0.00000000000E+00  0.33303525596E+03  0.33303525600E+03  0.50400001928E-02 0. -1.
       -1   -1    0    0    0  501  0.00000000000E+00  0.00000000000E+00 -0.27659914443E+03  0.27659914447E+03  0.50400001928E-02 0.  1.
    10030    2    1    2    0    0  0.00000000000E+00  0.00000000000E+00  0.56436111535E+02  0.60963440048E+03  0.60701652989E+03 0.  0.
        3    1    3    3  502    0 -0.86609732978E+02 -0.20818231890E+03  0.23225952826E+03  0.32370607411E+03  0.10100000352E+00 0. -1.
       -3    1    3    3    0  502  0.86609732978E+02  0.20818231890E+03 -0.17582341673E+03  0.28592832636E+03  0.10100000352E+00 0.  1.
</event>
<event>
 5   0  0.4695625E-02  0.5867874E+03  0.7818609E-02  0.9933203E-01
        4   -1    0    0  501    0  0.00000000000E+00  0.00000000000E+00  0.76644514698E+03  0.76644619917E+03  0.12699999809E+01 0. -1.
       -4   -1    0    0    0  501  0.00000000000E+00  0.00000000000E+00 -0.11230582877E+03  0.11231300938E+03  0.12699999809E+01 0.  1.
    10030    2    1    2    0    0  0.00000000000E+00  0.00000000000E+00  0.65413931821E+03  0.87875920855E+03  0.58678743936E+03 0.  0.
        2    1    3    3  502    0 -0.15248669345E+03  0.21902149315E+03  0.50960987828E+03  0.57526066629E+03  0.25500000920E-02 0. -1.
       -2    1    3    3    0  502  0.15248669345E+03 -0.21902149315E+03  0.14452943993E+03  0.30349854226E+03  0.25500000920E-02 0.  1.
</event>
<event>
 5   0  0.1175861E-01  0.6025212E+03  0.7818609E-02  0.9900189E-01
        2   -1    0    0  501    0  0.00000000000E+00  0.00000000000E+00  0.91431045413E+03  0.91431045413E+03  0.25500000920E-02 0.  1.
       -2   -1    0    0    0  501  0.00000000000E+00  0.00000000000E+00 -0.99263811074E+02  0.99263811106E+02  0.25500000920E-02 0. -1.
    10030    2    1    2    0    0  0.00000000000E+00  0.00000000000E+00  0.81504664306E+03  0.10135742652E+04  0.60252117042E+03 0.  0.
        3    1    3    3  502    0 -0.55857260416E+01  0.25821627418E+03  0.14663742338E+03  0.29700065441E+03  0.10100000352E+00 0. -1.
       -3    1    3    3    0  502  0.55857260416E+01 -0.25821627418E+03  0.66840921968E+03  0.71657361083E+03  0.10100000352E+00 0.  1.
</event>
<event>
 5   0  0.7424930E-02  0.6063870E+03  0.7818609E-02  0.9892243E-01
        1   -1    0    0  501    0  0.00000000000E+00  0.00000000000E+00  0.58946891386E+03  0.58946891388E+03  0.50400001928E-02 0.  1.
       -1   -1    0    0    0  501  0.00000000000E+00  0.00000000000E+00 -0.15594768402E+03  0.15594768410E+03  0.50400001928E-02 0. -1.
    10030    2    1    2    0    0  0.00000000000E+00  0.00000000000E+00  0.43352122984E+03  0.74541659798E+03  0.60638704458E+03 0.  0.
        3    1    3    3  502    0  0.84242659365E+02 -0.27541534728E+03  0.33322341896E+03  0.44044102479E+03  0.10100000352E+00 0.  1.
       -3    1    3    3    0  502 -0.84242659365E+02  0.27541534728E+03  0.10029781088E+03  0.30497557319E+03  0.10100000352E+00 0. -1.
</event>
<event>
 5   0  0.1146468E-01  0.5952281E+03  0.7818609E-02  0.9915356E-01
       -2   -1    0    0    0  501  0.00000000000E+00  0.00000000000E+00  0.33453812985E+02  0.33453813082E+02  0.25500000920E-02 0.  1.
        2   -1    0    0  501    0  0.00000000000E+00  0.00000000000E+00 -0.26476537934E+04  0.26476537934E+04  0.25500000920E-02 0. -1.
    10030    2    1    2    0    0  0.00000000000E+00  0.00000000000E+00 -0.26141999804E+04  0.26811076065E+04  0.59522807388E+03 0.  0.
        4    1    3    3  502    0  0.80634711010E+02 -0.57025371773E+02 -0.25716771719E+04  0.25735731850E+04  0.12699999809E+01 0. -1.
       -4    1    3    3    0  502 -0.80634711010E+02  0.57025371773E+02 -0.42522808556E+02  0.10753442143E+03  0.12699999809E+01 0.  1.
</event>
<event>
 5   0  0.4695625E-02  0.5856988E+03  0.7818609E-02  0.9935529E-01
        4   -1    0    0  501    0  0.00000000000E+00  0.00000000000E+00  0.27576043305E+03  0.27576335749E+03  0.12699999809E+01 0.  1.
       -4   -1    0    0    0  501  0.00000000000E+00  0.00000000000E+00 -0.31099146696E+03  0.31099406010E+03  0.12699999809E+01 0. -1.
    10030    2    1    2    0    0  0.00000000000E+00  0.00000000000E+00 -0.35231033907E+02  0.58675741760E+03  0.58569876332E+03 0.  0.
        2    1    3    3  502    0 -0.76475374226E+02  0.15126468524E+03  0.22162834937E+03  0.27901364325E+03  0.25500000920E-02 0.  1.
       -2    1    3    3    0  502  0.76475374226E+02 -0.15126468524E+03 -0.25685938328E+03  0.30774377435E+03  0.25500000920E-02 0. -1.
</event>
<event>
 5   0  0.7123340E-02  0.5348630E+03  0.7818609E-02  0.1005060E+00
        1   -1    0    0  501    0  0.00000000000E+00  0.00000000000E+00  0.18809821535E+03  0.18809821542E+03  0.50400001928E-02 0. -1.
       -1   -1    0    0    0  501  0.00000000000E+00  0.00000000000E+00 -0.38022474324E+03  0.38022474327E+03  0.50400001928E-02 0.  1.
    10030    2    1    2    0    0  0.00000000000E+00  0.00000000000E+00 -0.19212652789E+03  0.56832295869E+03  0.53486295689E+03 0.  0.
        2    1    3    3  502    0 -0.56440941847E+02  0.10311313917E+03 -0.35130222607E+03  0.37044723435E+03  0.25500000920E-02 0.  1.
       -2    1    3    3    0  502  0.56440941847E+02 -0.10311313917E+03  0.15917569818E+03  0.19787572435E+03  0.25500000920E-02 0. -1.
</event>
<event>
 5   0  0.7266519E-02  0.5930071E+03  0.7818609E-02  0.9920021E-01
        1   -1    0    0  501    0  0.00000000000E+00  0.00000000000E+00  0.11279860433E+04  0.11279860433E+04  0.50400001928E-02 0.  1.
       -1   -1    0    0    0  501  0.00000000000E+00  0.00000000000E+00 -0.77939214884E+02  0.77939215047E+02  0.50400001928E-02 0. -1.
    10030    2    1    2    0    0  0.00000000000E+00  0.00000000000E+00  0.10500468284E+04  0.12059252583E+04  0.59300707152E+03 0.  0.
        4    1    3    3  502    0 -0.11445051372E+03 -0.14942375115E+03  0.99091378199E+03  0.10086318029E+04  0.12699999809E+01 0.  1.
       -4    1    3    3    0  502  0.11445051372E+03  0.14942375115E+03  0.59133046410E+02  0.19729345548E+03  0.12699999809E+01 0. -1.
</event>
<event>
 5   0  0.7424930E-02  0.5890684E+03  0.7818609E-02  0.9928349E-01
       -1   -1    0    0    0  501  0.00000000000E+00  0.00000000000E+00  0.75027043734E+02  0.75027043904E+02  0.50400001928E-02 0. -1.
        1   -1    0    0  501    0  0.00000000000E+00  0.00000000000E+00 -0.11562550565E+04  0.11562550565E+04  0.50400001928E-02 0.  1.
    10030    2    1    2    0    0  0.00000000000E+00  0.00000000000E+00 -0.10812280127E+04  0.12312821004E+04  0.58906841301E+03 0.  0.
        3    1    3    3  502    0 -0.28344356601E+03  0.78842475500E+02 -0.51150080615E+03  0.59007582221E+03  0.10100000352E+00 0. -1.
       -3    1    3    3    0  502  0.28344356601E+03 -0.78842475500E+02 -0.56972720658E+03  0.64120627818E+03  0.10100000352E+00 0.  1.
</event>
<event>
 5   0  0.7221069E-02  0.5978751E+03  0.7818609E-02  0.9909824E-01
       -1   -1    0    0    0  501  0.00000000000E+00  0.00000000000E+00  0.38317760032E+03  0.38317760036E+03  0.50400001928E-02 0. -1.
        1   -1    0    0  501    0  0.00000000000E+00  0.00000000000E+00 -0.23321734380E+03  0.23321734386E+03  0.50400001928E-02 0.  1.
    10030    2    1    2    0    0  0.00000000000E+00  0.00000000000E+00  0.14996025652E+03  0.61639494421E+03  0.59787511130E+03 0.  0.
        5    1    3    3  502    0  0.85764791962E+02  0.39098625580E+02  0.36741640083E+03  0.37934312128E+03  0.46999998093E+01 0. -1.
       -5    1    3    3    0  502 -0.85764791962E+02 -0.39098625580E+02 -0.21745614431E+03  0.23705182294E+03  0.46999998093E+01 0.  1.
</event>
<event>
 5   0  0.1175861E-01  0.5503080E+03  0.7818609E-02  0.1001423E+00
        2   -1    0    0  501    0  0.00000000000E+00  0.00000000000E+00  0.43645715611E+03  0.43645715611E+03  0.25500000920E-02 0.  1.
       -2   -1    0    0    0  501  0.00000000000E+00  0.00000000000E+00 -0.17346428282E+03  0.17346428284E+03  0.25500000920E-02 0. -1.
    10030    2    1    2    0    0  0.00000000000E+00  0.00000000000E+00  0.26299287329E+03  0.60992143895E+03  0.55030801402E+03 0.  0.
        3    1    3    3  502    0 -0.15244626902E+03 -0.17397115664E+03  0.29664796096E+03  0.37617263487E+03  0.10100000352E+00 0.  1.
       -3    1    3    3    0  502  0.15244626902E+03  0.17397115664E+03 -0.33655087677E+02  0.23374880408E+03  0.10100000352E+00 0. -1.
</event>
<event>
 5   0  0.7263385E-02  0.5621662E+03  0.7818609E-02  0.9987165E-01
        1   -1    0    0  501    0  0.00000000000E+00  0.00000000000E+00  0.78604738332E+03  0.78604738334E+03  0.50400001928E-02 0. -1.
       -1   -1    0    0    0  501  0.00000000000E+00  0.00000000000E+00 -0.10051265682E+03  0.10051265695E+03  0.50400001928E-02 0.  1.
    10030    2    1    2    0    0  0.00000000000E+00  0.00000000000E+00  0.68553472650E+03  0.88656004029E+03  0.56216620656E+03 0.  0.
        1    1    3    3  502    0 -0.20036305945E+03 -0.16750160886E+03  0.17883406201E+03  0.31651819272E+03  0.50400001928E-02 0.  1.
       -1    1    3    3    0  502  0.20036305945E+03  0.16750160886E+03  0.50670066449E+03  0.57004184757E+03  0.50400001928E-02 0. -1.
</event>
<event>
 5   0  0.1166419E-01  0.6040966E+03  0.7818609E-02  0.9896943E-01
        2   -1    0    0  501    0  0.00000000000E+00  0.00000000000E+00  0.10843205500E+03  0.10843205503E+03  0.25500000920E-02 0.  1.
       -2   -1    0    0    0  501  0.00000000000E+00  0.00000000000E+00 -0.84138551775E+03  0.84138551775E+03  0.25500000920E-02 0. -1.
    10030    2    1    2    0    0  0.00000000000E+00  0.00000000000E+00 -0.73295346275E+03  0.94981757278E+03  0.60409655106E+03 0.  0.
        1    1    3    3  502    0 -0.14088916062E+03 -0.26709960189E+03 -0.35638365353E+03  0.46712017880E+03  0.50400001928E-02 0. -1.
       -1    1    3    3    0  502  0.14088916062E+03  0.26709960189E+03 -0.37656980922E+03  0.48269739398E+03  0.50400001928E-02 0.  1.
</event>
<event>
 5   0  0.7424930E-02  0.5964597E+03  0.7818609E-02  0.9912778E-01
       -1   -1    0    0    0  501  0.00000000000E+00  0.00000000000E+00  0.42334182034E+03  0.42334182037E+03  0.50400001928E-02 0. -1.
        1   -1    0    0  501    0  0.00000000000E+00  0.00000000000E+00 -0.21009274016E+03  0.21009274022E+03  0.50400001928E-02 0.  1.
    10030    2    1    2    0    0  0.00000000000E+00  0.00000000000E+00  0.21324908018E+03  0.63343456059E+03  0.59645969885E+03 0.  0.
        3    1    3    3  502    0 -0.55739048177E+02 -0.28129283538E+03  0.19641535896E+02  0.28743399392E+03  0.10100000352E+00 0.  1.
       -3    1    3    3    0  502  0.55739048177E+02  0.28129283538E+03  0.19360754428E+03  0.34600056667E+03  0.10100000352E+00 0. -1.
</event>
<event>
 5   0  0.7123340E-02  0.6070696E+03  0.7818609E-02  0.9890846E-01
       -1   -1    0    0    0  501  0.00000000000E+00  0.00000000000E+00  0.12191213080E+03  0.12191213090E+03  0.50400001928E-02 0. -1.
        1   -1    0    0  501    0  0.00000000000E+00  0.00000000000E+00 -0.75573599668E+03  0.75573599670E+03  0.50400001928E-02 0.  1.
    10030    2    1    2    0    0  0.00000000000E+00  0.00000000000E+00 -0.63382386588E+03  0.87764812760E+03  0.60706963597E+03 0.  0.
        2    1    3    3  502    0 -0.79712575341E+02 -0.63293633484E+02 -0.73032807958E+03  0.73738679303E+03  0.25500000920E-02 0.  1.
       -2    1    3    3    0  502  0.79712575341E+02  0.63293633484E+02  0.96504213698E+02  0.14026133457E+03  0.25500000920E-02 0. -1.
</event>
<event>
 5   0  0.7221069E-02  0.5668369E+03  0.7818609E-02  0.9976703E-01
       -1   -1    0    0    0  501  0.00000000000E+00  0.00000000000E+00  0.26588469975E+03  0.26588469979E+03  0.50400001928E-02 0.  1.
        1   -1    0    0  501    0  0.00000000000E+00  0.00000000000E+00 -0.30210842795E+03  0.30210842799E+03  0.50400001928E-02 0. -1.
    10030    2    1    2    0    0  0.00000000000E+00  0.00000000000E+00 -0.36223728199E+02  0.56799312778E+03  0.56683686782E+03 0.  0.
        5    1    3    3  502    0  0.18510639356E+03 -0.14094479070E+01  0.19688945175E+03  0.27028486766E+03  0.46999998093E+01 0.  1.
       -5    1    3    3    0  502 -0.18510639356E+03  0.14094479070E+01 -0.23311317995E+03  0.29770826012E+03  0.46999998093E+01 0. -1.
</event>
<event>
 5   0  0.1206238E-01  0.6159370E+03  0.7818609E-02  0.9872883E-01
       -2   -1    0    0    0  501  0.00000000000E+00  0.00000000000E+00  0.14435116661E+03  0.14435116663E+03  0.25500000920E-02 0. -1.
        2   -1    0    0  501    0  0.00000000000E+00  0.00000000000E+00 -0.65704068384E+03  0.65704068384E+03  0.25500000920E-02 0.  1.
    10030    2    1    2    0    0  0.00000000000E+00  0.00000000000E+00 -0.51268951723E+03  0.80139185047E+03  0.61593697480E+03 0.  0.
        5    1    3    3  502    0 -0.19255739555E+03 -0.29540161754E+02 -0.56662640882E+03  0.59919825510E+03  0.46999998093E+01 0.  1.
       -5    1    3    3    0  502  0.19255739555E+03  0.29540161754E+02  0.53936891591E+02  0.20219359538E+03  0.46999998093E+01 0. -1.
</event>
<event>
 5   0  0.1206238E-01  0.5970442E+03  0.7818609E-02  0.9911557E-01
        2   -1    0    0  501    0  0.00000000000E+00  0.00000000000E+00  0.62695138299E+03  0.62695138299E+03  0.25500000920E-02 0. -1.
       -2   -1    0    0    0  501  0.00000000000E+00  0.00000000000E+00 -0.14214093193E+03  0.14214093195E+03  0.25500000920E-02 0.  1.
    10030    2    1    2    0    0  0.00000000000E+00  0.00000000000E+00  0.48481045106E+03  0.76909231494E+03  0.59704423240E+03 0.  0.
        5    1    3    3  502    0  0.25941473476E+03  0.14673961664E+03  0.22144156272E+03  0.37133135526E+03  0.46999998093E+01 0.  1.
       -5    1    3    3    0  502 -0.25941473476E+03 -0.14673961664E+03  0.26336888835E+03  0.39776095968E+03  0.46999998093E+01 0. -1.
</event>
<event>
 5   0  0.1206238E-01  0.5768895E+03  0.7818609E-02  0.9954548E-01
        2   -1    0    0  501    0  0.00000000000E+00  0.00000000000E+00  0.34559393527E+03  0.34559393528E+03  0.25500000920E-02 0.  1.
       -2   -1    0    0    0  501  0.00000000000E+00  0.00000000000E+00 -0.24074601329E+03  0.24074601330E+03  0.25500000920E-02 0. -1.
    10030    2    1    2    0    0  0.00000000000E+00  0.00000000000E+00  0.10484792198E+03  0.58633994858E+03  0.57688945956E+03 0.  0.
        5    1    3    3  502    0  0.23730802881E+03  0.10348690178E+03 -0.76755058371E+02  0.27007048776E+03  0.46999998093E+01 0. -1.
       -5    1    3    3    0  502 -0.23730802881E+03 -0.10348690178E+03  0.18160298035E+03  0.31626946082E+03  0.46999998093E+01 0.  1.
</event>
<event>
 5   0  0.7266519E-02  0.5990755E+03  0.7818609E-02  0.9907326E-01
        1   -1    0    0  501    0  0.00000000000E+00  0.00000000000E+00  0.56831470042E+03  0.56831470044E+03  0.50400001928E-02 0. -1.
       -1   -1    0    0    0  501  0.00000000000E+00  0.00000000000E+00 -0.15787531844E+03  0.15787531852E+03  0.50400001928E-02 0.  1.
    10030    2    1    2    0    0  0.00000000000E+00  0.00000000000E+00  0.41043938199E+03  0.72619001896E+03  0.59907550221E+03 0.  0.
        4    1    3    3  502    0  0.56231008967E+02  0.18949071406E+03 -0.67596136289E+02  0.20890071237E+03  0.12699999809E+01 0.  1.
       -4    1    3    3    0  502 -0.56231008967E+02 -0.18949071406E+03  0.47803551828E+03  0.51728930660E+03  0.12699999809E+01 0. -1.
</event>
<event>
 5   0  0.1219020E-01  0.6028297E+03  0.7818609E-02  0.9899553E-01
        2   -1    0    0  501    0  0.00000000000E+00  0.00000000000E+00  0.20984651610E+03  0.20984651611E+03  0.25500000920E-02 0.  1.
       -2   -1    0    0    0  501  0.00000000000E+00  0.00000000000E+00 -0.43293987535E+03  0.43293987535E+03  0.25500000920E-02 0. -1.
    10030    2    1    2    0    0  0.00000000000E+00  0.00000000000E+00 -0.22309335925E+03  0.64278639147E+03  0.60282974223E+03 0.  0.
        2    1    3    3  502    0 -0.11220076372E+03 -0.27107251255E+03 -0.37814189702E+02  0.29580268996E+03  0.25500000920E-02 0.  1.
       -2    1    3    3    0  502  0.11220076372E+03  0.27107251255E+03 -0.18527916955E+03  0.34698370151E+03  0.25500000920E-02 0. -1.
</event>
<event>
 5   0  0.1175861E-01  0.6070258E+03  0.7818609E-02  0.9890936E-01
        2   -1    0    0  501    0  0.00000000000E+00  0.00000000000E+00  0.59100397087E+03  0.59100397088E+03  0.25500000920E-02 0.  1.
       -2   -1    0    0    0  501  0.00000000000E+00  0.00000000000E+00 -0.15587049048E+03  0.15587049050E+03  0.25500000920E-02 0. -1.
    10030    2    1    2    0    0  0.00000000000E+00  0.00000000000E+00  0.43513348039E+03  0.74687446138E+03  0.60702579460E+03 0.  0.
        3    1    3    3  502    0  0.18436074886E+01 -0.34209333187E+02  0.58861739198E+03  0.58961353589E+03  0.10100000352E+00 0.  1.
       -3    1    3    3    0  502 -0.18436074886E+01  0.34209333187E+02 -0.15348391159E+03  0.15726092549E+03  0.10100000352E+00 0. -1.
</event>
<event>
 5   0  0.7263385E-02  0.6040685E+03  0.7818609E-02  0.9897001E-01
        1   -1    0    0  501    0  0.00000000000E+00  0.00000000000E+00  0.13854059529E+03  0.13854059538E+03  0.50400001928E-02 0.  1.
       -1   -1    0    0    0  501  0.00000000000E+00  0.00000000000E+00 -0.65846908885E+03  0.65846908887E+03  0.50400001928E-02 0. -1.
    10030    2    1    2    0    0  0.00000000000E+00  0.00000000000E+00 -0.51992849357E+03  0.79700968425E+03  0.60406853780E+03 0.  0.
        1    1    3    3  502    0 -0.11334732463E+03 -0.84266275025E+02 -0.61221334482E+03  0.62829419917E+03  0.50400001928E-02 0. -1.
       -1    1    3    3    0  502  0.11334732463E+03  0.84266275025E+02  0.92284851257E+02  0.16871548508E+03  0.50400001928E-02 0.  1.
</event>
<event>
 5   0  0.1175861E-01  0.6078722E+03  0.7818609E-02  0.9889207E-01
       -2   -1    0    0    0  501  0.00000000000E+00  0.00000000000E+00  0.90822219447E+02  0.90822219483E+02  0.25500000920E-02 0.  1.
        2   -1    0    0  501    0  0.00000000000E+00  0.00000000000E+00 -0.10171205060E+04  0.10171205060E+04  0.25500000920E-02 0. -1.
    10030    2    1    2    0    0  0.00000000000E+00  0.00000000000E+00 -0.92629828656E+03  0.11079427255E+04  0.60787216361E+03 0.  0.
        3    1    3    3  502    0 -0.23688178411E+03  0.18929833224E+03 -0.50095746428E+03  0.58558110408E+03  0.10100000352E+00 0.  1.
       -3    1    3    3    0  502  0.23688178411E+03 -0.18929833224E+03 -0.42534082228E+03  0.52236162142E+03  0.10100000352E+00 0. -1.
</event>
<event>
 5   0  0.7266519E-02  0.6126517E+03  0.7818609E-02  0.9879500E-01
       -1   -1    0    0    0  501  0.00000000000E+00  0.00000000000E+00  0.65966768993E+02  0.65966769185E+02  0.50400001928E-02 0. -1.
        1   -1    0    0  501    0  0.00000000000E+00  0.00000000000E+00 -0.14224667257E+04  0.14224667257E+04  0.50400001928E-02 0.  1.
    10030    2    1    2    0    0  0.00000000000E+00  0.00000000000E+00 -0.13564999567E+04  0.14884334949E+04  0.61265172502E+03 0.  0.
        4    1    3    3  502    0 -0.53622815654E+02 -0.29118349698E+03 -0.48740422829E+03  0.57028740994E+03  0.12699999809E+01 0. -1.
       -4    1    3    3    0  502  0.53622815654E+02  0.29118349698E+03 -0.86909572840E+03  0.91814608495E+03  0.12699999809E+01 0.  1.
</event>
<event>
 5   0  0.1206238E-01  0.5969665E+03  0.7818609E-02  0.9911720E-01
        2   -1    0    0  501    0  0.00000000000E+00  0.00000000000E+00  0.15399484461E+03  0.15399484464E+03  0.25500000920E-02 0. -1.
       -2   -1    0    0    0  501  0.00000000000E+00  0.00000000000E+00 -0.57854046873E+03  0.57854046874E+03  0.25500000920E-02 0.  1.
    10030    2    1    2    0    0  0.00000000000E+00  0.00000000000E+00 -0.42454562412E+03  0.73253531337E+03  0.59696649687E+03 0.  0.
        5    1    3    3  502    0  0.22674358587E+03 -0.15843030911E+03 -0.74764963814E+02  0.28657408535E+03  0.46999998093E+01 0. -1.
       -5    1    3    3    0  502 -0.22674358587E+03  0.15843030911E+03 -0.34978066030E+03  0.44596122802E+03  0.46999998093E+01 0.  1.
</event>
<event>
 5   0  0.7424930E-02  0.5897453E+03  0.7818609E-02  0.9926913E-01
        1   -1    0    0  501    0  0.00000000000E+00  0.00000000000E+00  0.80317109356E+03  0.80317109357E+03  0.50400001928E-02 0.  1.
       -1   -1    0    0    0  501  0.00000000000E+00  0.00000000000E+00 -0.10825822409E+03  0.10825822421E+03  0.50400001928E-02 0. -1.
    10030    2    1    2    0    0  0.00000000000E+00  0.00000000000E+00  0.69491286947E+03  0.91142931778E+03  0.58974528837E+03 0.  0.
        3    1    3    3  502    0 -0.21051284694E+03  0.14111263312E+03  0.58041375678E+03  0.63333132973E+03  0.10100000352E+00 0.  1.
       -3    1    3    3    0  502  0.21051284694E+03 -0.14111263312E+03  0.11449911269E+03  0.27809798805E+03  0.10100000352E+00 0. -1.
</event>
<event>
 5   0  0.1219020E-01  0.5935179E+03  0.7818609E-02  0.9918946E-01
        2   -1    0    0  501    0  0.00000000000E+00  0.00000000000E+00  0.81961865997E+03  0.81961865998E+03  0.25500000920E-02 0. -1.
       -2   -1    0    0    0  501  0.00000000000E+00  0.00000000000E+00 -0.10744738390E+03  0.10744738393E+03  0.25500000920E-02 0.  1.
    10030    2    1    2    0    0  0.00000000000E+00  0.00000000000E+00  0.71217127607E+03  0.92706604391E+03  0.59351792165E+03 0.  0.
        2    1    3    3  502    0  0.43091578635E+02 -0.28835128904E+03  0.26964517826E+03  0.39712954084E+03  0.25500000920E-02 0. -1.
       -2    1    3    3    0  502 -0.43091578635E+02  0.28835128904E+03  0.44252609781E+03  0.52993650307E+03  0.25500000920E-02 0.  1.
</event>
<event>
 5   0  0.7221069E-02  0.5960977E+03  0.7818609E-02  0.9913535E-01
       -1   -1    0    0    0  501  0.00000000000E+00  0.00000000000E+00  0.10772017141E+04  0.10772017142E+04  0.50400001928E-02 0.  1.
        1   -1    0    0  501    0  0.00000000000E+00  0.00000000000E+00 -0.82466549321E+02  0.82466549475E+02  0.50400001928E-02 0. -1.
    10030    2    1    2    0    0  0.00000000000E+00  0.00000000000E+00  0.99473516482E+03  0.11596682636E+04  0.59609767114E+03 0.  0.
        5    1    3    3  502    0  0.13516805766E+03 -0.26556863985E+03  0.49011132486E+03  0.57360989099E+03  0.46999998093E+01 0.  1.
       -5    1    3    3    0  502 -0.13516805766E+03  0.26556863985E+03  0.50462383996E+03  0.58605837264E+03  0.46999998093E+01 0. -1.
</event>
<event>
 5   0  0.7123340E-02  0.6062110E+03  0.7818609E-02  0.9892603E-01
        1   -1    0    0  501    0  0.00000000000E+00  0.00000000000E+00  0.39813374464E+03  0.39813374468E+03  0.50400001928E-02 0.  1.
       -1   -1    0    0    0  501  0.00000000000E+00  0.00000000000E+00 -0.23075902976E+03  0.23075902982E+03  0.50400001928E-02 0. -1.
    10030    2    1    2    0    0  0.00000000000E+00  0.00000000000E+00  0.16737471488E+03  0.62889277450E+03  0.60621104133E+03 0.  0.
        2    1    3    3  502    0  0.27508819702E+02 -0.28375883286E+03  0.19048144934E+03  0.34286876926E+03  0.25500000920E-02 0.  1.
       -2    1    3    3    0  502 -0.27508819702E+02  0.28375883286E+03 -0.23106734464E+02  0.28602400523E+03  0.25500000920E-02 0. -1.
</event>
<event>
 5   0  0.7221069E-02  0.5982421E+03  0.7818609E-02  0.9909060E-01
       -1   -1    0    0    0  501  0.00000000000E+00  0.00000000000E+00  0.13343154021E+03  0.13343154030E+03  0.50400001928E-02 0.  1.
        1   -1    0    0  501    0  0.00000000000E+00  0.00000000000E+00 -0.67055651119E+03  0.67055651121E+03  0.50400001928E-02 0. -1.
    10030    2    1    2    0    0  0.00000000000E+00  0.00000000000E+00 -0.53712497099E+03  0.80398805151E+03  0.59824205178E+03 0.  0.
        5    1    3    3  502    0 -0.80333320502E+02  0.28802513086E+03 -0.27699600943E+03  0.40762825912E+03  0.46999998093E+01 0.  1.
       -5    1    3    3    0  502  0.80333320502E+02 -0.28802513086E+03 -0.26012896155E+03  0.39635979240E+03  0.46999998093E+01 0. -1.
</event>
<event>
 5   0  0.1206238E-01  0.5911907E+03  0.7818609E-02  0.9923853E-01
       -2   -1    0    0    0  501  0.00000000000E+00  0.00000000000E+00  0.86019038217E+02  0.86019038255E+02  0.25500000920E-02 0.  1.
        2   -1    0    0  501    0  0.00000000000E+00  0.00000000000E+00 -0.10157820908E+04  0.10157820908E+04  0.25500000920E-02 0. -1.
    10030    2    1    2    0    0  0.00000000000E+00  0.00000000000E+00 -0.92976305258E+03  0.11018011291E+04  0.59119065795E+03 0.  0.
        5    1    3    3  502    0  0.24338093795E+03 -0.14374358190E+03 -0.30393295076E+03  0.41508291563E+03  0.46999998093E+01 0.  1.
       -5    1    3    3    0  502 -0.24338093795E+03  0.14374358190E+03 -0.62583010182E+03  0.68671821342E+03  0.46999998093E+01 0. -1.
</event>
<event>
 5   0  0.7221069E-02  0.5946866E+03  0.7818609E-02  0.9916491E-01
        1   -1    0    0  501    0  0.00000000000E+00  0.00000000000E+00  0.56271745120E+03  0.56271745122E+03  0.50400001928E-02 0.  1.
       -1   -1    0    0    0  501  0.00000000000E+00  0.00000000000E+00 -0.15711797344E+03  0.15711797352E+03  0.50400001928E-02 0. -1.
    10030    2    1    2    0    0  0.00000000000E+00  0.00000000000E+00  0.40559947776E+03  0.71983542475E+03  0.59468655808E+03 0.  0.
        5    1    3    3  502    0  0.17246667761E+03 -0.10263262586E+03 -0.62706707544E+02  0.21031507779E+03  0.46999998093E+01 0.  1.
       -5    1    3    3    0  502 -0.17246667761E+03  0.10263262586E+03  0.46830618530E+03  0.50952034696E+03  0.46999998093E+01 0. -1.
</event>
<event>
 5   0  0.1166419E-01  0.6018311E+03  0.7818609E-02  0.9901614E-01
        2   -1    0    0  501    0  0.00000000000E+00  0.00000000000E+00  0.12359177714E+04  0.12359177714E+04  0.25500000920E-02 0.  1.
       -2   -1    0    0    0  501  0.00000000000E+00  0.00000000000E+00 -0.73265533034E+02  0.73265533079E+02  0.25500000920E-02 0. -1.
    10030    2    1    2    0    0  0.00000000000E+00  0.00000000000E+00  0.11626522384E+04  0.13091833045E+04  0.60183112029E+03 0.  0.
        1    1    3    3  502    0  0.12378956818E+03  0.34941536073E+02  0.11731023815E+04  0.11801330288E+04  0.50400001928E-02 0.  1.
       -1    1    3    3    0  502 -0.12378956818E+03 -0.34941536073E+02 -0.10450143157E+02  0.12905027567E+03  0.50400001928E-02 0. -1.
</event>
<event>
 5   0  0.1206238E-01  0.6043575E+03  0.7818609E-02  0.9896407E-01
        2   -1    0    0  501    0  0.00000000000E+00  0.00000000000E+00  0.48648385279E+03  0.48648385280E+03  0.25500000920E-02 0. -1.
       -2   -1    0    0    0  501  0.00000000000E+00  0.00000000000E+00 -0.18769787787E+03  0.18769787788E+03  0.25500000920E-02 0.  1.
    10030    2    1    2    0    0  0.00000000000E+00  0.00000000000E+00  0.29878597493E+03  0.67418173068E+03  0.60435746638E+03 0.  0.
        5    1    3    3  502    0  0.25267370853E+03  0.13123559754E+03  0.36601936909E+02  0.28710377363E+03  0.46999998093E+01 0.  1.
       -5    1    3    3    0  502 -0.25267370853E+03 -0.13123559754E+03  0.26218403802E+03  0.38707795705E+03  0.46999998093E+01 0. -1.
</event>
<event>
 5   0  0.1206238E-01  0.6011619E+03  0.7818609E-02  0.9902998E-01
        2   -1    0    0  501    0  0.00000000000E+00  0.00000000000E+00  0.79334053927E+03  0.79334053927E+03  0.25500000920E-02 0.  1.
       -2   -1    0    0    0  501  0.00000000000E+00  0.00000000000E+00 -0.11388414375E+03  0.11388414378E+03  0.25500000920E-02 0. -1.
    10030    2    1    2    0    0  0.00000000000E+00  0.00000000000E+00  0.67945639552E+03  0.90722468306E+03  0.60116190177E+03 0.  0.
        5    1    3    3  502    0  0.72491857080E+00 -0.22290551014E+03  0.64395480280E+03  0.68145966132E+03  0.46999998093E+01 0.  1.
       -5    1    3    3    0  502 -0.72491857080E+00  0.22290551014E+03  0.35501592714E+02  0.22576502174E+03  0.46999998093E+01 0. -1.
</event>
<event>
 5   0  0.7424930E-02  0.6028121E+03  0.7818609E-02  0.9899589E-01
       -1   -1    0    0    0  501  0.00000000000E+00  0.00000000000E+00  0.83821732052E+02  0.83821732204E+02  0.50400001928E-02 0.  1.
        1   -1    0    0  501    0  0.00000000000E+00  0.00000000000E+00 -0.10837954462E+04  0.10837954462E+04  0.50400001928E-02 0. -1.
    10030    2    1    2    0    0  0.00000000000E+00  0.00000000000E+00 -0.99997371417E+03  0.11676171784E+04  0.60281211530E+03 0.  0.
        3    1    3    3  502    0  0.13331632610E+03  0.90835925863E+02 -0.68391546609E+01  0.16146576253E+03  0.10100000352E+00 0.  1.
       -3    1    3    3    0  502 -0.13331632610E+03 -0.90835925863E+02 -0.99313455950E+03  0.10061514159E+04  0.10100000352E+00 0. -1.
</event>
<event>
 5   0  0.7221069E-02  0.6015267E+03  0.7818609E-02  0.9902244E-01
        1   -1    0    0  501    0  0.00000000000E+00  0.00000000000E+00  0.28994266854E+03  0.28994266859E+03  0.50400001928E-02 0. -1.
       -1   -1    0    0    0  501  0.00000000000E+00  0.00000000000E+00 -0.31198787598E+03  0.31198787602E+03  0.50400001928E-02 0.  1.
    10030    2    1    2    0    0  0.00000000000E+00  0.00000000000E+00 -0.22045207433E+02  0.60193054461E+03  0.60152671542E+03 0.  0.
        5    1    3    3  502    0  0.26121262185E+03  0.40370697260E+02  0.13251246111E+03  0.29570841949E+03  0.46999998093E+01 0. -1.
       -5    1    3    3    0  502 -0.26121262185E+03 -0.40370697260E+02 -0.15455766854E+03  0.30622212512E+03  0.46999998093E+01 0.  1.
</event>
<event>
 5   0  0.1206238E-01  0.5576962E+03  0.7818609E-02  0.9997281E-01
       -2   -1    0    0    0  501  0.00000000000E+00  0.00000000000E+00  0.35508958051E+02  0.35508958142E+02  0.25500000920E-02 0.  1.
        2   -1    0    0  501    0  0.00000000000E+00  0.00000000000E+00 -0.21897646066E+04  0.21897646066E+04  0.25500000920E-02 0. -1.
    10030    2    1    2    0    0  0.00000000000E+00  0.00000000000E+00 -0.21542556485E+04  0.22252735647E+04  0.55769618847E+03 0.  0.
        5    1    3    3  502    0  0.14751377386E+03  0.79344742292E+02 -0.19664701373E+04  0.19735964108E+04  0.46999998093E+01 0. -1.
       -5    1    3    3    0  502 -0.14751377386E+03 -0.79344742292E+02 -0.18778551122E+03  0.25167715397E+03  0.46999998093E+01 0.  1.
</event>
<event>
 5   0  0.7123340E-02  0.5918852E+03  0.7818609E-02  0.9922386E-01
        1   -1    0    0  501    0  0.00000000000E+00  0.00000000000E+00  0.61811347937E+03  0.61811347939E+03  0.50400001928E-02 0.  1.
       -1   -1    0    0    0  501  0.00000000000E+00  0.00000000000E+00 -0.14169246170E+03  0.14169246179E+03  0.50400001928E-02 0. -1.
    10030    2    1    2    0    0  0.00000000000E+00  0.00000000000E+00  0.47642101768E+03  0.75980594118E+03  0.59188519340E+03 0.  0.
        2    1    3    3  502    0  0.15374289837E+03  0.14096509115E+03 -0.31288001016E+02  0.21091935600E+03  0.25500000920E-02 0. -1.
       -2    1    3    3    0  502 -0.15374289837E+03 -0.14096509115E+03  0.50770901869E+03  0.54888658518E+03  0.25500000920E-02 0.  1.
</event>
<event>
 5   0  0.1166419E-01  0.5920141E+03  0.7818609E-02  0.9922114E-01
        2   -1    0    0  501    0  0.00000000000E+00  0.00000000000E+00  0.45481222655E+03  0.45481222656E+03  0.25500000920E-02 0. -1.
       -2   -1    0    0    0  501  0.00000000000E+00  0.00000000000E+00 -0.19265132448E+03  0.19265132450E+03  0.25500000920E-02 0.  1.
    10030    2    1    2    0    0  0.00000000000E+00  0.00000000000E+00  0.26216090207E+03  0.64746355106E+03  0.59201411417E+03 0.  0.
        1    1    3    3  502    0 -0.11231653126E+03  0.24664138547E+03  0.87857369046E+00  0.27101245016E+03  0.50400001928E-02 0. -1.
       -1    1    3    3    0  502  0.11231653126E+03 -0.24664138547E+03  0.26128232838E+03  0.37645110090E+03  0.50400001928E-02 0.  1.
</event>
<event>
 5   0  0.7221069E-02  0.5983243E+03  0.7818609E-02  0.9908889E-01
       -1   -1    0    0    0  501  0.00000000000E+00  0.00000000000E+00  0.80700434757E+02  0.80700434914E+02  0.50400001928E-02 0.  1.
        1   -1    0    0  501    0  0.00000000000E+00  0.00000000000E+00 -0.11090149091E+04  0.11090149091E+04  0.50400001928E-02 0. -1.
    10030    2    1    2    0    0  0.00000000000E+00  0.00000000000E+00 -0.10283144744E+04  0.11897153441E+04  0.59832427803E+03 0.  0.
        5    1    3    3  502    0 -0.31764892814E+02  0.14428692462E+03  0.30141210618E+01  0.14784755648E+03  0.46999998093E+01 0.  1.
       -5    1    3    3    0  502  0.31764892814E+02 -0.14428692462E+03 -0.10313285954E+04  0.10418677876E+04  0.46999998093E+01 0. -1.
</event>
<event>
 5   0  0.7263385E-02  0.7118376E+03  0.7818609E-02  0.9697200E-01
       -1   -1    0    0    0  501  0.00000000000E+00  0.00000000000E+00  0.24557155915E+03  0.24557155920E+03  0.50400001928E-02 0. -1.
        1   -1    0    0  501    0  0.00000000000E+00  0.00000000000E+00 -0.51585043732E+03  0.51585043735E+03  0.50400001928E-02 0.  1.
    10030    2    1    2    0    0  0.00000000000E+00  0.00000000000E+00 -0.27027887817E+03  0.76142199655E+03  0.71183761129E+03 0.  0.
        1    1    3    3  502    0  0.23298450724E+02 -0.13633578514E+03  0.21564920035E+03  0.25619297756E+03  0.50400001928E-02 0. -1.
       -1    1    3    3    0  502 -0.23298450724E+02  0.13633578514E+03 -0.48592807852E+03  0.50522901899E+03  0.50400001928E-02 0.  1.
</event>
<event>
 5   0  0.7263385E-02  0.6007666E+03  0.7818609E-02  0.9903817E-01
        1   -1    0    0  501    0  0.00000000000E+00  0.00000000000E+00  0.13706767962E+04  0.13706767962E+04  0.50400001928E-02 0. -1.
       -1   -1    0    0    0  501  0.00000000000E+00  0.00000000000E+00 -0.65828887559E+02  0.65828887751E+02  0.50400001928E-02 0.  1.
    10030    2    1    2    0    0  0.00000000000E+00  0.00000000000E+00  0.13048479086E+04  0.14365056839E+04  0.60076660640E+03 0.  0.
        1    1    3    3  502    0  0.22895948463E+03 -0.43913936587E+02  0.11053457690E+04  0.11296637325E+04  0.50400001928E-02 0. -1.
       -1    1    3    3    0  502 -0.22895948463E+03  0.43913936587E+02  0.19950213960E+03  0.30684195143E+03  0.50400001928E-02 0.  1.
</event>
<event>
 5   0  0.7266519E-02  0.5993699E+03  0.7818609E-02  0.9906714E-01
        1   -1    0    0  501    0  0.00000000000E+00  0.00000000000E+00  0.12241514986E+04  0.12241514987E+04  0.50400001928E-02 0.  1.
       -1   -1    0    0    0  501  0.00000000000E+00  0.00000000000E+00 -0.73365967379E+02  0.73365967552E+02  0.50400001928E-02 0. -1.
    10030    2    1    2    0    0  0.00000000000E+00  0.00000000000E+00  0.11507855313E+04  0.12975174662E+04  0.59936986589E+03 0.  0.
        4    1    3    3  502    0  0.14878398078E+02 -0.19847274386E+03  0.10604083268E+04  0.10789254975E+04  0.12699999809E+01 0.  1.
       -4    1    3    3    0  502 -0.14878398078E+02  0.19847274386E+03  0.90377204482E+02  0.21859196869E+03  0.12699999809E+01 0. -1.
</event>
<event>
 5   0  0.1146468E-01  0.5994520E+03  0.7818609E-02  0.9906544E-01
        2   -1    0    0  501    0  0.00000000000E+00  0.00000000000E+00  0.11877014793E+04  0.11877014793E+04  0.25500000920E-02 0. -1.
       -2   -1    0    0    0  501  0.00000000000E+00  0.00000000000E+00 -0.75638262606E+02  0.75638262649E+02  0.25500000920E-02 0.  1.
    10030    2    1    2    0    0  0.00000000000E+00  0.00000000000E+00  0.11120632167E+04  0.12633397420E+04  0.59945200448E+03 0.  0.
        4    1    3    3  502    0 -0.90957639275E+02  0.35084130955E+02  0.11533478001E+04  0.11574614245E+04  0.12699999809E+01 0. -1.
       -4    1    3    3    0  502  0.90957639275E+02 -0.35084130955E+02 -0.41284583355E+02  0.10587831747E+03  0.12699999809E+01 0.  1.
</event>
<event>
 5   0  0.1175861E-01  0.5845259E+03  0.7818609E-02  0.9938040E-01
        2   -1    0    0  501    0  0.00000000000E+00  0.00000000000E+00  0.65154219953E+02  0.65154220003E+02  0.25500000920E-02 0.  1.
       -2   -1    0    0    0  501  0.00000000000E+00  0.00000000000E+00 -0.13110070379E+04  0.13110070379E+04  0.25500000920E-02 0. -1.
    10030    2    1    2    0    0  0.00000000000E+00  0.00000000000E+00 -0.12458528179E+04  0.13761612579E+04  0.58452593079E+03 0.  0.
        3    1    3    3  502    0  0.36014809706E+02  0.92996852411E+02 -0.12697098688E+04  0.12736202897E+04  0.10100000352E+00 0. -1.
       -3    1    3    3    0  502 -0.36014809706E+02 -0.92996852411E+02  0.23857050924E+02  0.10254096818E+03  0.10100000352E+00 0.  1.
</event>
<event>
 5   0  0.7266519E-02  0.6032961E+03  0.7818609E-02  0.9898591E-01
       -1   -1    0    0    0  501  0.00000000000E+00  0.00000000000E+00  0.12787141862E+03  0.12787141872E+03  0.50400001928E-02 0. -1.
        1   -1    0    0  501    0  0.00000000000E+00  0.00000000000E+00 -0.71158621028E+03  0.71158621030E+03  0.50400001928E-02 0.  1.
    10030    2    1    2    0    0  0.00000000000E+00  0.00000000000E+00 -0.58371479166E+03  0.83945762903E+03  0.60329607402E+03 0.  0.
        4    1    3    3  502    0 -0.20650672205E+03 -0.21972177738E+03 -0.30326727186E+03  0.42766264366E+03  0.12699999809E+01 0.  1.
       -4    1    3    3    0  502  0.20650672205E+03  0.21972177738E+03 -0.28044751981E+03  0.41179498536E+03  0.12699999809E+01 0. -1.
</event>
<event>
 5   0  0.1206238E-01  0.5419351E+03  0.7818609E-02  0.1003378E+00
       -2   -1    0    0    0  501  0.00000000000E+00  0.00000000000E+00  0.71922659028E+02  0.71922659074E+02  0.25500000920E-02 0.  1.
        2   -1    0    0  501    0  0.00000000000E+00  0.00000000000E+00 -0.10208663663E+04  0.10208663663E+04  0.25500000920E-02 0. -1.
    10030    2    1    2    0    0  0.00000000000E+00  0.00000000000E+00 -0.94894370729E+03  0.10927890254E+04  0.54193513857E+03 0.  0.
        5    1    3    3  502    0  0.26971116406E+03  0.25558739641E+02 -0.47849083835E+03  0.54988447293E+03  0.46999998093E+01 0. -1.
       -5    1    3    3    0  502 -0.26971116406E+03 -0.25558739641E+02 -0.47045286894E+03  0.54290455246E+03  0.46999998093E+01 0.  1.
</event>
<event>
 5   0  0.1175861E-01  0.5982186E+03  0.7818609E-02  0.9909109E-01
        2   -1    0    0  501    0  0.00000000000E+00  0.00000000000E+00  0.91035039302E+03  0.91035039302E+03  0.25500000920E-02 0. -1.
       -2   -1    0    0    0  501  0.00000000000E+00  0.00000000000E+00 -0.98276867021E+02  0.98276867054E+02  0.25500000920E-02 0.  1.
    10030    2    1    2    0    0  0.00000000000E+00  0.00000000000E+00  0.81207352600E+03  0.10086272601E+04  0.59821863741E+03 0.  0.
        3    1    3    3  502    0  0.23167607823E+02 -0.18348385751E+03  0.96773192017E+01  0.18519374916E+03  0.10100000352E+00 0.  1.
       -3    1    3    3    0  502 -0.23167607823E+02  0.18348385751E+03  0.80239620680E+03  0.82343351092E+03  0.10100000352E+00 0. -1.
</event>
<event>
 5   0  0.1146468E-01  0.6115042E+03  0.7818609E-02  0.9881822E-01
       -2   -1    0    0    0  501  0.00000000000E+00  0.00000000000E+00  0.14179583424E+03  0.14179583426E+03  0.25500000920E-02 0.  1.
        2   -1    0    0  501    0  0.00000000000E+00  0.00000000000E+00 -0.65928829333E+03  0.65928829333E+03  0.25500000920E-02 0. -1.
    10030    2    1    2    0    0  0.00000000000E+00  0.00000000000E+00 -0.51749245909E+03  0.80108412760E+03  0.61150415720E+03 0.  0.
        4    1    3    3  502    0 -0.29336743712E+03  0.34823729893E+02 -0.15554859579E+03  0.33387740846E+03  0.12699999809E+01 0.  1.
       -4    1    3    3    0  502  0.29336743712E+03 -0.34823729893E+02 -0.36194386330E+03  0.46720671913E+03  0.12699999809E+01 0. -1.
</event>
<event>
 5   0  0.1219020E-01  0.5959985E+03  0.7818609E-02  0.9913743E-01
        2   -1    0    0  501    0  0.00000000000E+00  0.00000000000E+00  0.24766485222E+03  0.24766485223E+03  0.25500000920E-02 0. -1.
       -2   -1    0    0    0  501  0.00000000000E+00  0.00000000000E+00 -0.35856335468E+03  0.35856335469E+03  0.25500000920E-02 0.  1.
    10030    2    1    2    0    0  0.00000000000E+00  0.00000000000E+00 -0.11089850246E+03  0.60622820692E+03  0.59599845722E+03 0.  0.
        2    1    3    3  502    0  0.52516120350E+02  0.16883317648E+03 -0.29944347218E+03  0.34774843984E+03  0.25500000920E-02 0.  1.
       -2    1    3    3    0  502 -0.52516120350E+02 -0.16883317648E+03  0.18854496972E+03  0.25847976707E+03  0.25500000920E-02 0. -1.
</event>
<event>
 5   0  0.1219020E-01  0.6017449E+03  0.7818609E-02  0.9901792E-01
        2   -1    0    0  501    0  0.00000000000E+00  0.00000000000E+00  0.15037386108E+04  0.15037386108E+04  0.25500000920E-02 0. -1.
       -2   -1    0    0    0  501  0.00000000000E+00  0.00000000000E+00 -0.60199451834E+02  0.60199451888E+02  0.25500000920E-02 0.  1.
    10030    2    1    2    0    0  0.00000000000E+00  0.00000000000E+00  0.14435391589E+04  0.15639380627E+04  0.60174492973E+03 0.  0.
        2    1    3    3  502    0 -0.52068300770E+01 -0.10108421457E+03  0.14581604337E+04  0.14616692444E+04  0.25500000920E-02 0. -1.
       -2    1    3    3    0  502  0.52068300770E+01  0.10108421457E+03 -0.14621274753E+02  0.10226881830E+03  0.25500000920E-02 0.  1.
</event>
<event>
 5   0  0.1219020E-01  0.6060814E+03  0.7818609E-02  0.9892869E-01
       -2   -1    0    0    0  501  0.00000000000E+00  0.00000000000E+00  0.40330787018E+02  0.40330787099E+02  0.25500000920E-02 0.  1.
        2   -1    0    0  501    0  0.00000000000E+00  0.00000000000E+00 -0.22770115425E+04  0.22770115425E+04  0.25500000920E-02 0. -1.
    10030    2    1    2    0    0  0.00000000000E+00  0.00000000000E+00 -0.22366807555E+04  0.23173423296E+04  0.60608140593E+03 0.  0.
        2    1    3    3  502    0 -0.25387242856E+03  0.10980039664E+03 -0.15916859603E+04  0.16155406319E+04  0.25500000920E-02 0. -1.
       -2    1    3    3    0  502  0.25387242856E+03 -0.10980039664E+03 -0.64499479520E+03  0.70180169772E+03  0.25500000920E-02 0.  1.
</event>
<event>
 5   0  0.1175861E-01  0.5500117E+03  0.7818609E-02  0.1001491E+00
        2   -1    0    0  501    0  0.00000000000E+00  0.00000000000E+00  0.93703561937E+03  0.93703561938E+03  0.25500000920E-02 0. -1.
       -2   -1    0    0    0  501  0.00000000000E+00  0.00000000000E+00 -0.80710076589E+02  0.80710076629E+02  0.25500000920E-02 0.  1.
    10030    2    1    2    0    0  0.00000000000E+00  0.00000000000E+00  0.85632554278E+03  0.10177456960E+04  0.55001169671E+03 0.  0.
        3    1    3    3  502    0 -0.83250204705E+02 -0.37960436862E+02 -0.51719661655E+02  0.10510244979E+03  0.10100000352E+00 0.  1.
       -3    1    3    3    0  502  0.83250204705E+02  0.37960436862E+02  0.90804520444E+03  0.91264324621E+03  0.10100000352E+00 0. -1.
</event>
<event>
 5   0  0.1146468E-01  0.6129395E+03  0.7818609E-02  0.9878919E-01
        2   -1    0    0  501    0  0.00000000000E+00  0.00000000000E+00  0.24315485726E+04  0.24315485726E+04  0.25500000920E-02 0. -1.
       -2   -1    0    0    0  501  0.00000000000E+00  0.00000000000E+00 -0.38627109366E+02  0.38627109450E+02  0.25500000920E-02 0.  1.
    10030    2    1    2    0    0  0.00000000000E+00  0.00000000000E+00  0.23929214632E+04  0.24701756821E+04  0.61293945133E+03 0.  0.
        4    1    3    3  502    0  0.25505139471E+03 -0.15019159589E+03  0.87624680616E+03  0.92488853795E+03  0.12699999809E+01 0.  1.
       -4    1    3    3    0  502 -0.25505139471E+03  0.15019159589E+03  0.15166746571E+04  0.15452871441E+04  0.12699999809E+01 0. -1.
</event>
<event>
 5   0  0.1166419E-01  0.6055198E+03  0.7818609E-02  0.9894020E-01
       -2   -1    0    0    0  501  0.00000000000E+00  0.00000000000E+00  0.76058703070E+02  0.76058703112E+02  0.25500000920E-02 0.  1.
        2   -1    0    0  501    0  0.00000000000E+00  0.00000000000E+00 -0.12051684208E+04  0.12051684208E+04  0.25500000920E-02 0. -1.
    10030    2    1    2    0    0  0.00000000000E+00  0.00000000000E+00 -0.11291097177E+04  0.12812271239E+04  0.60551976712E+03 0.  0.
        1    1    3    3  502    0 -0.60676672197E+02 -0.28388418527E+03 -0.38263976805E+03  0.48029686790E+03  0.50400001928E-02 0.  1.
       -1    1    3    3    0  502  0.60676672197E+02  0.28388418527E+03 -0.74646994966E+03  0.80093025599E+03  0.50400001928E-02 0. -1.
</event>
<event>
 5   0  0.7263385E-02  0.6037406E+03  0.7818609E-02  0.9897676E-01
       -1   -1    0    0    0  501  0.00000000000E+00  0.00000000000E+00  0.75786121828E+02  0.75786121995E+02  0.50400001928E-02 0.  1.
        1   -1    0    0  501    0  0.00000000000E+00  0.00000000000E+00 -0.12024057360E+04  0.12024057360E+04  0.50400001928E-02 0. -1.
    10030    2    1    2    0    0  0.00000000000E+00  0.00000000000E+00 -0.11266196141E+04  0.12781918580E+04  0.60374056582E+03 0.  0.
        1    1    3    3  502    0  0.71968244094E+02 -0.84887429321E+02  0.30769462666E+02  0.11546455592E+03  0.50400001928E-02 0.  1.
       -1    1    3    3    0  502 -0.71968244094E+02  0.84887429321E+02 -0.11573890768E+04  0.11627273020E+04  0.50400001928E-02 0. -1.
</event>
<event>
 5   0  0.7424930E-02  0.6076535E+03  0.7818609E-02  0.9889653E-01
        1   -1    0    0  501    0  0.00000000000E+00  0.00000000000E+00  0.32309235734E+03  0.32309235738E+03  0.50400001928E-02 0.  1.
       -1   -1    0    0    0  501  0.00000000000E+00  0.00000000000E+00 -0.28570994365E+03  0.28570994370E+03  0.50400001928E-02 0. -1.
    10030    2    1    2    0    0  0.00000000000E+00  0.00000000000E+00  0.37382413683E+02  0.60880230107E+03  0.60765351718E+03 0.  0.
        3    1    3    3  502    0 -0.28969149944E+03 -0.70660235306E+02  0.77082219809E+02  0.30798654599E+03  0.10100000352E+00 0.  1.
       -3    1    3    3    0  502  0.28969149944E+03  0.70660235306E+02 -0.39699806126E+02  0.30081575508E+03  0.10100000352E+00 0. -1.
</event>
<event>
 5   0  0.7263385E-02  0.6117724E+03  0.7818609E-02  0.9881279E-01
        1   -1    0    0  501    0  0.00000000000E+00  0.00000000000E+00  0.32335670454E+03  0.32335670458E+03  0.50400001928E-02 0.  1.
       -1   -1    0    0    0  501  0.00000000000E+00  0.00000000000E+00 -0.28935957307E+03  0.28935957311E+03  0.50400001928E-02 0. -1.
    10030    2    1    2    0    0  0.00000000000E+00  0.00000000000E+00  0.33997131473E+02  0.61271627769E+03  0.61177236943E+03 0.  0.
        1    1    3    3  502    0  0.24637346692E+03  0.16965903993E+03 -0.46992760497E+02  0.30280752071E+03  0.50400001928E-02 0. -1.
       -1    1    3    3    0  502 -0.24637346692E+03 -0.16965903993E+03  0.80989891970E+02  0.30990875699E+03  0.50400001928E-02 0.  1.
</event>
<event>
 5   0  0.1146468E-01  0.6001113E+03  0.7818609E-02  0.9905175E-01
       -2   -1    0    0    0  501  0.00000000000E+00  0.00000000000E+00  0.11943630830E+03  0.11943630833E+03  0.25500000920E-02 0. -1.
        2   -1    0    0  501    0  0.00000000000E+00  0.00000000000E+00 -0.75381930572E+03  0.75381930573E+03  0.25500000920E-02 0.  1.
    10030    2    1    2    0    0  0.00000000000E+00  0.00000000000E+00 -0.63438299742E+03  0.87325561406E+03  0.60011130640E+03 0.  0.
        4    1    3    3  502    0 -0.17280018806E+03 -0.10497959893E+03 -0.63980049001E+03  0.67098949403E+03  0.12699999809E+01 0.  1.
       -4    1    3    3    0  502  0.17280018806E+03  0.10497959893E+03  0.54174925879E+01  0.20226612003E+03  0.12699999809E+01 0. -1.
</event>
<event>
 5   0  0.1219020E-01  0.5876010E+03  0.7818609E-02  0.9931469E-01
        2   -1    0    0  501    0  0.00000000000E+00  0.00000000000E+00  0.10364265731E+03  0.10364265734E+03  0.25500000920E-02 0.  1.
       -2   -1    0    0    0  501  0.00000000000E+00  0.00000000000E+00 -0.83284957160E+03  0.83284957161E+03  0.25500000920E-02 0. -1.
    10030    2    1    2    0    0  0.00000000000E+00  0.00000000000E+00 -0.72920691429E+03  0.93649222895E+03  0.58760103049E+03 0.  0.
        2    1    3    3  502    0  0.23698688796E+03 -0.12775801432E+03 -0.17715014410E+03  0.32228414303E+03  0.25500000920E-02 0.  1.
       -2    1    3    3    0  502 -0.23698688796E+03  0.12775801432E+03 -0.55205677019E+03  0.61420808592E+03  0.25500000920E-02 0. -1.
</event>
<event>
 5   0  0.1219020E-01  0.5892935E+03  0.7818609E-02  0.9927871E-01
        2   -1    0    0  501    0  0.00000000000E+00  0.00000000000E+00  0.84763830603E+03  0.84763830604E+03  0.25500000920E-02 0.  1.
       -2   -1    0    0    0  501  0.00000000000E+00  0.00000000000E+00 -0.10242188992E+03  0.10242188995E+03  0.25500000920E-02 0. -1.
    10030    2    1    2    0    0  0.00000000000E+00  0.00000000000E+00  0.74521641611E+03  0.95006019599E+03  0.58929353395E+03 0.  0.
        2    1    3    3  502    0  0.23427279598E+03 -0.17284136588E+03  0.44576091241E+03  0.53241024759E+03  0.25500000920E-02 0. -1.
       -2    1    3    3    0  502 -0.23427279598E+03  0.17284136588E+03  0.29945550370E+03  0.41764994840E+03  0.25500000920E-02 0.  1.
</event>
<event>
 5   0  0.1166419E-01  0.5702342E+03  0.7818609E-02  0.9969161E-01
        2   -1    0    0  501    0  0.00000000000E+00  0.00000000000E+00  0.82862735025E+03  0.82862735026E+03  0.25500000920E-02 0. -1.
       -2   -1    0    0    0  501  0.00000000000E+00  0.00000000000E+00 -0.98104120187E+02  0.98104120220E+02  0.25500000920E-02 0.  1.
    10030    2    1    2    0    0  0.00000000000E+00  0.00000000000E+00  0.73052323007E+03  0.92673147048E+03  0.57023418760E+03 0.  0.
        1    1    3    3  502    0 -0.84128007852E+02 -0.70113870032E+02 -0.62559179418E+02  0.12612346106E+03  0.50400001928E-02 0.  1.
       -1    1    3    3    0  502  0.84128007852E+02  0.70113870032E+02  0.79308240948E+03  0.80060800941E+03  0.50400001928E-02 0. -1.
</event>
<event>
 5   0  0.1206238E-01  0.6080498E+03  0.7818609E-02  0.9888845E-01
        2   -1    0    0  501    0  0.00000000000E+00  0.00000000000E+00  0.67781393850E+03  0.67781393850E+03  0.25500000920E-02 0.  1.
       -2   -1    0    0    0  501  0.00000000000E+00  0.00000000000E+00 -0.13636651660E+03  0.13636651663E+03  0.25500000920E-02 0. -1.
    10030    2    1    2    0    0  0.00000000000E+00  0.00000000000E+00  0.54144742189E+03  0.81418045513E+03  0.60804975359E+03 0.  0.
        5    1    3    3  502    0 -0.15235043629E+03  0.18861566170E+03  0.25198192195E+02  0.24381050462E+03  0.46999998093E+01 0. -1.
       -5    1    3    3    0  502  0.15235043629E+03 -0.18861566170E+03  0.51624922970E+03  0.57036995050E+03  0.46999998093E+01 0.  1.
</event>
<event>
 5   0  0.7123340E-02  0.5999248E+03  0.7818609E-02  0.9905562E-01
       -1   -1    0    0    0  501  0.00000000000E+00  0.00000000000E+00  0.26214552936E+03  0.26214552941E+03  0.50400001928E-02 0. -1.
        1   -1    0    0  501    0  0.00000000000E+00  0.00000000000E+00 -0.34323464166E+03  0.34323464170E+03  0.50400001928E-02 0.  1.
    10030    2    1    2    0    0  0.00000000000E+00  0.00000000000E+00 -0.81089112300E+02  0.60538017111E+03  0.59992475148E+03 0.  0.
        2    1    3    3  502    0 -0.21245481691E+03  0.43587512846E+02  0.16856072051E+03  0.27468097315E+03  0.25500000920E-02 0. -1.
       -2    1    3    3    0  502  0.21245481691E+03 -0.43587512846E+02 -0.24964983281E+03  0.33069919796E+03  0.25500000920E-02 0.  1.
</event>
<event>
 5   0  0.7424930E-02  0.5840354E+03  0.7818609E-02  0.9939093E-01
       -1   -1    0    0    0  501  0.00000000000E+00  0.00000000000E+00  0.39197126799E+03  0.39197126802E+03  0.50400001928E-02 0.  1.
        1   -1    0    0  501    0  0.00000000000E+00  0.00000000000E+00 -0.21755249530E+03  0.21755249535E+03  0.50400001928E-02 0. -1.
    10030    2    1    2    0    0  0.00000000000E+00  0.00000000000E+00  0.17441877269E+03  0.60952376337E+03  0.58403536695E+03 0.  0.
        3    1    3    3  502    0  0.47683799952E+02  0.27939331455E+03  0.16056151058E+03  0.32575201899E+03  0.10100000352E+00 0. -1.
       -3    1    3    3    0  502 -0.47683799952E+02 -0.27939331455E+03  0.13857262109E+02  0.28377174438E+03  0.10100000352E+00 0.  1.
</event>
<event>
 5   0  0.7263385E-02  0.6084332E+03  0.7818609E-02  0.9888063E-01
       -1   -1    0    0    0  501  0.00000000000E+00  0.00000000000E+00  0.17851109836E+03  0.17851109843E+03  0.50400001928E-02 0.  1.
        1   -1    0    0  501    0  0.00000000000E+00  0.00000000000E+00 -0.51844242682E+03  0.51844242684E+03  0.50400001928E-02 0. -1.
    10030    2    1    2    0    0  0.00000000000E+00  0.00000000000E+00 -0.33993132846E+03  0.69695352527E+03  0.60843315846E+03 0.  0.
        1    1    3    3  502    0  0.35587271496E+02  0.19823071938E+03 -0.43114182928E+03  0.47586253160E+03  0.50400001928E-02 0. -1.
       -1    1    3    3    0  502 -0.35587271496E+02 -0.19823071938E+03  0.91210500820E+02  0.22109099367E+03  0.50400001928E-02 0.  1.
</event>
<event>
 5   0  0.7123340E-02  0.5995220E+03  0.7818609E-02  0.9906398E-01
        1   -1    0    0  501    0  0.00000000000E+00  0.00000000000E+00  0.44690304782E+03  0.44690304785E+03  0.50400001928E-02 0. -1.
       -1   -1    0    0    0  501  0.00000000000E+00  0.00000000000E+00 -0.20106520759E+03  0.20106520765E+03  0.50400001928E-02 0.  1.
    10030    2    1    2    0    0  0.00000000000E+00  0.00000000000E+00  0.24583784023E+03  0.64796825551E+03  0.59952198997E+03 0.  0.
        2    1    3    3  502    0 -0.19784071129E+03 -0.78064836180E+02  0.35122691805E+03  0.41060371852E+03  0.25500000920E-02 0. -1.
       -2    1    3    3    0  502  0.19784071129E+03  0.78064836180E+02 -0.10538907781E+03  0.23736453699E+03  0.25500000920E-02 0.  1.
</event>
<event>
 5   0  0.1175861E-01  0.6050575E+03  0.7818609E-02  0.9894969E-01
       -2   -1    0    0    0  501  0.00000000000E+00  0.00000000000E+00  0.11420307247E+03  0.11420307249E+03  0.25500000920E-02 0. -1.
        2   -1    0    0  501    0  0.00000000000E+00  0.00000000000E+00 -0.80141133656E+03  0.80141133657E+03  0.25500000920E-02 0.  1.
    10030    2    1    2    0    0  0.00000000000E+00  0.00000000000E+00 -0.68720826410E+03  0.91561440906E+03  0.60505747482E+03 0.  0.
        3    1    3    3  502    0  0.43360241358E+02  0.18545800042E+02  0.10860639771E+03  0.11840361926E+03  0.10100000352E+00 0. -1.
       -3    1    3    3    0  502 -0.43360241358E+02 -0.18545800042E+02 -0.79581466180E+03  0.79721078980E+03  0.10100000352E+00 0.  1.
</event>
<event>
 5   0  0.7123340E-02  0.6015541E+03  0.7818609E-02  0.9902187E-01
       -1   -1    0    0    0  501  0.00000000000E+00  0.00000000000E+00  0.92972770751E+02  0.92972770888E+02  0.50400001928E-02 0. -1.
        1   -1    0    0  501    0  0.00000000000E+00  0.00000000000E+00 -0.97304654658E+03  0.97304654660E+03  0.50400001928E-02 0.  1.
    10030    2    1    2    0    0  0.00000000000E+00  0.00000000000E+00 -0.88007377583E+03  0.10660193175E+04  0.60155409927E+03 0.  0.
        2    1    3    3  502    0  0.80123425459E+02  0.28666057176E+03 -0.36334762532E+03  0.46969728926E+03  0.25500000920E-02 0.  1.
       -2    1    3    3    0  502 -0.80123425459E+02 -0.28666057176E+03 -0.51672615051E+03  0.59632202822E+03  0.25500000920E-02 0. -1.
</event>
<event>
 5   0  0.1206238E-01  0.5991820E+03  0.7818609E-02  0.9907105E-01
        2   -1    0    0  501    0  0.00000000000E+00  0.00000000000E+00  0.26515181457E+03  0.26515181458E+03  0.25500000920E-02 0.  1.
       -2   -1    0    0    0  501  0.00000000000E+00  0.00000000000E+00 -0.33850327564E+03  0.33850327565E+03  0.25500000920E-02 0. -1.
    10030    2    1    2    0    0  0.00000000000E+00  0.00000000000E+00 -0.73351461073E+02  0.60365509023E+03  0.59918196829E+03 0.  0.
        5    1    3    3  502    0  0.16417244855E+03 -0.19372740752E+03 -0.19676374380E+03  0.32128019260E+03  0.46999998093E+01 0. -1.
       -5    1    3    3    0  502 -0.16417244855E+03  0.19372740752E+03  0.12341228273E+03  0.28237489763E+03  0.46999998093E+01 0.  1.
</event>
<event>
 5   0  0.1166419E-01  0.5961822E+03  0.7818609E-02  0.9913359E-01
       -2   -1    0    0    0  501  0.00000000000E+00  0.00000000000E+00  0.25726434449E+03  0.25726434451E+03  0.25500000920E-02 0.  1.
        2   -1    0    0  501    0  0.00000000000E+00  0.00000000000E+00 -0.34539684177E+03  0.34539684178E+03  0.25500000920E-02 0. -1.
    10030    2    1    2    0    0  0.00000000000E+00  0.00000000000E+00 -0.88132497279E+02  0.60266118629E+03  0.59618216040E+03 0.  0.
        1    1    3    3  502    0 -0.25464521802E+03  0.14087134741E+03  0.21206121906E+02  0.29178523474E+03  0.50400001928E-02 0. -1.
       -1    1    3    3    0  502  0.25464521802E+03 -0.14087134741E+03 -0.10933861918E+03  0.31087595155E+03  0.50400001928E-02 0.  1.
</event>
<event>
 5   0  0.7221069E-02  0.5901248E+03  0.7818609E-02  0.9926108E-01
       -1   -1    0    0    0  501  0.00000000000E+00  0.00000000000E+00  0.20900261493E+03  0.20900261499E+03  0.50400001928E-02 0.  1.
        1   -1    0    0  501    0  0.00000000000E+00  0.00000000000E+00 -0.41655855318E+03  0.41655855321E+03  0.50400001928E-02 0. -1.
    10030    2    1    2    0    0  0.00000000000E+00  0.00000000000E+00 -0.20755593826E+03  0.62556116820E+03  0.59012482379E+03 0.  0.
        5    1    3    3  502    0  0.23352662568E+03 -0.69597548865E+02  0.72525828538E+02  0.25428446573E+03  0.46999998093E+01 0.  1.
       -5    1    3    3    0  502 -0.23352662568E+03  0.69597548865E+02 -0.28008176679E+03  0.37127670247E+03  0.46999998093E+01 0. -1.
</event>
<event>
 5   0  0.7424930E-02  0.6000286E+03  0.7818609E-02  0.9905347E-01
        1   -1    0    0  501    0  0.00000000000E+00  0.00000000000E+00  0.16058049129E+04  0.16058049129E+04  0.50400001928E-02 0. -1.
       -1   -1    0    0    0  501  0.00000000000E+00  0.00000000000E+00 -0.56052004449E+02  0.56052004676E+02  0.50400001928E-02 0.  1.
    10030    2    1    2    0    0  0.00000000000E+00  0.00000000000E+00  0.15497529084E+04  0.16618569175E+04  0.60002861370E+03 0.  0.
        3    1    3    3  502    0  0.17479754977E+03 -0.90928780413E+02  0.14826440920E+03  0.24658583039E+03  0.10100000352E+00 0.  1.
       -3    1    3    3    0  502 -0.17479754977E+03  0.90928780413E+02  0.14014884992E+04  0.14152710871E+04  0.10100000352E+00 0. -1.
</event>
<event>
 5   0  0.7266519E-02  0.6117055E+03  0.7818609E-02  0.9881414E-01
        1   -1    0    0  501    0  0.00000000000E+00  0.00000000000E+00  0.62973490271E+03  0.62973490273E+03  0.50400001928E-02 0.  1.
       -1   -1    0    0    0  501  0.00000000000E+00  0.00000000000E+00 -0.14854807110E+03  0.14854807119E+03  0.50400001928E-02 0. -1.
    10030    2    1    2    0    0  0.00000000000E+00  0.00000000000E+00  0.48118683161E+03  0.77828297392E+03  0.61170550151E+03 0.  0.
        4    1    3    3  502    0 -0.22308035313E+01 -0.17828510279E+03 -0.75581031695E+02  0.19366119801E+03  0.12699999809E+01 0. -1.
       -4    1    3    3    0  502  0.22308035313E+01  0.17828510279E+03  0.55676786331E+03  0.58462177591E+03  0.12699999809E+01 0.  1.
</event>
<event>
 5   0  0.7221069E-02  0.5977118E+03  0.7818609E-02  0.9910165E-01
        1   -1    0    0  501    0  0.00000000000E+00  0.00000000000E+00  0.22507216659E+03  0.22507216665E+03  0.50400001928E-02 0.  1.
       -1   -1    0    0    0  501  0.00000000000E+00  0.00000000000E+00 -0.39682762406E+03  0.39682762409E+03  0.50400001928E-02 0. -1.
    10030    2    1    2    0    0  0.00000000000E+00  0.00000000000E+00 -0.17175545747E+03  0.62189979074E+03  0.59771181396E+03 0.  0.
        5    1    3    3  502    0 -0.16152945535E+03  0.15812452395E+03  0.11747349831E+03  0.25478862381E+03  0.46999998093E+01 0.  1.
       -5    1    3    3    0  502  0.16152945535E+03 -0.15812452395E+03 -0.28922895578E+03  0.36711116692E+03  0.46999998093E+01 0. -1.
</event>
<event>
 5   0  0.1219020E-01  0.6351096E+03  0.7818609E-02  0.9835128E-01
       -2   -1    0    0    0  501  0.00000000000E+00  0.00000000000E+00  0.45313063282E+03  0.45313063283E+03  0.25500000920E-02 0.  1.
        2   -1    0    0  501    0  0.00000000000E+00  0.00000000000E+00 -0.22254301476E+03  0.22254301477E+03  0.25500000920E-02 0. -1.
    10030    2    1    2    0    0  0.00000000000E+00  0.00000000000E+00  0.23058761806E+03  0.67567364760E+03  0.63510961925E+03 0.  0.
        2    1    3    3  502    0 -0.20799683400E+03  0.14249888694E+03  0.32068518798E+03  0.40793088328E+03  0.25500000920E-02 0.  1.
       -2    1    3    3    0  502  0.20799683400E+03 -0.14249888694E+03 -0.90097569922E+02  0.26774276432E+03  0.25500000920E-02 0. -1.
</event>
<event>
 5   0  0.7123340E-02  0.6040568E+03  0.7818609E-02  0.9897025E-01
       -1   -1    0    0    0  501  0.00000000000E+00  0.00000000000E+00  0.10760288244E+03  0.10760288255E+03  0.50400001928E-02 0. -1.
        1   -1    0    0  501    0  0.00000000000E+00  0.00000000000E+00 -0.84775744166E+03  0.84775744167E+03  0.50400001928E-02 0.  1.
    10030    2    1    2    0    0  0.00000000000E+00  0.00000000000E+00 -0.74015455922E+03  0.95536032423E+03  0.60405676685E+03 0.  0.
        2    1    3    3  502    0  0.25302371795E+03  0.14640562545E+03 -0.49016794971E+03  0.57071904466E+03  0.25500000920E-02 0.  1.
       -2    1    3    3    0  502 -0.25302371795E+03 -0.14640562545E+03 -0.24998660951E+03  0.38464127957E+03  0.25500000920E-02 0. -1.
</event>
<event>
 5   0  0.1206238E-01  0.5937978E+03  0.7818609E-02  0.9918358E-01
        2   -1    0    0  501    0  0.00000000000E+00  0.00000000000E+00  0.22340760900E+03  0.22340760901E+03  0.25500000920E-02 0.  1.
       -2   -1    0    0    0  501  0.00000000000E+00  0.00000000000E+00 -0.39456559867E+03  0.39456559868E+03  0.25500000920E-02 0. -1.
    10030    2    1    2    0    0  0.00000000000E+00  0.00000000000E+00 -0.17115798967E+03  0.61797320770E+03  0.59379780060E+03 0.  0.
        5    1    3    3  502    0 -0.15392160220E+03  0.16963900631E+01  0.17859028059E+03  0.23582051582E+03  0.46999998093E+01 0.  1.
       -5    1    3    3    0  502  0.15392160220E+03 -0.16963900631E+01 -0.34974827026E+03  0.38215269188E+03  0.46999998093E+01 0. -1.
</event>
<event>
 5   0  0.7263385E-02  0.6031721E+03  0.7818609E-02  0.9898847E-01
       -1   -1    0    0    0  501  0.00000000000E+00  0.00000000000E+00  0.12935676421E+03  0.12935676430E+03  0.50400001928E-02 0.  1.
        1   -1    0    0  501    0  0.00000000000E+00  0.00000000000E+00 -0.70312634794E+03  0.70312634796E+03  0.50400001928E-02 0. -1.
    10030    2    1    2    0    0  0.00000000000E+00  0.00000000000E+00 -0.57376958373E+03  0.83248311226E+03  0.60317211224E+03 0.  0.
        1    1    3    3  502    0 -0.12154257294E+03  0.24854216889E+03 -0.12121581513E+03  0.30205807490E+03  0.50400001928E-02 0.  1.
       -1    1    3    3    0  502  0.12154257294E+03 -0.24854216889E+03 -0.45255376860E+03  0.53042503736E+03  0.50400001928E-02 0. -1.
</event>
<event>
 5   0  0.1175861E-01  0.6167682E+03  0.7818609E-02  0.9871215E-01
        2   -1    0    0  501    0  0.00000000000E+00  0.00000000000E+00  0.25973712210E+03  0.25973712211E+03  0.25500000920E-02 0. -1.
       -2   -1    0    0    0  501  0.00000000000E+00  0.00000000000E+00 -0.36614236175E+03  0.36614236176E+03  0.25500000920E-02 0.  1.
    10030    2    1    2    0    0  0.00000000000E+00  0.00000000000E+00 -0.10640523965E+03  0.62587948387E+03  0.61676823305E+03 0.  0.
        3    1    3    3  502    0 -0.29490926778E+03 -0.89718252889E+02 -0.44131211377E+02  0.31139751949E+03  0.10100000352E+00 0. -1.
       -3    1    3    3    0  502  0.29490926778E+03  0.89718252889E+02 -0.62274028277E+02  0.31448196438E+03  0.10100000352E+00 0.  1.
</event>
<event>
 5   0  0.1206238E-01  0.6014978E+03  0.7818609E-02  0.9902304E-01
       -2   -1    0    0    0  501  0.00000000000E+00  0.00000000000E+00  0.39326843194E+02  0.39326843277E+02  0.25500000920E-02 0. -1.
        2   -1    0    0  501    0  0.00000000000E+00  0.00000000000E+00 -0.22999529091E+04  0.22999529091E+04  0.25500000920E-02 0.  1.
    10030    2    1    2    0    0  0.00000000000E+00  0.00000000000E+00 -0.22606260659E+04  0.23392797524E+04  0.60149775564E+03 0.  0.
        5    1    3    3  502    0 -0.40337705643E+02 -0.26473858968E+03 -0.16623394033E+04  0.16837779049E+04  0.46999998093E+01 0. -1.
       -5    1    3    3    0  502  0.40337705643E+02  0.26473858968E+03 -0.59828666265E+03  0.65550184750E+03  0.46999998093E+01 0.  1.
</event>
<event>
 5   0  0.1206238E-01  0.5896297E+03  0.7818609E-02  0.9927158E-01
        2   -1    0    0  501    0  0.00000000000E+00  0.00000000000E+00  0.17065579278E+04  0.17065579278E+04  0.25500000920E-02 0.  1.
       -2   -1    0    0    0  501  0.00000000000E+00  0.00000000000E+00 -0.50930476753E+02  0.50930476817E+02  0.25500000920E-02 0. -1.
    10030    2    1    2    0    0  0.00000000000E+00  0.00000000000E+00  0.16556274510E+04  0.17574884046E+04  0.58962974459E+03 0.  0.
        5    1    3    3  502    0 -0.25490803310E+03  0.23862809709E+02  0.39232875917E+03  0.46849918281E+03  0.46999998093E+01 0. -1.
       -5    1    3    3    0  502  0.25490803310E+03 -0.23862809709E+02  0.12632986918E+04  0.12889892218E+04  0.46999998093E+01 0.  1.
</event>
<event>
 5   0  0.1175861E-01  0.6047780E+03  0.7818609E-02  0.9895542E-01
        2   -1    0    0  501    0  0.00000000000E+00  0.00000000000E+00  0.11306926736E+04  0.11306926736E+04  0.25500000920E-02 0. -1.
       -2   -1    0    0    0  501  0.00000000000E+00  0.00000000000E+00 -0.80869998366E+02  0.80869998406E+02  0.25500000920E-02 0.  1.
    10030    2    1    2    0    0  0.00000000000E+00  0.00000000000E+00  0.10498226753E+04  0.12115626720E+04  0.60477802439E+03 0.  0.
        3    1    3    3  502    0 -0.71829360011E+02 -0.35157098714E+02 -0.59301056975E+02  0.99559550566E+02  0.10100000352E+00 0.  1.
       -3    1    3    3    0  502  0.71829360011E+02  0.35157098714E+02  0.11091237322E+04  0.11120031215E+04  0.10100000352E+00 0. -1.
</event>
<event>
 5   0  0.7263385E-02  0.5944291E+03  0.7818609E-02  0.9917032E-01
        1   -1    0    0  501    0  0.00000000000E+00  0.00000000000E+00  0.15728182094E+04  0.15728182094E+04  0.50400001928E-02 0.  1.
       -1   -1    0    0    0  501  0.00000000000E+00  0.00000000000E+00 -0.56164463530E+02  0.56164463756E+02  0.50400001928E-02 0. -1.
    10030    2    1    2    0    0  0.00000000000E+00  0.00000000000E+00  0.15166537458E+04  0.16289826731E+04  0.59442910814E+03 0.  0.
        1    1    3    3  502    0 -0.27940993497E+02  0.19871652588E+02  0.15673804335E+04  0.15677554034E+04  0.50400001928E-02 0.  1.
       -1    1    3    3    0  502  0.27940993497E+02 -0.19871652588E+02 -0.50726687628E+02  0.61227269719E+02  0.50400001928E-02 0. -1.
</event>
<event>
 5   0  0.7123340E-02  0.6091842E+03  0.7818609E-02  0.9886533E-01
        1   -1    0    0  501    0  0.00000000000E+00  0.00000000000E+00  0.39033558533E+03  0.39033558536E+03  0.50400001928E-02 0. -1.
       -1   -1    0    0    0  501  0.00000000000E+00  0.00000000000E+00 -0.23768353362E+03  0.23768353367E+03  0.50400001928E-02 0.  1.
    10030    2    1    2    0    0  0.00000000000E+00  0.00000000000E+00  0.15265205171E+03  0.62801911904E+03  0.60918417985E+03 0.  0.
        2    1    3    3  502    0  0.75432383593E+02 -0.25392504297E+03  0.23133572316E+03  0.35168762952E+03  0.25500000920E-02 0. -1.
       -2    1    3    3    0  502 -0.75432383593E+02  0.25392504297E+03 -0.78683671448E+02  0.27633148952E+03  0.25500000920E-02 0.  1.
</event>
<event>
 5   0  0.7221069E-02  0.5922212E+03  0.7818609E-02  0.9921677E-01
        1   -1    0    0  501    0  0.00000000000E+00  0.00000000000E+00  0.20826523827E+03  0.20826523833E+03  0.50400001928E-02 0. -1.
       -1   -1    0    0    0  501  0.00000000000E+00  0.00000000000E+00 -0.42100875754E+03  0.42100875757E+03  0.50400001928E-02 0.  1.
    10030    2    1    2    0    0  0.00000000000E+00  0.00000000000E+00 -0.21274351927E+03  0.62927399591E+03  0.59222120608E+03 0.  0.
        5    1    3    3  502    0  0.29036600721E+03 -0.57820895077E+02 -0.10432092902E+03  0.31394365781E+03  0.46999998093E+01 0.  1.
       -5    1    3    3    0  502 -0.29036600721E+03  0.57820895077E+02 -0.10842259025E+03  0.31533033810E+03  0.46999998093E+01 0. -1.
</event>
<event>
 5   0  0.1219020E-01  0.5864522E+03  0.7818609E-02  0.9933919E-01
        2   -1    0    0  501    0  0.00000000000E+00  0.00000000000E+00  0.81394071761E+03  0.81394071761E+03  0.25500000920E-02 0.  1.
       -2   -1    0    0    0  501  0.00000000000E+00  0.00000000000E+00 -0.10563612430E+03  0.10563612433E+03  0.25500000920E-02 0. -1.
    10030    2    1    2    0    0  0.00000000000E+00  0.00000000000E+00  0.70830459331E+03  0.91957684194E+03  0.58645219015E+03 0.  0.
        2    1    3    3  502    0  0.23902900118E+03 -0.15044016241E+03  0.23054152815E+03  0.36457715518E+03  0.25500000920E-02 0. -1.
       -2    1    3    3    0  502 -0.23902900118E+03  0.15044016241E+03  0.47776306515E+03  0.55499968676E+03  0.25500000920E-02 0.  1.
</event>
<event>
 5   0  0.7424930E-02  0.6061761E+03  0.7818609E-02  0.9892675E-01
        1   -1    0    0  501    0  0.00000000000E+00  0.00000000000E+00  0.60912820202E+02  0.60912820411E+02  0.50400001928E-02 0. -1.
       -1   -1    0    0    0  501  0.00000000000E+00  0.00000000000E+00 -0.15080958221E+04  0.15080958221E+04  0.50400001928E-02 0.  1.
    10030    2    1    2    0    0  0.00000000000E+00  0.00000000000E+00 -0.14471830019E+04  0.15690086425E+04  0.60617611246E+03 0.  0.
        3    1    3    3  502    0  0.20464704017E+03 -0.25117367458E+02 -0.14858230731E+03  0.25414170348E+03  0.10100000352E+00 0. -1.
       -3    1    3    3    0  502 -0.20464704017E+03  0.25117367458E+02 -0.12986006946E+04  0.13148669391E+04  0.10100000352E+00 0.  1.
</event>
<event>
 5   0  0.7266519E-02  0.6106606E+03  0.7818609E-02  0.9883532E-01
        1   -1    0    0  501    0  0.00000000000E+00  0.00000000000E+00  0.14675915755E+03  0.14675915764E+03  0.50400001928E-02 0.  1.
       -1   -1    0    0    0  501  0.00000000000E+00  0.00000000000E+00 -0.63523531950E+03  0.63523531952E+03  0.50400001928E-02 0. -1.
    10030    2    1    2    0    0  0.00000000000E+00  0.00000000000E+00 -0.48847616195E+03  0.78199447716E+03  0.61066062712E+03 0.  0.
        4    1    3    3  502    0  0.15203668116E+03  0.26319466890E+03 -0.20715893314E+03  0.36783559185E+03  0.12699999809E+01 0.  1.
       -4    1    3    3    0  502 -0.15203668116E+03 -0.26319466890E+03 -0.28131722881E+03  0.41415888531E+03  0.12699999809E+01 0. -1.
</event>
<event>
 5   0  0.1146468E-01  0.5962128E+03  0.7818609E-02  0.9913295E-01
       -2   -1    0    0    0  501  0.00000000000E+00  0.00000000000E+00  0.11009846814E+03  0.11009846816E+03  0.25500000920E-02 0.  1.
        2   -1    0    0  501    0  0.00000000000E+00  0.00000000000E+00 -0.80716317782E+03  0.80716317782E+03  0.25500000920E-02 0. -1.
    10030    2    1    2    0    0  0.00000000000E+00  0.00000000000E+00 -0.69706470968E+03  0.91726164599E+03  0.59621281244E+03 0.  0.
        4    1    3    3  502    0  0.44222564551E+02 -0.13396518720E+03  0.55486476729E+02  0.15160035817E+03  0.12699999809E+01 0.  1.
       -4    1    3    3    0  502 -0.44222564551E+02  0.13396518720E+03 -0.75255118641E+03  0.76566128782E+03  0.12699999809E+01 0. -1.
</event>
<event>
 5   0  0.4695625E-02  0.6064247E+03  0.7818609E-02  0.9892166E-01
       -3   -1    0    0    0  501  0.00000000000E+00  0.00000000000E+00  0.35510461252E+03  0.35510462688E+03  0.10100000352E+00 0.  1.
        3   -1    0    0  501    0  0.00000000000E+00  0.00000000000E+00 -0.25890323534E+03  0.25890325504E+03  0.10100000352E+00 0. -1.
    10030    2    1    2    0    0  0.00000000000E+00  0.00000000000E+00  0.96201377184E+02  0.61400788192E+03  0.60642474726E+03 0.  0.
        1    1    3    3  502    0 -0.96510414408E+02 -0.28306869788E+03 -0.24799308261E+01  0.29907908301E+03  0.50400001928E-02 0.  1.
       -1    1    3    3    0  502  0.96510414408E+02  0.28306869788E+03  0.98681308010E+02  0.31492879891E+03  0.50400001928E-02 0. -1.
</event>
<event>
 5   0  0.7266519E-02  0.6668137E+03  0.7818609E-02  0.9775731E-01
        1   -1    0    0  501    0  0.00000000000E+00  0.00000000000E+00  0.13338836705E+04  0.13338836705E+04  0.50400001928E-02 0.  1.
       -1   -1    0    0    0  501  0.00000000000E+00  0.00000000000E+00 -0.83335706681E+02  0.83335706834E+02  0.50400001928E-02 0. -1.
    10030    2    1    2    0    0  0.00000000000E+00  0.00000000000E+00  0.12505479638E+04  0.14172193773E+04  0.66681373238E+03 0.  0.
        4    1    3    3  502    0  0.10989861294E+03  0.28582109805E+03  0.90552446902E+03  0.95590145000E+03  0.12699999809E+01 0.  1.
       -4    1    3    3    0  502 -0.10989861294E+03 -0.28582109805E+03  0.34502349476E+03  0.46131792731E+03  0.12699999809E+01 0. -1.
</event>
<event>
 5   0  0.7266519E-02  0.5339765E+03  0.7818609E-02  0.1005272E+00
       -1   -1    0    0    0  501  0.00000000000E+00  0.00000000000E+00  0.54344280949E+02  0.54344281183E+02  0.50400001928E-02 0. -1.
        1   -1    0    0  501    0  0.00000000000E+00  0.00000000000E+00 -0.13116875255E+04  0.13116875255E+04  0.50400001928E-02 0.  1.
    10030    2    1    2    0    0  0.00000000000E+00  0.00000000000E+00 -0.12573432445E+04  0.13660318066E+04  0.53397646228E+03 0.  0.
        4    1    3    3  502    0 -0.16313115868E+03  0.13993358078E+03 -0.22347013380E+03  0.31005434292E+03  0.12699999809E+01 0. -1.
       -4    1    3    3    0  502  0.16313115868E+03 -0.13993358078E+03 -0.10338731107E+04  0.10559774637E+04  0.12699999809E+01 0.  1.
</event>
<event>
 5   0  0.7263385E-02  0.5163422E+03  0.7818609E-02  0.1009599E+00
        1   -1    0    0  501    0  0.00000000000E+00  0.00000000000E+00  0.17435578151E+03  0.17435578158E+03  0.50400001928E-02 0. -1.
       -1   -1    0    0    0  501  0.00000000000E+00  0.00000000000E+00 -0.38227760212E+03  0.38227760216E+03  0.50400001928E-02 0.  1.
    10030    2    1    2    0    0  0.00000000000E+00  0.00000000000E+00 -0.20792182062E+03  0.55663338374E+03  0.51634217376E+03 0.  0.
        1    1    3    3  502    0 -0.38464301479E+02 -0.62142769253E+02  0.16297140118E+03  0.17860824137E+03  0.50400001928E-02 0. -1.
       -1    1    3    3    0  502  0.38464301479E+02  0.62142769253E+02 -0.37089322180E+03  0.37802514236E+03  0.50400001928E-02 0.  1.
</event>
<event>
 5   0  0.1166419E-01  0.5917884E+03  0.7818609E-02  0.9922591E-01
       -2   -1    0    0    0  501  0.00000000000E+00  0.00000000000E+00  0.10047334040E+04  0.10047334040E+04  0.25500000920E-02 0.  1.
        2   -1    0    0  501    0  0.00000000000E+00  0.00000000000E+00 -0.87140895817E+02  0.87140895854E+02  0.25500000920E-02 0. -1.
    10030    2    1    2    0    0  0.00000000000E+00  0.00000000000E+00  0.91759250821E+03  0.10918742999E+04  0.59178837064E+03 0.  0.
        1    1    3    3  502    0  0.26044657884E+03  0.80622650206E+02  0.67094346710E+03  0.72422204345E+03  0.50400001928E-02 0.  1.
       -1    1    3    3    0  502 -0.26044657884E+03 -0.80622650206E+02  0.24664904111E+03  0.36765225643E+03  0.50400001928E-02 0. -1.
</event>
<event>
 5   0  0.7424930E-02  0.5826818E+03  0.7818609E-02  0.9942002E-01
        1   -1    0    0  501    0  0.00000000000E+00  0.00000000000E+00  0.85731310765E+03  0.85731310766E+03  0.50400001928E-02 0.  1.
       -1   -1    0    0    0  501  0.00000000000E+00  0.00000000000E+00 -0.99006453727E+02  0.99006453855E+02  0.50400001928E-02 0. -1.
    10030    2    1    2    0    0  0.00000000000E+00  0.00000000000E+00  0.75830665392E+03  0.95631956152E+03  0.58268183630E+03 0.  0.
        3    1    3    3  502    0 -0.31470460250E+02  0.15593204061E+03  0.77974428256E+03  0.79580547092E+03  0.10100000352E+00 0.  1.
       -3    1    3    3    0  502  0.31470460250E+02 -0.15593204061E+03 -0.21437628644E+02  0.16051409059E+03  0.10100000352E+00 0. -1.
</event>
<event>
 5   0  0.1219020E-01  0.5962047E+03  0.7818609E-02  0.9913311E-01
       -2   -1    0    0    0  501  0.00000000000E+00  0.00000000000E+00  0.12987724653E+03  0.12987724656E+03  0.25500000920E-02 0.  1.
        2   -1    0    0  501    0  0.00000000000E+00  0.00000000000E+00 -0.68422314210E+03  0.68422314211E+03  0.25500000920E-02 0. -1.
    10030    2    1    2    0    0  0.00000000000E+00  0.00000000000E+00 -0.55434589557E+03  0.81410038867E+03  0.59620472230E+03 0.  0.
        2    1    3    3  502    0 -0.18690163498E+03 -0.21705696511E+03 -0.16441552543E+03  0.33027021099E+03  0.25500000920E-02 0. -1.
       -2    1    3    3    0  502  0.18690163498E+03  0.21705696511E+03 -0.38993037014E+03  0.48383017767E+03  0.25500000920E-02 0.  1.
</event>
<event>
 5   0  0.1175861E-01  0.5902186E+03  0.7818609E-02  0.9925910E-01
        2   -1    0    0  501    0  0.00000000000E+00  0.00000000000E+00  0.84561347023E+03  0.84561347023E+03  0.25500000920E-02 0.  1.
       -2   -1    0    0    0  501  0.00000000000E+00  0.00000000000E+00 -0.10298972386E+03  0.10298972389E+03  0.25500000920E-02 0. -1.
    10030    2    1    2    0    0  0.00000000000E+00  0.00000000000E+00  0.74262374637E+03  0.94860319412E+03  0.59021859613E+03 0.  0.
        3    1    3    3  502    0  0.17376649837E+03 -0.30019174909E+02 -0.90006790022E+01  0.17657001230E+03  0.10100000352E+00 0. -1.
       -3    1    3    3    0  502 -0.17376649837E+03  0.30019174909E+02  0.75162442537E+03  0.77203318182E+03  0.10100000352E+00 0.  1.
</event>
<event>
 5   0  0.4695625E-02  0.6031733E+03  0.7818609E-02  0.9898844E-01
        3   -1    0    0  501    0  0.00000000000E+00  0.00000000000E+00  0.56641278118E+03  0.56641279019E+03  0.10100000352E+00 0. -1.
       -3   -1    0    0    0  501  0.00000000000E+00  0.00000000000E+00 -0.16057986392E+03  0.16057989568E+03  0.10100000352E+00 0.  1.
    10030    2    1    2    0    0  0.00000000000E+00  0.00000000000E+00  0.40583291727E+03  0.72699268587E+03  0.60317328237E+03 0.  0.
        4    1    3    3  502    0 -0.62525189405E+02  0.24222973561E+03  0.40592026485E+03  0.47682021606E+03  0.12699999809E+01 0. -1.
       -4    1    3    3    0  502  0.62525189405E+02 -0.24222973561E+03 -0.87347587295E-01  0.25017246981E+03  0.12699999809E+01 0.  1.
</event>
<event>
 5   0  0.7221069E-02  0.5962510E+03  0.7818609E-02  0.9913215E-01
        1   -1    0    0  501    0  0.00000000000E+00  0.00000000000E+00  0.10688437650E+03  0.10688437662E+03  0.50400001928E-02 0. -1.
       -1   -1    0    0    0  501  0.00000000000E+00  0.00000000000E+00 -0.83154154679E+03  0.83154154681E+03  0.50400001928E-02 0.  1.
    10030    2    1    2    0    0  0.00000000000E+00  0.00000000000E+00 -0.72465717030E+03  0.93842592342E+03  0.59625095328E+03 0.  0.
        5    1    3    3  502    0  0.13076284518E+03 -0.11635830952E+03 -0.74208186633E+03  0.76246033615E+03  0.46999998093E+01 0.  1.
       -5    1    3    3    0  502 -0.13076284518E+03  0.11635830952E+03  0.17424696032E+02  0.17596558727E+03  0.46999998093E+01 0. -1.
</event>
<event>
 5   0  0.1146468E-01  0.6031974E+03  0.7818609E-02  0.9898794E-01
        2   -1    0    0  501    0  0.00000000000E+00  0.00000000000E+00  0.65960469676E+03  0.65960469677E+03  0.25500000920E-02 0. -1.
       -2   -1    0    0    0  501  0.00000000000E+00  0.00000000000E+00 -0.13790348883E+03  0.13790348886E+03  0.25500000920E-02 0.  1.
    10030    2    1    2    0    0  0.00000000000E+00  0.00000000000E+00  0.52170120793E+03  0.79750818562E+03  0.60319744344E+03 0.  0.
        4    1    3    3  502    0  0.12256825791E+03  0.26826829306E+03  0.34414845082E+03  0.45324455210E+03  0.12699999809E+01 0. -1.
       -4    1    3    3    0  502 -0.12256825791E+03 -0.26826829306E+03  0.17755275711E+03  0.34426363352E+03  0.12699999809E+01 0.  1.
</event>
<event>
 5   0  0.1146468E-01  0.6036107E+03  0.7818609E-02  0.9897943E-01
        2   -1    0    0  501    0  0.00000000000E+00  0.00000000000E+00  0.57901374939E+03  0.57901374939E+03  0.25500000920E-02 0. -1.
       -2   -1    0    0    0  501  0.00000000000E+00  0.00000000000E+00 -0.15731314350E+03  0.15731314352E+03  0.25500000920E-02 0.  1.
    10030    2    1    2    0    0  0.00000000000E+00  0.00000000000E+00  0.42170060589E+03  0.73632689291E+03  0.60361071248E+03 0.  0.
        4    1    3    3  502    0 -0.80017068217E+01 -0.24447096108E+03 -0.48108690622E+01  0.24465247901E+03  0.12699999809E+01 0.  1.
       -4    1    3    3    0  502  0.80017068217E+01  0.24447096108E+03  0.42651147495E+03  0.49167441390E+03  0.12699999809E+01 0. -1.
</event>
<event>
 5   0  0.1219020E-01  0.5961893E+03  0.7818609E-02  0.9913344E-01
        2   -1    0    0  501    0  0.00000000000E+00  0.00000000000E+00  0.10367611645E+04  0.10367611645E+04  0.25500000920E-02 0.  1.
       -2   -1    0    0    0  501  0.00000000000E+00  0.00000000000E+00 -0.85709625281E+02  0.85709625319E+02  0.25500000920E-02 0. -1.
    10030    2    1    2    0    0  0.00000000000E+00  0.00000000000E+00  0.95105153921E+03  0.11224707898E+04  0.59618926839E+03 0.  0.
        2    1    3    3  502    0 -0.80111168911E+02  0.14196635257E+03  0.56385134101E+01  0.16310744154E+03  0.25500000920E-02 0. -1.
       -2    1    3    3    0  502  0.80111168911E+02 -0.14196635257E+03  0.94541302580E+03  0.95936334827E+03  0.25500000920E-02 0.  1.
</event>
<event>
 5   0  0.7221069E-02  0.6014716E+03  0.7818609E-02  0.9902358E-01
       -1   -1    0    0    0  501  0.00000000000E+00  0.00000000000E+00  0.79988768221E+02  0.79988768380E+02  0.50400001928E-02 0.  1.
        1   -1    0    0  501    0  0.00000000000E+00  0.00000000000E+00 -0.11306838257E+04  0.11306838257E+04  0.50400001928E-02 0. -1.
    10030    2    1    2    0    0  0.00000000000E+00  0.00000000000E+00 -0.10506950575E+04  0.12106725941E+04  0.60147155069E+03 0.  0.
        5    1    3    3  502    0  0.29286232271E+03 -0.36966327880E+02 -0.64071509862E+03  0.70545926676E+03  0.46999998093E+01 0. -1.
       -5    1    3    3    0  502 -0.29286232271E+03  0.36966327880E+02 -0.40997995889E+03  0.50521332737E+03  0.46999998093E+01 0.  1.
</event>
<event>
 5   0  0.1175861E-01  0.6064800E+03  0.7818609E-02  0.9892053E-01
        2   -1    0    0  501    0  0.00000000000E+00  0.00000000000E+00  0.85067734632E+03  0.85067734632E+03  0.25500000920E-02 0.  1.
       -2   -1    0    0    0  501  0.00000000000E+00  0.00000000000E+00 -0.10809561572E+03  0.10809561575E+03  0.25500000920E-02 0. -1.
    10030    2    1    2    0    0  0.00000000000E+00  0.00000000000E+00  0.74258173059E+03  0.95877296207E+03  0.60647998004E+03 0.  0.
        3    1    3    3  502    0 -0.15386373437E+03  0.12885733090E+03  0.11918496968E+02  0.20104805707E+03  0.10100000352E+00 0. -1.
       -3    1    3    3    0  502  0.15386373437E+03 -0.12885733090E+03  0.73066323363E+03  0.75772490500E+03  0.10100000352E+00 0.  1.
</event>
<event>
 5   0  0.7221069E-02  0.5957646E+03  0.7818609E-02  0.9914232E-01
       -1   -1    0    0    0  501  0.00000000000E+00  0.00000000000E+00  0.48674080635E+03  0.48674080637E+03  0.50400001928E-02 0.  1.
        1   -1    0    0  501    0  0.00000000000E+00  0.00000000000E+00 -0.18230210233E+03  0.18230210240E+03  0.50400001928E-02 0. -1.
    10030    2    1    2    0    0  0.00000000000E+00  0.00000000000E+00  0.30443870402E+03  0.66904290878E+03  0.59576462574E+03 0.  0.
        5    1    3    3  502    0  0.34546496203E+02 -0.23439247216E+02 -0.17895851643E+03  0.18382355483E+03  0.46999998093E+01 0. -1.
       -5    1    3    3    0  502 -0.34546496203E+02  0.23439247216E+02  0.48339722044E+03  0.48521935394E+03  0.46999998093E+01 0.  1.
</event>
<event>
 5   0  0.7424930E-02  0.6073381E+03  0.7818609E-02  0.9890298E-01
       -1   -1    0    0    0  501  0.00000000000E+00  0.00000000000E+00  0.13580762418E+03  0.13580762427E+03  0.50400001928E-02 0.  1.
        1   -1    0    0  501    0  0.00000000000E+00  0.00000000000E+00 -0.67901119599E+03  0.67901119601E+03  0.50400001928E-02 0. -1.
    10030    2    1    2    0    0  0.00000000000E+00  0.00000000000E+00 -0.54320357181E+03  0.81481882027E+03  0.60733811789E+03 0.  0.
        3    1    3    3  502    0 -0.10760437349E+03 -0.28387320468E+03 -0.28129399170E+03  0.41387077391E+03  0.10100000352E+00 0.  1.
       -3    1    3    3    0  502  0.10760437349E+03  0.28387320468E+03 -0.26190958011E+03  0.40094804637E+03  0.10100000352E+00 0. -1.
</event>
<event>
 5   0  0.4695625E-02  0.6157788E+03  0.7818609E-02  0.9873200E-01
        3   -1    0    0  501    0  0.00000000000E+00  0.00000000000E+00  0.65196718601E+03  0.65196719383E+03  0.10100000352E+00 0.  1.
       -3   -1    0    0    0  501  0.00000000000E+00  0.00000000000E+00 -0.14539973811E+03  0.14539977319E+03  0.10100000352E+00 0. -1.
    10030    2    1    2    0    0  0.00000000000E+00  0.00000000000E+00  0.50656744790E+03  0.79736696703E+03  0.61577877589E+03 0.  0.
        2    1    3    3  502    0 -0.12643435538E+03  0.39363336745E+02  0.61320954387E+03  0.62734445340E+03  0.25500000920E-02 0.  1.
       -2    1    3    3    0  502  0.12643435538E+03 -0.39363336745E+02 -0.10664209598E+03  0.17002251363E+03  0.25500000920E-02 0. -1.
</event>
<event>
 5   0  0.1146468E-01  0.5993160E+03  0.7818609E-02  0.9906826E-01
        2   -1    0    0  501    0  0.00000000000E+00  0.00000000000E+00  0.75072331180E+03  0.75072331180E+03  0.25500000920E-02 0. -1.
       -2   -1    0    0    0  501  0.00000000000E+00  0.00000000000E+00 -0.11961120236E+03  0.11961120239E+03  0.25500000920E-02 0.  1.
    10030    2    1    2    0    0  0.00000000000E+00  0.00000000000E+00  0.63111210943E+03  0.87033451419E+03  0.59931600339E+03 0.  0.
        4    1    3    3  502    0  0.20149333896E+03  0.10040571600E+03  0.60275824003E+03  0.64342830391E+03  0.12699999809E+01 0. -1.
       -4    1    3    3    0  502 -0.20149333896E+03 -0.10040571600E+03  0.28353869403E+02  0.22690621028E+03  0.12699999809E+01 0.  1.
</event>
<event>
 5   0  0.7266519E-02  0.5990508E+03  0.7818609E-02  0.9907377E-01
        1   -1    0    0  501    0  0.00000000000E+00  0.00000000000E+00  0.53885094341E+03  0.53885094344E+03  0.50400001928E-02 0. -1.
       -1   -1    0    0    0  501  0.00000000000E+00  0.00000000000E+00 -0.16649400390E+03  0.16649400398E+03  0.50400001928E-02 0.  1.
    10030    2    1    2    0    0  0.00000000000E+00  0.00000000000E+00  0.37235693951E+03  0.70534494742E+03  0.59905075281E+03 0.  0.
        4    1    3    3  502    0 -0.60895632404E+02 -0.58753242359E+02 -0.15212464292E+03  0.17407969846E+03  0.12699999809E+01 0.  1.
       -4    1    3    3    0  502  0.60895632404E+02  0.58753242359E+02  0.52448158243E+03  0.53126524895E+03  0.12699999809E+01 0. -1.
</event>
<event>
 5   0  0.7424930E-02  0.6017812E+03  0.7818609E-02  0.9901718E-01
        1   -1    0    0  501    0  0.00000000000E+00  0.00000000000E+00  0.32218339667E+03  0.32218339670E+03  0.50400001928E-02 0.  1.
       -1   -1    0    0    0  501  0.00000000000E+00  0.00000000000E+00 -0.28100500265E+03  0.28100500270E+03  0.50400001928E-02 0. -1.
    10030    2    1    2    0    0  0.00000000000E+00  0.00000000000E+00  0.41178394011E+02  0.60318839940E+03  0.60178117704E+03 0.  0.
        3    1    3    3  502    0  0.19616110576E+03 -0.13846902899E+03  0.20234796632E+03  0.31400248578E+03  0.10100000352E+00 0.  1.
       -3    1    3    3    0  502 -0.19616110576E+03  0.13846902899E+03 -0.16116957230E+03  0.28918591363E+03  0.10100000352E+00 0. -1.
</event>
<event>
 5   0  0.1219020E-01  0.5771824E+03  0.7818609E-02  0.9953910E-01
       -2   -1    0    0    0  501  0.00000000000E+00  0.00000000000E+00  0.16753810508E+03  0.16753810510E+03  0.25500000920E-02 0. -1.
        2   -1    0    0  501    0  0.00000000000E+00  0.00000000000E+00 -0.49711008492E+03  0.49711008493E+03  0.25500000920E-02 0.  1.
    10030    2    1    2    0    0  0.00000000000E+00  0.00000000000E+00 -0.32957197984E+03  0.66464819003E+03  0.57718240324E+03 0.  0.
        2    1    3    3  502    0 -0.45177804215E+02  0.27205158277E+03 -0.26271276809E+03  0.38088199774E+03  0.25500000920E-02 0.  1.
       -2    1    3    3    0  502  0.45177804215E+02 -0.27205158277E+03 -0.66859211751E+02  0.28376619228E+03  0.25500000920E-02 0. -1.
</event>
<event>
 5   0  0.7424930E-02  0.6113732E+03  0.7818609E-02  0.9882087E-01
        1   -1    0    0  501    0  0.00000000000E+00  0.00000000000E+00  0.59818042812E+03  0.59818042814E+03  0.50400001928E-02 0. -1.
       -1   -1    0    0    0  501  0.00000000000E+00  0.00000000000E+00 -0.15621422546E+03  0.15621422555E+03  0.50400001928E-02 0.  1.
    10030    2    1    2    0    0  0.00000000000E+00  0.00000000000E+00  0.44196620265E+03  0.75439465369E+03  0.61137318327E+03 0.  0.
        3    1    3    3  502    0  0.56546265771E+02  0.25653579783E+02  0.59031670516E+03  0.59357342336E+03  0.10100000352E+00 0. -1.
       -3    1    3    3    0  502 -0.56546265771E+02 -0.25653579783E+02 -0.14835050251E+03  0.16082123032E+03  0.10100000352E+00 0.  1.
</event>
<event>
 5   0  0.1146468E-01  0.5925897E+03  0.7818609E-02  0.9920900E-01
       -2   -1    0    0    0  501  0.00000000000E+00  0.00000000000E+00  0.35804167351E+02  0.35804167442E+02  0.25500000920E-02 0. -1.
        2   -1    0    0  501    0  0.00000000000E+00  0.00000000000E+00 -0.24519669634E+04  0.24519669634E+04  0.25500000920E-02 0.  1.
    10030    2    1    2    0    0  0.00000000000E+00  0.00000000000E+00 -0.24161627960E+04  0.24877711308E+04  0.59258969148E+03 0.  0.
        4    1    3    3  502    0  0.43913211621E+02 -0.22867318957E+03 -0.43890316004E+03  0.49684745604E+03  0.12699999809E+01 0. -1.
       -4    1    3    3    0  502 -0.43913211621E+02  0.22867318957E+03 -0.19772596360E+04  0.19909236748E+04  0.12699999809E+01 0.  1.
</event>
<event>
 5   0  0.1166419E-01  0.5991796E+03  0.7818609E-02  0.9907110E-01
       -2   -1    0    0    0  501  0.00000000000E+00  0.00000000000E+00  0.41260411040E+02  0.41260411119E+02  0.25500000920E-02 0.  1.
        2   -1    0    0  501    0  0.00000000000E+00  0.00000000000E+00 -0.21753064890E+04  0.21753064890E+04  0.25500000920E-02 0. -1.
    10030    2    1    2    0    0  0.00000000000E+00  0.00000000000E+00 -0.21340460780E+04  0.22165669001E+04  0.59917957229E+03 0.  0.
        1    1    3    3  502    0  0.28763079529E+03  0.83784997367E+02 -0.10730334735E+04  0.11140701214E+04  0.50400001928E-02 0.  1.
       -1    1    3    3    0  502 -0.28763079529E+03 -0.83784997367E+02 -0.10610126045E+04  0.11024967787E+04  0.50400001928E-02 0. -1.
</event>
<event>
 5   0  0.1175861E-01  0.6082388E+03  0.7818609E-02  0.9888459E-01
        2   -1    0    0  501    0  0.00000000000E+00  0.00000000000E+00  0.46929404325E+03  0.46929404326E+03  0.25500000920E-02 0.  1.
       -2   -1    0    0    0  501  0.00000000000E+00  0.00000000000E+00 -0.19708031244E+03  0.19708031246E+03  0.25500000920E-02 0. -1.
    10030    2    1    2    0    0  0.00000000000E+00  0.00000000000E+00  0.27221373081E+03  0.66637435572E+03  0.60823882375E+03 0.  0.
        3    1    3    3  502    0 -0.22950246259E+03 -0.15664728091E+03  0.68476351770E+00  0.27786728856E+03  0.10100000352E+00 0. -1.
       -3    1    3    3    0  502  0.22950246259E+03  0.15664728091E+03  0.27152896730E+03  0.38850706716E+03  0.10100000352E+00 0.  1.
</event>
<event>
 5   0  0.1175861E-01  0.5065343E+03  0.7818609E-02  0.1012087E+00
       -2   -1    0    0    0  501  0.00000000000E+00  0.00000000000E+00  0.72677285120E+02  0.72677285165E+02  0.25500000920E-02 0.  1.
        2   -1    0    0  501    0  0.00000000000E+00  0.00000000000E+00 -0.88259019574E+03  0.88259019575E+03  0.25500000920E-02 0. -1.
    10030    2    1    2    0    0  0.00000000000E+00  0.00000000000E+00 -0.80991291062E+03  0.95526748091E+03  0.50653433970E+03 0.  0.
        3    1    3    3  502    0 -0.21147957031E+03 -0.13380891195E+03 -0.33153224589E+03  0.41538184101E+03  0.10100000352E+00 0.  1.
       -3    1    3    3    0  502  0.21147957031E+03  0.13380891195E+03 -0.47838066473E+03  0.53988563990E+03  0.10100000352E+00 0. -1.
</event>
<event>
 5   0  0.1206238E-01  0.5849250E+03  0.7818609E-02  0.9937185E-01
        2   -1    0    0  501    0  0.00000000000E+00  0.00000000000E+00  0.59131640070E+03  0.59131640070E+03  0.25500000920E-02 0.  1.
       -2   -1    0    0    0  501  0.00000000000E+00  0.00000000000E+00 -0.14465068658E+03  0.14465068660E+03  0.25500000920E-02 0. -1.
    10030    2    1    2    0    0  0.00000000000E+00  0.00000000000E+00  0.44666571412E+03  0.73596708730E+03  0.58492503231E+03 0.  0.
        5    1    3    3  502    0 -0.11419125010E+03 -0.85068142994E+02  0.54470028477E+03  0.56302461827E+03  0.46999998093E+01 0.  1.
       -5    1    3    3    0  502  0.11419125010E+03  0.85068142994E+02 -0.98034570655E+02  0.17294246903E+03  0.46999998093E+01 0. -1.
</event>
<event>
 5   0  0.7424930E-02  0.6075453E+03  0.7818609E-02  0.9889874E-01
       -1   -1    0    0    0  501  0.00000000000E+00  0.00000000000E+00  0.20222012073E+03  0.20222012079E+03  0.50400001928E-02 0.  1.
        1   -1    0    0  501    0  0.00000000000E+00  0.00000000000E+00 -0.45632364962E+03  0.45632364965E+03  0.50400001928E-02 0. -1.
    10030    2    1    2    0    0  0.00000000000E+00  0.00000000000E+00 -0.25410352890E+03  0.65854377044E+03  0.60754530217E+03 0.  0.
        3    1    3    3  502    0 -0.80725920218E+02 -0.27061325630E+02  0.18902244808E+03  0.20731253126E+03  0.10100000352E+00 0.  1.
       -3    1    3    3    0  502  0.80725920218E+02  0.27061325630E+02 -0.44312597697E+03  0.45123123918E+03  0.10100000352E+00 0. -1.
</event>
<event>
 5   0  0.7266519E-02  0.6013303E+03  0.7818609E-02  0.9902650E-01
        1   -1    0    0  501    0  0.00000000000E+00  0.00000000000E+00  0.90962710146E+03  0.90962710147E+03  0.50400001928E-02 0.  1.
       -1   -1    0    0    0  501  0.00000000000E+00  0.00000000000E+00 -0.99380868484E+02  0.99380868612E+02  0.50400001928E-02 0. -1.
    10030    2    1    2    0    0  0.00000000000E+00  0.00000000000E+00  0.81024623297E+03  0.10090079701E+04  0.60133029663E+03 0.  0.
        4    1    3    3  502    0  0.22409801382E+03  0.11216139132E+03  0.12637052845E+03  0.28066211155E+03  0.12699999809E+01 0. -1.
       -4    1    3    3    0  502 -0.22409801382E+03 -0.11216139132E+03  0.68387570453E+03  0.72834585853E+03  0.12699999809E+01 0.  1.
</event>
<event>
 5   0  0.1146468E-01  0.6012111E+03  0.7818609E-02  0.9902897E-01
       -2   -1    0    0    0  501  0.00000000000E+00  0.00000000000E+00  0.33517564619E+03  0.33517564620E+03  0.25500000920E-02 0.  1.
        2   -1    0    0  501    0  0.00000000000E+00  0.00000000000E+00 -0.26960102758E+03  0.26960102759E+03  0.25500000920E-02 0. -1.
    10030    2    1    2    0    0  0.00000000000E+00  0.00000000000E+00  0.65574618615E+02  0.60477667379E+03  0.60121110648E+03 0.  0.
        4    1    3    3  502    0  0.39504532229E+02 -0.12683311896E+02 -0.26670412678E+03  0.26991513224E+03  0.12699999809E+01 0. -1.
       -4    1    3    3    0  502 -0.39504532229E+02  0.12683311896E+02  0.33227874540E+03  0.33486154155E+03  0.12699999809E+01 0.  1.
</event>
<event>
 5   0  0.7424930E-02  0.5985187E+03  0.7818609E-02  0.9908484E-01
        1   -1    0    0  501    0  0.00000000000E+00  0.00000000000E+00  0.27864239542E+04  0.27864239542E+04  0.50400001928E-02 0.  1.
       -1   -1    0    0    0  501  0.00000000000E+00  0.00000000000E+00 -0.32140175701E+02  0.32140176096E+02  0.50400001928E-02 0. -1.
    10030    2    1    2    0    0  0.00000000000E+00  0.00000000000E+00  0.27542837785E+04  0.28185641303E+04  0.59851869153E+03 0.  0.
        3    1    3    3  502    0 -0.80983589821E+02  0.10153415070E+03  0.10749364766E+03  0.16858950165E+03  0.10100000352E+00 0. -1.
       -3    1    3    3    0  502  0.80983589821E+02 -0.10153415070E+03  0.26467901308E+04  0.26499746286E+04  0.10100000352E+00 0.  1.
</event>
<event>
 5   0  0.7123340E-02  0.6160044E+03  0.7818609E-02  0.9872747E-01
        1   -1    0    0  501    0  0.00000000000E+00  0.00000000000E+00  0.60620710598E+03  0.60620710600E+03  0.50400001928E-02 0.  1.
       -1   -1    0    0    0  501  0.00000000000E+00  0.00000000000E+00 -0.15649001079E+03  0.15649001087E+03  0.50400001928E-02 0. -1.
    10030    2    1    2    0    0  0.00000000000E+00  0.00000000000E+00  0.44971709519E+03  0.76269711687E+03  0.61600440451E+03 0.  0.
        2    1    3    3  502    0  0.15254284464E+03 -0.15877365931E+02 -0.10585109014E+03  0.18634876842E+03  0.25500000920E-02 0. -1.
       -2    1    3    3    0  502 -0.15254284464E+03  0.15877365931E+02  0.55556818533E+03  0.57634834845E+03  0.25500000920E-02 0.  1.
</event>
<event>
 5   0  0.7424930E-02  0.5982631E+03  0.7818609E-02  0.9909016E-01
        1   -1    0    0  501    0  0.00000000000E+00  0.00000000000E+00  0.53235041027E+03  0.53235041029E+03  0.50400001928E-02 0.  1.
       -1   -1    0    0    0  501  0.00000000000E+00  0.00000000000E+00 -0.16808420403E+03  0.16808420410E+03  0.50400001928E-02 0. -1.
    10030    2    1    2    0    0  0.00000000000E+00  0.00000000000E+00  0.36426620624E+03  0.70043461439E+03  0.59826313611E+03 0.  0.
        3    1    3    3  502    0  0.32601665247E+02  0.28313812942E+03  0.28847201721E+03  0.40551964665E+03  0.10100000352E+00 0.  1.
       -3    1    3    3    0  502 -0.32601665247E+02 -0.28313812942E+03  0.75794189032E+02  0.29491496774E+03  0.10100000352E+00 0. -1.
</event>
<event>
 5   0  0.7424930E-02  0.4619344E+03  0.7818609E-02  0.1024222E+00
        1   -1    0    0  501    0  0.00000000000E+00  0.00000000000E+00  0.10242121955E+03  0.10242121967E+03  0.50400001928E-02 0. -1.
       -1   -1    0    0    0  501  0.00000000000E+00  0.00000000000E+00 -0.52084770672E+03  0.52084770674E+03  0.50400001928E-02 0.  1.
    10030    2    1    2    0    0  0.00000000000E+00  0.00000000000E+00 -0.41842648717E+03  0.62326892642E+03  0.46193444283E+03 0.  0.
        3    1    3    3  502    0 -0.99184357343E+02 -0.17166726803E+03 -0.49346565601E+02  0.20430927877E+03  0.10100000352E+00 0. -1.
       -3    1    3    3    0  502  0.99184357343E+02  0.17166726803E+03 -0.36907992157E+03  0.41895964765E+03  0.10100000352E+00 0.  1.
</event>
<event>
 5   0  0.7221069E-02  0.5997185E+03  0.7818609E-02  0.9905990E-01
        1   -1    0    0  501    0  0.00000000000E+00  0.00000000000E+00  0.80545702510E+03  0.80545702511E+03  0.50400001928E-02 0. -1.
       -1   -1    0    0    0  501  0.00000000000E+00  0.00000000000E+00 -0.11163297331E+03  0.11163297342E+03  0.50400001928E-02 0.  1.
    10030    2    1    2    0    0  0.00000000000E+00  0.00000000000E+00  0.69382405179E+03  0.91708999853E+03  0.59971847610E+03 0.  0.
        5    1    3    3  502    0 -0.29346891304E+03  0.56893119475E+02  0.31161951885E+03  0.43184446794E+03  0.46999998093E+01 0. -1.
       -5    1    3    3    0  502  0.29346891304E+03 -0.56893119475E+02  0.38220453293E+03  0.48524553059E+03  0.46999998093E+01 0.  1.
</event>
<event>
 5   0  0.7123340E-02  0.5987676E+03  0.7818609E-02  0.9907966E-01
        1   -1    0    0  501    0  0.00000000000E+00  0.00000000000E+00  0.60985061178E+03  0.60985061180E+03  0.50400001928E-02 0. -1.
       -1   -1    0    0    0  501  0.00000000000E+00  0.00000000000E+00 -0.14697152487E+03  0.14697152495E+03  0.50400001928E-02 0.  1.
    10030    2    1    2    0    0  0.00000000000E+00  0.00000000000E+00  0.46287908691E+03  0.75682213675E+03  0.59876764907E+03 0.  0.
        2    1    3    3  502    0  0.15452002836E+03  0.82439318696E+01 -0.92506595948E+02  0.18028275535E+03  0.25500000920E-02 0.  1.
       -2    1    3    3    0  502 -0.15452002836E+03 -0.82439318696E+01  0.55538568286E+03  0.57653938140E+03  0.25500000920E-02 0. -1.
</event>
<event>
 5   0  0.4695625E-02  0.5555652E+03  0.7818609E-02  0.1000214E+00
        3   -1    0    0  501    0  0.00000000000E+00  0.00000000000E+00  0.23960423781E+03  0.23960425910E+03  0.10100000352E+00 0.  1.
       -3   -1    0    0    0  501  0.00000000000E+00  0.00000000000E+00 -0.32204418798E+03  0.32204420382E+03  0.10100000352E+00 0. -1.
    10030    2    1    2    0    0  0.00000000000E+00  0.00000000000E+00 -0.82439950172E+02  0.56164846292E+03  0.55556516316E+03 0.  0.
        4    1    3    3  502    0  0.98195053652E+01  0.25779146760E+03 -0.14534625974E+03  0.29610810792E+03  0.12699999809E+01 0. -1.
       -4    1    3    3    0  502 -0.98195053652E+01 -0.25779146760E+03  0.62906309565E+02  0.26554035501E+03  0.12699999809E+01 0.  1.
</event>
<event>
 5   0  0.4695625E-02  0.6090148E+03  0.7818609E-02  0.9886878E-01
       -4   -1    0    0    0  501  0.00000000000E+00  0.00000000000E+00  0.93472037327E+03  0.93472123604E+03  0.12699999809E+01 0. -1.
        4   -1    0    0  501    0  0.00000000000E+00  0.00000000000E+00 -0.99195565995E+02  0.99203695562E+02  0.12699999809E+01 0.  1.
    10030    2    1    2    0    0  0.00000000000E+00  0.00000000000E+00  0.83552480727E+03  0.10339249316E+04  0.60901482791E+03 0.  0.
        3    1    3    3  502    0  0.25747349705E+03  0.11910527840E+03  0.22989138403E+03  0.36514206506E+03  0.10100000352E+00 0.  1.
       -3    1    3    3    0  502 -0.25747349705E+03 -0.11910527840E+03  0.60563342325E+03  0.66878286654E+03  0.10100000352E+00 0. -1.
</event>
<event>
 5   0  0.1206238E-01  0.5932552E+03  0.7818609E-02  0.9919499E-01
       -2   -1    0    0    0  501  0.00000000000E+00  0.00000000000E+00  0.23843727131E+03  0.23843727133E+03  0.25500000920E-02 0.  1.
        2   -1    0    0  501    0  0.00000000000E+00  0.00000000000E+00 -0.36901921980E+03  0.36901921981E+03  0.25500000920E-02 0. -1.
    10030    2    1    2    0    0  0.00000000000E+00  0.00000000000E+00 -0.13058194849E+03  0.60745649114E+03  0.59325520929E+03 0.  0.
        5    1    3    3  502    0 -0.93077724159E+02  0.21783748952E+03  0.11744453912E+03  0.26444648673E+03  0.46999998093E+01 0.  1.
       -5    1    3    3    0  502  0.93077724159E+02 -0.21783748952E+03 -0.24802648761E+03  0.34301000441E+03  0.46999998093E+01 0. -1.
</event>
<event>
 5   0  0.7263385E-02  0.6071462E+03  0.7818609E-02  0.9890690E-01
       -1   -1    0    0    0  501  0.00000000000E+00  0.00000000000E+00  0.21564282553E+03  0.21564282559E+03  0.50400001928E-02 0. -1.
        1   -1    0    0  501    0  0.00000000000E+00  0.00000000000E+00 -0.42735768624E+03  0.42735768627E+03  0.50400001928E-02 0.  1.
    10030    2    1    2    0    0  0.00000000000E+00  0.00000000000E+00 -0.21171486071E+03  0.64300051186E+03  0.60714617351E+03 0.  0.
        1    1    3    3  502    0  0.23583733319E+03  0.16756813367E+03 -0.84573334660E+01  0.28943022245E+03  0.50400001928E-02 0. -1.
       -1    1    3    3    0  502 -0.23583733319E+03 -0.16756813367E+03 -0.20325752725E+03  0.35357028942E+03  0.50400001928E-02 0.  1.
</event>
<event>
 5   0  0.1206238E-01  0.6223364E+03  0.7818609E-02  0.9860119E-01
        2   -1    0    0  501    0  0.00000000000E+00  0.00000000000E+00  0.10038326434E+03  0.10038326437E+03  0.25500000920E-02 0. -1.
       -2   -1    0    0    0  501  0.00000000000E+00  0.00000000000E+00 -0.96455971031E+03  0.96455971031E+03  0.25500000920E-02 0.  1.
    10030    2    1    2    0    0  0.00000000000E+00  0.00000000000E+00 -0.86417644597E+03  0.10649429747E+04  0.62233641188E+03 0.  0.
        5    1    3    3  502    0 -0.14848298050E+03  0.13705690709E+03 -0.83693032026E+03  0.86099142983E+03  0.46999998093E+01 0.  1.
       -5    1    3    3    0  502  0.14848298050E+03 -0.13705690709E+03 -0.27246125711E+02  0.20395154485E+03  0.46999998093E+01 0. -1.
</event>
<event>
 5   0  0.7424930E-02  0.6055897E+03  0.7818609E-02  0.9893877E-01
        1   -1    0    0  501    0  0.00000000000E+00  0.00000000000E+00  0.27915381514E+03  0.27915381519E+03  0.50400001928E-02 0. -1.
       -1   -1    0    0    0  501  0.00000000000E+00  0.00000000000E+00 -0.32843796186E+03  0.32843796190E+03  0.50400001928E-02 0.  1.
    10030    2    1    2    0    0  0.00000000000E+00  0.00000000000E+00 -0.49284146725E+02  0.60759177709E+03  0.60558966344E+03 0.  0.
        3    1    3    3  502    0  0.95991698612E+02 -0.24354310793E+03 -0.17731957144E+03  0.31618015788E+03  0.10100000352E+00 0.  1.
       -3    1    3    3    0  502 -0.95991698612E+02  0.24354310793E+03  0.12803542471E+03  0.29141161920E+03  0.10100000352E+00 0. -1.
</event>
<event>
 5   0  0.1146468E-01  0.5971339E+03  0.7818609E-02  0.9911370E-01
       -2   -1    0    0    0  501  0.00000000000E+00  0.00000000000E+00  0.42538392971E+02  0.42538393047E+02  0.25500000920E-02 0. -1.
        2   -1    0    0  501    0  0.00000000000E+00  0.00000000000E+00 -0.20955707483E+04  0.20955707483E+04  0.25500000920E-02 0.  1.
    10030    2    1    2    0    0  0.00000000000E+00  0.00000000000E+00 -0.20530323554E+04  0.21381091414E+04  0.59713386129E+03 0.  0.
        4    1    3    3  502    0  0.50725566850E+02  0.95935397443E+02 -0.30589439409E+02  0.11275642030E+03  0.12699999809E+01 0. -1.
       -4    1    3    3    0  502 -0.50725566850E+02 -0.95935397443E+02 -0.20224429159E+04  0.20253527211E+04  0.12699999809E+01 0.  1.
</event>
<event>
 5   0  0.7266519E-02  0.5855632E+03  0.7818609E-02  0.9935819E-01
        1   -1    0    0  501    0  0.00000000000E+00  0.00000000000E+00  0.55789455689E+03  0.55789455691E+03  0.50400001928E-02 0. -1.
       -1   -1    0    0    0  501  0.00000000000E+00  0.00000000000E+00 -0.15365101126E+03  0.15365101134E+03  0.50400001928E-02 0.  1.
    10030    2    1    2    0    0  0.00000000000E+00  0.00000000000E+00  0.40424354563E+03  0.71154556825E+03  0.58556319174E+03 0.  0.
        4    1    3    3  502    0 -0.19916674026E+03  0.63366132680E+01 -0.58532029637E+02  0.20769004426E+03  0.12699999809E+01 0. -1.
       -4    1    3    3    0  502  0.19916674026E+03 -0.63366132680E+01  0.46277557527E+03  0.50385552399E+03  0.12699999809E+01 0.  1.
</event>
<event>
 5   0  0.1146468E-01  0.6009758E+03  0.7818609E-02  0.9903384E-01
        2   -1    0    0  501    0  0.00000000000E+00  0.00000000000E+00  0.31196815744E+03  0.31196815745E+03  0.25500000920E-02 0. -1.
       -2   -1    0    0    0  501  0.00000000000E+00  0.00000000000E+00 -0.28943012459E+03  0.28943012460E+03  0.25500000920E-02 0.  1.
    10030    2    1    2    0    0  0.00000000000E+00  0.00000000000E+00  0.22538032854E+02  0.60139828205E+03  0.60097581543E+03 0.  0.
        4    1    3    3  502    0  0.24293851892E+02 -0.11789503198E+03  0.28678407967E+03  0.31102435766E+03  0.12699999809E+01 0. -1.
       -4    1    3    3    0  502 -0.24293851892E+02  0.11789503198E+03 -0.26424604682E+03  0.29037392439E+03  0.12699999809E+01 0.  1.
</event>
<event>
 5   0  0.1219020E-01  0.5322146E+03  0.7818609E-02  0.1005696E+00
        2   -1    0    0  501    0  0.00000000000E+00  0.00000000000E+00  0.23536322678E+03  0.23536322680E+03  0.25500000920E-02 0.  1.
       -2   -1    0    0    0  501  0.00000000000E+00  0.00000000000E+00 -0.30086725151E+03  0.30086725152E+03  0.25500000920E-02 0. -1.
    10030    2    1    2    0    0  0.00000000000E+00  0.00000000000E+00 -0.65504024724E+02  0.53623047831E+03  0.53221457009E+03 0.  0.
        2    1    3    3  502    0  0.15910956493E+03 -0.45735091904E+02  0.17715999953E+03  0.24247312784E+03  0.25500000920E-02 0.  1.
       -2    1    3    3    0  502 -0.15910956493E+03  0.45735091904E+02 -0.24266402426E+03  0.29375735048E+03  0.25500000920E-02 0. -1.
</event>
<event>
 5   0  0.7263385E-02  0.6321764E+03  0.7818609E-02  0.9840811E-01
        1   -1    0    0  501    0  0.00000000000E+00  0.00000000000E+00  0.10250468968E+04  0.10250468968E+04  0.50400001928E-02 0. -1.
       -1   -1    0    0    0  501  0.00000000000E+00  0.00000000000E+00 -0.97470430403E+02  0.97470430533E+02  0.50400001928E-02 0.  1.
    10030    2    1    2    0    0  0.00000000000E+00  0.00000000000E+00  0.92757646639E+03  0.11225173273E+04  0.63217643832E+03 0.  0.
        1    1    3    3  502    0  0.28287398370E+03 -0.13353169549E+03  0.38313123920E+03  0.49460888673E+03  0.50400001928E-02 0. -1.
       -1    1    3    3    0  502 -0.28287398370E+03  0.13353169549E+03  0.54444522719E+03  0.62790844061E+03  0.50400001928E-02 0.  1.
</event>
<event>
 5   0  0.4695625E-02  0.6048149E+03  0.7818609E-02  0.9895467E-01
       -3   -1    0    0    0  501  0.00000000000E+00  0.00000000000E+00  0.37619578310E+03  0.37619579665E+03  0.10100000352E+00 0.  1.
        3   -1    0    0  501    0  0.00000000000E+00  0.00000000000E+00 -0.24309217140E+03  0.24309219239E+03  0.10100000352E+00 0. -1.
    10030    2    1    2    0    0  0.00000000000E+00  0.00000000000E+00  0.13310361169E+03  0.61928798904E+03  0.60481488236E+03 0.  0.
        2    1    3    3  502    0  0.72743605802E+02 -0.27479930422E+03  0.17219025649E+03  0.33234887426E+03  0.25500000920E-02 0.  1.
       -2    1    3    3    0  502 -0.72743605802E+02  0.27479930422E+03 -0.39086644797E+02  0.28693911478E+03  0.25500000920E-02 0. -1.
</event>
<event>
 5   0  0.7263385E-02  0.3770768E+03  0.7818609E-02  0.1052020E+00
        1   -1    0    0  501    0  0.00000000000E+00  0.00000000000E+00  0.55730986738E+03  0.55730986740E+03  0.50400001928E-02 0. -1.
       -1   -1    0    0    0  501  0.00000000000E+00  0.00000000000E+00 -0.63782684755E+02  0.63782684954E+02  0.50400001928E-02 0.  1.
    10030    2    1    2    0    0  0.00000000000E+00  0.00000000000E+00  0.49352718262E+03  0.62109255235E+03  0.37707675426E+03 0.  0.
        1    1    3    3  502    0 -0.29466128305E+02 -0.11381420814E+03  0.48953882691E+03  0.50345823041E+03  0.50400001928E-02 0. -1.
       -1    1    3    3    0  502  0.29466128305E+02  0.11381420814E+03  0.39883557159E+01  0.11763432194E+03  0.50400001928E-02 0.  1.
</event>
<event>
 5   0  0.1206238E-01  0.5037184E+03  0.7818609E-02  0.1012813E+00
       -2   -1    0    0    0  501  0.00000000000E+00  0.00000000000E+00  0.10486125789E+03  0.10486125792E+03  0.25500000920E-02 0.  1.
        2   -1    0    0  501    0  0.00000000000E+00  0.00000000000E+00 -0.60492378489E+03  0.60492378490E+03  0.25500000920E-02 0. -1.
    10030    2    1    2    0    0  0.00000000000E+00  0.00000000000E+00 -0.50006252700E+03  0.70978504281E+03  0.50371844923E+03 0.  0.
        5    1    3    3  502    0  0.20212720838E+03 -0.14882811311E+03 -0.27841538284E+03  0.37488989186E+03  0.46999998093E+01 0. -1.
       -5    1    3    3    0  502 -0.20212720838E+03  0.14882811311E+03 -0.22164714416E+03  0.33489515095E+03  0.46999998093E+01 0.  1.
</event>
<event>
 5   0  0.1175861E-01  0.5727681E+03  0.7818609E-02  0.9963572E-01
       -2   -1    0    0    0  501  0.00000000000E+00  0.00000000000E+00  0.16585187133E+03  0.16585187135E+03  0.25500000920E-02 0. -1.
        2   -1    0    0  501    0  0.00000000000E+00  0.00000000000E+00 -0.49451242569E+03  0.49451242570E+03  0.25500000920E-02 0.  1.
    10030    2    1    2    0    0  0.00000000000E+00  0.00000000000E+00 -0.32866055436E+03  0.66036429705E+03  0.57276805499E+03 0.  0.
        3    1    3    3  502    0 -0.15894646999E+03 -0.74385742763E+02 -0.42525700740E+03  0.46004429308E+03  0.10100000352E+00 0.  1.
       -3    1    3    3    0  502  0.15894646999E+03  0.74385742763E+02  0.96596453040E+02  0.20032000397E+03  0.10100000352E+00 0. -1.
</event>
<event>
 5   0  0.1206238E-01  0.5750949E+03  0.7818609E-02  0.9958467E-01
        2   -1    0    0  501    0  0.00000000000E+00  0.00000000000E+00  0.56129705709E+03  0.56129705710E+03  0.25500000920E-02 0. -1.
       -2   -1    0    0    0  501  0.00000000000E+00  0.00000000000E+00 -0.14730799075E+03  0.14730799077E+03  0.25500000920E-02 0.  1.
    10030    2    1    2    0    0  0.00000000000E+00  0.00000000000E+00  0.41398906635E+03  0.70860504787E+03  0.57509491983E+03 0.  0.
        5    1    3    3  502    0 -0.12279069557E+03  0.14327814335E+03 -0.60286934483E+02  0.19814839326E+03  0.46999998093E+01 0.  1.
       -5    1    3    3    0  502  0.12279069557E+03 -0.14327814335E+03  0.47427600083E+03  0.51045665462E+03  0.46999998093E+01 0. -1.
</event>
<event>
 5   0  0.7123340E-02  0.5762585E+03  0.7818609E-02  0.9955924E-01
        1   -1    0    0  501    0  0.00000000000E+00  0.00000000000E+00  0.10709279153E+04  0.10709279153E+04  0.50400001928E-02 0.  1.
       -1   -1    0    0    0  501  0.00000000000E+00  0.00000000000E+00 -0.77520130792E+02  0.77520130956E+02  0.50400001928E-02 0. -1.
    10030    2    1    2    0    0  0.00000000000E+00  0.00000000000E+00  0.99340778452E+03  0.11484480463E+04  0.57625852589E+03 0.  0.
        2    1    3    3  502    0 -0.16730729747E+03 -0.34908561979E+01  0.96415133556E+03  0.97856615296E+03  0.25500000920E-02 0.  1.
       -2    1    3    3    0  502  0.16730729747E+03  0.34908561979E+01  0.29256448967E+02  0.16988189332E+03  0.25500000920E-02 0. -1.
</event>
<event>
 5   0  0.1146468E-01  0.5939563E+03  0.7818609E-02  0.9918025E-01
        2   -1    0    0  501    0  0.00000000000E+00  0.00000000000E+00  0.11836812163E+04  0.11836812163E+04  0.25500000920E-02 0.  1.
       -2   -1    0    0    0  501  0.00000000000E+00  0.00000000000E+00 -0.74509940884E+02  0.74509940927E+02  0.25500000920E-02 0. -1.
    10030    2    1    2    0    0  0.00000000000E+00  0.00000000000E+00  0.11091712754E+04  0.12581911572E+04  0.59395628620E+03 0.  0.
        4    1    3    3  502    0  0.24331638478E+03  0.71387489942E+02  0.88203866127E+03  0.91776513864E+03  0.12699999809E+01 0.  1.
       -4    1    3    3    0  502 -0.24331638478E+03 -0.71387489942E+02  0.22713261413E+03  0.34042601857E+03  0.12699999809E+01 0. -1.
</event>
<event>
 5   0  0.7263385E-02  0.5445642E+03  0.7818609E-02  0.1002760E+00
        1   -1    0    0  501    0  0.00000000000E+00  0.00000000000E+00  0.18540369132E+04  0.18540369132E+04  0.50400001928E-02 0.  1.
       -1   -1    0    0    0  501  0.00000000000E+00  0.00000000000E+00 -0.39987083117E+02  0.39987083435E+02  0.50400001928E-02 0. -1.
    10030    2    1    2    0    0  0.00000000000E+00  0.00000000000E+00  0.18140498301E+04  0.18940239967E+04  0.54456415034E+03 0.  0.
        1    1    3    3  502    0 -0.76584732836E+02  0.90432411195E+02  0.54409815124E+02  0.13039812232E+03  0.50400001928E-02 0. -1.
       -1    1    3    3    0  502  0.76584732836E+02 -0.90432411195E+02  0.17596400150E+04  0.17636258743E+04  0.50400001928E-02 0.  1.
</event>
<event>
 5   0  0.1175861E-01  0.5932746E+03  0.7818609E-02  0.9919458E-01
       -2   -1    0    0    0  501  0.00000000000E+00  0.00000000000E+00  0.90894408023E+02  0.90894408059E+02  0.25500000920E-02 0.  1.
        2   -1    0    0  501    0  0.00000000000E+00  0.00000000000E+00 -0.96808677770E+03  0.96808677770E+03  0.25500000920E-02 0. -1.
    10030    2    1    2    0    0  0.00000000000E+00  0.00000000000E+00 -0.87719236967E+03  0.10589811858E+04  0.59327455565E+03 0.  0.
        3    1    3    3  502    0 -0.19141920050E+03 -0.22535638271E+03 -0.39609818858E+03  0.49428796743E+03  0.10100000352E+00 0.  1.
       -3    1    3    3    0  502  0.19141920050E+03  0.22535638271E+03 -0.48109418109E+03  0.56469321833E+03  0.10100000352E+00 0. -1.
</event>
<event>
 5   0  0.7263385E-02  0.5972968E+03  0.7818609E-02  0.9911030E-01
        1   -1    0    0  501    0  0.00000000000E+00  0.00000000000E+00  0.12752590600E+04  0.12752590600E+04  0.50400001928E-02 0. -1.
       -1   -1    0    0    0  501  0.00000000000E+00  0.00000000000E+00 -0.69939416672E+02  0.69939416854E+02  0.50400001928E-02 0.  1.
    10030    2    1    2    0    0  0.00000000000E+00  0.00000000000E+00  0.12053196434E+04  0.13451984769E+04  0.59729682702E+03 0.  0.
        1    1    3    3  502    0  0.53099266835E+01  0.29845173632E+03  0.58138443402E+03  0.65353614620E+03  0.50400001928E-02 0. -1.
       -1    1    3    3    0  502 -0.53099266835E+01 -0.29845173632E+03  0.62393520933E+03  0.69166233069E+03  0.50400001928E-02 0.  1.
</event>
<event>
 5   0  0.1206238E-01  0.6084732E+03  0.7818609E-02  0.9887981E-01
       -2   -1    0    0    0  501  0.00000000000E+00  0.00000000000E+00  0.76739933070E+02  0.76739933112E+02  0.25500000920E-02 0.  1.
        2   -1    0    0  501    0  0.00000000000E+00  0.00000000000E+00 -0.12061503249E+04  0.12061503249E+04  0.25500000920E-02 0. -1.
    10030    2    1    2    0    0  0.00000000000E+00  0.00000000000E+00 -0.11294103919E+04  0.12828902580E+04  0.60847315548E+03 0.  0.
        5    1    3    3  502    0 -0.24884157928E+03  0.42677650601E+02 -0.92247302450E+03  0.95641104363E+03  0.46999998093E+01 0.  1.
       -5    1    3    3    0  502  0.24884157928E+03 -0.42677650601E+02 -0.20693736736E+03  0.32647921442E+03  0.46999998093E+01 0. -1.
</event>
<event>
 5   0  0.4695625E-02  0.5717267E+03  0.7818609E-02  0.9965865E-01
       -3   -1    0    0    0  501  0.00000000000E+00  0.00000000000E+00  0.18385579732E+03  0.18385582506E+03  0.10100000352E+00 0.  1.
        3   -1    0    0  501    0  0.00000000000E+00  0.00000000000E+00 -0.44446698017E+03  0.44446699164E+03  0.10100000352E+00 0. -1.
    10030    2    1    2    0    0  0.00000000000E+00  0.00000000000E+00 -0.26061118285E+03  0.62832281670E+03  0.57172665966E+03 0.  0.
        2    1    3    3  502    0 -0.26242669850E+03  0.92744445424E+02 -0.58672417169E+02  0.28444991964E+03  0.25500000920E-02 0.  1.
       -2    1    3    3    0  502  0.26242669850E+03 -0.92744445424E+02 -0.20193876568E+03  0.34387289706E+03  0.25500000920E-02 0. -1.
</event>
<event>
 5   0  0.7266519E-02  0.6222553E+03  0.7818609E-02  0.9860280E-01
        1   -1    0    0  501    0  0.00000000000E+00  0.00000000000E+00  0.20703343759E+04  0.20703343759E+04  0.50400001928E-02 0. -1.
       -1   -1    0    0    0  501  0.00000000000E+00  0.00000000000E+00 -0.46755938702E+02  0.46755938973E+02  0.50400001928E-02 0.  1.
    10030    2    1    2    0    0  0.00000000000E+00  0.00000000000E+00  0.20235784372E+04  0.21170903148E+04  0.62225534136E+03 0.  0.
        4    1    3    3  502    0 -0.29481552397E+03 -0.31124931084E+02  0.13330100175E+04  0.13655776339E+04  0.12699999809E+01 0. -1.
       -4    1    3    3    0  502  0.29481552397E+03  0.31124931084E+02  0.69056841968E+03  0.75151268098E+03  0.12699999809E+01 0.  1.
</event>
<event>
 5   0  0.1219020E-01  0.6081543E+03  0.7818609E-02  0.9888631E-01
       -2   -1    0    0    0  501  0.00000000000E+00  0.00000000000E+00  0.20313883991E+03  0.20313883993E+03  0.25500000920E-02 0.  1.
        2   -1    0    0  501    0  0.00000000000E+00  0.00000000000E+00 -0.45517104029E+03  0.45517104030E+03  0.25500000920E-02 0. -1.
    10030    2    1    2    0    0  0.00000000000E+00  0.00000000000E+00 -0.25203220038E+03  0.65830988023E+03  0.60815431296E+03 0.  0.
        2    1    3    3  502    0  0.44163027477E+02  0.14799267391E+03  0.15752273249E+03  0.22060284628E+03  0.25500000920E-02 0.  1.
       -2    1    3    3    0  502 -0.44163027477E+02 -0.14799267391E+03 -0.40955493287E+03  0.43770703395E+03  0.25500000920E-02 0. -1.
</event>
<event>
 5   0  0.1175861E-01  0.5830839E+03  0.7818609E-02  0.9941137E-01
        2   -1    0    0  501    0  0.00000000000E+00  0.00000000000E+00  0.17432178352E+04  0.17432178352E+04  0.25500000920E-02 0.  1.
       -2   -1    0    0    0  501  0.00000000000E+00  0.00000000000E+00 -0.48758513634E+02  0.48758513701E+02  0.25500000920E-02 0. -1.
    10030    2    1    2    0    0  0.00000000000E+00  0.00000000000E+00  0.16944593216E+04  0.17919763489E+04  0.58308390699E+03 0.  0.
        3    1    3    3  502    0  0.29859804313E+02 -0.26481113800E+03  0.48385286444E+03  0.55238587178E+03  0.10100000352E+00 0. -1.
       -3    1    3    3    0  502 -0.29859804313E+02  0.26481113800E+03  0.12106064572E+04  0.12395904772E+04  0.10100000352E+00 0.  1.
</event>
<event>
 5   0  0.7221069E-02  0.6029235E+03  0.7818609E-02  0.9899359E-01
        1   -1    0    0  501    0  0.00000000000E+00  0.00000000000E+00  0.87173681488E+03  0.87173681490E+03  0.50400001928E-02 0.  1.
       -1   -1    0    0    0  501  0.00000000000E+00  0.00000000000E+00 -0.10425070387E+03  0.10425070399E+03  0.50400001928E-02 0. -1.
    10030    2    1    2    0    0  0.00000000000E+00  0.00000000000E+00  0.76748611101E+03  0.97598751889E+03  0.60292346648E+03 0.  0.
        5    1    3    3  502    0  0.43096443665E+02  0.29671856079E+03  0.33364309706E+03  0.44859671643E+03  0.46999998093E+01 0. -1.
       -5    1    3    3    0  502 -0.43096443665E+02 -0.29671856079E+03  0.43384301395E+03  0.52739080246E+03  0.46999998093E+01 0.  1.
</event>
<event>
 5   0  0.4695625E-02  0.5940318E+03  0.7818609E-02  0.9917866E-01
       -4   -1    0    0    0  501  0.00000000000E+00  0.00000000000E+00  0.16639264135E+04  0.16639268982E+04  0.12699999809E+01 0.  1.
        4   -1    0    0  501    0  0.00000000000E+00  0.00000000000E+00 -0.53010143299E+02  0.53025354242E+02  0.12699999809E+01 0. -1.
    10030    2    1    2    0    0  0.00000000000E+00  0.00000000000E+00  0.16109162702E+04  0.17169522524E+04  0.59403182360E+03 0.  0.
        4    1    3    3  502    0 -0.13966989729E+03  0.23624502955E+03  0.47721145340E+03  0.55050138815E+03  0.12699999809E+01 0. -1.
       -4    1    3    3    0  502  0.13966989729E+03 -0.23624502955E+03  0.11337048168E+04  0.11664508643E+04  0.12699999809E+01 0.  1.
</event>
<event>
 5   0  0.1146468E-01  0.6206690E+03  0.7818609E-02  0.9863429E-01
        2   -1    0    0  501    0  0.00000000000E+00  0.00000000000E+00  0.78518642570E+03  0.78518642571E+03  0.25500000920E-02 0. -1.
       -2   -1    0    0    0  501  0.00000000000E+00  0.00000000000E+00 -0.12265559523E+03  0.12265559526E+03  0.25500000920E-02 0.  1.
    10030    2    1    2    0    0  0.00000000000E+00  0.00000000000E+00  0.66253083047E+03  0.90784202096E+03  0.62066902106E+03 0.  0.
        4    1    3    3  502    0  0.77015794704E+02  0.17869768445E+03  0.68486460565E+03  0.71197291805E+03  0.12699999809E+01 0. -1.
       -4    1    3    3    0  502 -0.77015794704E+02 -0.17869768445E+03 -0.22333775177E+02  0.19586910291E+03  0.12699999809E+01 0.  1.
</event>
<event>
 5   0  0.1219020E-01  0.5504668E+03  0.7818609E-02  0.1001386E+00
       -2   -1    0    0    0  501  0.00000000000E+00  0.00000000000E+00  0.37048424749E+03  0.37048424750E+03  0.25500000920E-02 0. -1.
        2   -1    0    0  501    0  0.00000000000E+00  0.00000000000E+00 -0.20447138802E+03  0.20447138804E+03  0.25500000920E-02 0.  1.
    10030    2    1    2    0    0  0.00000000000E+00  0.00000000000E+00  0.16601285946E+03  0.57495563553E+03  0.55046681401E+03 0.  0.
        2    1    3    3  502    0  0.60837003817E+02  0.24003885277E+02  0.36225028136E+03  0.36810676969E+03  0.25500000920E-02 0. -1.
       -2    1    3    3    0  502 -0.60837003817E+02 -0.24003885277E+02 -0.19623742189E+03  0.20684886584E+03  0.25500000920E-02 0.  1.
</event>
<event>
 5   0  0.4695625E-02  0.6054196E+03  0.7818609E-02  0.9894225E-01
        4   -1    0    0  501    0  0.00000000000E+00  0.00000000000E+00  0.17526426189E+03  0.17526886317E+03  0.12699999809E+01 0. -1.
       -4   -1    0    0    0  501  0.00000000000E+00  0.00000000000E+00 -0.52281673647E+03  0.52281827898E+03  0.12699999809E+01 0.  1.
    10030    2    1    2    0    0  0.00000000000E+00  0.00000000000E+00 -0.34755247458E+03  0.69808714215E+03  0.60541963582E+03 0.  0.
        5    1    3    3  502    0 -0.43254925718E+02  0.29825542782E+03 -0.20605902383E+03  0.36511600913E+03  0.46999998093E+01 0. -1.
       -5    1    3    3    0  502  0.43254925718E+02 -0.29825542782E+03 -0.14149345075E+03  0.33297113302E+03  0.46999998093E+01 0.  1.
</event>
<event>
 5   0  0.1146468E-01  0.7470157E+03  0.7818609E-02  0.9640044E-01
       -2   -1    0    0    0  501  0.00000000000E+00  0.00000000000E+00  0.15998187882E+03  0.15998187884E+03  0.25500000920E-02 0.  1.
        2   -1    0    0  501    0  0.00000000000E+00  0.00000000000E+00 -0.87202453518E+03  0.87202453518E+03  0.25500000920E-02 0. -1.
    10030    2    1    2    0    0  0.00000000000E+00  0.00000000000E+00 -0.71204265636E+03  0.10320064140E+04  0.74701572547E+03 0.  0.
        4    1    3    3  502    0  0.13239471687E+03 -0.38802917061E+01 -0.83848749857E+03  0.84888533730E+03  0.12699999809E+01 0. -1.
       -4    1    3    3    0  502 -0.13239471687E+03  0.38802917061E+01  0.12644484221E+03  0.18312107672E+03  0.12699999809E+01 0.  1.
</event>
<event>
 5   0  0.1206238E-01  0.5872887E+03  0.7818609E-02  0.9932135E-01
        2   -1    0    0  501    0  0.00000000000E+00  0.00000000000E+00  0.19211935917E+03  0.19211935918E+03  0.25500000920E-02 0. -1.
       -2   -1    0    0    0  501  0.00000000000E+00  0.00000000000E+00 -0.44881999885E+03  0.44881999886E+03  0.25500000920E-02 0.  1.
    10030    2    1    2    0    0  0.00000000000E+00  0.00000000000E+00 -0.25670063968E+03  0.64093935804E+03  0.58728872139E+03 0.  0.
        5    1    3    3  502    0  0.18607125184E+03  0.18574241643E+03 -0.27098880931E+03  0.37759737921E+03  0.46999998093E+01 0.  1.
       -5    1    3    3    0  502 -0.18607125184E+03 -0.18574241643E+03  0.14288169626E+02  0.26334197882E+03  0.46999998093E+01 0. -1.
</event>
<event>
 5   0  0.1146468E-01  0.5730919E+03  0.7818609E-02  0.9962860E-01
       -2   -1    0    0    0  501  0.00000000000E+00  0.00000000000E+00  0.35766392177E+03  0.35766392178E+03  0.25500000920E-02 0. -1.
        2   -1    0    0  501    0  0.00000000000E+00  0.00000000000E+00 -0.22956908787E+03  0.22956908788E+03  0.25500000920E-02 0.  1.
    10030    2    1    2    0    0  0.00000000000E+00  0.00000000000E+00  0.12809483390E+03  0.58723300966E+03  0.57309189591E+03 0.  0.
        4    1    3    3  502    0 -0.20220555675E+02 -0.23325046311E+03  0.23332771084E+03  0.33054210467E+03  0.12699999809E+01 0. -1.
       -4    1    3    3    0  502  0.20220555675E+02  0.23325046311E+03 -0.10523287695E+03  0.25669090499E+03  0.12699999809E+01 0.  1.
</event>
<event>
 5   0  0.1219020E-01  0.5991279E+03  0.7818609E-02  0.9907217E-01
        2   -1    0    0  501    0  0.00000000000E+00  0.00000000000E+00  0.61064842157E+03  0.61064842158E+03  0.25500000920E-02 0.  1.
       -2   -1    0    0    0  501  0.00000000000E+00  0.00000000000E+00 -0.14695617500E+03  0.14695617502E+03  0.25500000920E-02 0. -1.
    10030    2    1    2    0    0  0.00000000000E+00  0.00000000000E+00  0.46369224658E+03  0.75760459660E+03  0.59912788723E+03 0.  0.
        2    1    3    3  502    0  0.16879136664E+02  0.38821248890E+02  0.60684718618E+03  0.60832187369E+03  0.25500000920E-02 0.  1.
       -2    1    3    3    0  502 -0.16879136664E+02 -0.38821248890E+02 -0.14315493961E+03  0.14928272291E+03  0.25500000920E-02 0. -1.
</event>
<event>
 5   0  0.4695625E-02  0.5944955E+03  0.7818609E-02  0.9916892E-01
        4   -1    0    0  501    0  0.00000000000E+00  0.00000000000E+00  0.21185594005E+03  0.21185974661E+03  0.12699999809E+01 0. -1.
       -4   -1    0    0    0  501  0.00000000000E+00  0.00000000000E+00 -0.41704946550E+03  0.41705139920E+03  0.12699999809E+01 0.  1.
    10030    2    1    2    0    0  0.00000000000E+00  0.00000000000E+00 -0.20519352545E+03  0.62891114580E+03  0.59449545535E+03 0.  0.
        2    1    3    3  502    0  0.10851646853E+03  0.27245007512E+03 -0.15389457677E+03  0.33119240351E+03  0.25500000920E-02 0.  1.
       -2    1    3    3    0  502 -0.10851646853E+03 -0.27245007512E+03 -0.51298948677E+02  0.29771874230E+03  0.25500000920E-02 0. -1.
</event>
<event>
 5   0  0.7263385E-02  0.5872033E+03  0.7818609E-02  0.9932317E-01
        1   -1    0    0  501    0  0.00000000000E+00  0.00000000000E+00  0.65576077283E+03  0.65576077285E+03  0.50400001928E-02 0.  1.
       -1   -1    0    0    0  501  0.00000000000E+00  0.00000000000E+00 -0.13145330781E+03  0.13145330791E+03  0.50400001928E-02 0. -1.
    10030    2    1    2    0    0  0.00000000000E+00  0.00000000000E+00  0.52430746502E+03  0.78721408076E+03  0.58720327917E+03 0.  0.
        1    1    3    3  502    0  0.10679445838E+02 -0.25126233264E+03  0.59037752287E+02  0.25832589221E+03  0.50400001928E-02 0. -1.
       -1    1    3    3    0  502 -0.10679445838E+02  0.25126233264E+03  0.46526971274E+03  0.52888818855E+03  0.50400001928E-02 0.  1.
</event>
<event>
 5   0  0.1175861E-01  0.6019305E+03  0.7818609E-02  0.9901409E-01
        2   -1    0    0  501    0  0.00000000000E+00  0.00000000000E+00  0.62955597863E+03  0.62955597864E+03  0.25500000920E-02 0.  1.
       -2   -1    0    0    0  501  0.00000000000E+00  0.00000000000E+00 -0.14387933351E+03  0.14387933353E+03  0.25500000920E-02 0. -1.
    10030    2    1    2    0    0  0.00000000000E+00  0.00000000000E+00  0.48567664512E+03  0.77343531217E+03  0.60193054291E+03 0.  0.
        3    1    3    3  502    0  0.29443208725E+03 -0.10083250020E+02  0.16375376555E+03  0.33705671906E+03  0.10100000352E+00 0.  1.
       -3    1    3    3    0  502 -0.29443208725E+03  0.10083250020E+02  0.32192287957E+03  0.43637859311E+03  0.10100000352E+00 0. -1.
</event>
<event>
 5   0  0.7263385E-02  0.6039266E+03  0.7818609E-02  0.9897293E-01
       -1   -1    0    0    0  501  0.00000000000E+00  0.00000000000E+00  0.23042123536E+03  0.23042123542E+03  0.50400001928E-02 0. -1.
        1   -1    0    0  501    0  0.00000000000E+00  0.00000000000E+00 -0.39571805877E+03  0.39571805880E+03  0.50400001928E-02 0.  1.
    10030    2    1    2    0    0  0.00000000000E+00  0.00000000000E+00 -0.16529682341E+03  0.62613929422E+03  0.60392663125E+03 0.  0.
        1    1    3    3  502    0 -0.85892549927E+02  0.18620978045E+03 -0.31245431650E+03  0.37373695615E+03  0.50400001928E-02 0.  1.
       -1    1    3    3    0  502  0.85892549927E+02 -0.18620978045E+03  0.14715749309E+03  0.25240233807E+03  0.50400001928E-02 0. -1.
</event>
<event>
 5   0  0.1219020E-01  0.7854320E+03  0.7818609E-02  0.9581346E-01
       -2   -1    0    0    0  501  0.00000000000E+00  0.00000000000E+00  0.47906770587E+03  0.47906770588E+03  0.25500000920E-02 0. -1.
        2   -1    0    0  501    0  0.00000000000E+00  0.00000000000E+00 -0.32192915232E+03  0.32192915233E+03  0.25500000920E-02 0.  1.
    10030    2    1    2    0    0  0.00000000000E+00  0.00000000000E+00  0.15713855355E+03  0.80099685821E+03  0.78543200970E+03 0.  0.
        2    1    3    3  502    0  0.13175813591E+03  0.36794412959E+03  0.11783913582E+03  0.40820234053E+03  0.25500000920E-02 0. -1.
       -2    1    3    3    0  502 -0.13175813591E+03 -0.36794412959E+03  0.39299417733E+02  0.39279451768E+03  0.25500000920E-02 0.  1.
</event>
<event>
 5   0  0.1206238E-01  0.5758196E+03  0.7818609E-02  0.9956883E-01
        2   -1    0    0  501    0  0.00000000000E+00  0.00000000000E+00  0.16881776573E+03  0.16881776575E+03  0.25500000920E-02 0. -1.
       -2   -1    0    0    0  501  0.00000000000E+00  0.00000000000E+00 -0.49101502877E+03  0.49101502877E+03  0.25500000920E-02 0.  1.
    10030    2    1    2    0    0  0.00000000000E+00  0.00000000000E+00 -0.32219726304E+03  0.65983279452E+03  0.57581962490E+03 0.  0.
        5    1    3    3  502    0  0.17078995989E+03 -0.13046619281E+03  0.58362768174E+02  0.22275309330E+03  0.46999998093E+01 0. -1.
       -5    1    3    3    0  502 -0.17078995989E+03  0.13046619281E+03 -0.38056003121E+03  0.43707970122E+03  0.46999998093E+01 0.  1.
</event>
<event>
 5   0  0.7263385E-02  0.6112807E+03  0.7818609E-02  0.9882275E-01
        1   -1    0    0  501    0  0.00000000000E+00  0.00000000000E+00  0.26456971930E+03  0.26456971935E+03  0.50400001928E-02 0.  1.
       -1   -1    0    0    0  501  0.00000000000E+00  0.00000000000E+00 -0.35308657805E+03  0.35308657809E+03  0.50400001928E-02 0. -1.
    10030    2    1    2    0    0  0.00000000000E+00  0.00000000000E+00 -0.88516858753E+02  0.61765629743E+03  0.61128067815E+03 0.  0.
        1    1    3    3  502    0  0.75060656806E+02 -0.11936275623E+03  0.22974223812E+03  0.26956087583E+03  0.50400001928E-02 0.  1.
       -1    1    3    3    0  502 -0.75060656806E+02  0.11936275623E+03 -0.31825909687E+03  0.34809542161E+03  0.50400001928E-02 0. -1.
</event>
<event>
 5   0  0.7266519E-02  0.6046197E+03  0.7818609E-02  0.9895868E-01
       -1   -1    0    0    0  501  0.00000000000E+00  0.00000000000E+00  0.32405497502E+03  0.32405497506E+03  0.50400001928E-02 0. -1.
        1   -1    0    0  501    0  0.00000000000E+00  0.00000000000E+00 -0.28202388161E+03  0.28202388166E+03  0.50400001928E-02 0.  1.
    10030    2    1    2    0    0  0.00000000000E+00  0.00000000000E+00  0.42031093407E+02  0.60607885671E+03  0.60461968852E+03 0.  0.
        4    1    3    3  502    0 -0.89588095169E+02  0.20488022952E+03 -0.18291508390E+03  0.28889699905E+03  0.12699999809E+01 0.  1.
       -4    1    3    3    0  502  0.89588095169E+02 -0.20488022952E+03  0.22494617731E+03  0.31718185766E+03  0.12699999809E+01 0. -1.
</event>
<event>
 5   0  0.7424930E-02  0.6038170E+03  0.7818609E-02  0.9897519E-01
        1   -1    0    0  501    0  0.00000000000E+00  0.00000000000E+00  0.35163045660E+03  0.35163045664E+03  0.50400001928E-02 0.  1.
       -1   -1    0    0    0  501  0.00000000000E+00  0.00000000000E+00 -0.25921741788E+03  0.25921741793E+03  0.50400001928E-02 0. -1.
    10030    2    1    2    0    0  0.00000000000E+00  0.00000000000E+00  0.92413038724E+02  0.61084787457E+03  0.60381698895E+03 0.  0.
        3    1    3    3  502    0 -0.52476552461E+02  0.65236572666E+02 -0.24723850305E+03  0.26102966606E+03  0.10100000352E+00 0. -1.
       -3    1    3    3    0  502  0.52476552461E+02 -0.65236572666E+02  0.33965154178E+03  0.34981820851E+03  0.10100000352E+00 0.  1.
</event>
<event>
 5   0  0.4695625E-02  0.6123307E+03  0.7818609E-02  0.9880149E-01
        3   -1    0    0  501    0  0.00000000000E+00  0.00000000000E+00  0.10237174592E+04  0.10237174642E+04  0.10100000352E+00 0.  1.
       -3   -1    0    0    0  501  0.00000000000E+00  0.00000000000E+00 -0.91565478926E+02  0.91565534629E+02  0.10100000352E+00 0. -1.
    10030    2    1    2    0    0  0.00000000000E+00  0.00000000000E+00  0.93215198026E+03  0.11152829988E+04  0.61233067301E+03 0.  0.
        2    1    3    3  502    0 -0.29723885439E+03  0.35226045192E+02  0.34880720744E+03  0.45962841382E+03  0.25500000920E-02 0. -1.
       -2    1    3    3    0  502  0.29723885439E+03 -0.35226045192E+02  0.58334477283E+03  0.65565458499E+03  0.25500000920E-02 0.  1.
</event>
<event>
 5   0  0.7221069E-02  0.5541165E+03  0.7818609E-02  0.1000546E+00
       -1   -1    0    0    0  501  0.00000000000E+00  0.00000000000E+00  0.84181462869E+03  0.84181462871E+03  0.50400001928E-02 0.  1.
        1   -1    0    0  501    0  0.00000000000E+00  0.00000000000E+00 -0.91185483439E+02  0.91185483578E+02  0.50400001928E-02 0. -1.
    10030    2    1    2    0    0  0.00000000000E+00  0.00000000000E+00  0.75062914525E+03  0.93300011228E+03  0.55411650022E+03 0.  0.
        5    1    3    3  502    0 -0.26068750010E+03 -0.57226816517E+02  0.50025720606E+03  0.56702049650E+03  0.46999998093E+01 0.  1.
       -5    1    3    3    0  502  0.26068750010E+03  0.57226816517E+02  0.25037193919E+03  0.36597961578E+03  0.46999998093E+01 0. -1.
</event>
<event>
 5   0  0.7424930E-02  0.5792134E+03  0.7818609E-02  0.9949495E-01
        1   -1    0    0  501    0  0.00000000000E+00  0.00000000000E+00  0.91968614955E+03  0.91968614957E+03  0.50400001928E-02 0. -1.
       -1   -1    0    0    0  501  0.00000000000E+00  0.00000000000E+00 -0.91196373996E+02  0.91196374136E+02  0.50400001928E-02 0.  1.
    10030    2    1    2    0    0  0.00000000000E+00  0.00000000000E+00  0.82848977555E+03  0.10108825237E+04  0.57921340499E+03 0.  0.
        3    1    3    3  502    0  0.23581999119E+03 -0.16414179630E+03  0.35087377321E+03  0.45350414824E+03  0.10100000352E+00 0. -1.
       -3    1    3    3    0  502 -0.23581999119E+03  0.16414179630E+03  0.47761600235E+03  0.55737837547E+03  0.10100000352E+00 0.  1.
</event>
<event>
 5   0  0.1206238E-01  0.5985436E+03  0.7818609E-02  0.9908432E-01
        2   -1    0    0  501    0  0.00000000000E+00  0.00000000000E+00  0.10770122791E+04  0.10770122791E+04  0.25500000920E-02 0. -1.
       -2   -1    0    0    0  501  0.00000000000E+00  0.00000000000E+00 -0.83159309118E+02  0.83159309158E+02  0.25500000920E-02 0.  1.
    10030    2    1    2    0    0  0.00000000000E+00  0.00000000000E+00  0.99385297002E+03  0.11601715883E+04  0.59854355587E+03 0.  0.
        5    1    3    3  502    0  0.16239796897E+03 -0.18899882017E+03  0.17579665183E+03  0.30499214276E+03  0.46999998093E+01 0.  1.
       -5    1    3    3    0  502 -0.16239796897E+03  0.18899882017E+03  0.81805631818E+03  0.85517944554E+03  0.46999998093E+01 0. -1.
</event>
<event>
 5   0  0.4695625E-02  0.5868989E+03  0.7818609E-02  0.9932966E-01
        3   -1    0    0  501    0  0.00000000000E+00  0.00000000000E+00  0.35624706240E+03  0.35624707671E+03  0.10100000352E+00 0.  1.
       -3   -1    0    0    0  501  0.00000000000E+00  0.00000000000E+00 -0.24172149884E+03  0.24172151994E+03  0.10100000352E+00 0. -1.
    10030    2    1    2    0    0  0.00000000000E+00  0.00000000000E+00  0.11452556355E+03  0.59796859665E+03  0.58689891623E+03 0.  0.
        5    1    3    3  502    0  0.22669902709E+03 -0.18477727143E+03  0.33251232731E+02  0.29438550133E+03  0.46999998093E+01 0. -1.
       -5    1    3    3    0  502 -0.22669902709E+03  0.18477727143E+03  0.81274330824E+02  0.30358309532E+03  0.46999998093E+01 0.  1.
</event>
<event>
 5   0  0.7221069E-02  0.5983093E+03  0.7818609E-02  0.9908920E-01
       -1   -1    0    0    0  501  0.00000000000E+00  0.00000000000E+00  0.80555563850E+03  0.80555563852E+03  0.50400001928E-02 0.  1.
        1   -1    0    0  501    0  0.00000000000E+00  0.00000000000E+00 -0.11109538544E+03  0.11109538556E+03  0.50400001928E-02 0. -1.
    10030    2    1    2    0    0  0.00000000000E+00  0.00000000000E+00  0.69446025306E+03  0.91665102407E+03  0.59830933208E+03 0.  0.
        5    1    3    3  502    0  0.20259883561E+03  0.10315506753E+02  0.68400213748E+03  0.71346598513E+03  0.46999998093E+01 0.  1.
       -5    1    3    3    0  502 -0.20259883561E+03 -0.10315506753E+02  0.10458115582E+02  0.20318503894E+03  0.46999998093E+01 0. -1.
</event>
<event>
 5   0  0.1206238E-01  0.5476389E+03  0.7818609E-02  0.1002042E+00
        2   -1    0    0  501    0  0.00000000000E+00  0.00000000000E+00  0.21653583046E+03  0.21653583048E+03  0.25500000920E-02 0. -1.
       -2   -1    0    0    0  501  0.00000000000E+00  0.00000000000E+00 -0.34625717494E+03  0.34625717495E+03  0.25500000920E-02 0.  1.
    10030    2    1    2    0    0  0.00000000000E+00  0.00000000000E+00 -0.12972134448E+03  0.56279300542E+03  0.54763887713E+03 0.  0.
        5    1    3    3  502    0  0.24084017289E+03  0.56281482260E+02  0.55790796361E+02  0.25358686299E+03  0.46999998093E+01 0. -1.
       -5    1    3    3    0  502 -0.24084017289E+03 -0.56281482260E+02 -0.18551214084E+03  0.30920614244E+03  0.46999998093E+01 0.  1.
</event>
<event>
 5   0  0.7266519E-02  0.6024958E+03  0.7818609E-02  0.9900242E-01
        1   -1    0    0  501    0  0.00000000000E+00  0.00000000000E+00  0.19401087018E+03  0.19401087025E+03  0.50400001928E-02 0. -1.
       -1   -1    0    0    0  501  0.00000000000E+00  0.00000000000E+00 -0.46775882352E+03  0.46775882355E+03  0.50400001928E-02 0.  1.
    10030    2    1    2    0    0  0.00000000000E+00  0.00000000000E+00 -0.27374795334E+03  0.66176969379E+03  0.60249579722E+03 0.  0.
        4    1    3    3  502    0  0.14129251299E+01  0.89317996001E+02 -0.45287367026E+03  0.46160142426E+03  0.12699999809E+01 0.  1.
       -4    1    3    3    0  502 -0.14129251299E+01 -0.89317996001E+02  0.17912571692E+03  0.20016826953E+03  0.12699999809E+01 0. -1.
</event>
<event>
 5   0  0.7221069E-02  0.5941867E+03  0.7818609E-02  0.9917541E-01
        1   -1    0    0  501    0  0.00000000000E+00  0.00000000000E+00  0.15098316827E+04  0.15098316827E+04  0.50400001928E-02 0. -1.
       -1   -1    0    0    0  501  0.00000000000E+00  0.00000000000E+00 -0.58459792111E+02  0.58459792328E+02  0.50400001928E-02 0.  1.
    10030    2    1    2    0    0  0.00000000000E+00  0.00000000000E+00  0.14513718906E+04  0.15682914750E+04  0.59418665912E+03 0.  0.
        5    1    3    3  502    0 -0.24843344146E+03 -0.15816463977E+03  0.62322012845E+03  0.68931897306E+03  0.46999998093E+01 0.  1.
       -5    1    3    3    0  502  0.24843344146E+03  0.15816463977E+03  0.82815176212E+03  0.87897250196E+03  0.46999998093E+01 0. -1.
</event>
<event>
 5   0  0.1175861E-01  0.6007234E+03  0.7818609E-02  0.9903906E-01
       -2   -1    0    0    0  501  0.00000000000E+00  0.00000000000E+00  0.65617427884E+02  0.65617427934E+02  0.25500000920E-02 0. -1.
        2   -1    0    0  501    0  0.00000000000E+00  0.00000000000E+00 -0.13748959963E+04  0.13748959963E+04  0.25500000920E-02 0.  1.
    10030    2    1    2    0    0  0.00000000000E+00  0.00000000000E+00 -0.13092785684E+04  0.14405134242E+04  0.60072336037E+03 0.  0.
        3    1    3    3  502    0  0.11797199980E+03 -0.32641271183E+02 -0.13123738767E+04  0.13180698190E+04  0.10100000352E+00 0.  1.
       -3    1    3    3    0  502 -0.11797199980E+03  0.32641271183E+02  0.30953083071E+01  0.12244360521E+03  0.10100000352E+00 0. -1.
</event>
<event>
 5   0  0.1206238E-01  0.5896654E+03  0.7818609E-02  0.9927082E-01
       -2   -1    0    0    0  501  0.00000000000E+00  0.00000000000E+00  0.86971692742E+02  0.86971692779E+02  0.25500000920E-02 0.  1.
        2   -1    0    0  501    0  0.00000000000E+00  0.00000000000E+00 -0.99947843954E+03  0.99947843954E+03  0.25500000920E-02 0. -1.
    10030    2    1    2    0    0  0.00000000000E+00  0.00000000000E+00 -0.91250674680E+03  0.10864501323E+04  0.58966543656E+03 0.  0.
        5    1    3    3  502    0  0.60291344432E+02 -0.27194097650E+03 -0.27840529196E+03  0.39385090771E+03  0.46999998093E+01 0.  1.
       -5    1    3    3    0  502 -0.60291344432E+02  0.27194097650E+03 -0.63410145484E+03  0.69259922461E+03  0.46999998093E+01 0. -1.
</event>
<event>
 5   0  0.4695625E-02  0.5972466E+03  0.7818609E-02  0.9911135E-01
        3   -1    0    0  501    0  0.00000000000E+00  0.00000000000E+00  0.35393570036E+03  0.35393571477E+03  0.10100000352E+00 0. -1.
       -3   -1    0    0    0  501  0.00000000000E+00  0.00000000000E+00 -0.25195500086E+03  0.25195502110E+03  0.10100000352E+00 0.  1.
    10030    2    1    2    0    0  0.00000000000E+00  0.00000000000E+00  0.10198069950E+03  0.60589073588E+03  0.59724661636E+03 0.  0.
        2    1    3    3  502    0  0.87945375223E+02 -0.28009294188E+03 -0.44767140452E+01  0.29360941076E+03  0.25500000920E-02 0.  1.
       -2    1    3    3    0  502 -0.87945375223E+02  0.28009294188E+03  0.10645741355E+03  0.31228132512E+03  0.25500000920E-02 0. -1.
</event>
<event>
 5   0  0.1146468E-01  0.5933412E+03  0.7818609E-02  0.9919318E-01
        2   -1    0    0  501    0  0.00000000000E+00  0.00000000000E+00  0.91127080256E+03  0.91127080256E+03  0.25500000920E-02 0.  1.
       -2   -1    0    0    0  501  0.00000000000E+00  0.00000000000E+00 -0.96583193912E+02  0.96583193946E+02  0.25500000920E-02 0. -1.
    10030    2    1    2    0    0  0.00000000000E+00  0.00000000000E+00  0.81468760865E+03  0.10078539965E+04  0.59334119914E+03 0.  0.
        4    1    3    3  502    0  0.28298752273E+03  0.55871682144E+02  0.28955972650E+03  0.40871754428E+03  0.12699999809E+01 0. -1.
       -4    1    3    3    0  502 -0.28298752273E+03 -0.55871682144E+02  0.52512788215E+03  0.59913645223E+03  0.12699999809E+01 0.  1.
</event>
<event>
 5   0  0.7263385E-02  0.5428361E+03  0.7818609E-02  0.1003166E+00
       -1   -1    0    0    0  501  0.00000000000E+00  0.00000000000E+00  0.56309592854E+03  0.56309592857E+03  0.50400001928E-02 0. -1.
        1   -1    0    0  501    0  0.00000000000E+00  0.00000000000E+00 -0.13082631323E+03  0.13082631333E+03  0.50400001928E-02 0.  1.
    10030    2    1    2    0    0  0.00000000000E+00  0.00000000000E+00  0.43226961531E+03  0.69392224189E+03  0.54283612396E+03 0.  0.
        1    1    3    3  502    0 -0.31367643692E+02  0.20030627394E+03  0.44680553270E+03  0.49065437584E+03  0.50400001928E-02 0. -1.
       -1    1    3    3    0  502  0.31367643692E+02 -0.20030627394E+03 -0.14535917391E+02  0.20326786606E+03  0.50400001928E-02 0.  1.
</event>
<event>
 5   0  0.7123340E-02  0.5290377E+03  0.7818609E-02  0.1006466E+00
       -1   -1    0    0    0  501  0.00000000000E+00  0.00000000000E+00  0.79682859566E+02  0.79682859726E+02  0.50400001928E-02 0. -1.
        1   -1    0    0  501    0  0.00000000000E+00  0.00000000000E+00 -0.87810889471E+03  0.87810889472E+03  0.50400001928E-02 0.  1.
    10030    2    1    2    0    0  0.00000000000E+00  0.00000000000E+00 -0.79842603514E+03  0.95779175445E+03  0.52903772200E+03 0.  0.
        2    1    3    3  502    0 -0.20498840809E+03 -0.12672992025E+03 -0.59662176374E+03  0.64345803990E+03  0.25500000920E-02 0.  1.
       -2    1    3    3    0  502  0.20498840809E+03  0.12672992025E+03 -0.20180427140E+03  0.31433371454E+03  0.25500000920E-02 0. -1.
</event>
<event>
 5   0  0.7266519E-02  0.6091684E+03  0.7818609E-02  0.9886565E-01
       -1   -1    0    0    0  501  0.00000000000E+00  0.00000000000E+00  0.50860800446E+03  0.50860800448E+03  0.50400001928E-02 0.  1.
        1   -1    0    0  501    0  0.00000000000E+00  0.00000000000E+00 -0.18240283358E+03  0.18240283365E+03  0.50400001928E-02 0. -1.
    10030    2    1    2    0    0  0.00000000000E+00  0.00000000000E+00  0.32620517088E+03  0.69101083813E+03  0.60916842080E+03 0.  0.
        4    1    3    3  502    0 -0.17012752544E+03 -0.18358591717E+03  0.35997954345E+03  0.43844503475E+03  0.12699999809E+01 0.  1.
       -4    1    3    3    0  502  0.17012752544E+03  0.18358591717E+03 -0.33774372565E+02  0.25256580338E+03  0.12699999809E+01 0. -1.
</event>
<event>
 5   0  0.7266519E-02  0.5847723E+03  0.7818609E-02  0.9937512E-01
        1   -1    0    0  501    0  0.00000000000E+00  0.00000000000E+00  0.73671102353E+03  0.73671102355E+03  0.50400001928E-02 0.  1.
       -1   -1    0    0    0  501  0.00000000000E+00  0.00000000000E+00 -0.11604233030E+03  0.11604233041E+03  0.50400001928E-02 0. -1.
    10030    2    1    2    0    0  0.00000000000E+00  0.00000000000E+00  0.62066869323E+03  0.85275335396E+03  0.58477231119E+03 0.  0.
        4    1    3    3  502    0 -0.51364782647E+02 -0.27986016648E+02  0.72808734248E+03  0.73043435654E+03  0.12699999809E+01 0.  1.
       -4    1    3    3    0  502  0.51364782647E+02  0.27986016648E+02 -0.10741864925E+03  0.12231899743E+03  0.12699999809E+01 0. -1.
</event>
<event>
 5   0  0.7263385E-02  0.6029090E+03  0.7818609E-02  0.9899389E-01
       -1   -1    0    0    0  501  0.00000000000E+00  0.00000000000E+00  0.40666623259E+03  0.40666623262E+03  0.50400001928E-02 0.  1.
        1   -1    0    0  501    0  0.00000000000E+00  0.00000000000E+00 -0.22346287833E+03  0.22346287839E+03  0.50400001928E-02 0. -1.
    10030    2    1    2    0    0  0.00000000000E+00  0.00000000000E+00  0.18320335426E+03  0.63012911100E+03  0.60290897118E+03 0.  0.
        1    1    3    3  502    0 -0.17061382789E+02 -0.29177379258E+03  0.14432021561E+02  0.29262829681E+03  0.50400001928E-02 0.  1.
       -1    1    3    3    0  502  0.17061382789E+02  0.29177379258E+03  0.16877133270E+03  0.33750081420E+03  0.50400001928E-02 0. -1.
</event>
<event>
 5   0  0.7221069E-02  0.6027855E+03  0.7818609E-02  0.9899644E-01
        1   -1    0    0  501    0  0.00000000000E+00  0.00000000000E+00  0.18449469219E+03  0.18449469226E+03  0.50400001928E-02 0. -1.
       -1   -1    0    0    0  501  0.00000000000E+00  0.00000000000E+00 -0.49235878785E+03  0.49235878787E+03  0.50400001928E-02 0.  1.
    10030    2    1    2    0    0  0.00000000000E+00  0.00000000000E+00 -0.30786409566E+03  0.67685348014E+03  0.60278547774E+03 0.  0.
        5    1    3    3  502    0  0.18737229205E+02 -0.29793057112E+03 -0.10761038789E+03  0.31735751849E+03  0.46999998093E+01 0. -1.
       -5    1    3    3    0  502 -0.18737229205E+02  0.29793057112E+03 -0.20025370777E+03  0.35949596164E+03  0.46999998093E+01 0.  1.
</event>
<event>
 5   0  0.1146468E-01  0.6118206E+03  0.7818609E-02  0.9881181E-01
       -2   -1    0    0    0  501  0.00000000000E+00  0.00000000000E+00  0.15347921824E+03  0.15347921826E+03  0.25500000920E-02 0.  1.
        2   -1    0    0  501    0  0.00000000000E+00  0.00000000000E+00 -0.60973157302E+03  0.60973157302E+03  0.25500000920E-02 0. -1.
    10030    2    1    2    0    0  0.00000000000E+00  0.00000000000E+00 -0.45625235478E+03  0.76321079128E+03  0.61182064422E+03 0.  0.
        4    1    3    3  502    0  0.11023028242E+03  0.26089059386E+03 -0.37233875965E+03  0.46781661146E+03  0.12699999809E+01 0. -1.
       -4    1    3    3    0  502 -0.11023028242E+03 -0.26089059386E+03 -0.83913595128E+02  0.29539417982E+03  0.12699999809E+01 0.  1.
</event>
<event>
 5   0  0.7221069E-02  0.5345271E+03  0.7818609E-02  0.1005140E+00
       -1   -1    0    0    0  501  0.00000000000E+00  0.00000000000E+00  0.11319359431E+03  0.11319359443E+03  0.50400001928E-02 0.  1.
        1   -1    0    0  501    0  0.00000000000E+00  0.00000000000E+00 -0.63104105967E+03  0.63104105969E+03  0.50400001928E-02 0. -1.
    10030    2    1    2    0    0  0.00000000000E+00  0.00000000000E+00 -0.51784746536E+03  0.74423465412E+03  0.53452710223E+03 0.  0.
        5    1    3    3  502    0 -0.22480301090E+03  0.10123470666E+03 -0.11542078906E+03  0.27226624486E+03  0.46999998093E+01 0.  1.
       -5    1    3    3    0  502  0.22480301090E+03 -0.10123470666E+03 -0.40242667630E+03  0.47196840926E+03  0.46999998093E+01 0. -1.
</event>
<event>
 5   0  0.1146468E-01  0.5936313E+03  0.7818609E-02  0.9918708E-01
        2   -1    0    0  501    0  0.00000000000E+00  0.00000000000E+00  0.38364085596E+03  0.38364085597E+03  0.25500000920E-02 0.  1.
       -2   -1    0    0    0  501  0.00000000000E+00  0.00000000000E+00 -0.22964061104E+03  0.22964061106E+03  0.25500000920E-02 0. -1.
    10030    2    1    2    0    0  0.00000000000E+00  0.00000000000E+00  0.15400024492E+03  0.61328146703E+03  0.59363126801E+03 0.  0.
        4    1    3    3  502    0 -0.18839971069E+03  0.54630089821E+02 -0.15312663595E+03  0.24885392752E+03  0.12699999809E+01 0. -1.
       -4    1    3    3    0  502  0.18839971069E+03 -0.54630089821E+02  0.30712688087E+03  0.36442753951E+03  0.12699999809E+01 0.  1.
</event>
<event>
 5   0  0.7263385E-02  0.5974780E+03  0.7818609E-02  0.9910652E-01
       -1   -1    0    0    0  501  0.00000000000E+00  0.00000000000E+00  0.51780257522E+03  0.51780257525E+03  0.50400001928E-02 0.  1.
        1   -1    0    0  501    0  0.00000000000E+00  0.00000000000E+00 -0.17235328973E+03  0.17235328981E+03  0.50400001928E-02 0. -1.
    10030    2    1    2    0    0  0.00000000000E+00  0.00000000000E+00  0.34544928549E+03  0.69015586506E+03  0.59747795710E+03 0.  0.
        1    1    3    3  502    0  0.63970578518E+02  0.20145708453E+03 -0.71132692124E+02  0.22301805250E+03  0.50400001928E-02 0. -1.
       -1    1    3    3    0  502 -0.63970578518E+02 -0.20145708453E+03  0.41658197762E+03  0.46713781256E+03  0.50400001928E-02 0.  1.
</event>
<event>
 5   0  0.4695625E-02  0.5981985E+03  0.7818609E-02  0.9909151E-01
        3   -1    0    0  501    0  0.00000000000E+00  0.00000000000E+00  0.18664723681E+03  0.18664726414E+03  0.10100000352E+00 0.  1.
       -3   -1    0    0    0  501  0.00000000000E+00  0.00000000000E+00 -0.47930182594E+03  0.47930183658E+03  0.10100000352E+00 0. -1.
    10030    2    1    2    0    0  0.00000000000E+00  0.00000000000E+00 -0.29265458913E+03  0.66594910072E+03  0.59819854246E+03 0.  0.
        1    1    3    3  502    0  0.28901570652E+03 -0.39732229003E+02 -0.72889024953E+02  0.30070174363E+03  0.50400001928E-02 0.  1.
       -1    1    3    3    0  502 -0.28901570652E+03  0.39732229003E+02 -0.21976556418E+03  0.36524735709E+03  0.50400001928E-02 0. -1.
</event>
<event>
 5   0  0.1166419E-01  0.5911307E+03  0.7818609E-02  0.9923980E-01
       -2   -1    0    0    0  501  0.00000000000E+00  0.00000000000E+00  0.67747253417E+02  0.67747253465E+02  0.25500000920E-02 0. -1.
        2   -1    0    0  501    0  0.00000000000E+00  0.00000000000E+00 -0.12894823590E+04  0.12894823590E+04  0.25500000920E-02 0.  1.
    10030    2    1    2    0    0  0.00000000000E+00  0.00000000000E+00 -0.12217351056E+04  0.13572296124E+04  0.59113074082E+03 0.  0.
        1    1    3    3  502    0  0.25283458163E+03  0.15227966921E+03 -0.64676619155E+03  0.71092962372E+03  0.50400001928E-02 0. -1.
       -1    1    3    3    0  502 -0.25283458163E+03 -0.15227966921E+03 -0.57496891401E+03  0.64629998872E+03  0.50400001928E-02 0.  1.
</event>
<event>
 5   0  0.7424930E-02  0.5765702E+03  0.7818609E-02  0.9955244E-01
        1   -1    0    0  501    0  0.00000000000E+00  0.00000000000E+00  0.94352579820E+03  0.94352579821E+03  0.50400001928E-02 0. -1.
       -1   -1    0    0    0  501  0.00000000000E+00  0.00000000000E+00 -0.88082704114E+02  0.88082704259E+02  0.50400001928E-02 0.  1.
    10030    2    1    2    0    0  0.00000000000E+00  0.00000000000E+00  0.85544309408E+03  0.10316085025E+04  0.57657021702E+03 0.  0.
        3    1    3    3  502    0 -0.83849289811E+02  0.20250214270E+03  0.92653113113E+02  0.23795468217E+03  0.10100000352E+00 0.  1.
       -3    1    3    3    0  502  0.83849289811E+02 -0.20250214270E+03  0.76278998097E+03  0.79365382029E+03  0.10100000352E+00 0. -1.
</event>
<event>
 5   0  0.1219020E-01  0.6094527E+03  0.7818609E-02  0.9885986E-01
        2   -1    0    0  501    0  0.00000000000E+00  0.00000000000E+00  0.25141072286E+04  0.25141072286E+04  0.25500000920E-02 0.  1.
       -2   -1    0    0    0  501  0.00000000000E+00  0.00000000000E+00 -0.36934839686E+02  0.36934839774E+02  0.25500000920E-02 0. -1.
    10030    2    1    2    0    0  0.00000000000E+00  0.00000000000E+00  0.24771723889E+04  0.25510420683E+04  0.60945269727E+03 0.  0.
        2    1    3    3  502    0 -0.15552936022E+03  0.49884470308E+02  0.23154034345E+04  0.23211572344E+04  0.25500000920E-02 0.  1.
       -2    1    3    3    0  502  0.15552936022E+03 -0.49884470308E+02  0.16176895437E+03  0.22988483393E+03  0.25500000920E-02 0. -1.
</event>
<event>
 5   0  0.7263385E-02  0.5420792E+03  0.7818609E-02  0.1003344E+00
        1   -1    0    0  501    0  0.00000000000E+00  0.00000000000E+00  0.10556233037E+04  0.10556233037E+04  0.50400001928E-02 0. -1.
       -1   -1    0    0    0  501  0.00000000000E+00  0.00000000000E+00 -0.69591552860E+02  0.69591553043E+02  0.50400001928E-02 0.  1.
    10030    2    1    2    0    0  0.00000000000E+00  0.00000000000E+00  0.98603175080E+03  0.11252148567E+04  0.54207920103E+03 0.  0.
        1    1    3    3  502    0 -0.79479192374E+02 -0.36697499582E+02  0.10254694594E+04  0.10291993299E+04  0.50400001928E-02 0. -1.
       -1    1    3    3    0  502  0.79479192374E+02  0.36697499582E+02 -0.39437708626E+02  0.96015526781E+02  0.50400001928E-02 0.  1.
</event>
<event>
 5   0  0.7424930E-02  0.6041565E+03  0.7818609E-02  0.9896820E-01
        1   -1    0    0  501    0  0.00000000000E+00  0.00000000000E+00  0.74334227452E+03  0.74334227454E+03  0.50400001928E-02 0. -1.
       -1   -1    0    0    0  501  0.00000000000E+00  0.00000000000E+00 -0.12275808856E+03  0.12275808867E+03  0.50400001928E-02 0.  1.
    10030    2    1    2    0    0  0.00000000000E+00  0.00000000000E+00  0.62058418596E+03  0.86610036321E+03  0.60415652548E+03 0.  0.
        3    1    3    3  502    0 -0.20498181014E+03 -0.12377061809E+03  0.46287287398E+02  0.24388364350E+03  0.10100000352E+00 0.  1.
       -3    1    3    3    0  502  0.20498181014E+03  0.12377061809E+03  0.57429689856E+03  0.62221671971E+03  0.10100000352E+00 0. -1.
</event>
<event>
 5   0  0.7263385E-02  0.5834238E+03  0.7818609E-02  0.9940406E-01
        1   -1    0    0  501    0  0.00000000000E+00  0.00000000000E+00  0.82240961800E+02  0.82240961955E+02  0.50400001928E-02 0. -1.
       -1   -1    0    0    0  501  0.00000000000E+00  0.00000000000E+00 -0.10347134763E+04  0.10347134763E+04  0.50400001928E-02 0.  1.
    10030    2    1    2    0    0  0.00000000000E+00  0.00000000000E+00 -0.95247251452E+03  0.11169544383E+04  0.58342379648E+03 0.  0.
        1    1    3    3  502    0 -0.86032346877E+02  0.13668462202E+03 -0.11164524181E+02  0.16189162187E+03  0.50400001928E-02 0. -1.
       -1    1    3    3    0  502  0.86032346877E+02 -0.13668462202E+03 -0.94130799034E+03  0.95506281642E+03  0.50400001928E-02 0.  1.
</event>
<event>
 5   0  0.1206238E-01  0.5727544E+03  0.7818609E-02  0.9963602E-01
        2   -1    0    0  501    0  0.00000000000E+00  0.00000000000E+00  0.82058484395E+03  0.82058484395E+03  0.25500000920E-02 0.  1.
       -2   -1    0    0    0  501  0.00000000000E+00  0.00000000000E+00 -0.99943223447E+02  0.99943223480E+02  0.25500000920E-02 0. -1.
    10030    2    1    2    0    0  0.00000000000E+00  0.00000000000E+00  0.72064162050E+03  0.92052806743E+03  0.57275437819E+03 0.  0.
        5    1    3    3  502    0  0.14117201748E+03 -0.13255944365E+02  0.76013639732E+03  0.77326236886E+03  0.46999998093E+01 0.  1.
       -5    1    3    3    0  502 -0.14117201748E+03  0.13255944365E+02 -0.39494776816E+02  0.14726569857E+03  0.46999998093E+01 0. -1.
</event>
<event>
 5   0  0.1175861E-01  0.5876231E+03  0.7818609E-02  0.9931422E-01
        2   -1    0    0  501    0  0.00000000000E+00  0.00000000000E+00  0.71257260129E+03  0.71257260129E+03  0.25500000920E-02 0.  1.
       -2   -1    0    0    0  501  0.00000000000E+00  0.00000000000E+00 -0.12114588192E+03  0.12114588195E+03  0.25500000920E-02 0. -1.
    10030    2    1    2    0    0  0.00000000000E+00  0.00000000000E+00  0.59142671937E+03  0.83371848324E+03  0.58762313170E+03 0.  0.
        3    1    3    3  502    0  0.71838067736E+02 -0.15269300544E+03 -0.45534425400E+02  0.17478345455E+03  0.10100000352E+00 0. -1.
       -3    1    3    3    0  502 -0.71838067736E+02  0.15269300544E+03  0.63696114477E+03  0.65893502869E+03  0.10100000352E+00 0.  1.
</event>
<event>
 5   0  0.1166419E-01  0.6038678E+03  0.7818609E-02  0.9897414E-01
       -2   -1    0    0    0  501  0.00000000000E+00  0.00000000000E+00  0.48151710763E+02  0.48151710831E+02  0.25500000920E-02 0.  1.
        2   -1    0    0  501    0  0.00000000000E+00  0.00000000000E+00 -0.18932679768E+04  0.18932679768E+04  0.25500000920E-02 0. -1.
    10030    2    1    2    0    0  0.00000000000E+00  0.00000000000E+00 -0.18451162661E+04  0.19414196877E+04  0.60386784013E+03 0.  0.
        1    1    3    3  502    0  0.23674389861E+03  0.30004369661E+02 -0.15172515608E+04  0.15359037192E+04  0.50400001928E-02 0. -1.
       -1    1    3    3    0  502 -0.23674389861E+03 -0.30004369661E+02 -0.32786470525E+03  0.40551596849E+03  0.50400001928E-02 0.  1.
</event>
<event>
 5   0  0.7123340E-02  0.6071427E+03  0.7818609E-02  0.9890697E-01
        1   -1    0    0  501    0  0.00000000000E+00  0.00000000000E+00  0.14460521345E+04  0.14460521345E+04  0.50400001928E-02 0.  1.
       -1   -1    0    0    0  501  0.00000000000E+00  0.00000000000E+00 -0.63729075358E+02  0.63729075557E+02  0.50400001928E-02 0. -1.
    10030    2    1    2    0    0  0.00000000000E+00  0.00000000000E+00  0.13823230592E+04  0.15097812101E+04  0.60714270352E+03 0.  0.
        2    1    3    3  502    0 -0.12129079370E+03  0.26328522586E+03  0.91530954031E+03  0.96011568125E+03  0.25500000920E-02 0.  1.
       -2    1    3    3    0  502  0.12129079370E+03 -0.26328522586E+03  0.46701351885E+03  0.54966552883E+03  0.25500000920E-02 0. -1.
</event>
<event>
 5   0  0.7263385E-02  0.5971804E+03  0.7818609E-02  0.9911273E-01
        1   -1    0    0  501    0  0.00000000000E+00  0.00000000000E+00  0.41489642302E+03  0.41489642305E+03  0.50400001928E-02 0. -1.
       -1   -1    0    0    0  501  0.00000000000E+00  0.00000000000E+00 -0.21488759809E+03  0.21488759815E+03  0.50400001928E-02 0.  1.
    10030    2    1    2    0    0  0.00000000000E+00  0.00000000000E+00  0.20000882493E+03  0.62978402120E+03  0.59718036079E+03 0.  0.
        1    1    3    3  502    0  0.50137302525E+02 -0.18078684263E+03  0.34497610955E+03  0.39269090614E+03  0.50400001928E-02 0. -1.
       -1    1    3    3    0  502 -0.50137302525E+02  0.18078684263E+03 -0.14496728463E+03  0.23709311507E+03  0.50400001928E-02 0.  1.
</event>
<event>
 5   0  0.1206238E-01  0.5800014E+03  0.7818609E-02  0.9947788E-01
       -2   -1    0    0    0  501  0.00000000000E+00  0.00000000000E+00  0.24505346881E+03  0.24505346882E+03  0.25500000920E-02 0.  1.
        2   -1    0    0  501    0  0.00000000000E+00  0.00000000000E+00 -0.34319209698E+03  0.34319209699E+03  0.25500000920E-02 0. -1.
    10030    2    1    2    0    0  0.00000000000E+00  0.00000000000E+00 -0.98138628176E+02  0.58824556581E+03  0.58000142703E+03 0.  0.
        5    1    3    3  502    0 -0.27783793266E+03  0.96697190116E+01 -0.13264758484E+03  0.30806637605E+03  0.46999998093E+01 0. -1.
       -5    1    3    3    0  502  0.27783793266E+03 -0.96697190116E+01  0.34508956662E+02  0.28017918976E+03  0.46999998093E+01 0.  1.
</event>
<event>
 5   0  0.7424930E-02  0.6029702E+03  0.7818609E-02  0.9899263E-01
        1   -1    0    0  501    0  0.00000000000E+00  0.00000000000E+00  0.17921165411E+03  0.17921165418E+03  0.50400001928E-02 0. -1.
       -1   -1    0    0    0  501  0.00000000000E+00  0.00000000000E+00 -0.50718394662E+03  0.50718394665E+03  0.50400001928E-02 0.  1.
    10030    2    1    2    0    0  0.00000000000E+00  0.00000000000E+00 -0.32797229251E+03  0.68639560083E+03  0.60297022827E+03 0.  0.
        3    1    3    3  502    0 -0.25644077108E+03 -0.34535081124E+02  0.12142140773E+02  0.25904050394E+03  0.10100000352E+00 0.  1.
       -3    1    3    3    0  502  0.25644077108E+03  0.34535081124E+02 -0.34011443329E+03  0.42735509688E+03  0.10100000352E+00 0. -1.
</event>
<event>
 5   0  0.7266519E-02  0.5994450E+03  0.7818609E-02  0.9906558E-01
        1   -1    0    0  501    0  0.00000000000E+00  0.00000000000E+00  0.19166135916E+03  0.19166135923E+03  0.50400001928E-02 0.  1.
       -1   -1    0    0    0  501  0.00000000000E+00  0.00000000000E+00 -0.46870984830E+03  0.46870984833E+03  0.50400001928E-02 0. -1.
    10030    2    1    2    0    0  0.00000000000E+00  0.00000000000E+00 -0.27704848914E+03  0.66037120756E+03  0.59944496531E+03 0.  0.
        4    1    3    3  502    0  0.11333208879E+03 -0.40649127374E+02  0.16384559998E+03  0.20333102921E+03  0.12699999809E+01 0.  1.
       -4    1    3    3    0  502 -0.11333208879E+03  0.40649127374E+02 -0.44089408912E+03  0.45704017835E+03  0.12699999809E+01 0. -1.
</event>
<event>
 5   0  0.1206238E-01  0.5962072E+03  0.7818609E-02  0.9913306E-01
        2   -1    0    0  501    0  0.00000000000E+00  0.00000000000E+00  0.10735172881E+04  0.10735172881E+04  0.25500000920E-02 0. -1.
       -2   -1    0    0    0  501  0.00000000000E+00  0.00000000000E+00 -0.82779990749E+02  0.82779990789E+02  0.25500000920E-02 0.  1.
    10030    2    1    2    0    0  0.00000000000E+00  0.00000000000E+00  0.99073729738E+03  0.11562972789E+04  0.59620718280E+03 0.  0.
        5    1    3    3  502    0 -0.78600522083E+02  0.11391052341E+03 -0.16616742030E+02  0.13946990904E+03  0.46999998093E+01 0.  1.
       -5    1    3    3    0  502  0.78600522083E+02 -0.11391052341E+03  0.10073540394E+04  0.10168273699E+04  0.46999998093E+01 0. -1.
</event>
<event>
 5   0  0.7221069E-02  0.5775476E+03  0.7818609E-02  0.9953115E-01
       -1   -1    0    0    0  501  0.00000000000E+00  0.00000000000E+00  0.21355850144E+03  0.21355850150E+03  0.50400001928E-02 0.  1.
        1   -1    0    0  501    0  0.00000000000E+00  0.00000000000E+00 -0.39047993323E+03  0.39047993326E+03  0.50400001928E-02 0. -1.
    10030    2    1    2    0    0  0.00000000000E+00  0.00000000000E+00 -0.17692143179E+03  0.60403843476E+03  0.57754760638E+03 0.  0.
        5    1    3    3  502    0  0.23560479142E+03  0.55625225362E+02  0.76124569836E+02  0.25381257567E+03  0.46999998093E+01 0.  1.
       -5    1    3    3    0  502 -0.23560479142E+03 -0.55625225362E+02 -0.25304600163E+03  0.35022585909E+03  0.46999998093E+01 0. -1.
</event>
<event>
 5   0  0.1206238E-01  0.5993009E+03  0.7818609E-02  0.9906858E-01
        2   -1    0    0  501    0  0.00000000000E+00  0.00000000000E+00  0.76712881084E+02  0.76712881126E+02  0.25500000920E-02 0. -1.
       -2   -1    0    0    0  501  0.00000000000E+00  0.00000000000E+00 -0.11704733067E+04  0.11704733067E+04  0.25500000920E-02 0.  1.
    10030    2    1    2    0    0  0.00000000000E+00  0.00000000000E+00 -0.10937604256E+04  0.12471861878E+04  0.59930085805E+03 0.  0.
        5    1    3    3  502    0  0.39789346650E+02  0.15919841489E+03 -0.25195865644E+02  0.16608506571E+03  0.46999998093E+01 0. -1.
       -5    1    3    3    0  502 -0.39789346650E+02 -0.15919841489E+03 -0.10685645599E+04  0.10811011221E+04  0.46999998093E+01 0.  1.
</event>
<event>
 5   0  0.1146468E-01  0.6041755E+03  0.7818609E-02  0.9896781E-01
       -2   -1    0    0    0  501  0.00000000000E+00  0.00000000000E+00  0.29225591432E+03  0.29225591434E+03  0.25500000920E-02 0. -1.
        2   -1    0    0  501    0  0.00000000000E+00  0.00000000000E+00 -0.31225033992E+03  0.31225033993E+03  0.25500000920E-02 0.  1.
    10030    2    1    2    0    0  0.00000000000E+00  0.00000000000E+00 -0.19994425599E+02  0.60450625427E+03  0.60417549967E+03 0.  0.
        4    1    3    3  502    0 -0.11780976189E+02 -0.14725217050E+03 -0.27364365357E+03  0.31097339944E+03  0.12699999809E+01 0.  1.
       -4    1    3    3    0  502  0.11780976189E+02  0.14725217050E+03  0.25364922797E+03  0.29353285483E+03  0.12699999809E+01 0. -1.
</event>
<event>
 5   0  0.1166419E-01  0.6013497E+03  0.7818609E-02  0.9902610E-01
       -2   -1    0    0    0  501  0.00000000000E+00  0.00000000000E+00  0.22018862944E+03  0.22018862945E+03  0.25500000920E-02 0.  1.
        2   -1    0    0  501    0  0.00000000000E+00  0.00000000000E+00 -0.41058145747E+03  0.41058145748E+03  0.25500000920E-02 0. -1.
    10030    2    1    2    0    0  0.00000000000E+00  0.00000000000E+00 -0.19039282803E+03  0.63077008693E+03  0.60134970990E+03 0.  0.
        1    1    3    3  502    0 -0.62327608779E+02  0.27204990080E+03 -0.21251417589E+03  0.35079645711E+03  0.50400001928E-02 0. -1.
       -1    1    3    3    0  502  0.62327608779E+02 -0.27204990080E+03  0.22121347857E+02  0.27997362982E+03  0.50400001928E-02 0.  1.
</event>
<event>
 5   0  0.1166419E-01  0.6040748E+03  0.7818609E-02  0.9896988E-01
       -2   -1    0    0    0  501  0.00000000000E+00  0.00000000000E+00  0.13124602826E+03  0.13124602828E+03  0.25500000920E-02 0. -1.
        2   -1    0    0  501    0  0.00000000000E+00  0.00000000000E+00 -0.69508071032E+03  0.69508071032E+03  0.25500000920E-02 0.  1.
    10030    2    1    2    0    0  0.00000000000E+00  0.00000000000E+00 -0.56383468206E+03  0.82632673861E+03  0.60407477206E+03 0.  0.
        1    1    3    3  502    0  0.11824886954E+03 -0.57161305636E+02 -0.65397275039E+03  0.66703115990E+03  0.50400001928E-02 0.  1.
       -1    1    3    3    0  502 -0.11824886954E+03  0.57161305636E+02  0.90138068324E+02  0.15929557870E+03  0.50400001928E-02 0. -1.
</event>
<event>
 5   0  0.7123340E-02  0.6244225E+03  0.7818609E-02  0.9855994E-01
       -1   -1    0    0    0  501  0.00000000000E+00  0.00000000000E+00  0.98979317934E+02  0.98979318063E+02  0.50400001928E-02 0. -1.
        1   -1    0    0  501    0  0.00000000000E+00  0.00000000000E+00 -0.98481043917E+03  0.98481043919E+03  0.50400001928E-02 0.  1.
    10030    2    1    2    0    0  0.00000000000E+00  0.00000000000E+00 -0.88583112124E+03  0.10837897573E+04  0.62442250325E+03 0.  0.
        2    1    3    3  502    0  0.28659904855E+02 -0.29146999151E+03 -0.25517668100E+03  0.38844727394E+03  0.25500000920E-02 0. -1.
       -2    1    3    3    0  502 -0.28659904855E+02  0.29146999151E+03 -0.63065444024E+03  0.69534248331E+03  0.25500000920E-02 0.  1.
</event>
<event>
 5   0  0.1166419E-01  0.6296292E+03  0.7818609E-02  0.9845773E-01
        2   -1    0    0  501    0  0.00000000000E+00  0.00000000000E+00  0.17250113450E+03  0.17250113452E+03  0.25500000920E-02 0. -1.
       -2   -1    0    0    0  501  0.00000000000E+00  0.00000000000E+00 -0.57453665407E+03  0.57453665407E+03  0.25500000920E-02 0.  1.
    10030    2    1    2    0    0  0.00000000000E+00  0.00000000000E+00 -0.40203551956E+03  0.74703778859E+03  0.62962917546E+03 0.  0.
        1    1    3    3  502    0 -0.20543886260E+03 -0.78294987222E+02 -0.46836401861E+03  0.51739741518E+03  0.50400001928E-02 0.  1.
       -1    1    3    3    0  502  0.20543886260E+03  0.78294987222E+02  0.66328499041E+02  0.22964037341E+03  0.50400001928E-02 0. -1.
</event>
<event>
 5   0  0.7221069E-02  0.5974641E+03  0.7818609E-02  0.9910681E-01
       -1   -1    0    0    0  501  0.00000000000E+00  0.00000000000E+00  0.41550632900E+03  0.41550632903E+03  0.50400001928E-02 0.  1.
        1   -1    0    0  501    0  0.00000000000E+00  0.00000000000E+00 -0.21477612368E+03  0.21477612374E+03  0.50400001928E-02 0. -1.
    10030    2    1    2    0    0  0.00000000000E+00  0.00000000000E+00  0.20073020532E+03  0.63028245277E+03  0.59746410347E+03 0.  0.
        5    1    3    3  502    0  0.25793187249E+03 -0.19650252239E+02  0.25791295742E+03  0.36531652969E+03  0.46999998093E+01 0.  1.
       -5    1    3    3    0  502 -0.25793187249E+03  0.19650252239E+02 -0.57182752092E+02  0.26496592308E+03  0.46999998093E+01 0. -1.
</event>
<event>
 5   0  0.7424930E-02  0.6009994E+03  0.7818609E-02  0.9903335E-01
       -1   -1    0    0    0  501  0.00000000000E+00  0.00000000000E+00  0.22790694116E+03  0.22790694121E+03  0.50400001928E-02 0.  1.
        1   -1    0    0  501    0  0.00000000000E+00  0.00000000000E+00 -0.39621462929E+03  0.39621462932E+03  0.50400001928E-02 0. -1.
    10030    2    1    2    0    0  0.00000000000E+00  0.00000000000E+00 -0.16830768813E+03  0.62412157053E+03  0.60099938180E+03 0.  0.
        3    1    3    3  502    0  0.50557427472E+02 -0.11944579837E+03 -0.36564839621E+03  0.38797179288E+03  0.10100000352E+00 0. -1.
       -3    1    3    3    0  502 -0.50557427472E+02  0.11944579837E+03  0.19734070808E+03  0.23614977765E+03  0.10100000352E+00 0.  1.
</event>
<event>
 5   0  0.1146468E-01  0.5830829E+03  0.7818609E-02  0.9941139E-01
       -2   -1    0    0    0  501  0.00000000000E+00  0.00000000000E+00  0.36023122968E+03  0.36023122969E+03  0.25500000920E-02 0.  1.
        2   -1    0    0  501    0  0.00000000000E+00  0.00000000000E+00 -0.23594958252E+03  0.23594958253E+03  0.25500000920E-02 0. -1.
    10030    2    1    2    0    0  0.00000000000E+00  0.00000000000E+00  0.12428164716E+03  0.59618081222E+03  0.58308286978E+03 0.  0.
        4    1    3    3  502    0  0.27408596248E+03 -0.95846726861E+02  0.35378729487E+02  0.29251149940E+03  0.12699999809E+01 0.  1.
       -4    1    3    3    0  502 -0.27408596248E+03  0.95846726861E+02  0.88902917675E+02  0.30366931282E+03  0.12699999809E+01 0. -1.
</event>
<event>
 5   0  0.7266519E-02  0.6045096E+03  0.7818609E-02  0.9896094E-01
        1   -1    0    0  501    0  0.00000000000E+00  0.00000000000E+00  0.61765925204E+03  0.61765925207E+03  0.50400001928E-02 0. -1.
       -1   -1    0    0    0  501  0.00000000000E+00  0.00000000000E+00 -0.14790996957E+03  0.14790996965E+03  0.50400001928E-02 0.  1.
    10030    2    1    2    0    0  0.00000000000E+00  0.00000000000E+00  0.46974928248E+03  0.76556922172E+03  0.60450959038E+03 0.  0.
        4    1    3    3  502    0 -0.13092906396E+03 -0.11521407800E+03 -0.77755775118E+02  0.19095621756E+03  0.12699999809E+01 0.  1.
       -4    1    3    3    0  502  0.13092906396E+03  0.11521407800E+03  0.54750505759E+03  0.57461300416E+03  0.12699999809E+01 0. -1.
</event>
<event>
 5   0  0.1175861E-01  0.6048354E+03  0.7818609E-02  0.9895425E-01
        2   -1    0    0  501    0  0.00000000000E+00  0.00000000000E+00  0.13725503280E+04  0.13725503280E+04  0.25500000920E-02 0.  1.
       -2   -1    0    0    0  501  0.00000000000E+00  0.00000000000E+00 -0.66632505708E+02  0.66632505757E+02  0.25500000920E-02 0. -1.
    10030    2    1    2    0    0  0.00000000000E+00  0.00000000000E+00  0.13059178223E+04  0.14391828338E+04  0.60483540771E+03 0.  0.
        3    1    3    3  502    0  0.24732912575E+02 -0.13170810407E+03  0.78757821760E+01  0.13424149801E+03  0.10100000352E+00 0. -1.
       -3    1    3    3    0  502 -0.24732912575E+02  0.13170810407E+03  0.12980420401E+04  0.13049413358E+04  0.10100000352E+00 0.  1.
</event>
<event>
 5   0  0.1175861E-01  0.6005190E+03  0.7818609E-02  0.9904330E-01
        2   -1    0    0  501    0  0.00000000000E+00  0.00000000000E+00  0.75328619490E+03  0.75328619491E+03  0.25500000920E-02 0. -1.
       -2   -1    0    0    0  501  0.00000000000E+00  0.00000000000E+00 -0.11968330395E+03  0.11968330398E+03  0.25500000920E-02 0.  1.
    10030    2    1    2    0    0  0.00000000000E+00  0.00000000000E+00  0.63360289096E+03  0.87296949889E+03  0.60051904429E+03 0.  0.
        3    1    3    3  502    0 -0.12680434145E+03 -0.71141104350E+02  0.69869752850E+03  0.71366563899E+03  0.10100000352E+00 0. -1.
       -3    1    3    3    0  502  0.12680434145E+03  0.71141104350E+02 -0.65094637544E+02  0.15930385990E+03  0.10100000352E+00 0.  1.
</event>
<event>
 5   0  0.1175861E-01  0.5980181E+03  0.7818609E-02  0.9909526E-01
        2   -1    0    0  501    0  0.00000000000E+00  0.00000000000E+00  0.53675791745E+03  0.53675791745E+03  0.25500000920E-02 0. -1.
       -2   -1    0    0    0  501  0.00000000000E+00  0.00000000000E+00 -0.16656746896E+03  0.16656746898E+03  0.25500000920E-02 0.  1.
    10030    2    1    2    0    0  0.00000000000E+00  0.00000000000E+00  0.37019044848E+03  0.70332538643E+03  0.59801808589E+03 0.  0.
        3    1    3    3  502    0  0.13936934966E+03  0.21198966557E+03 -0.10212583920E+01  0.25370157095E+03  0.10100000352E+00 0.  1.
       -3    1    3    3    0  502 -0.13936934966E+03 -0.21198966557E+03  0.37121170687E+03  0.44962381549E+03  0.10100000352E+00 0. -1.
</event>
<event>
 5   0  0.7123340E-02  0.5951734E+03  0.7818609E-02  0.9915471E-01
        1   -1    0    0  501    0  0.00000000000E+00  0.00000000000E+00  0.36731226252E+03  0.36731226256E+03  0.50400001928E-02 0.  1.
       -1   -1    0    0    0  501  0.00000000000E+00  0.00000000000E+00 -0.24109690405E+03  0.24109690410E+03  0.50400001928E-02 0. -1.
    10030    2    1    2    0    0  0.00000000000E+00  0.00000000000E+00  0.12621535847E+03  0.60840916666E+03  0.59517341789E+03 0.  0.
        2    1    3    3  502    0  0.23467489248E+03 -0.41945012113E+02 -0.11897178993E+03  0.26643193504E+03  0.25500000920E-02 0. -1.
       -2    1    3    3    0  502 -0.23467489248E+03  0.41945012113E+02  0.24518714840E+03  0.34197723162E+03  0.25500000920E-02 0.  1.
</event>
<event>
 5   0  0.1206238E-01  0.6007606E+03  0.7818609E-02  0.9903829E-01
        2   -1    0    0  501    0  0.00000000000E+00  0.00000000000E+00  0.21340688356E+04  0.21340688356E+04  0.25500000920E-02 0.  1.
       -2   -1    0    0    0  501  0.00000000000E+00  0.00000000000E+00 -0.42279948482E+02  0.42279948559E+02  0.25500000920E-02 0. -1.
    10030    2    1    2    0    0  0.00000000000E+00  0.00000000000E+00  0.20917888871E+04  0.21763487841E+04  0.60076058629E+03 0.  0.
        5    1    3    3  502    0 -0.13112102061E+03  0.25000597031E+03  0.67449672308E+03  0.73120696570E+03  0.46999998093E+01 0.  1.
       -5    1    3    3    0  502  0.13112102061E+03 -0.25000597031E+03  0.14172921640E+04  0.14451418184E+04  0.46999998093E+01 0. -1.
</event>
<event>
 5   0  0.1206238E-01  0.5898090E+03  0.7818609E-02  0.9926778E-01
       -2   -1    0    0    0  501  0.00000000000E+00  0.00000000000E+00  0.54220961916E+02  0.54220961975E+02  0.25500000920E-02 0. -1.
        2   -1    0    0  501    0  0.00000000000E+00  0.00000000000E+00 -0.16039675580E+04  0.16039675580E+04  0.25500000920E-02 0.  1.
    10030    2    1    2    0    0  0.00000000000E+00  0.00000000000E+00 -0.15497465961E+04  0.16581885200E+04  0.58980899935E+03 0.  0.
        5    1    3    3  502    0 -0.93810993255E+02 -0.20534268935E+03 -0.24159266341E+03  0.33068901938E+03  0.46999998093E+01 0. -1.
       -5    1    3    3    0  502  0.93810993255E+02  0.20534268935E+03 -0.13081539327E+04  0.13274995006E+04  0.46999998093E+01 0.  1.
</event>
<event>
 5   0  0.1146468E-01  0.5407972E+03  0.7818609E-02  0.1003647E+00
        2   -1    0    0  501    0  0.00000000000E+00  0.00000000000E+00  0.53704917936E+03  0.53704917936E+03  0.25500000920E-02 0. -1.
       -2   -1    0    0    0  501  0.00000000000E+00  0.00000000000E+00 -0.13614286596E+03  0.13614286599E+03  0.25500000920E-02 0.  1.
    10030    2    1    2    0    0  0.00000000000E+00  0.00000000000E+00  0.40090631339E+03  0.67319204535E+03  0.54079724278E+03 0.  0.
        4    1    3    3  502    0 -0.23718013353E+03 -0.53455920488E+02  0.34775128320E+03  0.42431653166E+03  0.12699999809E+01 0. -1.
       -4    1    3    3    0  502  0.23718013353E+03  0.53455920488E+02  0.53155030195E+02  0.24887551369E+03  0.12699999809E+01 0.  1.
</event>
<event>
 5   0  0.1146468E-01  0.6054121E+03  0.7818609E-02  0.9894241E-01
        2   -1    0    0  501    0  0.00000000000E+00  0.00000000000E+00  0.24685114321E+03  0.24685114322E+03  0.25500000920E-02 0.  1.
       -2   -1    0    0    0  501  0.00000000000E+00  0.00000000000E+00 -0.37119926605E+03  0.37119926606E+03  0.25500000920E-02 0. -1.
    10030    2    1    2    0    0  0.00000000000E+00  0.00000000000E+00 -0.12434812284E+03  0.61805040928E+03  0.60541213463E+03 0.  0.
        4    1    3    3  502    0  0.22732288546E+03 -0.10805220231E+03 -0.23384628073E+03  0.34356464979E+03  0.12699999809E+01 0. -1.
       -4    1    3    3    0  502 -0.22732288546E+03  0.10805220231E+03  0.10949815789E+03  0.27448575948E+03  0.12699999809E+01 0.  1.
</event>
<event>
 5   0  0.7123340E-02  0.5971027E+03  0.7818609E-02  0.9911435E-01
       -1   -1    0    0    0  501  0.00000000000E+00  0.00000000000E+00  0.23793425247E+03  0.23793425252E+03  0.50400001928E-02 0.  1.
        1   -1    0    0  501    0  0.00000000000E+00  0.00000000000E+00 -0.37461152808E+03  0.37461152811E+03  0.50400001928E-02 0. -1.
    10030    2    1    2    0    0  0.00000000000E+00  0.00000000000E+00 -0.13667727561E+03  0.61254578064E+03  0.59710271789E+03 0.  0.
        2    1    3    3  502    0 -0.14293274938E+02  0.29725125886E+03 -0.43839927880E+02  0.30080649575E+03  0.25500000920E-02 0.  1.
       -2    1    3    3    0  502  0.14293274938E+02 -0.29725125886E+03 -0.92837347726E+02  0.31173928489E+03  0.25500000920E-02 0. -1.
</event>
<event>
 5   0  0.1175861E-01  0.5983384E+03  0.7818609E-02  0.9908859E-01
       -2   -1    0    0    0  501  0.00000000000E+00  0.00000000000E+00  0.21054994085E+03  0.21054994087E+03  0.25500000920E-02 0. -1.
        2   -1    0    0  501    0  0.00000000000E+00  0.00000000000E+00 -0.42508785315E+03  0.42508785315E+03  0.25500000920E-02 0.  1.
    10030    2    1    2    0    0  0.00000000000E+00  0.00000000000E+00 -0.21453791230E+03  0.63563779402E+03  0.59833844050E+03 0.  0.
        3    1    3    3  502    0  0.77188830556E+02  0.69704296715E+02 -0.40526459348E+03  0.41839718626E+03  0.10100000352E+00 0.  1.
       -3    1    3    3    0  502 -0.77188830556E+02 -0.69704296715E+02  0.19072668118E+03  0.21724060776E+03  0.10100000352E+00 0. -1.
</event>
<event>
 5   0  0.7266519E-02  0.6002406E+03  0.7818609E-02  0.9904907E-01
       -1   -1    0    0    0  501  0.00000000000E+00  0.00000000000E+00  0.43277320931E+03  0.43277320934E+03  0.50400001928E-02 0.  1.
        1   -1    0    0  501    0  0.00000000000E+00  0.00000000000E+00 -0.20812794908E+03  0.20812794915E+03  0.50400001928E-02 0. -1.
    10030    2    1    2    0    0  0.00000000000E+00  0.00000000000E+00  0.22464526023E+03  0.64090115849E+03  0.60024062009E+03 0.  0.
        4    1    3    3  502    0  0.14551614013E+03 -0.64044838146E+01  0.39249946663E+03  0.41865667158E+03  0.12699999809E+01 0.  1.
       -4    1    3    3    0  502 -0.14551614013E+03  0.64044838146E+01 -0.16785420641E+03  0.22224448691E+03  0.12699999809E+01 0. -1.
</event>
<event>
 5   0  0.1166419E-01  0.6049802E+03  0.7818609E-02  0.9895127E-01
        2   -1    0    0  501    0  0.00000000000E+00  0.00000000000E+00  0.13844472293E+04  0.13844472293E+04  0.25500000920E-02 0. -1.
       -2   -1    0    0    0  501  0.00000000000E+00  0.00000000000E+00 -0.66091540730E+02  0.66091540779E+02  0.25500000920E-02 0.  1.
    10030    2    1    2    0    0  0.00000000000E+00  0.00000000000E+00  0.13183556886E+04  0.14505387701E+04  0.60498016656E+03 0.  0.
        1    1    3    3  502    0 -0.68079604661E+02  0.13273602451E+03  0.28238916213E+02  0.15182595690E+03  0.50400001928E-02 0.  1.
       -1    1    3    3    0  502  0.68079604661E+02 -0.13273602451E+03  0.12901167724E+04  0.12987128132E+04  0.50400001928E-02 0. -1.
</event>
<event>
 5   0  0.1219020E-01  0.5996952E+03  0.7818609E-02  0.9906039E-01
       -2   -1    0    0    0  501  0.00000000000E+00  0.00000000000E+00  0.91357070020E+02  0.91357070056E+02  0.25500000920E-02 0. -1.
        2   -1    0    0  501    0  0.00000000000E+00  0.00000000000E+00 -0.98414475471E+03  0.98414475471E+03  0.25500000920E-02 0.  1.
    10030    2    1    2    0    0  0.00000000000E+00  0.00000000000E+00 -0.89278768469E+03  0.10755018248E+04  0.59969519353E+03 0.  0.
        2    1    3    3  502    0  0.28130538826E+03 -0.95601641048E+02 -0.51893707847E+03  0.59796997136E+03  0.25500000920E-02 0. -1.
       -2    1    3    3    0  502 -0.28130538826E+03  0.95601641048E+02 -0.37385060622E+03  0.47753185340E+03  0.25500000920E-02 0.  1.
</event>
<event>
 5   0  0.7266519E-02  0.5995718E+03  0.7818609E-02  0.9906295E-01
       -1   -1    0    0    0  501  0.00000000000E+00  0.00000000000E+00  0.20846710852E+03  0.20846710858E+03  0.50400001928E-02 0. -1.
        1   -1    0    0  501    0  0.00000000000E+00  0.00000000000E+00 -0.43110672873E+03  0.43110672876E+03  0.50400001928E-02 0.  1.
    10030    2    1    2    0    0  0.00000000000E+00  0.00000000000E+00 -0.22263962021E+03  0.63957383734E+03  0.59957175794E+03 0.  0.
        4    1    3    3  502    0  0.97956362568E+02  0.15952044817E+03 -0.36109522357E+03  0.40673528951E+03  0.12699999809E+01 0.  1.
       -4    1    3    3    0  502 -0.97956362568E+02 -0.15952044817E+03  0.13845560336E+03  0.23283854782E+03  0.12699999809E+01 0. -1.
</event>
<event>
 5   0  0.7123340E-02  0.6132348E+03  0.7818609E-02  0.9878322E-01
       -1   -1    0    0    0  501  0.00000000000E+00  0.00000000000E+00  0.70035036582E+03  0.70035036584E+03  0.50400001928E-02 0.  1.
        1   -1    0    0  501    0  0.00000000000E+00  0.00000000000E+00 -0.13423885881E+03  0.13423885891E+03  0.50400001928E-02 0. -1.
    10030    2    1    2    0    0  0.00000000000E+00  0.00000000000E+00  0.56611150701E+03  0.83458922474E+03  0.61323481285E+03 0.  0.
        2    1    3    3  502    0  0.13191740681E+03 -0.87167575065E+02  0.64058706804E+03  0.65981223095E+03  0.25500000920E-02 0.  1.
       -2    1    3    3    0  502 -0.13191740681E+03  0.87167575065E+02 -0.74475561035E+02  0.17477699379E+03  0.25500000920E-02 0. -1.
</event>
<event>
 5   0  0.1146468E-01  0.6012326E+03  0.7818609E-02  0.9902852E-01
       -2   -1    0    0    0  501  0.00000000000E+00  0.00000000000E+00  0.56954794193E+03  0.56954794193E+03  0.25500000920E-02 0. -1.
        2   -1    0    0  501    0  0.00000000000E+00  0.00000000000E+00 -0.15866997435E+03  0.15866997437E+03  0.25500000920E-02 0.  1.
    10030    2    1    2    0    0  0.00000000000E+00  0.00000000000E+00  0.41087796757E+03  0.72821791630E+03  0.60123259176E+03 0.  0.
        4    1    3    3  502    0 -0.19537306811E+03  0.91728927527E+02 -0.48001002701E+02  0.22111205541E+03  0.12699999809E+01 0.  1.
       -4    1    3    3    0  502  0.19537306811E+03 -0.91728927527E+02  0.45887897027E+03  0.50710586089E+03  0.12699999809E+01 0. -1.
</event>
<event>
 5   0  0.1146468E-01  0.6008531E+03  0.7818609E-02  0.9903638E-01
       -2   -1    0    0    0  501  0.00000000000E+00  0.00000000000E+00  0.11946438358E+04  0.11946438358E+04  0.25500000920E-02 0. -1.
        2   -1    0    0  501    0  0.00000000000E+00  0.00000000000E+00 -0.75550634536E+02  0.75550634579E+02  0.25500000920E-02 0.  1.
    10030    2    1    2    0    0  0.00000000000E+00  0.00000000000E+00  0.11190932013E+04  0.12701944704E+04  0.60085305981E+03 0.  0.
        4    1    3    3  502    0 -0.16873806189E+03  0.21860086014E+03  0.30945565355E+03  0.41475689747E+03  0.12699999809E+01 0.  1.
       -4    1    3    3    0  502  0.16873806189E+03 -0.21860086014E+03  0.80963754775E+03  0.85543757295E+03  0.12699999809E+01 0. -1.
</event>
<event>
 5   0  0.7266519E-02  0.5842774E+03  0.7818609E-02  0.9938573E-01
       -1   -1    0    0    0  501  0.00000000000E+00  0.00000000000E+00  0.11557996953E+03  0.11557996964E+03  0.50400001928E-02 0. -1.
        1   -1    0    0  501    0  0.00000000000E+00  0.00000000000E+00 -0.73840668281E+03  0.73840668283E+03  0.50400001928E-02 0.  1.
    10030    2    1    2    0    0  0.00000000000E+00  0.00000000000E+00 -0.62282671328E+03  0.85398665247E+03  0.58427740656E+03 0.  0.
        4    1    3    3  502    0  0.28811868237E+03 -0.19512790889E+02 -0.24686561967E+03  0.37991758476E+03  0.12699999809E+01 0. -1.
       -4    1    3    3    0  502 -0.28811868237E+03  0.19512790889E+02 -0.37596109362E+03  0.47406906770E+03  0.12699999809E+01 0.  1.
</event>
<event>
 5   0  0.7123340E-02  0.6026594E+03  0.7818609E-02  0.9899904E-01
       -1   -1    0    0    0  501  0.00000000000E+00  0.00000000000E+00  0.14455957784E+03  0.14455957793E+03  0.50400001928E-02 0.  1.
        1   -1    0    0  501    0  0.00000000000E+00  0.00000000000E+00 -0.62811187150E+03  0.62811187152E+03  0.50400001928E-02 0. -1.
    10030    2    1    2    0    0  0.00000000000E+00  0.00000000000E+00 -0.48355229366E+03  0.77267144944E+03  0.60265939641E+03 0.  0.
        2    1    3    3  502    0 -0.19452294107E+03  0.44241067059E+02 -0.53132469499E+03  0.56754064007E+03  0.25500000920E-02 0. -1.
       -2    1    3    3    0  502  0.19452294107E+03 -0.44241067059E+02  0.47772401335E+02  0.20513080937E+03  0.25500000920E-02 0.  1.
</event>
<event>
 5   0  0.1206238E-01  0.6103999E+03  0.7818609E-02  0.9884061E-01
        2   -1    0    0  501    0  0.00000000000E+00  0.00000000000E+00  0.14121129324E+04  0.14121129324E+04  0.25500000920E-02 0.  1.
       -2   -1    0    0    0  501  0.00000000000E+00  0.00000000000E+00 -0.65962854857E+02  0.65962854906E+02  0.25500000920E-02 0. -1.
    10030    2    1    2    0    0  0.00000000000E+00  0.00000000000E+00  0.13461500775E+04  0.14780757873E+04  0.61039987037E+03 0.  0.
        5    1    3    3  502    0  0.36040126935E+02  0.30301689888E+03  0.66677047690E+03  0.73329604568E+03  0.46999998093E+01 0.  1.
       -5    1    3    3    0  502 -0.36040126935E+02 -0.30301689888E+03  0.67937960062E+03  0.74477974159E+03  0.46999998093E+01 0. -1.
</event>
<event>
 5   0  0.4695625E-02  0.6015428E+03  0.7818609E-02  0.9902210E-01
       -4   -1    0    0    0  501  0.00000000000E+00  0.00000000000E+00  0.40439682023E+03  0.40439881443E+03  0.12699999809E+01 0.  1.
        4   -1    0    0  501    0  0.00000000000E+00  0.00000000000E+00 -0.22369533706E+03  0.22369894216E+03  0.12699999809E+01 0. -1.
    10030    2    1    2    0    0  0.00000000000E+00  0.00000000000E+00  0.18070148317E+03  0.62809775659E+03  0.60154282127E+03 0.  0.
        2    1    3    3  502    0  0.19874042014E+03 -0.22525861989E+03  0.10598647363E+03  0.31854722261E+03  0.25500000920E-02 0.  1.
       -2    1    3    3    0  502 -0.19874042014E+03  0.22525861989E+03  0.74715009542E+02  0.30955053399E+03  0.25500000920E-02 0. -1.
</event>
<event>
 5   0  0.7221069E-02  0.6098799E+03  0.7818609E-02  0.9885118E-01
        1   -1    0    0  501    0  0.00000000000E+00  0.00000000000E+00  0.82639061464E+03  0.82639061466E+03  0.50400001928E-02 0.  1.
       -1   -1    0    0    0  501  0.00000000000E+00  0.00000000000E+00 -0.11252352801E+03  0.11252352812E+03  0.50400001928E-02 0. -1.
    10030    2    1    2    0    0  0.00000000000E+00  0.00000000000E+00  0.71386708663E+03  0.93891414278E+03  0.60987994731E+03 0.  0.
        5    1    3    3  502    0  0.18227453658E+03  0.83115131971E+02  0.30674482378E+01  0.20040866021E+03  0.46999998093E+01 0. -1.
       -5    1    3    3    0  502 -0.18227453658E+03 -0.83115131971E+02  0.71079963839E+03  0.73850548257E+03  0.46999998093E+01 0.  1.
</event>
<event>
 5   0  0.1219020E-01  0.6068979E+03  0.7818609E-02  0.9891197E-01
       -2   -1    0    0    0  501  0.00000000000E+00  0.00000000000E+00  0.46888383897E+02  0.46888383967E+02  0.25500000920E-02 0. -1.
        2   -1    0    0  501    0  0.00000000000E+00  0.00000000000E+00 -0.19638397952E+04  0.19638397952E+04  0.25500000920E-02 0.  1.
    10030    2    1    2    0    0  0.00000000000E+00  0.00000000000E+00 -0.19169514113E+04  0.20107281792E+04  0.60689792981E+03 0.  0.
        2    1    3    3  502    0  0.70851841981E+01  0.19609081644E+03 -0.17253724594E+04  0.17364941497E+04  0.25500000920E-02 0.  1.
       -2    1    3    3    0  502 -0.70851841981E+01 -0.19609081644E+03 -0.19157895193E+03  0.27423402954E+03  0.25500000920E-02 0. -1.
</event>
<event>
 5   0  0.7266519E-02  0.6020576E+03  0.7818609E-02  0.9901146E-01
        1   -1    0    0  501    0  0.00000000000E+00  0.00000000000E+00  0.12572608383E+04  0.12572608383E+04  0.50400001928E-02 0. -1.
       -1   -1    0    0    0  501  0.00000000000E+00  0.00000000000E+00 -0.72075992950E+02  0.72075993126E+02  0.50400001928E-02 0.  1.
    10030    2    1    2    0    0  0.00000000000E+00  0.00000000000E+00  0.11851848454E+04  0.13293368315E+04  0.60205755022E+03 0.  0.
        4    1    3    3  502    0  0.49859646520E+02 -0.21813625121E+03  0.14798366595E+03  0.26827259780E+03  0.12699999809E+01 0.  1.
       -4    1    3    3    0  502 -0.49859646520E+02  0.21813625121E+03  0.10372011794E+04  0.10610642337E+04  0.12699999809E+01 0. -1.
</event>
<event>
 5   0  0.1175861E-01  0.6088937E+03  0.7818609E-02  0.9887124E-01
        2   -1    0    0  501    0  0.00000000000E+00  0.00000000000E+00  0.36851159304E+03  0.36851159305E+03  0.25500000920E-02 0.  1.
       -2   -1    0    0    0  501  0.00000000000E+00  0.00000000000E+00 -0.25151954966E+03  0.25151954967E+03  0.25500000920E-02 0. -1.
    10030    2    1    2    0    0  0.00000000000E+00  0.00000000000E+00  0.11699204339E+03  0.62003114272E+03  0.60889365223E+03 0.  0.
        3    1    3    3  502    0  0.29300981411E+03  0.81949243553E+02  0.47461292557E+02  0.30793345738E+03  0.10100000352E+00 0.  1.
       -3    1    3    3    0  502 -0.29300981411E+03 -0.81949243553E+02  0.69530750830E+02  0.31209768534E+03  0.10100000352E+00 0. -1.
</event>
<event>
 5   0  0.4695625E-02  0.5919241E+03  0.7818609E-02  0.9922304E-01
        4   -1    0    0  501    0  0.00000000000E+00  0.00000000000E+00  0.21371861556E+03  0.21372238894E+03  0.12699999809E+01 0. -1.
       -4   -1    0    0    0  501  0.00000000000E+00  0.00000000000E+00 -0.40984608159E+03  0.40984804927E+03  0.12699999809E+01 0.  1.
    10030    2    1    2    0    0  0.00000000000E+00  0.00000000000E+00 -0.19612746603E+03  0.62357043822E+03  0.59192407324E+03 0.  0.
        4    1    3    3  502    0  0.59207159084E+02  0.89879025715E+02 -0.38849923555E+03  0.40313396765E+03  0.12699999809E+01 0.  1.
       -4    1    3    3    0  502 -0.59207159084E+02 -0.89879025715E+02  0.19237176952E+03  0.22043647057E+03  0.12699999809E+01 0. -1.
</event>
<event>
 5   0  0.1219020E-01  0.6057037E+03  0.7818609E-02  0.9893643E-01
        2   -1    0    0  501    0  0.00000000000E+00  0.00000000000E+00  0.20626816501E+03  0.20626816502E+03  0.25500000920E-02 0. -1.
       -2   -1    0    0    0  501  0.00000000000E+00  0.00000000000E+00 -0.44466022634E+03  0.44466022635E+03  0.25500000920E-02 0.  1.
    10030    2    1    2    0    0  0.00000000000E+00  0.00000000000E+00 -0.23839206133E+03  0.65092839137E+03  0.60570371948E+03 0.  0.
        2    1    3    3  502    0  0.15305305948E+03  0.29911559727E+02  0.15980171515E+03  0.22328575546E+03  0.25500000920E-02 0. -1.
       -2    1    3    3    0  502 -0.15305305948E+03 -0.29911559727E+02 -0.39819377648E+03  0.42764263592E+03  0.25500000920E-02 0.  1.
</event>
<event>
 5   0  0.7424930E-02  0.5697508E+03  0.7818609E-02  0.9970230E-01
       -1   -1    0    0    0  501  0.00000000000E+00  0.00000000000E+00  0.79481859316E+02  0.79481859475E+02  0.50400001928E-02 0.  1.
        1   -1    0    0  501    0  0.00000000000E+00  0.00000000000E+00 -0.10210380900E+04  0.10210380901E+04  0.50400001928E-02 0. -1.
    10030    2    1    2    0    0  0.00000000000E+00  0.00000000000E+00 -0.94155623073E+03  0.11005199495E+04  0.56975084352E+03 0.  0.
        3    1    3    3  502    0  0.59482742585E+02  0.10812037497E+03  0.25174966067E+02  0.12594443722E+03  0.10100000352E+00 0.  1.
       -3    1    3    3    0  502 -0.59482742585E+02 -0.10812037497E+03 -0.96673119680E+03  0.97457551232E+03  0.10100000352E+00 0. -1.
</event>
<event>
 5   0  0.1219020E-01  0.6085519E+03  0.7818609E-02  0.9887821E-01
        2   -1    0    0  501    0  0.00000000000E+00  0.00000000000E+00  0.44601194604E+03  0.44601194605E+03  0.25500000920E-02 0.  1.
       -2   -1    0    0    0  501  0.00000000000E+00  0.00000000000E+00 -0.20758153288E+03  0.20758153289E+03  0.25500000920E-02 0. -1.
    10030    2    1    2    0    0  0.00000000000E+00  0.00000000000E+00  0.23843041316E+03  0.65359347894E+03  0.60855186615E+03 0.  0.
        2    1    3    3  502    0  0.26067392305E+03  0.14461449289E+03  0.18471774022E+03  0.35069201484E+03  0.25500000920E-02 0. -1.
       -2    1    3    3    0  502 -0.26067392305E+03 -0.14461449289E+03  0.53712672936E+02  0.30290146410E+03  0.25500000920E-02 0.  1.
</event>
<event>
 5   0  0.7221069E-02  0.6853503E+03  0.7818609E-02  0.9742618E-01
       -1   -1    0    0    0  501  0.00000000000E+00  0.00000000000E+00  0.33559862290E+03  0.33559862294E+03  0.50400001928E-02 0.  1.
        1   -1    0    0  501    0  0.00000000000E+00  0.00000000000E+00 -0.34990084871E+03  0.34990084874E+03  0.50400001928E-02 0. -1.
    10030    2    1    2    0    0  0.00000000000E+00  0.00000000000E+00 -0.14302225805E+02  0.68549947168E+03  0.68535025499E+03 0.  0.
        5    1    3    3  502    0 -0.21180772218E+03  0.26005903943E+03  0.62942228618E+02  0.34128731196E+03  0.46999998093E+01 0. -1.
       -5    1    3    3    0  502  0.21180772218E+03 -0.26005903943E+03 -0.77244454424E+02  0.34421215972E+03  0.46999998093E+01 0.  1.
</event>
<event>
 5   0  0.7266519E-02  0.6013590E+03  0.7818609E-02  0.9902591E-01
       -1   -1    0    0    0  501  0.00000000000E+00  0.00000000000E+00  0.27113945055E+03  0.27113945060E+03  0.50400001928E-02 0.  1.
        1   -1    0    0  501    0  0.00000000000E+00  0.00000000000E+00 -0.33343790106E+03  0.33343790109E+03  0.50400001928E-02 0. -1.
    10030    2    1    2    0    0  0.00000000000E+00  0.00000000000E+00 -0.62298450502E+02  0.60457735170E+03  0.60135902525E+03 0.  0.
        4    1    3    3  502    0  0.12429129671E+03 -0.33455058894E+02 -0.30433678038E+03  0.33043918683E+03  0.12699999809E+01 0. -1.
       -4    1    3    3    0  502 -0.12429129671E+03  0.33455058894E+02  0.24203832988E+03  0.27413816486E+03  0.12699999809E+01 0.  1.
</event>
<event>
 5   0  0.1175861E-01  0.5967622E+03  0.7818609E-02  0.9912146E-01
       -2   -1    0    0    0  501  0.00000000000E+00  0.00000000000E+00  0.11961397794E+03  0.11961397796E+03  0.25500000920E-02 0. -1.
        2   -1    0    0  501    0  0.00000000000E+00  0.00000000000E+00 -0.74432175802E+03  0.74432175803E+03  0.25500000920E-02 0.  1.
    10030    2    1    2    0    0  0.00000000000E+00  0.00000000000E+00 -0.62470778008E+03  0.86393573599E+03  0.59676221850E+03 0.  0.
        3    1    3    3  502    0 -0.13493347144E+03 -0.96999858178E+02  0.46417888138E+02  0.17254171884E+03  0.10100000352E+00 0. -1.
       -3    1    3    3    0  502  0.13493347144E+03  0.96999858178E+02 -0.67112566822E+03  0.69139401715E+03  0.10100000352E+00 0.  1.
</event>
<event>
 5   0  0.7263385E-02  0.6021362E+03  0.7818609E-02  0.9900984E-01
        1   -1    0    0  501    0  0.00000000000E+00  0.00000000000E+00  0.57975159974E+03  0.57975159976E+03  0.50400001928E-02 0. -1.
       -1   -1    0    0    0  501  0.00000000000E+00  0.00000000000E+00 -0.15634626284E+03  0.15634626292E+03  0.50400001928E-02 0.  1.
    10030    2    1    2    0    0  0.00000000000E+00  0.00000000000E+00  0.42340533689E+03  0.73609786268E+03  0.60213618404E+03 0.  0.
        1    1    3    3  502    0  0.33874818657E+02  0.29912474532E+03  0.20639095048E+03  0.36499361784E+03  0.50400001928E-02 0.  1.
       -1    1    3    3    0  502 -0.33874818657E+02 -0.29912474532E+03  0.21701438641E+03  0.37110424484E+03  0.50400001928E-02 0. -1.
</event>
<event>
 5   0  0.7123340E-02  0.5973929E+03  0.7818609E-02  0.9910830E-01
        1   -1    0    0  501    0  0.00000000000E+00  0.00000000000E+00  0.84748967243E+03  0.84748967245E+03  0.50400001928E-02 0. -1.
       -1   -1    0    0    0  501  0.00000000000E+00  0.00000000000E+00 -0.10527512051E+03  0.10527512063E+03  0.50400001928E-02 0.  1.
    10030    2    1    2    0    0  0.00000000000E+00  0.00000000000E+00  0.74221455192E+03  0.95276479308E+03  0.59739292752E+03 0.  0.
        2    1    3    3  502    0  0.29592259309E+03  0.33795529958E+02  0.40702760408E+03  0.50436473849E+03  0.25500000920E-02 0. -1.
       -2    1    3    3    0  502 -0.29592259309E+03 -0.33795529958E+02  0.33518694785E+03  0.44840005459E+03  0.25500000920E-02 0.  1.
</event>
<event>
 5   0  0.7123340E-02  0.6092881E+03  0.7818609E-02  0.9886321E-01
       -1   -1    0    0    0  501  0.00000000000E+00  0.00000000000E+00  0.66955468071E+03  0.66955468073E+03  0.50400001928E-02 0. -1.
        1   -1    0    0  501    0  0.00000000000E+00  0.00000000000E+00 -0.13861151303E+03  0.13861151312E+03  0.50400001928E-02 0.  1.
    10030    2    1    2    0    0  0.00000000000E+00  0.00000000000E+00  0.53094316768E+03  0.80816619386E+03  0.60928806782E+03 0.  0.
        2    1    3    3  502    0 -0.91717814161E+02  0.22475915782E+03  0.50961457742E+03  0.56447839107E+03  0.25500000920E-02 0. -1.
       -2    1    3    3    0  502  0.91717814161E+02 -0.22475915782E+03  0.21328590263E+02  0.24368780279E+03  0.25500000920E-02 0.  1.
</event>
<event>
 5   0  0.1146468E-01  0.5853271E+03  0.7818609E-02  0.9936324E-01
        2   -1    0    0  501    0  0.00000000000E+00  0.00000000000E+00  0.41518923695E+03  0.41518923696E+03  0.25500000920E-02 0.  1.
       -2   -1    0    0    0  501  0.00000000000E+00  0.00000000000E+00 -0.20629621323E+03  0.20629621324E+03  0.25500000920E-02 0. -1.
    10030    2    1    2    0    0  0.00000000000E+00  0.00000000000E+00  0.20889302372E+03  0.62148545020E+03  0.58532714737E+03 0.  0.
        4    1    3    3  502    0  0.69719369034E+02  0.64058074817E+02  0.39847587355E+03  0.40957155916E+03  0.12699999809E+01 0.  1.
       -4    1    3    3    0  502 -0.69719369034E+02 -0.64058074817E+02 -0.18958284983E+03  0.21191389104E+03  0.12699999809E+01 0. -1.
</event>
<event>
 5   0  0.7266519E-02  0.5279471E+03  0.7818609E-02  0.1006731E+00
       -1   -1    0    0    0  501  0.00000000000E+00  0.00000000000E+00  0.88212813077E+02  0.88212813221E+02  0.50400001928E-02 0.  1.
        1   -1    0    0  501    0  0.00000000000E+00  0.00000000000E+00 -0.78993104920E+03  0.78993104922E+03  0.50400001928E-02 0. -1.
    10030    2    1    2    0    0  0.00000000000E+00  0.00000000000E+00 -0.70171823613E+03  0.87814386244E+03  0.52794711878E+03 0.  0.
        4    1    3    3  502    0 -0.51639756309E+02 -0.14148381690E+03 -0.71144284245E+03  0.72721170634E+03  0.12699999809E+01 0. -1.
       -4    1    3    3    0  502  0.51639756309E+02  0.14148381690E+03  0.97246063182E+01  0.15093215610E+03  0.12699999809E+01 0.  1.
</event>
<event>
 5   0  0.7263385E-02  0.5906016E+03  0.7818609E-02  0.9925099E-01
        1   -1    0    0  501    0  0.00000000000E+00  0.00000000000E+00  0.12875137269E+03  0.12875137279E+03  0.50400001928E-02 0.  1.
       -1   -1    0    0    0  501  0.00000000000E+00  0.00000000000E+00 -0.67729413093E+03  0.67729413095E+03  0.50400001928E-02 0. -1.
    10030    2    1    2    0    0  0.00000000000E+00  0.00000000000E+00 -0.54854275824E+03  0.80604550374E+03  0.59060155475E+03 0.  0.
        1    1    3    3  502    0 -0.13047725154E+03  0.26471348584E+03 -0.28825670937E+03  0.41254026868E+03  0.50400001928E-02 0.  1.
       -1    1    3    3    0  502  0.13047725154E+03 -0.26471348584E+03 -0.26028604887E+03  0.39350523506E+03  0.50400001928E-02 0. -1.
</event>
<event>
 5   0  0.1206238E-01  0.6125884E+03  0.7818609E-02  0.9879628E-01
       -2   -1    0    0    0  501  0.00000000000E+00  0.00000000000E+00  0.25766714228E+03  0.25766714229E+03  0.25500000920E-02 0. -1.
        2   -1    0    0  501    0  0.00000000000E+00  0.00000000000E+00 -0.36409813218E+03  0.36409813219E+03  0.25500000920E-02 0.  1.
    10030    2    1    2    0    0  0.00000000000E+00  0.00000000000E+00 -0.10643098990E+03  0.62176527448E+03  0.61258836174E+03 0.  0.
        5    1    3    3  502    0 -0.68951520866E+02 -0.15683838297E+03 -0.31087155137E+03  0.35498704491E+03  0.46999998093E+01 0.  1.
       -5    1    3    3    0  502  0.68951520866E+02  0.15683838297E+03  0.20444056147E+03  0.26677822957E+03  0.46999998093E+01 0. -1.
</event>
<event>
 5   0  0.1166419E-01  0.5986236E+03  0.7818609E-02  0.9908266E-01
       -2   -1    0    0    0  501  0.00000000000E+00  0.00000000000E+00  0.45225539400E+03  0.45225539401E+03  0.25500000920E-02 0.  1.
        2   -1    0    0  501    0  0.00000000000E+00  0.00000000000E+00 -0.19809061785E+03  0.19809061786E+03  0.25500000920E-02 0. -1.
    10030    2    1    2    0    0  0.00000000000E+00  0.00000000000E+00  0.25416477616E+03  0.65034601187E+03  0.59862358935E+03 0.  0.
        1    1    3    3  502    0  0.24727150702E+03  0.13860755732E+02 -0.55524448993E+02  0.25380757120E+03  0.50400001928E-02 0. -1.
       -1    1    3    3    0  502 -0.24727150702E+03 -0.13860755732E+02  0.30968922515E+03  0.39653844068E+03  0.50400001928E-02 0.  1.
</event>
<event>
 5   0  0.1166419E-01  0.6110368E+03  0.7818609E-02  0.9882769E-01
       -2   -1    0    0    0  501  0.00000000000E+00  0.00000000000E+00  0.94859457231E+02  0.94859457265E+02  0.25500000920E-02 0.  1.
        2   -1    0    0  501    0  0.00000000000E+00  0.00000000000E+00 -0.98399777726E+03  0.98399777727E+03  0.25500000920E-02 0. -1.
    10030    2    1    2    0    0  0.00000000000E+00  0.00000000000E+00 -0.88913832003E+03  0.10788572345E+04  0.61103680769E+03 0.  0.
        1    1    3    3  502    0  0.10821056455E+03  0.11426826535E+03 -0.90692746889E+03  0.92048041619E+03  0.50400001928E-02 0. -1.
       -1    1    3    3    0  502 -0.10821056455E+03 -0.11426826535E+03  0.17789148855E+02  0.15837681834E+03  0.50400001928E-02 0.  1.
</event>
<event>
 5   0  0.4695625E-02  0.5928653E+03  0.7818609E-02  0.9920320E-01
       -3   -1    0    0    0  501  0.00000000000E+00  0.00000000000E+00  0.91397918039E+02  0.91397973844E+02  0.10100000352E+00 0. -1.
        3   -1    0    0  501    0  0.00000000000E+00  0.00000000000E+00 -0.96142551328E+03  0.96142551858E+03  0.10100000352E+00 0.  1.
    10030    2    1    2    0    0  0.00000000000E+00  0.00000000000E+00 -0.87002759524E+03  0.10528234924E+04  0.59286532175E+03 0.  0.
        3    1    3    3  502    0 -0.20405230491E+03  0.14641470097E+03 -0.71465763863E+03  0.75750257983E+03  0.10100000352E+00 0. -1.
       -3    1    3    3    0  502  0.20405230491E+03 -0.14641470097E+03 -0.15536995661E+03  0.29532091260E+03  0.10100000352E+00 0.  1.
</event>
<event>
 5   0  0.7424930E-02  0.6010045E+03  0.7818609E-02  0.9903324E-01
        1   -1    0    0  501    0  0.00000000000E+00  0.00000000000E+00  0.26164098936E+03  0.26164098940E+03  0.50400001928E-02 0. -1.
       -1   -1    0    0    0  501  0.00000000000E+00  0.00000000000E+00 -0.34513556353E+03  0.34513556357E+03  0.50400001928E-02 0.  1.
    10030    2    1    2    0    0  0.00000000000E+00  0.00000000000E+00 -0.83494574178E+02  0.60677655297E+03  0.60100452687E+03 0.  0.
        3    1    3    3  502    0  0.19626014011E+03  0.22743453280E+03 -0.49375700238E+02  0.30443797280E+03  0.10100000352E+00 0. -1.
       -3    1    3    3    0  502 -0.19626014011E+03 -0.22743453280E+03 -0.34118873939E+02  0.30233858018E+03  0.10100000352E+00 0.  1.
</event>
<event>
 5   0  0.1206238E-01  0.5378157E+03  0.7818609E-02  0.1004354E+00
        2   -1    0    0  501    0  0.00000000000E+00  0.00000000000E+00  0.17569622884E+03  0.17569622886E+03  0.25500000920E-02 0.  1.
       -2   -1    0    0    0  501  0.00000000000E+00  0.00000000000E+00 -0.41157078411E+03  0.41157078412E+03  0.25500000920E-02 0. -1.
    10030    2    1    2    0    0  0.00000000000E+00  0.00000000000E+00 -0.23587455528E+03  0.58726701298E+03  0.53781571073E+03 0.  0.
        5    1    3    3  502    0 -0.91637542092E+02 -0.17208532436E+03  0.84231145059E+02  0.21243298655E+03  0.46999998093E+01 0.  1.
       -5    1    3    3    0  502  0.91637542092E+02  0.17208532436E+03 -0.32010570033E+03  0.37483402642E+03  0.46999998093E+01 0. -1.
</event>
<event>
 5   0  0.1219020E-01  0.6140707E+03  0.7818609E-02  0.9876636E-01
       -2   -1    0    0    0  501  0.00000000000E+00  0.00000000000E+00  0.62577500853E+03  0.62577500854E+03  0.25500000920E-02 0. -1.
        2   -1    0    0  501    0  0.00000000000E+00  0.00000000000E+00 -0.15064634282E+03  0.15064634284E+03  0.25500000920E-02 0.  1.
    10030    2    1    2    0    0  0.00000000000E+00  0.00000000000E+00  0.47512866571E+03  0.77642135138E+03  0.61407073362E+03 0.  0.
        2    1    3    3  502    0  0.84773560403E+02  0.16313425271E+03  0.54848815230E+03  0.57847955380E+03  0.25500000920E-02 0. -1.
       -2    1    3    3    0  502 -0.84773560403E+02 -0.16313425271E+03 -0.73359486582E+02  0.19794179758E+03  0.25500000920E-02 0.  1.
</event>
<event>
 5   0  0.7221069E-02  0.6024791E+03  0.7818609E-02  0.9900276E-01
        1   -1    0    0  501    0  0.00000000000E+00  0.00000000000E+00  0.47109448039E+03  0.47109448041E+03  0.50400001928E-02 0.  1.
       -1   -1    0    0    0  501  0.00000000000E+00  0.00000000000E+00 -0.19262649317E+03  0.19262649324E+03  0.50400001928E-02 0. -1.
    10030    2    1    2    0    0  0.00000000000E+00  0.00000000000E+00  0.27846798721E+03  0.66372097365E+03  0.60247913737E+03 0.  0.
        5    1    3    3  502    0 -0.97748532141E+02 -0.53361906794E+02  0.44754030584E+03  0.46121218975E+03  0.46999998093E+01 0.  1.
       -5    1    3    3    0  502  0.97748532141E+02  0.53361906794E+02 -0.16907231862E+03  0.20250878390E+03  0.46999998093E+01 0. -1.
</event>
<event>
 5   0  0.1166419E-01  0.6025211E+03  0.7818609E-02  0.9900189E-01
        2   -1    0    0  501    0  0.00000000000E+00  0.00000000000E+00  0.56538176894E+03  0.56538176895E+03  0.25500000920E-02 0. -1.
       -2   -1    0    0    0  501  0.00000000000E+00  0.00000000000E+00 -0.16052502490E+03  0.16052502492E+03  0.25500000920E-02 0.  1.
    10030    2    1    2    0    0  0.00000000000E+00  0.00000000000E+00  0.40485674404E+03  0.72590679388E+03  0.60252111183E+03 0.  0.
        1    1    3    3  502    0  0.11512313428E+03  0.26045102748E+03  0.83955631944E+02  0.29687812638E+03  0.50400001928E-02 0.  1.
       -1    1    3    3    0  502 -0.11512313428E+03 -0.26045102748E+03  0.32090111210E+03  0.42902866750E+03  0.50400001928E-02 0. -1.
</event>
<event>
 5   0  0.1146468E-01  0.5777382E+03  0.7818609E-02  0.9952700E-01
        2   -1    0    0  501    0  0.00000000000E+00  0.00000000000E+00  0.15759300173E+04  0.15759300173E+04  0.25500000920E-02 0. -1.
       -2   -1    0    0    0  501  0.00000000000E+00  0.00000000000E+00 -0.52949906771E+02  0.52949906832E+02  0.25500000920E-02 0.  1.
    10030    2    1    2    0    0  0.00000000000E+00  0.00000000000E+00  0.15229801105E+04  0.16288799241E+04  0.57773816749E+03 0.  0.
        4    1    3    3  502    0 -0.19872941631E+03 -0.20932061829E+03  0.79427681796E+03  0.84509512991E+03  0.12699999809E+01 0.  1.
       -4    1    3    3    0  502  0.19872941631E+03  0.20932061829E+03  0.72870329255E+03  0.78378479420E+03  0.12699999809E+01 0. -1.
</event>
<event>
 5   0  0.1166419E-01  0.5099539E+03  0.7818609E-02  0.1011213E+00
        2   -1    0    0  501    0  0.00000000000E+00  0.00000000000E+00  0.25564004298E+03  0.25564004300E+03  0.25500000920E-02 0. -1.
       -2   -1    0    0    0  501  0.00000000000E+00  0.00000000000E+00 -0.25431554940E+03  0.25431554941E+03  0.25500000920E-02 0.  1.
    10030    2    1    2    0    0  0.00000000000E+00  0.00000000000E+00  0.13244935867E+01  0.50995559241E+03  0.50995387237E+03 0.  0.
        1    1    3    3  502    0 -0.17473866660E+03  0.33041334075E+02  0.18338644286E+03  0.25545238072E+03  0.50400001928E-02 0. -1.
       -1    1    3    3    0  502  0.17473866660E+03 -0.33041334075E+02 -0.18206194927E+03  0.25450321169E+03  0.50400001928E-02 0.  1.
</event>
<event>
 5   0  0.1219020E-01  0.6042600E+03  0.7818609E-02  0.9896607E-01
        2   -1    0    0  501    0  0.00000000000E+00  0.00000000000E+00  0.13735756302E+04  0.13735756302E+04  0.25500000920E-02 0. -1.
       -2   -1    0    0    0  501  0.00000000000E+00  0.00000000000E+00 -0.66456148386E+02  0.66456148435E+02  0.25500000920E-02 0.  1.
    10030    2    1    2    0    0  0.00000000000E+00  0.00000000000E+00  0.13071194818E+04  0.14400317786E+04  0.60426002990E+03 0.  0.
        2    1    3    3  502    0 -0.15088702971E+03 -0.64241506435E+02  0.48841643250E+02  0.17111216498E+03  0.25500000920E-02 0.  1.
       -2    1    3    3    0  502  0.15088702971E+03  0.64241506435E+02  0.12582778385E+04  0.12689196136E+04  0.25500000920E-02 0. -1.
</event>
<event>
 5   0  0.7123340E-02  0.6076233E+03  0.7818609E-02  0.9889715E-01
        1   -1    0    0  501    0  0.00000000000E+00  0.00000000000E+00  0.16842180414E+03  0.16842180422E+03  0.50400001928E-02 0. -1.
       -1   -1    0    0    0  501  0.00000000000E+00  0.00000000000E+00 -0.54803786570E+03  0.54803786572E+03  0.50400001928E-02 0.  1.
    10030    2    1    2    0    0  0.00000000000E+00  0.00000000000E+00 -0.37961606155E+03  0.71645966994E+03  0.60762332448E+03 0.  0.
        2    1    3    3  502    0  0.28425058244E+02  0.15303894097E+03 -0.49744856743E+03  0.52123313271E+03  0.25500000920E-02 0.  1.
       -2    1    3    3    0  502 -0.28425058244E+02 -0.15303894097E+03  0.11783250588E+03  0.19522653723E+03  0.25500000920E-02 0. -1.
</event>
<event>
 5   0  0.7123340E-02  0.7097839E+03  0.7818609E-02  0.9700645E-01
        1   -1    0    0  501    0  0.00000000000E+00  0.00000000000E+00  0.62331710504E+03  0.62331710506E+03  0.50400001928E-02 0.  1.
       -1   -1    0    0    0  501  0.00000000000E+00  0.00000000000E+00 -0.20206132288E+03  0.20206132294E+03  0.50400001928E-02 0. -1.
    10030    2    1    2    0    0  0.00000000000E+00  0.00000000000E+00  0.42125578216E+03  0.82537842800E+03  0.70978385119E+03 0.  0.
        2    1    3    3  502    0 -0.33076267545E+03 -0.79612535376E+02  0.93149357284E+02  0.35273064232E+03  0.25500000920E-02 0. -1.
       -2    1    3    3    0  502  0.33076267545E+03  0.79612535376E+02  0.32810642487E+03  0.47264778568E+03  0.25500000920E-02 0.  1.
</event>
<event>
 5   0  0.1166419E-01  0.6040851E+03  0.7818609E-02  0.9896967E-01
       -2   -1    0    0    0  501  0.00000000000E+00  0.00000000000E+00  0.42054484561E+03  0.42054484562E+03  0.25500000920E-02 0. -1.
        2   -1    0    0  501    0  0.00000000000E+00  0.00000000000E+00 -0.21693217834E+03  0.21693217836E+03  0.25500000920E-02 0.  1.
    10030    2    1    2    0    0  0.00000000000E+00  0.00000000000E+00  0.20361266727E+03  0.63747702398E+03  0.60408512465E+03 0.  0.
        1    1    3    3  502    0 -0.27272908798E+03  0.91160844522E+02  0.42959329655E+01  0.28759330672E+03  0.50400001928E-02 0.  1.
       -1    1    3    3    0  502  0.27272908798E+03 -0.91160844522E+02  0.19931673431E+03  0.34988371726E+03  0.50400001928E-02 0. -1.
</event>
<event>
 5   0  0.7263385E-02  0.5972162E+03  0.7818609E-02  0.9911199E-01
        1   -1    0    0  501    0  0.00000000000E+00  0.00000000000E+00  0.16880845438E+03  0.16880845445E+03  0.50400001928E-02 0.  1.
       -1   -1    0    0    0  501  0.00000000000E+00  0.00000000000E+00 -0.52821278940E+03  0.52821278942E+03  0.50400001928E-02 0. -1.
    10030    2    1    2    0    0  0.00000000000E+00  0.00000000000E+00 -0.35940433502E+03  0.69702124388E+03  0.59721615717E+03 0.  0.
        1    1    3    3  502    0  0.27584116503E+03 -0.11432179224E+03 -0.18319652208E+03  0.35031241233E+03  0.50400001928E-02 0. -1.
       -1    1    3    3    0  502 -0.27584116503E+03  0.11432179224E+03 -0.17620781294E+03  0.34670883154E+03  0.50400001928E-02 0.  1.
</event>
<event>
 5   0  0.7221069E-02  0.6080837E+03  0.7818609E-02  0.9888776E-01
        1   -1    0    0  501    0  0.00000000000E+00  0.00000000000E+00  0.71483754656E+03  0.71483754658E+03  0.50400001928E-02 0.  1.
       -1   -1    0    0    0  501  0.00000000000E+00  0.00000000000E+00 -0.12931809876E+03  0.12931809885E+03  0.50400001928E-02 0. -1.
    10030    2    1    2    0    0  0.00000000000E+00  0.00000000000E+00  0.58551944780E+03  0.84415564543E+03  0.60808365375E+03 0.  0.
        5    1    3    3  502    0  0.61534133775E+02 -0.28665037593E+03  0.40437538950E+03  0.49949617944E+03  0.46999998093E+01 0.  1.
       -5    1    3    3    0  502 -0.61534133775E+02  0.28665037593E+03  0.18114405830E+03  0.34465946599E+03  0.46999998093E+01 0. -1.
</event>
<event>
 5   0  0.1175861E-01  0.5965455E+03  0.7818609E-02  0.9912599E-01
        2   -1    0    0  501    0  0.00000000000E+00  0.00000000000E+00  0.18574043053E+04  0.18574043053E+04  0.25500000920E-02 0.  1.
       -2   -1    0    0    0  501  0.00000000000E+00  0.00000000000E+00 -0.47898364039E+02  0.47898364107E+02  0.25500000920E-02 0. -1.
    10030    2    1    2    0    0  0.00000000000E+00  0.00000000000E+00  0.18095059413E+04  0.19053026694E+04  0.59654548075E+03 0.  0.
        3    1    3    3  502    0  0.58963089686E+02  0.18164531465E+03  0.16365306929E+04  0.16476359991E+04  0.10100000352E+00 0.  1.
       -3    1    3    3    0  502 -0.58963089686E+02 -0.18164531465E+03  0.17297524835E+03  0.25766667037E+03  0.10100000352E+00 0. -1.
</event>
<event>
 5   0  0.7266519E-02  0.5345560E+03  0.7818609E-02  0.1005133E+00
       -1   -1    0    0    0  501  0.00000000000E+00  0.00000000000E+00  0.13896811068E+03  0.13896811077E+03  0.50400001928E-02 0.  1.
        1   -1    0    0  501    0  0.00000000000E+00  0.00000000000E+00 -0.51405706318E+03  0.51405706321E+03  0.50400001928E-02 0. -1.
    10030    2    1    2    0    0  0.00000000000E+00  0.00000000000E+00 -0.37508895250E+03  0.65302517398E+03  0.53455603594E+03 0.  0.
        4    1    3    3  502    0  0.18482393799E+03 -0.14707462345E+03 -0.34743629344E+02  0.23874581797E+03  0.12699999809E+01 0.  1.
       -4    1    3    3    0  502 -0.18482393799E+03  0.14707462345E+03 -0.34034532316E+03  0.41427935601E+03  0.12699999809E+01 0. -1.
</event>
<event>
 5   0  0.1219020E-01  0.6001293E+03  0.7818609E-02  0.9905138E-01
       -2   -1    0    0    0  501  0.00000000000E+00  0.00000000000E+00  0.85467851869E+02  0.85467851907E+02  0.25500000920E-02 0.  1.
        2   -1    0    0  501    0  0.00000000000E+00  0.00000000000E+00 -0.10534813948E+04  0.10534813948E+04  0.25500000920E-02 0. -1.
    10030    2    1    2    0    0  0.00000000000E+00  0.00000000000E+00 -0.96801354294E+03  0.11389492467E+04  0.60012929214E+03 0.  0.
        2    1    3    3  502    0  0.28141794247E+03 -0.77903346592E+02 -0.35287988467E+03  0.45802751311E+03  0.25500000920E-02 0.  1.
       -2    1    3    3    0  502 -0.28141794247E+03  0.77903346592E+02 -0.61513365826E+03  0.68092173360E+03  0.25500000920E-02 0. -1.
</event>
<event>
 5   0  0.7266519E-02  0.6120346E+03  0.7818609E-02  0.9880748E-01
        1   -1    0    0  501    0  0.00000000000E+00  0.00000000000E+00  0.11348608332E+04  0.11348608332E+04  0.50400001928E-02 0. -1.
       -1   -1    0    0    0  501  0.00000000000E+00  0.00000000000E+00 -0.82518130248E+02  0.82518130402E+02  0.50400001928E-02 0.  1.
    10030    2    1    2    0    0  0.00000000000E+00  0.00000000000E+00  0.10523427029E+04  0.12173789636E+04  0.61203462041E+03 0.  0.
        4    1    3    3  502    0 -0.32822259284E+02  0.81526324192E+02  0.11092133189E+04  0.11126902722E+04  0.12699999809E+01 0. -1.
       -4    1    3    3    0  502  0.32822259284E+02 -0.81526324192E+02 -0.56870615947E+02  0.10468869136E+03  0.12699999809E+01 0.  1.
</event>
<event>
 5   0  0.7263385E-02  0.5958804E+03  0.7818609E-02  0.9913990E-01
        1   -1    0    0  501    0  0.00000000000E+00  0.00000000000E+00  0.83541254546E+03  0.83541254547E+03  0.50400001928E-02 0.  1.
       -1   -1    0    0    0  501  0.00000000000E+00  0.00000000000E+00 -0.10625693512E+03  0.10625693524E+03  0.50400001928E-02 0. -1.
    10030    2    1    2    0    0  0.00000000000E+00  0.00000000000E+00  0.72915561033E+03  0.94166948072E+03  0.59588044676E+03 0.  0.
        1    1    3    3  502    0  0.20298098415E+02  0.25638884222E+03  0.60225989909E+03  0.65487726888E+03  0.50400001928E-02 0.  1.
       -1    1    3    3    0  502 -0.20298098415E+02 -0.25638884222E+03  0.12689571125E+03  0.28679221184E+03  0.50400001928E-02 0. -1.
</event>
<event>
 5   0  0.1206238E-01  0.6199662E+03  0.7818609E-02  0.9864827E-01
        2   -1    0    0  501    0  0.00000000000E+00  0.00000000000E+00  0.22090640034E+03  0.22090640035E+03  0.25500000920E-02 0. -1.
       -2   -1    0    0    0  501  0.00000000000E+00  0.00000000000E+00 -0.43497843385E+03  0.43497843386E+03  0.25500000920E-02 0.  1.
    10030    2    1    2    0    0  0.00000000000E+00  0.00000000000E+00 -0.21407203352E+03  0.65588483421E+03  0.61996619280E+03 0.  0.
        5    1    3    3  502    0  0.12457145492E+03 -0.12278950526E+03 -0.37773572227E+03  0.41629517876E+03  0.46999998093E+01 0.  1.
       -5    1    3    3    0  502 -0.12457145492E+03  0.12278950526E+03  0.16366368876E+03  0.23958965545E+03  0.46999998093E+01 0. -1.
</event>
<event>
 5   0  0.7424930E-02  0.5991253E+03  0.7818609E-02  0.9907222E-01
       -1   -1    0    0    0  501  0.00000000000E+00  0.00000000000E+00  0.15725942870E+03  0.15725942878E+03  0.50400001928E-02 0. -1.
        1   -1    0    0  501    0  0.00000000000E+00  0.00000000000E+00 -0.57063536209E+03  0.57063536211E+03  0.50400001928E-02 0.  1.
    10030    2    1    2    0    0  0.00000000000E+00  0.00000000000E+00 -0.41337593339E+03  0.72789479089E+03  0.59912533272E+03 0.  0.
        3    1    3    3  502    0  0.73599066878E+02 -0.72766804320E+02 -0.54822341959E+03  0.55790748198E+03  0.10100000352E+00 0.  1.
       -3    1    3    3    0  502 -0.73599066878E+02  0.72766804320E+02  0.13484748620E+03  0.16998730892E+03  0.10100000352E+00 0. -1.
</event>
<event>
 5   0  0.7424930E-02  0.6023287E+03  0.7818609E-02  0.9900587E-01
       -1   -1    0    0    0  501  0.00000000000E+00  0.00000000000E+00  0.79955878652E+02  0.79955878810E+02  0.50400001928E-02 0. -1.
        1   -1    0    0  501    0  0.00000000000E+00  0.00000000000E+00 -0.11343750707E+04  0.11343750707E+04  0.50400001928E-02 0.  1.
    10030    2    1    2    0    0  0.00000000000E+00  0.00000000000E+00 -0.10544191921E+04  0.12143309496E+04  0.60232866644E+03 0.  0.
        3    1    3    3  502    0 -0.17679186109E+03  0.22522659449E+03 -0.71544491444E+03  0.77061262435E+03  0.10100000352E+00 0. -1.
       -3    1    3    3    0  502  0.17679186109E+03 -0.22522659449E+03 -0.33897427764E+03  0.44371832520E+03  0.10100000352E+00 0.  1.
</event>
<event>
 5   0  0.1219020E-01  0.5996049E+03  0.7818609E-02  0.9906226E-01
        2   -1    0    0  501    0  0.00000000000E+00  0.00000000000E+00  0.35670900649E+03  0.35670900650E+03  0.25500000920E-02 0. -1.
       -2   -1    0    0    0  501  0.00000000000E+00  0.00000000000E+00 -0.25197435298E+03  0.25197435299E+03  0.25500000920E-02 0.  1.
    10030    2    1    2    0    0  0.00000000000E+00  0.00000000000E+00  0.10473465351E+03  0.60868335949E+03  0.59960494033E+03 0.  0.
        2    1    3    3  502    0 -0.12524646989E+03 -0.26171813959E+03  0.12899840101E+03  0.31752740083E+03  0.25500000920E-02 0.  1.
       -2    1    3    3    0  502  0.12524646989E+03  0.26171813959E+03 -0.24263747496E+02  0.29115595865E+03  0.25500000920E-02 0. -1.
</event>
<event>
 5   0  0.1146468E-01  0.5551311E+03  0.7818609E-02  0.1000313E+00
       -2   -1    0    0    0  501  0.00000000000E+00  0.00000000000E+00  0.73984227890E+02  0.73984227934E+02  0.25500000920E-02 0. -1.
        2   -1    0    0  501    0  0.00000000000E+00  0.00000000000E+00 -0.10413386619E+04  0.10413386619E+04  0.25500000920E-02 0.  1.
    10030    2    1    2    0    0  0.00000000000E+00  0.00000000000E+00 -0.96735443401E+03  0.11153228898E+04  0.55513110847E+03 0.  0.
        4    1    3    3  502    0 -0.54405668351E+02 -0.82166847975E+02 -0.10050018536E+04  0.10098226113E+04  0.12699999809E+01 0.  1.
       -4    1    3    3    0  502  0.54405668351E+02  0.82166847975E+02  0.37647419641E+02  0.10550027849E+03  0.12699999809E+01 0. -1.
</event>
<event>
 5   0  0.7424930E-02  0.6170955E+03  0.7818609E-02  0.9870560E-01
       -1   -1    0    0    0  501  0.00000000000E+00  0.00000000000E+00  0.88431149833E+03  0.88431149835E+03  0.50400001928E-02 0. -1.
        1   -1    0    0  501    0  0.00000000000E+00  0.00000000000E+00 -0.10765631027E+03  0.10765631039E+03  0.50400001928E-02 0.  1.
    10030    2    1    2    0    0  0.00000000000E+00  0.00000000000E+00  0.77665518806E+03  0.99196780874E+03  0.61709549701E+03 0.  0.
        3    1    3    3  502    0 -0.14883570427E+03  0.45393346144E+02  0.81662059346E+03  0.83131331434E+03  0.10100000352E+00 0. -1.
       -3    1    3    3    0  502  0.14883570427E+03 -0.45393346144E+02 -0.39965405401E+02  0.16065449439E+03  0.10100000352E+00 0.  1.
</event>
<event>
 5   0  0.1219020E-01  0.6422121E+03  0.7818609E-02  0.9821503E-01
       -2   -1    0    0    0  501  0.00000000000E+00  0.00000000000E+00  0.13284619926E+03  0.13284619929E+03  0.25500000920E-02 0. -1.
        2   -1    0    0  501    0  0.00000000000E+00  0.00000000000E+00 -0.77615401055E+03  0.77615401055E+03  0.25500000920E-02 0.  1.
    10030    2    1    2    0    0  0.00000000000E+00  0.00000000000E+00 -0.64330781129E+03  0.90900020984E+03  0.64221214674E+03 0.  0.
        2    1    3    3  502    0  0.32049277471E+03 -0.16037855012E+02 -0.33817732011E+03  0.46619387735E+03  0.25500000920E-02 0.  1.
       -2    1    3    3    0  502 -0.32049277471E+03  0.16037855012E+02 -0.30513049118E+03  0.44280633249E+03  0.25500000920E-02 0. -1.
</event>
<event>
 5   0  0.1146468E-01  0.5515481E+03  0.7818609E-02  0.1001136E+00
        2   -1    0    0  501    0  0.00000000000E+00  0.00000000000E+00  0.36756670795E+03  0.36756670796E+03  0.25500000920E-02 0.  1.
       -2   -1    0    0    0  501  0.00000000000E+00  0.00000000000E+00 -0.20690485476E+03  0.20690485478E+03  0.25500000920E-02 0. -1.
    10030    2    1    2    0    0  0.00000000000E+00  0.00000000000E+00  0.16066185319E+03  0.57447156274E+03  0.55154813509E+03 0.  0.
        4    1    3    3  502    0  0.15496324908E+02  0.11315376322E+03  0.34177296772E+03  0.36035299996E+03  0.12699999809E+01 0.  1.
       -4    1    3    3    0  502 -0.15496324908E+02 -0.11315376322E+03 -0.18111111453E+03  0.21411856278E+03  0.12699999809E+01 0. -1.
</event>
<event>
 5   0  0.1175861E-01  0.5798197E+03  0.7818609E-02  0.9948181E-01
        2   -1    0    0  501    0  0.00000000000E+00  0.00000000000E+00  0.16454895907E+03  0.16454895909E+03  0.25500000920E-02 0.  1.
       -2   -1    0    0    0  501  0.00000000000E+00  0.00000000000E+00 -0.51077645876E+03  0.51077645876E+03  0.25500000920E-02 0. -1.
    10030    2    1    2    0    0  0.00000000000E+00  0.00000000000E+00 -0.34622749969E+03  0.67532541785E+03  0.57981974652E+03 0.  0.
        3    1    3    3  502    0 -0.18909036393E+03 -0.20920392430E+02 -0.42790427971E+03  0.46828934576E+03  0.10100000352E+00 0. -1.
       -3    1    3    3    0  502  0.18909036393E+03  0.20920392430E+02  0.81676780025E+02  0.20703607209E+03  0.10100000352E+00 0.  1.
</event>
<event>
 5   0  0.7424930E-02  0.5976500E+03  0.7818609E-02  0.9910294E-01
       -1   -1    0    0    0  501  0.00000000000E+00  0.00000000000E+00  0.13189968495E+03  0.13189968505E+03  0.50400001928E-02 0. -1.
        1   -1    0    0  501    0  0.00000000000E+00  0.00000000000E+00 -0.67700226292E+03  0.67700226294E+03  0.50400001928E-02 0.  1.
    10030    2    1    2    0    0  0.00000000000E+00  0.00000000000E+00 -0.54510257797E+03  0.80890194799E+03  0.59765001543E+03 0.  0.
        3    1    3    3  502    0  0.66356719828E+01 -0.16482701035E+03  0.64689571556E+02  0.17719121410E+03  0.10100000352E+00 0. -1.
       -3    1    3    3    0  502 -0.66356719828E+01  0.16482701035E+03 -0.60979214953E+03  0.63171073389E+03  0.10100000352E+00 0.  1.
</event>
<event>
 5   0  0.1219020E-01  0.5984393E+03  0.7818609E-02  0.9908649E-01
        2   -1    0    0  501    0  0.00000000000E+00  0.00000000000E+00  0.22603307707E+04  0.22603307707E+04  0.25500000920E-02 0. -1.
       -2   -1    0    0    0  501  0.00000000000E+00  0.00000000000E+00 -0.39610309293E+02  0.39610309375E+02  0.25500000920E-02 0.  1.
    10030    2    1    2    0    0  0.00000000000E+00  0.00000000000E+00  0.22207204614E+04  0.22999410801E+04  0.59843930695E+03 0.  0.
        2    1    3    3  502    0 -0.10009800578E+03  0.11541142416E+03  0.12157354507E+03  0.19524224557E+03  0.25500000920E-02 0.  1.
       -2    1    3    3    0  502  0.10009800578E+03 -0.11541142416E+03  0.20991469163E+04  0.21046988345E+04  0.25500000920E-02 0. -1.
</event>
<event>
 5   0  0.7221069E-02  0.6171245E+03  0.7818609E-02  0.9870502E-01
        1   -1    0    0  501    0  0.00000000000E+00  0.00000000000E+00  0.43365625012E+03  0.43365625015E+03  0.50400001928E-02 0.  1.
       -1   -1    0    0    0  501  0.00000000000E+00  0.00000000000E+00 -0.21955329626E+03  0.21955329632E+03  0.50400001928E-02 0. -1.
    10030    2    1    2    0    0  0.00000000000E+00  0.00000000000E+00  0.21410295386E+03  0.65320954646E+03  0.61712449047E+03 0.  0.
        5    1    3    3  502    0  0.72570582287E+02 -0.96559550214E+02  0.40755029722E+03  0.42509948355E+03  0.46999998093E+01 0.  1.
       -5    1    3    3    0  502 -0.72570582287E+02  0.96559550214E+02 -0.19344734336E+03  0.22811006291E+03  0.46999998093E+01 0. -1.
</event>
<event>
 5   0  0.7266519E-02  0.5895170E+03  0.7818609E-02  0.9927397E-01
       -1   -1    0    0    0  501  0.00000000000E+00  0.00000000000E+00  0.12776534000E+03  0.12776534010E+03  0.50400001928E-02 0.  1.
        1   -1    0    0  501    0  0.00000000000E+00  0.00000000000E+00 -0.68001667209E+03  0.68001667211E+03  0.50400001928E-02 0. -1.
    10030    2    1    2    0    0  0.00000000000E+00  0.00000000000E+00 -0.55225133209E+03  0.80778201221E+03  0.58951695942E+03 0.  0.
        4    1    3    3  502    0 -0.10320665801E+03  0.16832499159E+03 -0.57600576083E+03  0.60890817572E+03  0.12699999809E+01 0. -1.
       -4    1    3    3    0  502  0.10320665801E+03 -0.16832499159E+03  0.23754428739E+02  0.19887383648E+03  0.12699999809E+01 0.  1.
</event>
<event>
 5   0  0.1219020E-01  0.6378649E+03  0.7818609E-02  0.9829820E-01
        2   -1    0    0  501    0  0.00000000000E+00  0.00000000000E+00  0.10443867603E+04  0.10443867603E+04  0.25500000920E-02 0. -1.
       -2   -1    0    0    0  501  0.00000000000E+00  0.00000000000E+00 -0.97394852232E+02  0.97394852265E+02  0.25500000920E-02 0.  1.
    10030    2    1    2    0    0  0.00000000000E+00  0.00000000000E+00  0.94699190811E+03  0.11417816126E+04  0.63786485784E+03 0.  0.
        2    1    3    3  502    0 -0.21113190649E+03 -0.22801862283E+03  0.60193704992E+03  0.67741965307E+03  0.25500000920E-02 0.  1.
       -2    1    3    3    0  502  0.21113190649E+03  0.22801862283E+03  0.34505485819E+03  0.46436195953E+03  0.25500000920E-02 0. -1.
</event>
<event>
 5   0  0.7221069E-02  0.6094379E+03  0.7818609E-02  0.9886017E-01
       -1   -1    0    0    0  501  0.00000000000E+00  0.00000000000E+00  0.62091102122E+02  0.62091102327E+02  0.50400001928E-02 0. -1.
        1   -1    0    0  501    0  0.00000000000E+00  0.00000000000E+00 -0.14954417274E+04  0.14954417274E+04  0.50400001928E-02 0.  1.
    10030    2    1    2    0    0  0.00000000000E+00  0.00000000000E+00 -0.14333506253E+04  0.15575328298E+04  0.60943785633E+03 0.  0.
        5    1    3    3  502    0 -0.16300464602E+03  0.11998830930E+03 -0.13465243162E+03  0.24314825998E+03  0.46999998093E+01 0. -1.
       -5    1    3    3    0  502  0.16300464602E+03 -0.11998830930E+03 -0.12986981937E+04  0.13143845698E+04  0.46999998093E+01 0.  1.
</event>
<event>
 5   0  0.7424930E-02  0.5996148E+03  0.7818609E-02  0.9906206E-01
       -1   -1    0    0    0  501  0.00000000000E+00  0.00000000000E+00  0.31204912311E+03  0.31204912315E+03  0.50400001928E-02 0.  1.
        1   -1    0    0  501    0  0.00000000000E+00  0.00000000000E+00 -0.28804592781E+03  0.28804592785E+03  0.50400001928E-02 0. -1.
    10030    2    1    2    0    0  0.00000000000E+00  0.00000000000E+00  0.24003195299E+02  0.60009505100E+03  0.59961480706E+03 0.  0.
        3    1    3    3  502    0  0.59192203867E+01  0.87194315446E+02  0.29901794203E+03  0.31152788908E+03  0.10100000352E+00 0.  1.
       -3    1    3    3    0  502 -0.59192203867E+01 -0.87194315446E+02 -0.27501474673E+03  0.28856716192E+03  0.10100000352E+00 0. -1.
</event>
<event>
 5   0  0.7424930E-02  0.6013307E+03  0.7818609E-02  0.9902649E-01
        1   -1    0    0  501    0  0.00000000000E+00  0.00000000000E+00  0.12862713586E+03  0.12862713596E+03  0.50400001928E-02 0. -1.
       -1   -1    0    0    0  501  0.00000000000E+00  0.00000000000E+00 -0.70280393461E+03  0.70280393463E+03  0.50400001928E-02 0.  1.
    10030    2    1    2    0    0  0.00000000000E+00  0.00000000000E+00 -0.57417679875E+03  0.83143107059E+03  0.60133071510E+03 0.  0.
        3    1    3    3  502    0  0.24001236802E+03 -0.10148039584E+03 -0.49446516834E+03  0.55892756279E+03  0.10100000352E+00 0.  1.
       -3    1    3    3    0  502 -0.24001236802E+03  0.10148039584E+03 -0.79711630415E+02  0.27250350781E+03  0.10100000352E+00 0. -1.
</event>
<event>
 5   0  0.7123340E-02  0.5993894E+03  0.7818609E-02  0.9906674E-01
       -1   -1    0    0    0  501  0.00000000000E+00  0.00000000000E+00  0.15415219438E+03  0.15415219447E+03  0.50400001928E-02 0.  1.
        1   -1    0    0  501    0  0.00000000000E+00  0.00000000000E+00 -0.58265080966E+03  0.58265080969E+03  0.50400001928E-02 0. -1.
    10030    2    1    2    0    0  0.00000000000E+00  0.00000000000E+00 -0.42849861528E+03  0.73680300415E+03  0.59938935896E+03 0.  0.
        2    1    3    3  502    0  0.25715725533E+03 -0.58508227311E+02 -0.39263360806E+02  0.26663585306E+03  0.25500000920E-02 0. -1.
       -2    1    3    3    0  502 -0.25715725533E+03  0.58508227311E+02 -0.38923525447E+03  0.47016715109E+03  0.25500000920E-02 0.  1.
</event>
<event>
 5   0  0.1206238E-01  0.5962833E+03  0.7818609E-02  0.9913147E-01
       -2   -1    0    0    0  501  0.00000000000E+00  0.00000000000E+00  0.64583985558E+02  0.64583985608E+02  0.25500000920E-02 0.  1.
        2   -1    0    0  501    0  0.00000000000E+00  0.00000000000E+00 -0.13763232918E+04  0.13763232918E+04  0.25500000920E-02 0. -1.
    10030    2    1    2    0    0  0.00000000000E+00  0.00000000000E+00 -0.13117393062E+04  0.14409072774E+04  0.59628330058E+03 0.  0.
        5    1    3    3  502    0 -0.77377255126E+02  0.24432033323E+03 -0.10238314700E+04  0.10554300706E+04  0.46999998093E+01 0.  1.
       -5    1    3    3    0  502  0.77377255126E+02 -0.24432033323E+03 -0.28790783621E+03  0.38547720684E+03  0.46999998093E+01 0. -1.
</event>
<event>
 5   0  0.7266519E-02  0.5846864E+03  0.7818609E-02  0.9937696E-01
       -1   -1    0    0    0  501  0.00000000000E+00  0.00000000000E+00  0.19721858761E+03  0.19721858768E+03  0.50400001928E-02 0. -1.
        1   -1    0    0  501    0  0.00000000000E+00  0.00000000000E+00 -0.43334933020E+03  0.43334933023E+03  0.50400001928E-02 0.  1.
    10030    2    1    2    0    0  0.00000000000E+00  0.00000000000E+00 -0.23613074259E+03  0.63056791791E+03  0.58468638730E+03 0.  0.
        4    1    3    3  502    0  0.93165248101E+02  0.27602248393E+03 -0.91764029978E+02  0.30543481332E+03  0.12699999809E+01 0. -1.
       -4    1    3    3    0  502 -0.93165248101E+02 -0.27602248393E+03 -0.14436671261E+03  0.32513310459E+03  0.12699999809E+01 0.  1.
</event>
<event>
 5   0  0.7424930E-02  0.6102582E+03  0.7818609E-02  0.9884349E-01
        1   -1    0    0  501    0  0.00000000000E+00  0.00000000000E+00  0.11312846622E+04  0.11312846622E+04  0.50400001928E-02 0.  1.
       -1   -1    0    0    0  501  0.00000000000E+00  0.00000000000E+00 -0.82299143011E+02  0.82299143165E+02  0.50400001928E-02 0. -1.
    10030    2    1    2    0    0  0.00000000000E+00  0.00000000000E+00  0.10489855192E+04  0.12135838054E+04  0.61025816930E+03 0.  0.
        3    1    3    3  502    0  0.10080867334E+03  0.78553082033E+02  0.10754959667E+04  0.10830625835E+04  0.10100000352E+00 0.  1.
       -3    1    3    3    0  502 -0.10080867334E+03 -0.78553082033E+02 -0.26510447507E+02  0.13052122182E+03  0.10100000352E+00 0. -1.
</event>
<event>
 5   0  0.1219020E-01  0.5996769E+03  0.7818609E-02  0.9906077E-01
       -2   -1    0    0    0  501  0.00000000000E+00  0.00000000000E+00  0.18161530355E+03  0.18161530357E+03  0.25500000920E-02 0. -1.
        2   -1    0    0  501    0  0.00000000000E+00  0.00000000000E+00 -0.49501935352E+03  0.49501935353E+03  0.25500000920E-02 0.  1.
    10030    2    1    2    0    0  0.00000000000E+00  0.00000000000E+00 -0.31340404997E+03  0.67663465710E+03  0.59967688020E+03 0.  0.
        2    1    3    3  502    0 -0.60416673895E+01  0.28377214256E+03 -0.47656102725E+02  0.28780937228E+03  0.25500000920E-02 0.  1.
       -2    1    3    3    0  502  0.60416673895E+01 -0.28377214256E+03 -0.26574794724E+03  0.38882528481E+03  0.25500000920E-02 0. -1.
</event>
<event>
 5   0  0.4695625E-02  0.5995942E+03  0.7818609E-02  0.9906248E-01
        4   -1    0    0  501    0  0.00000000000E+00  0.00000000000E+00  0.21888465861E+03  0.21888834294E+03  0.12699999809E+01 0.  1.
       -4   -1    0    0    0  501  0.00000000000E+00  0.00000000000E+00 -0.41061131500E+03  0.41061327902E+03  0.12699999809E+01 0. -1.
    10030    2    1    2    0    0  0.00000000000E+00  0.00000000000E+00 -0.19172665638E+03  0.62950162196E+03  0.59959418049E+03 0.  0.
        3    1    3    3  502    0 -0.25783559181E+03  0.69574518949E+02 -0.23888789289E+03  0.35831165437E+03  0.10100000352E+00 0. -1.
       -3    1    3    3    0  502  0.25783559181E+03 -0.69574518949E+02  0.47161236503E+02  0.27118996759E+03  0.10100000352E+00 0.  1.
</event>
<event>
 5   0  0.1206238E-01  0.6002693E+03  0.7818609E-02  0.9904848E-01
        2   -1    0    0  501    0  0.00000000000E+00  0.00000000000E+00  0.21618946347E+03  0.21618946349E+03  0.25500000920E-02 0. -1.
       -2   -1    0    0    0  501  0.00000000000E+00  0.00000000000E+00 -0.41667523533E+03  0.41667523533E+03  0.25500000920E-02 0.  1.
    10030    2    1    2    0    0  0.00000000000E+00  0.00000000000E+00 -0.20048577185E+03  0.63286469882E+03  0.60026925816E+03 0.  0.
        5    1    3    3  502    0 -0.47221093670E+02  0.97972210053E+02  0.19464187009E+03  0.22301554479E+03  0.46999998093E+01 0. -1.
       -5    1    3    3    0  502  0.47221093670E+02 -0.97972210053E+02 -0.39512764194E+03  0.40984915403E+03  0.46999998093E+01 0.  1.
</event>
<event>
 5   0  0.7263385E-02  0.6111912E+03  0.7818609E-02  0.9882456E-01
        1   -1    0    0  501    0  0.00000000000E+00  0.00000000000E+00  0.84190451499E+03  0.84190451500E+03  0.50400001928E-02 0. -1.
       -1   -1    0    0    0  501  0.00000000000E+00  0.00000000000E+00 -0.11092548940E+03  0.11092548951E+03  0.50400001928E-02 0.  1.
    10030    2    1    2    0    0  0.00000000000E+00  0.00000000000E+00  0.73097902559E+03  0.95283000451E+03  0.61119119894E+03 0.  0.
        1    1    3    3  502    0  0.86667154193E+02 -0.14543614206E+03 -0.31132722191E+02  0.17213980786E+03  0.50400001928E-02 0. -1.
       -1    1    3    3    0  502 -0.86667154193E+02  0.14543614206E+03  0.76211174778E+03  0.78069019666E+03  0.50400001928E-02 0.  1.
</event>
<event>
 5   0  0.1175861E-01  0.5867803E+03  0.7818609E-02  0.9933219E-01
        2   -1    0    0  501    0  0.00000000000E+00  0.00000000000E+00  0.98503114044E+03  0.98503114045E+03  0.25500000920E-02 0. -1.
       -2   -1    0    0    0  501  0.00000000000E+00  0.00000000000E+00 -0.87385852790E+02  0.87385852827E+02  0.25500000920E-02 0.  1.
    10030    2    1    2    0    0  0.00000000000E+00  0.00000000000E+00  0.89764528765E+03  0.10724169933E+04  0.58678032092E+03 0.  0.
        3    1    3    3  502    0  0.20976287954E+03 -0.22976939464E+01  0.82369626881E+03  0.84998899904E+03  0.10100000352E+00 0. -1.
       -3    1    3    3    0  502 -0.20976287954E+03  0.22976939464E+01  0.73949018838E+02  0.22242799423E+03  0.10100000352E+00 0.  1.
</event>
<event>
 5   0  0.1206238E-01  0.5765200E+03  0.7818609E-02  0.9955354E-01
        2   -1    0    0  501    0  0.00000000000E+00  0.00000000000E+00  0.24287875805E+03  0.24287875806E+03  0.25500000920E-02 0.  1.
       -2   -1    0    0    0  501  0.00000000000E+00  0.00000000000E+00 -0.34212059314E+03  0.34212059315E+03  0.25500000920E-02 0. -1.
    10030    2    1    2    0    0  0.00000000000E+00  0.00000000000E+00 -0.99241835086E+02  0.58499935121E+03  0.57651999019E+03 0.  0.
        5    1    3    3  502    0  0.11340474448E+03  0.17118433795E+03  0.15560865542E+03  0.25768363796E+03  0.46999998093E+01 0.  1.
       -5    1    3    3    0  502 -0.11340474448E+03 -0.17118433795E+03 -0.25485049051E+03  0.32731571325E+03  0.46999998093E+01 0. -1.
</event>
<event>
 5   0  0.7263385E-02  0.6051318E+03  0.7818609E-02  0.9894816E-01
       -1   -1    0    0    0  501  0.00000000000E+00  0.00000000000E+00  0.15929271649E+04  0.15929271649E+04  0.50400001928E-02 0. -1.
        1   -1    0    0  501    0  0.00000000000E+00  0.00000000000E+00 -0.57470380194E+02  0.57470380415E+02  0.50400001928E-02 0.  1.
    10030    2    1    2    0    0  0.00000000000E+00  0.00000000000E+00  0.15354567847E+04  0.16503975453E+04  0.60513182028E+03 0.  0.
        1    1    3    3  502    0  0.88194173999E+01  0.24560664223E+03  0.12490527077E+04  0.12730015992E+04  0.50400001928E-02 0. -1.
       -1    1    3    3    0  502 -0.88194173999E+01 -0.24560664223E+03  0.28640407700E+03  0.37739594616E+03  0.50400001928E-02 0.  1.
</event>
<event>
 5   0  0.1219020E-01  0.4643113E+03  0.7818609E-02  0.1023538E+00
       -2   -1    0    0    0  501  0.00000000000E+00  0.00000000000E+00  0.21307990043E+03  0.21307990044E+03  0.25500000920E-02 0.  1.
        2   -1    0    0  501    0  0.00000000000E+00  0.00000000000E+00 -0.25293912821E+03  0.25293912822E+03  0.25500000920E-02 0. -1.
    10030    2    1    2    0    0  0.00000000000E+00  0.00000000000E+00 -0.39859227780E+02  0.46601902866E+03  0.46431129324E+03 0.  0.
        2    1    3    3  502    0  0.13494196367E+03 -0.11595487250E+03  0.12975434163E+03  0.22020684639E+03  0.25500000920E-02 0.  1.
       -2    1    3    3    0  502 -0.13494196367E+03  0.11595487250E+03 -0.16961356941E+03  0.24581218227E+03  0.25500000920E-02 0. -1.
</event>
<event>
 5   0  0.1206238E-01  0.6079635E+03  0.7818609E-02  0.9889021E-01
        2   -1    0    0  501    0  0.00000000000E+00  0.00000000000E+00  0.13109675757E+04  0.13109675757E+04  0.25500000920E-02 0. -1.
       -2   -1    0    0    0  501  0.00000000000E+00  0.00000000000E+00 -0.70486029882E+02  0.70486029928E+02  0.25500000920E-02 0.  1.
    10030    2    1    2    0    0  0.00000000000E+00  0.00000000000E+00  0.12404815458E+04  0.13814536056E+04  0.60796348491E+03 0.  0.
        5    1    3    3  502    0  0.14426764127E+03 -0.21686140492E+03  0.97620230281E+03  0.10103638193E+04  0.46999998093E+01 0. -1.
       -5    1    3    3    0  502 -0.14426764127E+03  0.21686140492E+03  0.26427924299E+03  0.37108978635E+03  0.46999998093E+01 0.  1.
</event>
<event>
 5   0  0.7123340E-02  0.6085577E+03  0.7818609E-02  0.9887809E-01
       -1   -1    0    0    0  501  0.00000000000E+00  0.00000000000E+00  0.10048010024E+03  0.10048010037E+03  0.50400001928E-02 0.  1.
        1   -1    0    0  501    0  0.00000000000E+00  0.00000000000E+00 -0.92143226769E+03  0.92143226771E+03  0.50400001928E-02 0. -1.
    10030    2    1    2    0    0  0.00000000000E+00  0.00000000000E+00 -0.82095216745E+03  0.10219123681E+04  0.60855766101E+03 0.  0.
        2    1    3    3  502    0  0.18022650647E+03  0.22946525993E+03 -0.26553832772E+03  0.39452059850E+03  0.25500000920E-02 0.  1.
       -2    1    3    3    0  502 -0.18022650647E+03 -0.22946525993E+03 -0.55541383974E+03  0.62739176957E+03  0.25500000920E-02 0. -1.
</event>
<event>
 5   0  0.1206238E-01  0.5908041E+03  0.7818609E-02  0.9924670E-01
       -2   -1    0    0    0  501  0.00000000000E+00  0.00000000000E+00  0.40397179134E+03  0.40397179135E+03  0.25500000920E-02 0. -1.
        2   -1    0    0  501    0  0.00000000000E+00  0.00000000000E+00 -0.21601102755E+03  0.21601102757E+03  0.25500000920E-02 0.  1.
    10030    2    1    2    0    0  0.00000000000E+00  0.00000000000E+00  0.18796076379E+03  0.61998281892E+03  0.59080406823E+03 0.  0.
        5    1    3    3  502    0 -0.10455904566E+03 -0.87160399477E+02  0.36905372016E+03  0.39338564746E+03  0.46999998093E+01 0. -1.
       -5    1    3    3    0  502  0.10455904566E+03  0.87160399477E+02 -0.18109295637E+03  0.22659717146E+03  0.46999998093E+01 0.  1.
</event>
<event>
 5   0  0.7266519E-02  0.5980021E+03  0.7818609E-02  0.9909560E-01
        1   -1    0    0  501    0  0.00000000000E+00  0.00000000000E+00  0.10081777999E+04  0.10081777999E+04  0.50400001928E-02 0.  1.
       -1   -1    0    0    0  501  0.00000000000E+00  0.00000000000E+00 -0.88676446857E+02  0.88676447000E+02  0.50400001928E-02 0. -1.
    10030    2    1    2    0    0  0.00000000000E+00  0.00000000000E+00  0.91950135302E+03  0.10968542469E+04  0.59800209089E+03 0.  0.
        4    1    3    3  502    0 -0.24468894680E+03 -0.15499661113E+03  0.59582025935E+03  0.66249530150E+03  0.12699999809E+01 0. -1.
       -4    1    3    3    0  502  0.24468894680E+03  0.15499661113E+03  0.32368109366E+03  0.43435894539E+03  0.12699999809E+01 0.  1.
</event>
<event>
 5   0  0.7221069E-02  0.5899804E+03  0.7818609E-02  0.9926414E-01
        1   -1    0    0  501    0  0.00000000000E+00  0.00000000000E+00  0.10946465610E+04  0.10946465610E+04  0.50400001928E-02 0. -1.
       -1   -1    0    0    0  501  0.00000000000E+00  0.00000000000E+00 -0.79495254006E+02  0.79495254166E+02  0.50400001928E-02 0.  1.
    10030    2    1    2    0    0  0.00000000000E+00  0.00000000000E+00  0.10151513070E+04  0.11741418151E+04  0.58998036073E+03 0.  0.
        5    1    3    3  502    0 -0.23202203694E+03  0.91888743029E+02  0.82047274154E+03  0.85759861027E+03  0.46999998093E+01 0. -1.
       -5    1    3    3    0  502  0.23202203694E+03 -0.91888743029E+02  0.19467856542E+03  0.31654320487E+03  0.46999998093E+01 0.  1.
</event>
<event>
 5   0  0.7221069E-02  0.6125601E+03  0.7818609E-02  0.9879685E-01
       -1   -1    0    0    0  501  0.00000000000E+00  0.00000000000E+00  0.26767671625E+03  0.26767671630E+03  0.50400001928E-02 0. -1.
        1   -1    0    0  501    0  0.00000000000E+00  0.00000000000E+00 -0.35045061095E+03  0.35045061099E+03  0.50400001928E-02 0.  1.
    10030    2    1    2    0    0  0.00000000000E+00  0.00000000000E+00 -0.82773894699E+02  0.61812732729E+03  0.61256009917E+03 0.  0.
        5    1    3    3  502    0 -0.69097603181E+02  0.91533188797E+00 -0.34244399052E+03  0.34937843843E+03  0.46999998093E+01 0.  1.
       -5    1    3    3    0  502  0.69097603181E+02 -0.91533188797E+00  0.25967009583E+03  0.26874888886E+03  0.46999998093E+01 0. -1.
</event>
<event>
 5   0  0.7221069E-02  0.6036451E+03  0.7818609E-02  0.9897872E-01
       -1   -1    0    0    0  501  0.00000000000E+00  0.00000000000E+00  0.12465618356E+03  0.12465618366E+03  0.50400001928E-02 0.  1.
        1   -1    0    0  501    0  0.00000000000E+00  0.00000000000E+00 -0.73078483796E+03  0.73078483797E+03  0.50400001928E-02 0. -1.
    10030    2    1    2    0    0  0.00000000000E+00  0.00000000000E+00 -0.60612865440E+03  0.85544102163E+03  0.60364509093E+03 0.  0.
        5    1    3    3  502    0 -0.90889766002E+02 -0.18101363757E+03  0.13966292235E+02  0.20308627198E+03  0.46999998093E+01 0.  1.
       -5    1    3    3    0  502  0.90889766002E+02  0.18101363757E+03 -0.62009494663E+03  0.65235474965E+03  0.46999998093E+01 0. -1.
</event>
<event>
 5   0  0.1175861E-01  0.5299336E+03  0.7818609E-02  0.1006248E+00
       -2   -1    0    0    0  501  0.00000000000E+00  0.00000000000E+00  0.28809432231E+03  0.28809432232E+03  0.25500000920E-02 0. -1.
        2   -1    0    0  501    0  0.00000000000E+00  0.00000000000E+00 -0.24369585598E+03  0.24369585600E+03  0.25500000920E-02 0.  1.
    10030    2    1    2    0    0  0.00000000000E+00  0.00000000000E+00  0.44398466330E+02  0.53179017832E+03  0.52993355239E+03 0.  0.
        3    1    3    3  502    0 -0.63374737039E+02 -0.25616241280E+03 -0.17977915085E+01  0.26389160896E+03  0.10100000352E+00 0.  1.
       -3    1    3    3    0  502  0.63374737039E+02  0.25616241280E+03  0.46196257838E+02  0.26789856936E+03  0.10100000352E+00 0. -1.
</event>
<event>
 5   0  0.7221069E-02  0.5745877E+03  0.7818609E-02  0.9959578E-01
       -1   -1    0    0    0  501  0.00000000000E+00  0.00000000000E+00  0.12604174486E+03  0.12604174497E+03  0.50400001928E-02 0. -1.
        1   -1    0    0  501    0  0.00000000000E+00  0.00000000000E+00 -0.65484452582E+03  0.65484452584E+03  0.50400001928E-02 0.  1.
    10030    2    1    2    0    0  0.00000000000E+00  0.00000000000E+00 -0.52880278096E+03  0.78088627081E+03  0.57458766675E+03 0.  0.
        5    1    3    3  502    0 -0.28451767784E+03  0.36798387649E+02 -0.28415313882E+03  0.40381868040E+03  0.46999998093E+01 0.  1.
       -5    1    3    3    0  502  0.28451767784E+03 -0.36798387649E+02 -0.24464964213E+03  0.37706759040E+03  0.46999998093E+01 0. -1.
</event>
<event>
 5   0  0.7221069E-02  0.6245258E+03  0.7818609E-02  0.9855790E-01
       -1   -1    0    0    0  501  0.00000000000E+00  0.00000000000E+00  0.74918343965E+02  0.74918344134E+02  0.50400001928E-02 0. -1.
        1   -1    0    0  501    0  0.00000000000E+00  0.00000000000E+00 -0.13015251346E+04  0.13015251346E+04  0.50400001928E-02 0.  1.
    10030    2    1    2    0    0  0.00000000000E+00  0.00000000000E+00 -0.12266067907E+04  0.13764434788E+04  0.62452576516E+03 0.  0.
        5    1    3    3  502    0  0.24850622522E+03  0.11715032988E+02 -0.10291115042E+04  0.10587658684E+04  0.46999998093E+01 0.  1.
       -5    1    3    3    0  502 -0.24850622522E+03 -0.11715032988E+02 -0.19749528645E+03  0.31767761038E+03  0.46999998093E+01 0. -1.
</event>
<event>
 5   0  0.1175861E-01  0.6069422E+03  0.7818609E-02  0.9891107E-01
       -2   -1    0    0    0  501  0.00000000000E+00  0.00000000000E+00  0.16910566562E+03  0.16910566564E+03  0.25500000920E-02 0.  1.
        2   -1    0    0  501    0  0.00000000000E+00  0.00000000000E+00 -0.54459859401E+03  0.54459859402E+03  0.25500000920E-02 0. -1.
    10030    2    1    2    0    0  0.00000000000E+00  0.00000000000E+00 -0.37549292839E+03  0.71370425965E+03  0.60694219739E+03 0.  0.
        3    1    3    3  502    0  0.17421616406E+03 -0.48008064738E+02 -0.47443176758E+03  0.50768253701E+03  0.10100000352E+00 0. -1.
       -3    1    3    3    0  502 -0.17421616406E+03  0.48008064738E+02  0.98938839186E+02  0.20602172264E+03  0.10100000352E+00 0.  1.
</event>
<event>
 5   0  0.1166419E-01  0.5926095E+03  0.7818609E-02  0.9920859E-01
        2   -1    0    0  501    0  0.00000000000E+00  0.00000000000E+00  0.55398710196E+03  0.55398710197E+03  0.25500000920E-02 0. -1.
       -2   -1    0    0    0  501  0.00000000000E+00  0.00000000000E+00 -0.15848111032E+03  0.15848111034E+03  0.25500000920E-02 0.  1.
    10030    2    1    2    0    0  0.00000000000E+00  0.00000000000E+00  0.39550599164E+03  0.71246821230E+03  0.59260945328E+03 0.  0.
        1    1    3    3  502    0  0.29126600867E+03  0.54815495350E+01  0.13266934358E+03  0.32010481087E+03  0.50400001928E-02 0. -1.
       -1    1    3    3    0  502 -0.29126600867E+03 -0.54815495350E+01  0.26283664806E+03  0.39236340143E+03  0.50400001928E-02 0.  1.
</event>
<event>
 5   0  0.1146468E-01  0.5984372E+03  0.7818609E-02  0.9908654E-01
        2   -1    0    0  501    0  0.00000000000E+00  0.00000000000E+00  0.17555760289E+04  0.17555760289E+04  0.25500000920E-02 0.  1.
       -2   -1    0    0    0  501  0.00000000000E+00  0.00000000000E+00 -0.50998518736E+02  0.50998518799E+02  0.25500000920E-02 0. -1.
    10030    2    1    2    0    0  0.00000000000E+00  0.00000000000E+00  0.17045775101E+04  0.18065745477E+04  0.59843722164E+03 0.  0.
        4    1    3    3  502    0 -0.22391538813E+03 -0.10185077763E+03  0.13665391525E+04  0.13885037091E+04  0.12699999809E+01 0.  1.
       -4    1    3    3    0  502  0.22391538813E+03  0.10185077763E+03  0.33803835767E+03  0.41807083861E+03  0.12699999809E+01 0. -1.
</event>
<event>
 5   0  0.7123340E-02  0.5988105E+03  0.7818609E-02  0.9907877E-01
        1   -1    0    0  501    0  0.00000000000E+00  0.00000000000E+00  0.41792832388E+03  0.41792832391E+03  0.50400001928E-02 0.  1.
       -1   -1    0    0    0  501  0.00000000000E+00  0.00000000000E+00 -0.21449490252E+03  0.21449490258E+03  0.50400001928E-02 0. -1.
    10030    2    1    2    0    0  0.00000000000E+00  0.00000000000E+00  0.20343342137E+03  0.63242322649E+03  0.59881047125E+03 0.  0.
        2    1    3    3  502    0 -0.13168976294E+03  0.16378718637E+03  0.32693572900E+03  0.38865847088E+03  0.25500000920E-02 0.  1.
       -2    1    3    3    0  502  0.13168976294E+03 -0.16378718637E+03 -0.12350230763E+03  0.24376475561E+03  0.25500000920E-02 0. -1.
</event>
<event>
 5   0  0.1206238E-01  0.5912790E+03  0.7818609E-02  0.9923666E-01
        2   -1    0    0  501    0  0.00000000000E+00  0.00000000000E+00  0.58279769804E+03  0.58279769804E+03  0.25500000920E-02 0. -1.
       -2   -1    0    0    0  501  0.00000000000E+00  0.00000000000E+00 -0.14997092400E+03  0.14997092402E+03  0.25500000920E-02 0.  1.
    10030    2    1    2    0    0  0.00000000000E+00  0.00000000000E+00  0.43282677404E+03  0.73276862206E+03  0.59127898420E+03 0.  0.
        5    1    3    3  502    0 -0.20088361014E+03  0.19092039489E+03  0.88965987092E+02  0.29110454971E+03  0.46999998093E+01 0. -1.
       -5    1    3    3    0  502  0.20088361014E+03 -0.19092039489E+03  0.34386078695E+03  0.44166407235E+03  0.46999998093E+01 0.  1.
</event>
<event>
 5   0  0.7266519E-02  0.5978434E+03  0.7818609E-02  0.9909890E-01
       -1   -1    0    0    0  501  0.00000000000E+00  0.00000000000E+00  0.12677682955E+03  0.12677682965E+03  0.50400001928E-02 0.  1.
        1   -1    0    0  501    0  0.00000000000E+00  0.00000000000E+00 -0.70481488346E+03  0.70481488348E+03  0.50400001928E-02 0. -1.
    10030    2    1    2    0    0  0.00000000000E+00  0.00000000000E+00 -0.57803805391E+03  0.83159171313E+03  0.59784344570E+03 0.  0.
        4    1    3    3  502    0 -0.16887463624E+02 -0.12365472790E+03  0.88799193101E+02  0.15317502328E+03  0.12699999809E+01 0.  1.
       -4    1    3    3    0  502  0.16887463624E+02  0.12365472790E+03 -0.66683724701E+03  0.67841668985E+03  0.12699999809E+01 0. -1.
</event>
<event>
 5   0  0.1166419E-01  0.6997988E+03  0.7818609E-02  0.9717576E-01
       -2   -1    0    0    0  501  0.00000000000E+00  0.00000000000E+00  0.15949238322E+03  0.15949238324E+03  0.25500000920E-02 0.  1.
        2   -1    0    0  501    0  0.00000000000E+00  0.00000000000E+00 -0.76762018984E+03  0.76762018985E+03  0.25500000920E-02 0. -1.
    10030    2    1    2    0    0  0.00000000000E+00  0.00000000000E+00 -0.60812780662E+03  0.92711257309E+03  0.69979875250E+03 0.  0.
        1    1    3    3  502    0 -0.14322964299E+03 -0.21377622383E+03 -0.61817534013E+03  0.66959372434E+03  0.50400001928E-02 0. -1.
       -1    1    3    3    0  502  0.14322964299E+03  0.21377622383E+03  0.10047533513E+02  0.25751884875E+03  0.50400001928E-02 0.  1.
</event>
<event>
 5   0  0.4695625E-02  0.5973196E+03  0.7818609E-02  0.9910983E-01
       -4   -1    0    0    0  501  0.00000000000E+00  0.00000000000E+00  0.62318027470E+03  0.62318156878E+03  0.12699999809E+01 0. -1.
        4   -1    0    0  501    0  0.00000000000E+00  0.00000000000E+00 -0.14312874978E+03  0.14313438411E+03  0.12699999809E+01 0.  1.
    10030    2    1    2    0    0  0.00000000000E+00  0.00000000000E+00  0.48005152491E+03  0.76631595289E+03  0.59731957367E+03 0.  0.
        2    1    3    3  502    0 -0.24725104531E+03  0.12609258995E+03  0.98524082250E+02  0.29451556061E+03  0.25500000920E-02 0.  1.
       -2    1    3    3    0  502  0.24725104531E+03 -0.12609258995E+03  0.38152744266E+03  0.47180039229E+03  0.25500000920E-02 0. -1.
</event>
<event>
 5   0  0.1219020E-01  0.5983671E+03  0.7818609E-02  0.9908800E-01
       -2   -1    0    0    0  501  0.00000000000E+00  0.00000000000E+00  0.92196611302E+02  0.92196611337E+02  0.25500000920E-02 0.  1.
        2   -1    0    0  501    0  0.00000000000E+00  0.00000000000E+00 -0.97086859486E+03  0.97086859486E+03  0.25500000920E-02 0. -1.
    10030    2    1    2    0    0  0.00000000000E+00  0.00000000000E+00 -0.87867198356E+03  0.10630652062E+04  0.59836709297E+03 0.  0.
        2    1    3    3  502    0  0.16156893799E+03  0.46712012718E+02  0.26025618605E+00  0.16818621107E+03  0.25500000920E-02 0.  1.
       -2    1    3    3    0  502 -0.16156893799E+03 -0.46712012718E+02 -0.87893223974E+03  0.89487899513E+03  0.25500000920E-02 0. -1.
</event>
<event>
 5   0  0.7263385E-02  0.5867153E+03  0.7818609E-02  0.9933357E-01
        1   -1    0    0  501    0  0.00000000000E+00  0.00000000000E+00  0.48706318722E+03  0.48706318724E+03  0.50400001928E-02 0.  1.
       -1   -1    0    0    0  501  0.00000000000E+00  0.00000000000E+00 -0.17668900672E+03  0.17668900679E+03  0.50400001928E-02 0. -1.
    10030    2    1    2    0    0  0.00000000000E+00  0.00000000000E+00  0.31037418049E+03  0.66375219404E+03  0.58671529993E+03 0.  0.
        1    1    3    3  502    0  0.20465439936E+03 -0.72690943208E+02 -0.67915630450E+02  0.22755203644E+03  0.50400001928E-02 0.  1.
       -1    1    3    3    0  502 -0.20465439936E+03  0.72690943208E+02  0.37828981094E+03  0.43620015760E+03  0.50400001928E-02 0. -1.
</event>
<event>
 5   0  0.7266519E-02  0.5718326E+03  0.7818609E-02  0.9965632E-01
        1   -1    0    0  501    0  0.00000000000E+00  0.00000000000E+00  0.44443060567E+02  0.44443060853E+02  0.50400001928E-02 0. -1.
       -1   -1    0    0    0  501  0.00000000000E+00  0.00000000000E+00 -0.18393898981E+04  0.18393898981E+04  0.50400001928E-02 0.  1.
    10030    2    1    2    0    0  0.00000000000E+00  0.00000000000E+00 -0.17949468376E+04  0.18838329590E+04  0.57183255215E+03 0.  0.
        4    1    3    3  502    0  0.53557772526E+02 -0.34497319521E+02 -0.18157013478E+04  0.18168190601E+04  0.12699999809E+01 0.  1.
       -4    1    3    3    0  502 -0.53557772526E+02  0.34497319521E+02  0.20754510177E+02  0.67013898892E+02  0.12699999809E+01 0. -1.
</event>
<event>
 5   0  0.1219020E-01  0.5910434E+03  0.7818609E-02  0.9924164E-01
        2   -1    0    0  501    0  0.00000000000E+00  0.00000000000E+00  0.19830680267E+04  0.19830680267E+04  0.25500000920E-02 0.  1.
       -2   -1    0    0    0  501  0.00000000000E+00  0.00000000000E+00 -0.44039368231E+02  0.44039368305E+02  0.25500000920E-02 0. -1.
    10030    2    1    2    0    0  0.00000000000E+00  0.00000000000E+00  0.19390286585E+04  0.20271073950E+04  0.59104335927E+03 0.  0.
        2    1    3    3  502    0 -0.23890754879E+03 -0.17352388803E+03  0.10109140048E+04  0.10531545384E+04  0.25500000920E-02 0.  1.
       -2    1    3    3    0  502  0.23890754879E+03  0.17352388803E+03  0.92811465368E+03  0.97395285664E+03  0.25500000920E-02 0. -1.
</event>
<event>
 5   0  0.1206238E-01  0.5996042E+03  0.7818609E-02  0.9906228E-01
       -2   -1    0    0    0  501  0.00000000000E+00  0.00000000000E+00  0.58250742198E+02  0.58250742254E+02  0.25500000920E-02 0.  1.
        2   -1    0    0  501    0  0.00000000000E+00  0.00000000000E+00 -0.15430066809E+04  0.15430066809E+04  0.25500000920E-02 0. -1.
    10030    2    1    2    0    0  0.00000000000E+00  0.00000000000E+00 -0.14847559387E+04  0.16012574232E+04  0.59960415084E+03 0.  0.
        5    1    3    3  502    0 -0.25597244016E+03  0.12919955723E+03 -0.50888221671E+03  0.58412123415E+03  0.46999998093E+01 0.  1.
       -5    1    3    3    0  502  0.25597244016E+03 -0.12919955723E+03 -0.97587372203E+03  0.10171361890E+04  0.46999998093E+01 0. -1.
</event>
<event>
 5   0  0.7266519E-02  0.6073588E+03  0.7818609E-02  0.9890255E-01
       -1   -1    0    0    0  501  0.00000000000E+00  0.00000000000E+00  0.11397821734E+03  0.11397821745E+03  0.50400001928E-02 0.  1.
        1   -1    0    0  501    0  0.00000000000E+00  0.00000000000E+00 -0.80911236206E+03  0.80911236208E+03  0.50400001928E-02 0. -1.
    10030    2    1    2    0    0  0.00000000000E+00  0.00000000000E+00 -0.69513414472E+03  0.92309057953E+03  0.60735882216E+03 0.  0.
        4    1    3    3  502    0  0.22798617249E+03 -0.18413665930E+01 -0.42693491079E+02  0.23195998051E+03  0.12699999809E+01 0.  1.
       -4    1    3    3    0  502 -0.22798617249E+03  0.18413665930E+01 -0.65244065364E+03  0.69113059902E+03  0.12699999809E+01 0. -1.
</event>
<event>
 5   0  0.7123340E-02  0.5970194E+03  0.7818609E-02  0.9911609E-01
       -1   -1    0    0    0  501  0.00000000000E+00  0.00000000000E+00  0.28573430935E+03  0.28573430940E+03  0.50400001928E-02 0. -1.
        1   -1    0    0  501    0  0.00000000000E+00  0.00000000000E+00 -0.31185628746E+03  0.31185628750E+03  0.50400001928E-02 0.  1.
    10030    2    1    2    0    0  0.00000000000E+00  0.00000000000E+00 -0.26121978109E+02  0.59759059690E+03  0.59701939982E+03 0.  0.
        2    1    3    3  502    0 -0.19563921598E+03 -0.22150085313E+03  0.29059077839E+02  0.29695413918E+03  0.25500000920E-02 0. -1.
       -2    1    3    3    0  502  0.19563921598E+03  0.22150085313E+03 -0.55181055949E+02  0.30063645772E+03  0.25500000920E-02 0.  1.
</event>
<event>
 5   0  0.4695625E-02  0.6057886E+03  0.7818609E-02  0.9893469E-01
       -3   -1    0    0    0  501  0.00000000000E+00  0.00000000000E+00  0.68967103257E+03  0.68967103997E+03  0.10100000352E+00 0.  1.
        3   -1    0    0  501    0  0.00000000000E+00  0.00000000000E+00 -0.13302710931E+03  0.13302714765E+03  0.10100000352E+00 0. -1.
    10030    2    1    2    0    0  0.00000000000E+00  0.00000000000E+00  0.55664392327E+03  0.82269818762E+03  0.60578861874E+03 0.  0.
        3    1    3    3  502    0 -0.60606489304E+02  0.20517196307E+00  0.68135233586E+03  0.68404254577E+03  0.10100000352E+00 0.  1.
       -3    1    3    3    0  502  0.60606489304E+02 -0.20517196307E+00 -0.12470841260E+03  0.13865564184E+03  0.10100000352E+00 0. -1.
</event>
<event>
 5   0  0.1146468E-01  0.6018555E+03  0.7818609E-02  0.9901564E-01
        2   -1    0    0  501    0  0.00000000000E+00  0.00000000000E+00  0.83266526136E+03  0.83266526137E+03  0.25500000920E-02 0. -1.
       -2   -1    0    0    0  501  0.00000000000E+00  0.00000000000E+00 -0.10875620456E+03  0.10875620459E+03  0.25500000920E-02 0.  1.
    10030    2    1    2    0    0  0.00000000000E+00  0.00000000000E+00  0.72390905681E+03  0.94142146595E+03  0.60185550926E+03 0.  0.
        4    1    3    3  502    0  0.18963195572E+03 -0.20379033125E+03  0.18316231309E+03  0.33322788535E+03  0.12699999809E+01 0.  1.
       -4    1    3    3    0  502 -0.18963195572E+03  0.20379033125E+03  0.54074674372E+03  0.60819358060E+03  0.12699999809E+01 0. -1.
</event>
<event>
 5   0  0.7221069E-02  0.6313851E+03  0.7818609E-02  0.9842350E-01
        1   -1    0    0  501    0  0.00000000000E+00  0.00000000000E+00  0.27738456600E+03  0.27738456604E+03  0.50400001928E-02 0. -1.
       -1   -1    0    0    0  501  0.00000000000E+00  0.00000000000E+00 -0.35929106987E+03  0.35929106990E+03  0.50400001928E-02 0.  1.
    10030    2    1    2    0    0  0.00000000000E+00  0.00000000000E+00 -0.81906503869E+02  0.63667563595E+03  0.63138513606E+03 0.  0.
        5    1    3    3  502    0 -0.16931629779E+03  0.10790600788E+03 -0.28656758278E+03  0.34993540080E+03  0.46999998093E+01 0.  1.
       -5    1    3    3    0  502  0.16931629779E+03 -0.10790600788E+03  0.20466107891E+03  0.28674023515E+03  0.46999998093E+01 0. -1.
</event>
<event>
 5   0  0.1146468E-01  0.5945841E+03  0.7818609E-02  0.9916707E-01
       -2   -1    0    0    0  501  0.00000000000E+00  0.00000000000E+00  0.27574403591E+03  0.27574403593E+03  0.25500000920E-02 0. -1.
        2   -1    0    0  501    0  0.00000000000E+00  0.00000000000E+00 -0.32052389290E+03  0.32052389291E+03  0.25500000920E-02 0.  1.
    10030    2    1    2    0    0  0.00000000000E+00  0.00000000000E+00 -0.44779856988E+02  0.59626792884E+03  0.59458406249E+03 0.  0.
        4    1    3    3  502    0  0.19337234372E+03 -0.23937546572E+02 -0.24755881070E+03  0.31504419865E+03  0.12699999809E+01 0.  1.
       -4    1    3    3    0  502 -0.19337234372E+03  0.23937546572E+02  0.20277895371E+03  0.28122373019E+03  0.12699999809E+01 0. -1.
</event>
<event>
 5   0  0.1146468E-01  0.5926091E+03  0.7818609E-02  0.9920860E-01
       -2   -1    0    0    0  501  0.00000000000E+00  0.00000000000E+00  0.19973719132E+03  0.19973719133E+03  0.25500000920E-02 0. -1.
        2   -1    0    0  501    0  0.00000000000E+00  0.00000000000E+00 -0.43955952411E+03  0.43955952412E+03  0.25500000920E-02 0.  1.
    10030    2    1    2    0    0  0.00000000000E+00  0.00000000000E+00 -0.23982233279E+03  0.63929671545E+03  0.59260909467E+03 0.  0.
        4    1    3    3  502    0  0.22324802228E+03 -0.19481252766E+03 -0.11798999825E+03  0.31892766104E+03  0.12699999809E+01 0. -1.
       -4    1    3    3    0  502 -0.22324802228E+03  0.19481252766E+03 -0.12183233454E+03  0.32036905442E+03  0.12699999809E+01 0.  1.
</event>
<event>
 5   0  0.1175861E-01  0.5722339E+03  0.7818609E-02  0.9964747E-01
       -2   -1    0    0    0  501  0.00000000000E+00  0.00000000000E+00  0.41167613221E+03  0.41167613222E+03  0.25500000920E-02 0.  1.
        2   -1    0    0  501    0  0.00000000000E+00  0.00000000000E+00 -0.19885271498E+03  0.19885271500E+03  0.25500000920E-02 0. -1.
    10030    2    1    2    0    0  0.00000000000E+00  0.00000000000E+00  0.21282341723E+03  0.61052884722E+03  0.57223392626E+03 0.  0.
        3    1    3    3  502    0  0.16478368537E+03  0.11934039216E+03 -0.10821496968E+03  0.23044800288E+03  0.10100000352E+00 0. -1.
       -3    1    3    3    0  502 -0.16478368537E+03 -0.11934039216E+03  0.32103838692E+03  0.38008084435E+03  0.10100000352E+00 0.  1.
</event>
<event>
 5   0  0.7123340E-02  0.6351194E+03  0.7818609E-02  0.9835109E-01
        1   -1    0    0  501    0  0.00000000000E+00  0.00000000000E+00  0.17083220548E+03  0.17083220555E+03  0.50400001928E-02 0. -1.
       -1   -1    0    0    0  501  0.00000000000E+00  0.00000000000E+00 -0.59031115340E+03  0.59031115342E+03  0.50400001928E-02 0.  1.
    10030    2    1    2    0    0  0.00000000000E+00  0.00000000000E+00 -0.41947894793E+03  0.76114335897E+03  0.63511937867E+03 0.  0.
        2    1    3    3  502    0 -0.13490908483E+03 -0.10413729941E+03 -0.53086191243E+03  0.55754767364E+03  0.25500000920E-02 0.  1.
       -2    1    3    3    0  502  0.13490908483E+03  0.10413729941E+03  0.11138296451E+03  0.20359568534E+03  0.25500000920E-02 0. -1.
</event>
<event>
 5   0  0.7266519E-02  0.5985447E+03  0.7818609E-02  0.9908430E-01
        1   -1    0    0  501    0  0.00000000000E+00  0.00000000000E+00  0.20519140530E+03  0.20519140536E+03  0.50400001928E-02 0. -1.
       -1   -1    0    0    0  501  0.00000000000E+00  0.00000000000E+00 -0.43648972921E+03  0.43648972924E+03  0.50400001928E-02 0.  1.
    10030    2    1    2    0    0  0.00000000000E+00  0.00000000000E+00 -0.23129832391E+03  0.64168113460E+03  0.59854470498E+03 0.  0.
        4    1    3    3  502    0  0.12617846833E+03  0.26962970270E+03 -0.14853819384E+03  0.33269564226E+03  0.12699999809E+01 0.  1.
       -4    1    3    3    0  502 -0.12617846833E+03 -0.26962970270E+03 -0.82760130075E+02  0.30898549234E+03  0.12699999809E+01 0. -1.
</event>
<event>
 5   0  0.7221069E-02  0.5931700E+03  0.7818609E-02  0.9919678E-01
        1   -1    0    0  501    0  0.00000000000E+00  0.00000000000E+00  0.27199221039E+03  0.27199221044E+03  0.50400001928E-02 0. -1.
       -1   -1    0    0    0  501  0.00000000000E+00  0.00000000000E+00 -0.32340141001E+03  0.32340141005E+03  0.50400001928E-02 0.  1.
    10030    2    1    2    0    0  0.00000000000E+00  0.00000000000E+00 -0.51409199617E+02  0.59539362049E+03  0.59317000726E+03 0.  0.
        5    1    3    3  502    0 -0.14628423204E+03 -0.44547106523E+02 -0.28073787156E+03  0.31971763130E+03  0.46999998093E+01 0.  1.
       -5    1    3    3    0  502  0.14628423204E+03  0.44547106523E+02  0.22932867194E+03  0.27567598919E+03  0.46999998093E+01 0. -1.
</event>
<event>
 5   0  0.1166419E-01  0.5982000E+03  0.7818609E-02  0.9909148E-01
        2   -1    0    0  501    0  0.00000000000E+00  0.00000000000E+00  0.18940692724E+04  0.18940692724E+04  0.25500000920E-02 0. -1.
       -2   -1    0    0    0  501  0.00000000000E+00  0.00000000000E+00 -0.47232067353E+02  0.47232067422E+02  0.25500000920E-02 0.  1.
    10030    2    1    2    0    0  0.00000000000E+00  0.00000000000E+00  0.18468372051E+04  0.19413013399E+04  0.59819999170E+03 0.  0.
        1    1    3    3  502    0  0.28724915352E+03 -0.83359048865E+02  0.92336556943E+03  0.97060021742E+03  0.50400001928E-02 0. -1.
       -1    1    3    3    0  502 -0.28724915352E+03  0.83359048865E+02  0.92347163565E+03  0.97070112244E+03  0.50400001928E-02 0.  1.
</event>
<event>
 5   0  0.1206238E-01  0.5206051E+03  0.7818609E-02  0.1008536E+00
        2   -1    0    0  501    0  0.00000000000E+00  0.00000000000E+00  0.23912650288E+04  0.23912650288E+04  0.25500000920E-02 0. -1.
       -2   -1    0    0    0  501  0.00000000000E+00  0.00000000000E+00 -0.28335384177E+02  0.28335384291E+02  0.25500000920E-02 0.  1.
    10030    2    1    2    0    0  0.00000000000E+00  0.00000000000E+00  0.23629296446E+04  0.24196004131E+04  0.52060508410E+03 0.  0.
        5    1    3    3  502    0 -0.25504527020E+03  0.26372033402E+02  0.13888857598E+04  0.14123630262E+04  0.46999998093E+01 0. -1.
       -5    1    3    3    0  502  0.25504527020E+03 -0.26372033402E+02  0.97404388484E+03  0.10072373869E+04  0.46999998093E+01 0.  1.
</event>
<event>
 5   0  0.1146468E-01  0.6420883E+03  0.7818609E-02  0.9821739E-01
        2   -1    0    0  501    0  0.00000000000E+00  0.00000000000E+00  0.14544352830E+04  0.14544352830E+04  0.25500000920E-02 0. -1.
       -2   -1    0    0    0  501  0.00000000000E+00  0.00000000000E+00 -0.70865532066E+02  0.70865532112E+02  0.25500000920E-02 0.  1.
    10030    2    1    2    0    0  0.00000000000E+00  0.00000000000E+00  0.13835697509E+04  0.15253008151E+04  0.64208825008E+03 0.  0.
        4    1    3    3  502    0 -0.16744392114E+03  0.25354007981E+03  0.44551113100E+03  0.53926043758E+03  0.12699999809E+01 0.  1.
       -4    1    3    3    0  502  0.16744392114E+03 -0.25354007981E+03  0.93805861992E+03  0.98604037752E+03  0.12699999809E+01 0. -1.
</event>
<event>
 5   0  0.7221069E-02  0.5823416E+03  0.7818609E-02  0.9942734E-01
        1   -1    0    0  501    0  0.00000000000E+00  0.00000000000E+00  0.22036706452E+04  0.22036706452E+04  0.50400001928E-02 0. -1.
       -1   -1    0    0    0  501  0.00000000000E+00  0.00000000000E+00 -0.38472371388E+02  0.38472371718E+02  0.50400001928E-02 0.  1.
    10030    2    1    2    0    0  0.00000000000E+00  0.00000000000E+00  0.21651982738E+04  0.22421430169E+04  0.58234160372E+03 0.  0.
        5    1    3    3  502    0 -0.18941112565E+03  0.63454037448E+02  0.26715793931E+03  0.33361421421E+03  0.46999998093E+01 0.  1.
       -5    1    3    3    0  502  0.18941112565E+03 -0.63454037448E+02  0.18980403345E+04  0.19085288027E+04  0.46999998093E+01 0. -1.
</event>
<event>
 5   0  0.7263385E-02  0.6047819E+03  0.7818609E-02  0.9895535E-01
        1   -1    0    0  501    0  0.00000000000E+00  0.00000000000E+00  0.21411764835E+03  0.21411764841E+03  0.50400001928E-02 0.  1.
       -1   -1    0    0    0  501  0.00000000000E+00  0.00000000000E+00 -0.42705627024E+03  0.42705627027E+03  0.50400001928E-02 0. -1.
    10030    2    1    2    0    0  0.00000000000E+00  0.00000000000E+00 -0.21293862189E+03  0.64117391868E+03  0.60478189234E+03 0.  0.
        1    1    3    3  502    0 -0.13125345216E+02 -0.17133050696E+03 -0.37026702840E+03  0.40819614115E+03  0.50400001928E-02 0. -1.
       -1    1    3    3    0  502  0.13125345216E+02  0.17133050696E+03  0.15732840651E+03  0.23297777753E+03  0.50400001928E-02 0.  1.
</event>
<event>
 5   0  0.4695625E-02  0.6069069E+03  0.7818609E-02  0.9891179E-01
        4   -1    0    0  501    0  0.00000000000E+00  0.00000000000E+00  0.28433389912E+03  0.28433673539E+03  0.12699999809E+01 0. -1.
       -4   -1    0    0    0  501  0.00000000000E+00  0.00000000000E+00 -0.32385300234E+03  0.32385549250E+03  0.12699999809E+01 0.  1.
    10030    2    1    2    0    0  0.00000000000E+00  0.00000000000E+00 -0.39519103213E+02  0.60819222789E+03  0.60690693400E+03 0.  0.
        5    1    3    3  502    0  0.26054665970E+03 -0.14732776603E+03 -0.69582889534E+02  0.30733353386E+03  0.46999998093E+01 0. -1.
       -5    1    3    3    0  502 -0.26054665970E+03  0.14732776603E+03  0.30063786320E+02  0.30085869402E+03  0.46999998093E+01 0.  1.
</event>
<event>
 5   0  0.7123340E-02  0.5573029E+03  0.7818609E-02  0.9998176E-01
        1   -1    0    0  501    0  0.00000000000E+00  0.00000000000E+00  0.44929977005E+03  0.44929977008E+03  0.50400001928E-02 0. -1.
       -1   -1    0    0    0  501  0.00000000000E+00  0.00000000000E+00 -0.17281697082E+03  0.17281697089E+03  0.50400001928E-02 0.  1.
    10030    2    1    2    0    0  0.00000000000E+00  0.00000000000E+00  0.27648279924E+03  0.62211674097E+03  0.55730288096E+03 0.  0.
        2    1    3    3  502    0 -0.76457561213E+02 -0.23957050934E+03  0.27222909937E+03  0.37060554524E+03  0.25500000920E-02 0. -1.
       -2    1    3    3    0  502  0.76457561213E+02  0.23957050934E+03  0.42536998660E+01  0.25151119573E+03  0.25500000920E-02 0.  1.
</event>
<event>
 5   0  0.7424930E-02  0.5756796E+03  0.7818609E-02  0.9957189E-01
        1   -1    0    0  501    0  0.00000000000E+00  0.00000000000E+00  0.34161603806E+03  0.34161603810E+03  0.50400001928E-02 0. -1.
       -1   -1    0    0    0  501  0.00000000000E+00  0.00000000000E+00 -0.24252888571E+03  0.24252888576E+03  0.50400001928E-02 0.  1.
    10030    2    1    2    0    0  0.00000000000E+00  0.00000000000E+00  0.99087152349E+02  0.58414492386E+03  0.57567962298E+03 0.  0.
        3    1    3    3  502    0 -0.10805256161E+03 -0.19642785485E+03 -0.13364505238E+03  0.26099859857E+03  0.10100000352E+00 0.  1.
       -3    1    3    3    0  502  0.10805256161E+03  0.19642785485E+03  0.23273220472E+03  0.32314632529E+03  0.10100000352E+00 0. -1.
</event>
<event>
 5   0  0.1166419E-01  0.6009736E+03  0.7818609E-02  0.9903388E-01
       -2   -1    0    0    0  501  0.00000000000E+00  0.00000000000E+00  0.17195064024E+03  0.17195064026E+03  0.25500000920E-02 0. -1.
        2   -1    0    0  501    0  0.00000000000E+00  0.00000000000E+00 -0.52510609615E+03  0.52510609615E+03  0.25500000920E-02 0.  1.
    10030    2    1    2    0    0  0.00000000000E+00  0.00000000000E+00 -0.35315545590E+03  0.69705673642E+03  0.60097364148E+03 0.  0.
        1    1    3    3  502    0 -0.24800290342E+03 -0.13479752983E+03 -0.57067878759E+02  0.28798013293E+03  0.50400001928E-02 0.  1.
       -1    1    3    3    0  502  0.24800290342E+03  0.13479752983E+03 -0.29608757715E+03  0.40907660348E+03  0.50400001928E-02 0. -1.
</event>
<event>
 5   0  0.7123340E-02  0.6082979E+03  0.7818609E-02  0.9888339E-01
        1   -1    0    0  501    0  0.00000000000E+00  0.00000000000E+00  0.14048525828E+03  0.14048525837E+03  0.50400001928E-02 0. -1.
       -1   -1    0    0    0  501  0.00000000000E+00  0.00000000000E+00 -0.65847895121E+03  0.65847895123E+03  0.50400001928E-02 0.  1.
    10030    2    1    2    0    0  0.00000000000E+00  0.00000000000E+00 -0.51799369294E+03  0.79896420960E+03  0.60829790588E+03 0.  0.
        2    1    3    3  502    0 -0.12676674302E+03 -0.27570846062E+03 -0.28596636794E+03  0.41696729607E+03  0.25500000920E-02 0.  1.
       -2    1    3    3    0  502  0.12676674302E+03  0.27570846062E+03 -0.23202732499E+03  0.38199691353E+03  0.25500000920E-02 0. -1.
</event>
<event>
 5   0  0.7266519E-02  0.6341277E+03  0.7818609E-02  0.9837027E-01
       -1   -1    0    0    0  501  0.00000000000E+00  0.00000000000E+00  0.14005194916E+03  0.14005194925E+03  0.50400001928E-02 0.  1.
        1   -1    0    0  501    0  0.00000000000E+00  0.00000000000E+00 -0.71780129507E+03  0.71780129509E+03  0.50400001928E-02 0. -1.
    10030    2    1    2    0    0  0.00000000000E+00  0.00000000000E+00 -0.57774934591E+03  0.85785324434E+03  0.63412765444E+03 0.  0.
        4    1    3    3  502    0  0.77632956897E+02 -0.28938400487E+03 -0.14856111421E+03  0.33442786341E+03  0.12699999809E+01 0.  1.
       -4    1    3    3    0  502 -0.77632956897E+02  0.28938400487E+03 -0.42918823170E+03  0.52342538093E+03  0.12699999809E+01 0. -1.
</event>
<event>
 5   0  0.1146468E-01  0.5896046E+03  0.7818609E-02  0.9927211E-01
        2   -1    0    0  501    0  0.00000000000E+00  0.00000000000E+00  0.10004214569E+04  0.10004214569E+04  0.25500000920E-02 0. -1.
       -2   -1    0    0    0  501  0.00000000000E+00  0.00000000000E+00 -0.86871787034E+02  0.86871787071E+02  0.25500000920E-02 0.  1.
    10030    2    1    2    0    0  0.00000000000E+00  0.00000000000E+00  0.91354966988E+03  0.10872932440E+04  0.58960461250E+03 0.  0.
        4    1    3    3  502    0 -0.45285797268E+02  0.12798133126E+03 -0.25791949939E+02  0.13819139687E+03  0.12699999809E+01 0.  1.
       -4    1    3    3    0  502  0.45285797268E+02 -0.12798133126E+03  0.93934161982E+03  0.94910184712E+03  0.12699999809E+01 0. -1.
</event>
<event>
 5   0  0.7221069E-02  0.5978238E+03  0.7818609E-02  0.9909931E-01
        1   -1    0    0  501    0  0.00000000000E+00  0.00000000000E+00  0.52601093799E+03  0.52601093802E+03  0.50400001928E-02 0. -1.
       -1   -1    0    0    0  501  0.00000000000E+00  0.00000000000E+00 -0.16986018512E+03  0.16986018520E+03  0.50400001928E-02 0.  1.
    10030    2    1    2    0    0  0.00000000000E+00  0.00000000000E+00  0.35615075287E+03  0.69587112322E+03  0.59782377115E+03 0.  0.
        5    1    3    3  502    0 -0.64948888639E+02  0.29172780115E+03  0.17614254880E+03  0.34694632956E+03  0.46999998093E+01 0. -1.
       -5    1    3    3    0  502  0.64948888639E+02 -0.29172780115E+03  0.18000820407E+03  0.34892479366E+03  0.46999998093E+01 0.  1.
</event>
<event>
 5   0  0.7221069E-02  0.5651702E+03  0.7818609E-02  0.9980424E-01
       -1   -1    0    0    0  501  0.00000000000E+00  0.00000000000E+00  0.10292196050E+03  0.10292196062E+03  0.50400001928E-02 0.  1.
        1   -1    0    0  501    0  0.00000000000E+00  0.00000000000E+00 -0.77587256101E+03  0.77587256102E+03  0.50400001928E-02 0. -1.
    10030    2    1    2    0    0  0.00000000000E+00  0.00000000000E+00 -0.67295060051E+03  0.87879452165E+03  0.56517015186E+03 0.  0.
        5    1    3    3  502    0  0.24239778156E+03  0.26705469706E+02 -0.11459319906E+03  0.26948758392E+03  0.46999998093E+01 0.  1.
       -5    1    3    3    0  502 -0.24239778156E+03 -0.26705469706E+02 -0.55835740145E+03  0.60930693773E+03  0.46999998093E+01 0. -1.
</event>
<event>
 5   0  0.4695625E-02  0.5896596E+03  0.7818609E-02  0.9927094E-01
        3   -1    0    0  501    0  0.00000000000E+00  0.00000000000E+00  0.14282696557E+03  0.14282700128E+03  0.10100000352E+00 0. -1.
       -3   -1    0    0    0  501  0.00000000000E+00  0.00000000000E+00 -0.60860063470E+03  0.60860064308E+03  0.10100000352E+00 0.  1.
    10030    2    1    2    0    0  0.00000000000E+00  0.00000000000E+00 -0.46577366913E+03  0.75142764437E+03  0.58965955760E+03 0.  0.
        3    1    3    3  502    0 -0.68132203628E+02 -0.27689372591E+03 -0.32835581554E+03  0.43489042806E+03  0.10100000352E+00 0.  1.
       -3    1    3    3    0  502  0.68132203628E+02  0.27689372591E+03 -0.13741785359E+03  0.31653721630E+03  0.10100000352E+00 0. -1.
</event>
<event>
 5   0  0.7123340E-02  0.6128069E+03  0.7818609E-02  0.9879186E-01
       -1   -1    0    0    0  501  0.00000000000E+00  0.00000000000E+00  0.13164146689E+03  0.13164146699E+03  0.50400001928E-02 0.  1.
        1   -1    0    0  501    0  0.00000000000E+00  0.00000000000E+00 -0.71317251025E+03  0.71317251027E+03  0.50400001928E-02 0. -1.
    10030    2    1    2    0    0  0.00000000000E+00  0.00000000000E+00 -0.58153104336E+03  0.84481397726E+03  0.61280690416E+03 0.  0.
        2    1    3    3  502    0 -0.11549171149E+03  0.68032585270E+02  0.89078222902E+02  0.16094004437E+03  0.25500000920E-02 0.  1.
       -2    1    3    3    0  502  0.11549171149E+03 -0.68032585270E+02 -0.67060926626E+03  0.68387393289E+03  0.25500000920E-02 0. -1.
</event>
<event>
 5   0  0.1166419E-01  0.5896936E+03  0.7818609E-02  0.9927022E-01
        2   -1    0    0  501    0  0.00000000000E+00  0.00000000000E+00  0.11050982646E+04  0.11050982646E+04  0.25500000920E-02 0. -1.
       -2   -1    0    0    0  501  0.00000000000E+00  0.00000000000E+00 -0.78666892680E+02  0.78666892721E+02  0.25500000920E-02 0.  1.
    10030    2    1    2    0    0  0.00000000000E+00  0.00000000000E+00  0.10264313719E+04  0.11837651573E+04  0.58969363778E+03 0.  0.
        1    1    3    3  502    0 -0.15670238770E+03  0.21769189876E+03  0.26744561386E+03  0.37877771515E+03  0.50400001928E-02 0.  1.
       -1    1    3    3    0  502  0.15670238770E+03 -0.21769189876E+03  0.75898575808E+03  0.80498744219E+03  0.50400001928E-02 0. -1.
</event>
<event>
 5   0  0.7123340E-02  0.5977249E+03  0.7818609E-02  0.9910137E-01
       -1   -1    0    0    0  501  0.00000000000E+00  0.00000000000E+00  0.13771640506E+04  0.13771640506E+04  0.50400001928E-02 0.  1.
        1   -1    0    0  501    0  0.00000000000E+00  0.00000000000E+00 -0.64857032923E+02  0.64857033119E+02  0.50400001928E-02 0. -1.
    10030    2    1    2    0    0  0.00000000000E+00  0.00000000000E+00  0.13123070177E+04  0.14420210838E+04  0.59772493446E+03 0.  0.
        2    1    3    3  502    0 -0.49663044225E+01  0.21237871400E+03  0.11632951248E+04  0.11825332679E+04  0.25500000920E-02 0.  1.
       -2    1    3    3    0  502  0.49663044225E+01 -0.21237871400E+03  0.14901189292E+03  0.25948781585E+03  0.25500000920E-02 0. -1.
</event>
<event>
 5   0  0.1166419E-01  0.5852665E+03  0.7818609E-02  0.9936454E-01
        2   -1    0    0  501    0  0.00000000000E+00  0.00000000000E+00  0.32126641814E+03  0.32126641815E+03  0.25500000920E-02 0.  1.
       -2   -1    0    0    0  501  0.00000000000E+00  0.00000000000E+00 -0.26655200130E+03  0.26655200132E+03  0.25500000920E-02 0. -1.
    10030    2    1    2    0    0  0.00000000000E+00  0.00000000000E+00  0.54714416834E+02  0.58781841946E+03  0.58526645799E+03 0.  0.
        1    1    3    3  502    0  0.35681189010E+02  0.14430109909E+03 -0.22580984550E+03  0.27034430047E+03  0.50400001928E-02 0. -1.
       -1    1    3    3    0  502 -0.35681189010E+02 -0.14430109909E+03  0.28052426233E+03  0.31747411899E+03  0.50400001928E-02 0.  1.
</event>
<event>
 5   0  0.1175861E-01  0.5981857E+03  0.7818609E-02  0.9909177E-01
        2   -1    0    0  501    0  0.00000000000E+00  0.00000000000E+00  0.10813102016E+03  0.10813102019E+03  0.25500000920E-02 0. -1.
       -2   -1    0    0    0  501  0.00000000000E+00  0.00000000000E+00 -0.82729753087E+03  0.82729753088E+03  0.25500000920E-02 0.  1.
    10030    2    1    2    0    0  0.00000000000E+00  0.00000000000E+00 -0.71916651071E+03  0.93542855107E+03  0.59818567689E+03 0.  0.
        3    1    3    3  502    0 -0.20891510208E+03 -0.20894256938E+03 -0.28700653779E+03  0.41191659364E+03  0.10100000352E+00 0.  1.
       -3    1    3    3    0  502  0.20891510208E+03  0.20894256938E+03 -0.43215997292E+03  0.52351195743E+03  0.10100000352E+00 0. -1.
</event>
<event>
 5   0  0.1175861E-01  0.6049642E+03  0.7818609E-02  0.9895160E-01
       -2   -1    0    0    0  501  0.00000000000E+00  0.00000000000E+00  0.89800093275E+02  0.89800093311E+02  0.25500000920E-02 0.  1.
        2   -1    0    0  501    0  0.00000000000E+00  0.00000000000E+00 -0.10188787922E+04  0.10188787922E+04  0.25500000920E-02 0. -1.
    10030    2    1    2    0    0  0.00000000000E+00  0.00000000000E+00 -0.92907869891E+03  0.11086788855E+04  0.60496416620E+03 0.  0.
        3    1    3    3  502    0  0.98346174179E+02  0.19308791997E+03 -0.77768620118E+02  0.23022355068E+03  0.10100000352E+00 0.  1.
       -3    1    3    3    0  502 -0.98346174179E+02 -0.19308791997E+03 -0.85131007880E+03  0.87845533482E+03  0.10100000352E+00 0. -1.
</event>
<event>
 5   0  0.7263385E-02  0.6031171E+03  0.7818609E-02  0.9898960E-01
        1   -1    0    0  501    0  0.00000000000E+00  0.00000000000E+00  0.21520643204E+03  0.21520643210E+03  0.50400001928E-02 0. -1.
       -1   -1    0    0    0  501  0.00000000000E+00  0.00000000000E+00 -0.42255968497E+03  0.42255968500E+03  0.50400001928E-02 0.  1.
    10030    2    1    2    0    0  0.00000000000E+00  0.00000000000E+00 -0.20735325293E+03  0.63776611709E+03  0.60311711020E+03 0.  0.
        1    1    3    3  502    0 -0.15258727797E+03  0.17732428489E+03 -0.30490014995E+03  0.38430571278E+03  0.50400001928E-02 0. -1.
       -1    1    3    3    0  502  0.15258727797E+03 -0.17732428489E+03  0.97546897026E+02  0.25346040431E+03  0.50400001928E-02 0.  1.
</event>
<event>
 5   0  0.7221069E-02  0.5692935E+03  0.7818609E-02  0.9971243E-01
       -1   -1    0    0    0  501  0.00000000000E+00  0.00000000000E+00  0.97610921880E+02  0.97610922010E+02  0.50400001928E-02 0.  1.
        1   -1    0    0  501    0  0.00000000000E+00  0.00000000000E+00 -0.83006873074E+03  0.83006873075E+03  0.50400001928E-02 0. -1.
    10030    2    1    2    0    0  0.00000000000E+00  0.00000000000E+00 -0.73245780886E+03  0.92767965276E+03  0.56929350637E+03 0.  0.
        5    1    3    3  502    0 -0.24062863300E+03  0.70137468016E+02 -0.14651269761E+03  0.29036092024E+03  0.46999998093E+01 0.  1.
       -5    1    3    3    0  502  0.24062863300E+03 -0.70137468016E+02 -0.58594511124E+03  0.63731873253E+03  0.46999998093E+01 0. -1.
</event>
<event>
 5   0  0.1175861E-01  0.5982923E+03  0.7818609E-02  0.9908955E-01
        2   -1    0    0  501    0  0.00000000000E+00  0.00000000000E+00  0.86154282877E+03  0.86154282877E+03  0.25500000920E-02 0.  1.
       -2   -1    0    0    0  501  0.00000000000E+00  0.00000000000E+00 -0.10386994435E+03  0.10386994438E+03  0.25500000920E-02 0. -1.
    10030    2    1    2    0    0  0.00000000000E+00  0.00000000000E+00  0.75767288442E+03  0.96541277315E+03  0.59829225532E+03 0.  0.
        3    1    3    3  502    0 -0.25124812288E+03 -0.33910437998E+02  0.63505507071E+03  0.68379126208E+03  0.10100000352E+00 0.  1.
       -3    1    3    3    0  502  0.25124812288E+03  0.33910437998E+02  0.12261781370E+03  0.28162151107E+03  0.10100000352E+00 0. -1.
</event>
<event>
 5   0  0.7221069E-02  0.5685708E+03  0.7818609E-02  0.9972846E-01
        1   -1    0    0  501    0  0.00000000000E+00  0.00000000000E+00  0.73422077498E+03  0.73422077499E+03  0.50400001928E-02 0. -1.
       -1   -1    0    0    0  501  0.00000000000E+00  0.00000000000E+00 -0.11007340300E+03  0.11007340312E+03  0.50400001928E-02 0.  1.
    10030    2    1    2    0    0  0.00000000000E+00  0.00000000000E+00  0.62414737197E+03  0.84429417811E+03  0.56857076715E+03 0.  0.
        5    1    3    3  502    0 -0.23816460258E+03 -0.12491206372E+03  0.44874224130E+03  0.52317978814E+03  0.46999998093E+01 0. -1.
       -5    1    3    3    0  502  0.23816460258E+03  0.12491206372E+03  0.17540513067E+03  0.32111438998E+03  0.46999998093E+01 0.  1.
</event>
<event>
 5   0  0.1219020E-01  0.5891694E+03  0.7818609E-02  0.9928134E-01
        2   -1    0    0  501    0  0.00000000000E+00  0.00000000000E+00  0.46518852418E+03  0.46518852419E+03  0.25500000920E-02 0.  1.
       -2   -1    0    0    0  501  0.00000000000E+00  0.00000000000E+00 -0.18654836102E+03  0.18654836104E+03  0.25500000920E-02 0. -1.
    10030    2    1    2    0    0  0.00000000000E+00  0.00000000000E+00  0.27864016316E+03  0.65173688523E+03  0.58916943831E+03 0.  0.
        2    1    3    3  502    0 -0.85607579410E+02  0.28186485235E+03  0.13719108864E+03  0.32495822416E+03  0.25500000920E-02 0. -1.
       -2    1    3    3    0  502  0.85607579410E+02 -0.28186485235E+03  0.14144907451E+03  0.32677866107E+03  0.25500000920E-02 0.  1.
</event>
<event>
 5   0  0.7263385E-02  0.5912139E+03  0.7818609E-02  0.9923804E-01
       -1   -1    0    0    0  501  0.00000000000E+00  0.00000000000E+00  0.10188161730E+03  0.10188161743E+03  0.50400001928E-02 0.  1.
        1   -1    0    0  501    0  0.00000000000E+00  0.00000000000E+00 -0.85769621305E+03  0.85769621307E+03  0.50400001928E-02 0. -1.
    10030    2    1    2    0    0  0.00000000000E+00  0.00000000000E+00 -0.75581459575E+03  0.95957783050E+03  0.59121392882E+03 0.  0.
        1    1    3    3  502    0 -0.82275297238E+02  0.22575000137E+03 -0.98423516693E+02  0.25965260699E+03  0.50400001928E-02 0.  1.
       -1    1    3    3    0  502  0.82275297238E+02 -0.22575000137E+03 -0.65739107905E+03  0.69992522350E+03  0.50400001928E-02 0. -1.
</event>
<event>
 5   0  0.7263385E-02  0.5562080E+03  0.7818609E-02  0.1000067E+00
        1   -1    0    0  501    0  0.00000000000E+00  0.00000000000E+00  0.14446460913E+04  0.14446460913E+04  0.50400001928E-02 0.  1.
       -1   -1    0    0    0  501  0.00000000000E+00  0.00000000000E+00 -0.53536869698E+02  0.53536869936E+02  0.50400001928E-02 0. -1.
    10030    2    1    2    0    0  0.00000000000E+00  0.00000000000E+00  0.13911092216E+04  0.14981829612E+04  0.55620798172E+03 0.  0.
        1    1    3    3  502    0  0.53335539332E+02 -0.44790711186E+01 -0.39532791879E+02  0.66540089368E+02  0.50400001928E-02 0. -1.
       -1    1    3    3    0  502 -0.53335539332E+02  0.44790711186E+01  0.14306420134E+04  0.14316428718E+04  0.50400001928E-02 0.  1.
</event>
<event>
 5   0  0.7123340E-02  0.5820078E+03  0.7818609E-02  0.9943454E-01
       -1   -1    0    0    0  501  0.00000000000E+00  0.00000000000E+00  0.39121216366E+03  0.39121216370E+03  0.50400001928E-02 0.  1.
        1   -1    0    0  501    0  0.00000000000E+00  0.00000000000E+00 -0.21646379231E+03  0.21646379236E+03  0.50400001928E-02 0. -1.
    10030    2    1    2    0    0  0.00000000000E+00  0.00000000000E+00  0.17474837136E+03  0.60767595606E+03  0.58200779572E+03 0.  0.
        2    1    3    3  502    0 -0.22147029153E+02  0.13706842907E+03 -0.17964889605E+03  0.22705059129E+03  0.25500000920E-02 0. -1.
       -2    1    3    3    0  502  0.22147029153E+02 -0.13706842907E+03  0.35439726741E+03  0.38062536477E+03  0.25500000920E-02 0.  1.
</event>
<event>
 5   0  0.1146468E-01  0.6003235E+03  0.7818609E-02  0.9904735E-01
       -2   -1    0    0    0  501  0.00000000000E+00  0.00000000000E+00  0.56516602824E+02  0.56516602881E+02  0.25500000920E-02 0. -1.
        2   -1    0    0  501    0  0.00000000000E+00  0.00000000000E+00 -0.15941700927E+04  0.15941700927E+04  0.25500000920E-02 0.  1.
    10030    2    1    2    0    0  0.00000000000E+00  0.00000000000E+00 -0.15376534899E+04  0.16506866956E+04  0.60032350616E+03 0.  0.
        4    1    3    3  502    0 -0.68333188486E+02  0.66586419413E+02  0.13703512816E+02  0.96398003415E+02  0.12699999809E+01 0. -1.
       -4    1    3    3    0  502  0.68333188486E+02 -0.66586419413E+02 -0.15513570027E+04  0.15542886922E+04  0.12699999809E+01 0.  1.
</event>
<event>
 5   0  0.7424930E-02  0.6028056E+03  0.7818609E-02  0.9899602E-01
        1   -1    0    0  501    0  0.00000000000E+00  0.00000000000E+00  0.55015079090E+03  0.55015079093E+03  0.50400001928E-02 0. -1.
       -1   -1    0    0    0  501  0.00000000000E+00  0.00000000000E+00 -0.16512498979E+03  0.16512498986E+03  0.50400001928E-02 0.  1.
    10030    2    1    2    0    0  0.00000000000E+00  0.00000000000E+00  0.38502580112E+03  0.71527578079E+03  0.60280558645E+03 0.  0.
        3    1    3    3  502    0 -0.21255645443E+03 -0.16594699655E+03  0.32765044394E+02  0.27164721666E+03  0.10100000352E+00 0.  1.
       -3    1    3    3    0  502  0.21255645443E+03  0.16594699655E+03  0.35226075672E+03  0.44362856413E+03  0.10100000352E+00 0. -1.
</event>
<event>
 5   0  0.7221069E-02  0.5818513E+03  0.7818609E-02  0.9943791E-01
       -1   -1    0    0    0  501  0.00000000000E+00  0.00000000000E+00  0.17201182496E+03  0.17201182503E+03  0.50400001928E-02 0.  1.
        1   -1    0    0  501    0  0.00000000000E+00  0.00000000000E+00 -0.49204596002E+03  0.49204596004E+03  0.50400001928E-02 0. -1.
    10030    2    1    2    0    0  0.00000000000E+00  0.00000000000E+00 -0.32003413506E+03  0.66405778507E+03  0.58185126477E+03 0.  0.
        5    1    3    3  502    0 -0.10296138232E+03  0.26229922528E+03 -0.77609505701E+02  0.29231362473E+03  0.46999998093E+01 0. -1.
       -5    1    3    3    0  502  0.10296138232E+03 -0.26229922528E+03 -0.24242462936E+03  0.37174416034E+03  0.46999998093E+01 0.  1.
</event>
<event>
 5   0  0.7123340E-02  0.6232759E+03  0.7818609E-02  0.9858259E-01
        1   -1    0    0  501    0  0.00000000000E+00  0.00000000000E+00  0.34850200102E+03  0.34850200106E+03  0.50400001928E-02 0.  1.
       -1   -1    0    0    0  501  0.00000000000E+00  0.00000000000E+00 -0.27867330418E+03  0.27867330422E+03  0.50400001928E-02 0. -1.
    10030    2    1    2    0    0  0.00000000000E+00  0.00000000000E+00  0.69828696844E+02  0.62717530528E+03  0.62327587524E+03 0.  0.
        2    1    3    3  502    0 -0.24694595415E+03  0.14479910942E+03  0.15884787120E+03  0.32738621314E+03  0.25500000920E-02 0.  1.
       -2    1    3    3    0  502  0.24694595415E+03 -0.14479910942E+03 -0.89019174354E+02  0.29978909215E+03  0.25500000920E-02 0. -1.
</event>
<event>
 5   0  0.1219020E-01  0.4780611E+03  0.7818609E-02  0.1019669E+00
       -2   -1    0    0    0  501  0.00000000000E+00  0.00000000000E+00  0.24583781274E+02  0.24583781406E+02  0.25500000920E-02 0. -1.
        2   -1    0    0  501    0  0.00000000000E+00  0.00000000000E+00 -0.23241176012E+04  0.23241176012E+04  0.25500000920E-02 0.  1.
    10030    2    1    2    0    0  0.00000000000E+00  0.00000000000E+00 -0.22995338200E+04  0.23487013826E+04  0.47806107944E+03 0.  0.
        2    1    3    3  502    0 -0.11532678249E+03  0.17599805120E+03 -0.17069080212E+04  0.17198286466E+04  0.25500000920E-02 0.  1.
       -2    1    3    3    0  502  0.11532678249E+03 -0.17599805120E+03 -0.59262579878E+03  0.62887273607E+03  0.25500000920E-02 0. -1.
</event>
<event>
 5   0  0.4695625E-02  0.6051769E+03  0.7818609E-02  0.9894723E-01
       -3   -1    0    0    0  501  0.00000000000E+00  0.00000000000E+00  0.43812069208E+03  0.43812070373E+03  0.10100000352E+00 0. -1.
        3   -1    0    0  501    0  0.00000000000E+00  0.00000000000E+00 -0.20898295900E+03  0.20898298341E+03  0.10100000352E+00 0.  1.
    10030    2    1    2    0    0  0.00000000000E+00  0.00000000000E+00  0.22913773308E+03  0.64710368713E+03  0.60517690073E+03 0.  0.
        1    1    3    3  502    0  0.21419125747E+03  0.28488002555E+02  0.34107035621E+03  0.40375543213E+03  0.50400001928E-02 0. -1.
       -1    1    3    3    0  502 -0.21419125747E+03 -0.28488002555E+02 -0.11193262313E+03  0.24334825500E+03  0.50400001928E-02 0.  1.
</event>
<event>
 5   0  0.1146468E-01  0.5526013E+03  0.7818609E-02  0.1000894E+00
       -2   -1    0    0    0  501  0.00000000000E+00  0.00000000000E+00  0.83030223311E+02  0.83030223351E+02  0.25500000920E-02 0. -1.
        2   -1    0    0  501    0  0.00000000000E+00  0.00000000000E+00 -0.91944900080E+03  0.91944900081E+03  0.25500000920E-02 0.  1.
    10030    2    1    2    0    0  0.00000000000E+00  0.00000000000E+00 -0.83641877749E+03  0.10024792242E+04  0.55260132422E+03 0.  0.
        4    1    3    3  502    0 -0.18049723855E+03  0.28094982898E+02 -0.42150771606E+02  0.18747501603E+03  0.12699999809E+01 0. -1.
       -4    1    3    3    0  502  0.18049723855E+03 -0.28094982898E+02 -0.79426800589E+03  0.81500420813E+03  0.12699999809E+01 0.  1.
</event>
<event>
 5   0  0.1146468E-01  0.6019343E+03  0.7818609E-02  0.9901401E-01
       -2   -1    0    0    0  501  0.00000000000E+00  0.00000000000E+00  0.82507582509E+02  0.82507582548E+02  0.25500000920E-02 0.  1.
        2   -1    0    0  501    0  0.00000000000E+00  0.00000000000E+00 -0.10978532735E+04  0.10978532735E+04  0.25500000920E-02 0. -1.
    10030    2    1    2    0    0  0.00000000000E+00  0.00000000000E+00 -0.10153456910E+04  0.11803608561E+04  0.60193428071E+03 0.  0.
        4    1    3    3  502    0 -0.13437554251E+03 -0.12959727366E+03 -0.44759199982E+02  0.19198239150E+03  0.12699999809E+01 0.  1.
       -4    1    3    3    0  502  0.13437554251E+03  0.12959727366E+03 -0.97058649103E+03  0.98837846457E+03  0.12699999809E+01 0. -1.
</event>
<event>
 5   0  0.7266519E-02  0.6124211E+03  0.7818609E-02  0.9879966E-01
       -1   -1    0    0    0  501  0.00000000000E+00  0.00000000000E+00  0.17051658683E+03  0.17051658690E+03  0.50400001928E-02 0.  1.
        1   -1    0    0  501    0  0.00000000000E+00  0.00000000000E+00 -0.54988730124E+03  0.54988730126E+03  0.50400001928E-02 0. -1.
    10030    2    1    2    0    0  0.00000000000E+00  0.00000000000E+00 -0.37937071442E+03  0.72040388816E+03  0.61242111584E+03 0.  0.
        4    1    3    3  502    0 -0.23170908194E+03  0.28105473398E+02  0.43464563322E+02  0.23742324540E+03  0.12699999809E+01 0.  1.
       -4    1    3    3    0  502  0.23170908194E+03 -0.28105473398E+02 -0.42283527774E+03  0.48298064277E+03  0.12699999809E+01 0. -1.
</event>
<event>
 5   0  0.1219020E-01  0.5946044E+03  0.7818609E-02  0.9916664E-01
       -2   -1    0    0    0  501  0.00000000000E+00  0.00000000000E+00  0.82539997158E+02  0.82539997198E+02  0.25500000920E-02 0.  1.
        2   -1    0    0  501    0  0.00000000000E+00  0.00000000000E+00 -0.10708577920E+04  0.10708577920E+04  0.25500000920E-02 0. -1.
    10030    2    1    2    0    0  0.00000000000E+00  0.00000000000E+00 -0.98831779486E+03  0.11533977892E+04  0.59460440340E+03 0.  0.
        2    1    3    3  502    0 -0.14139903581E+03 -0.54258531975E+02  0.21006589096E+01  0.15146645964E+03  0.25500000920E-02 0.  1.
       -2    1    3    3    0  502  0.14139903581E+03  0.54258531975E+02 -0.99041845377E+03  0.10019313296E+04  0.25500000920E-02 0. -1.
</event>
<event>
 5   0  0.4695625E-02  0.5911114E+03  0.7818609E-02  0.9924021E-01
        3   -1    0    0  501    0  0.00000000000E+00  0.00000000000E+00  0.35113450439E+03  0.35113451891E+03  0.10100000352E+00 0.  1.
       -3   -1    0    0    0  501  0.00000000000E+00  0.00000000000E+00 -0.24877406645E+03  0.24877408696E+03  0.10100000352E+00 0. -1.
    10030    2    1    2    0    0  0.00000000000E+00  0.00000000000E+00  0.10236043793E+03  0.59990860587E+03  0.59111139064E+03 0.  0.
        3    1    3    3  502    0 -0.13027992230E+03 -0.32105202965E+02  0.31844246156E+03  0.34555638286E+03  0.10100000352E+00 0.  1.
       -3    1    3    3    0  502  0.13027992230E+03  0.32105202965E+02 -0.21608202363E+03  0.25435222300E+03  0.10100000352E+00 0. -1.
</event>
<event>
 5   0  0.1146468E-01  0.6000803E+03  0.7818609E-02  0.9905240E-01
       -2   -1    0    0    0  501  0.00000000000E+00  0.00000000000E+00  0.24188525045E+03  0.24188525047E+03  0.25500000920E-02 0. -1.
        2   -1    0    0  501    0  0.00000000000E+00  0.00000000000E+00 -0.37217679505E+03  0.37217679506E+03  0.25500000920E-02 0.  1.
    10030    2    1    2    0    0  0.00000000000E+00  0.00000000000E+00 -0.13029154460E+03  0.61406204553E+03  0.60008025227E+03 0.  0.
        4    1    3    3  502    0  0.21323737363E+03  0.11207321352E+02 -0.28083321616E+03  0.35279553535E+03  0.12699999809E+01 0.  1.
       -4    1    3    3    0  502 -0.21323737363E+03 -0.11207321352E+02  0.15054167156E+03  0.26126651018E+03  0.12699999809E+01 0. -1.
</event>
<event>
 5   0  0.1206238E-01  0.5848300E+03  0.7818609E-02  0.9937389E-01
       -2   -1    0    0    0  501  0.00000000000E+00  0.00000000000E+00  0.56587208101E+02  0.56587208158E+02  0.25500000920E-02 0. -1.
        2   -1    0    0  501    0  0.00000000000E+00  0.00000000000E+00 -0.15110576676E+04  0.15110576676E+04  0.25500000920E-02 0.  1.
    10030    2    1    2    0    0  0.00000000000E+00  0.00000000000E+00 -0.14544704595E+04  0.15676448758E+04  0.58483000859E+03 0.  0.
        5    1    3    3  502    0 -0.49316444152E+02 -0.23704225943E+02 -0.14971095890E+04  0.14981165553E+04  0.46999998093E+01 0.  1.
       -5    1    3    3    0  502  0.49316444152E+02  0.23704225943E+02  0.42639129423E+02  0.69528320471E+02  0.46999998093E+01 0. -1.
</event>
<event>
 5   0  0.4695625E-02  0.5984654E+03  0.7818609E-02  0.9908595E-01
       -4   -1    0    0    0  501  0.00000000000E+00  0.00000000000E+00  0.11203355719E+04  0.11203362917E+04  0.12699999809E+01 0. -1.
        4   -1    0    0  501    0  0.00000000000E+00  0.00000000000E+00 -0.79916872898E+02  0.79926963372E+02  0.12699999809E+01 0.  1.
    10030    2    1    2    0    0  0.00000000000E+00  0.00000000000E+00  0.10404186990E+04  0.12002632551E+04  0.59846538104E+03 0.  0.
        4    1    3    3  502    0 -0.38285593477E+02 -0.19679762282E+03  0.96571421306E+03  0.98630656757E+03  0.12699999809E+01 0. -1.
       -4    1    3    3    0  502  0.38285593477E+02  0.19679762282E+03  0.74704485912E+02  0.21395668751E+03  0.12699999809E+01 0.  1.
</event>
<event>
 5   0  0.1206238E-01  0.5873204E+03  0.7818609E-02  0.9932067E-01
       -2   -1    0    0    0  501  0.00000000000E+00  0.00000000000E+00  0.15156236392E+03  0.15156236394E+03  0.25500000920E-02 0.  1.
        2   -1    0    0  501    0  0.00000000000E+00  0.00000000000E+00 -0.56898233931E+03  0.56898233932E+03  0.25500000920E-02 0. -1.
    10030    2    1    2    0    0  0.00000000000E+00  0.00000000000E+00 -0.41741997539E+03  0.72054470326E+03  0.58732038407E+03 0.  0.
        5    1    3    3  502    0 -0.17155027410E+03 -0.82555227141E+02  0.65534390387E+02  0.20139937535E+03  0.46999998093E+01 0.  1.
       -5    1    3    3    0  502  0.17155027410E+03  0.82555227141E+02 -0.48295436578E+03  0.51914532791E+03  0.46999998093E+01 0. -1.
</event>
<event>
 5   0  0.7221069E-02  0.6028881E+03  0.7818609E-02  0.9899432E-01
        1   -1    0    0  501    0  0.00000000000E+00  0.00000000000E+00  0.83584052572E+03  0.83584052573E+03  0.50400001928E-02 0. -1.
       -1   -1    0    0    0  501  0.00000000000E+00  0.00000000000E+00 -0.10871514609E+03  0.10871514620E+03  0.50400001928E-02 0.  1.
    10030    2    1    2    0    0  0.00000000000E+00  0.00000000000E+00  0.72712537963E+03  0.94455567194E+03  0.60288813199E+03 0.  0.
        5    1    3    3  502    0  0.28224785534E+03  0.95278518414E+02  0.29168828384E+03  0.41694842947E+03  0.46999998093E+01 0.  1.
       -5    1    3    3    0  502 -0.28224785534E+03 -0.95278518414E+02  0.43543709579E+03  0.52760724247E+03  0.46999998093E+01 0. -1.
</event>
<event>
 5   0  0.7123340E-02  0.5977091E+03  0.7818609E-02  0.9910170E-01
        1   -1    0    0  501    0  0.00000000000E+00  0.00000000000E+00  0.27584628448E+03  0.27584628453E+03  0.50400001928E-02 0. -1.
       -1   -1    0    0    0  501  0.00000000000E+00  0.00000000000E+00 -0.32378191275E+03  0.32378191279E+03  0.50400001928E-02 0.  1.
    10030    2    1    2    0    0  0.00000000000E+00  0.00000000000E+00 -0.47935628274E+02  0.59962819732E+03  0.59770908523E+03 0.  0.
        2    1    3    3  502    0  0.68376888910E+02  0.10350414912E+03  0.24879766952E+03  0.27800861171E+03  0.25500000920E-02 0. -1.
       -2    1    3    3    0  502 -0.68376888910E+02 -0.10350414912E+03 -0.29673329779E+03  0.32161958561E+03  0.25500000920E-02 0.  1.
</event>
<event>
 5   0  0.1166419E-01  0.5823292E+03  0.7818609E-02  0.9942761E-01
       -2   -1    0    0    0  501  0.00000000000E+00  0.00000000000E+00  0.12040989167E+03  0.12040989170E+03  0.25500000920E-02 0.  1.
        2   -1    0    0  501    0  0.00000000000E+00  0.00000000000E+00 -0.70406848634E+03  0.70406848635E+03  0.25500000920E-02 0. -1.
    10030    2    1    2    0    0  0.00000000000E+00  0.00000000000E+00 -0.58365859468E+03  0.82447837804E+03  0.58232915153E+03 0.  0.
        1    1    3    3  502    0 -0.88690110959E+02  0.22634753946E+03 -0.51870527292E+03  0.57284754044E+03  0.50400001928E-02 0. -1.
       -1    1    3    3    0  502  0.88690110959E+02 -0.22634753946E+03 -0.64953321754E+02  0.25163083761E+03  0.50400001928E-02 0.  1.
</event>
<event>
 5   0  0.7266519E-02  0.6010345E+03  0.7818609E-02  0.9903262E-01
        1   -1    0    0  501    0  0.00000000000E+00  0.00000000000E+00  0.89471162569E+03  0.89471162570E+03  0.50400001928E-02 0. -1.
       -1   -1    0    0    0  501  0.00000000000E+00  0.00000000000E+00 -0.10093823688E+03  0.10093823701E+03  0.50400001928E-02 0.  1.
    10030    2    1    2    0    0  0.00000000000E+00  0.00000000000E+00  0.79377338881E+03  0.99564986271E+03  0.60103448848E+03 0.  0.
        4    1    3    3  502    0  0.29048484156E+03 -0.76282885718E+02  0.41414033695E+03  0.51158025120E+03  0.12699999809E+01 0. -1.
       -4    1    3    3    0  502 -0.29048484156E+03  0.76282885718E+02  0.37963305186E+03  0.48406961151E+03  0.12699999809E+01 0.  1.
</event>
<event>
 5   0  0.1175861E-01  0.4680968E+03  0.7818609E-02  0.1022459E+00
       -2   -1    0    0    0  501  0.00000000000E+00  0.00000000000E+00  0.10514268316E+03  0.10514268319E+03  0.25500000920E-02 0.  1.
        2   -1    0    0  501    0  0.00000000000E+00  0.00000000000E+00 -0.52099338545E+03  0.52099338545E+03  0.25500000920E-02 0. -1.
    10030    2    1    2    0    0  0.00000000000E+00  0.00000000000E+00 -0.41585070228E+03  0.62613606865E+03  0.46809675268E+03 0.  0.
        3    1    3    3  502    0  0.20644161638E+03  0.64792542874E+01 -0.60674532980E+02  0.21527083143E+03  0.10100000352E+00 0.  1.
       -3    1    3    3    0  502 -0.20644161638E+03 -0.64792542874E+01 -0.35517616930E+03  0.41086523722E+03  0.10100000352E+00 0. -1.
</event>
<event>
 5   0  0.7221069E-02  0.5985868E+03  0.7818609E-02  0.9908342E-01
       -1   -1    0    0    0  501  0.00000000000E+00  0.00000000000E+00  0.28844608241E+03  0.28844608246E+03  0.50400001928E-02 0. -1.
        1   -1    0    0  501    0  0.00000000000E+00  0.00000000000E+00 -0.31054865860E+03  0.31054865864E+03  0.50400001928E-02 0.  1.
    10030    2    1    2    0    0  0.00000000000E+00  0.00000000000E+00 -0.22102576191E+02  0.59899474110E+03  0.59858681575E+03 0.  0.
        5    1    3    3  502    0  0.54532246410E+02  0.28973749290E+03  0.40295211621E+02  0.29760271298E+03  0.46999998093E+01 0.  1.
       -5    1    3    3    0  502 -0.54532246410E+02 -0.28973749290E+03 -0.62397787812E+02  0.30139202812E+03  0.46999998093E+01 0. -1.
</event>
<event>
 5   0  0.7424930E-02  0.6003881E+03  0.7818609E-02  0.9904601E-01
        1   -1    0    0  501    0  0.00000000000E+00  0.00000000000E+00  0.16844931663E+04  0.16844931663E+04  0.50400001928E-02 0.  1.
       -1   -1    0    0    0  501  0.00000000000E+00  0.00000000000E+00 -0.53497667705E+02  0.53497667942E+02  0.50400001928E-02 0. -1.
    10030    2    1    2    0    0  0.00000000000E+00  0.00000000000E+00  0.16309954986E+04  0.17379908343E+04  0.60038806076E+03 0.  0.
        3    1    3    3  502    0  0.14409246440E+03  0.43212263640E+02  0.63487236905E+02  0.16328067086E+03  0.10100000352E+00 0. -1.
       -3    1    3    3    0  502 -0.14409246440E+03 -0.43212263640E+02  0.15675082617E+04  0.15747101634E+04  0.10100000352E+00 0.  1.
</event>
<event>
 5   0  0.7221069E-02  0.6466215E+03  0.7818609E-02  0.9813140E-01
       -1   -1    0    0    0  501  0.00000000000E+00  0.00000000000E+00  0.14550416239E+03  0.14550416247E+03  0.50400001928E-02 0. -1.
        1   -1    0    0  501    0  0.00000000000E+00  0.00000000000E+00 -0.71839749359E+03  0.71839749360E+03  0.50400001928E-02 0.  1.
    10030    2    1    2    0    0  0.00000000000E+00  0.00000000000E+00 -0.57289333120E+03  0.86390165608E+03  0.64662145220E+03 0.  0.
        5    1    3    3  502    0  0.20723020705E+03  0.69961028765E+02  0.31596689458E+02  0.22104150073E+03  0.46999998093E+01 0. -1.
       -5    1    3    3    0  502 -0.20723020705E+03 -0.69961028765E+02 -0.60449002066E+03  0.64286015535E+03  0.46999998093E+01 0.  1.
</event>
<event>
 5   0  0.1219020E-01  0.5993608E+03  0.7818609E-02  0.9906733E-01
       -2   -1    0    0    0  501  0.00000000000E+00  0.00000000000E+00  0.12109517733E+03  0.12109517735E+03  0.25500000920E-02 0. -1.
        2   -1    0    0  501    0  0.00000000000E+00  0.00000000000E+00 -0.74163434660E+03  0.74163434661E+03  0.25500000920E-02 0.  1.
    10030    2    1    2    0    0  0.00000000000E+00  0.00000000000E+00 -0.62053916928E+03  0.86272952396E+03  0.59936080194E+03 0.  0.
        2    1    3    3  502    0 -0.21825847395E+03 -0.20169269083E+03 -0.25467681700E+03  0.39137831329E+03  0.25500000920E-02 0.  1.
       -2    1    3    3    0  502  0.21825847395E+03  0.20169269083E+03 -0.36586235227E+03  0.47135121067E+03  0.25500000920E-02 0. -1.
</event>
<event>
 5   0  0.1206238E-01  0.5973919E+03  0.7818609E-02  0.9910832E-01
       -2   -1    0    0    0  501  0.00000000000E+00  0.00000000000E+00  0.43793849577E+02  0.43793849651E+02  0.25500000920E-02 0.  1.
        2   -1    0    0  501    0  0.00000000000E+00  0.00000000000E+00 -0.20372555024E+04  0.20372555024E+04  0.25500000920E-02 0. -1.
    10030    2    1    2    0    0  0.00000000000E+00  0.00000000000E+00 -0.19934616528E+04  0.20810493521E+04  0.59739186838E+03 0.  0.
        5    1    3    3  502    0  0.21431689923E+03 -0.14603758043E+03 -0.15127028695E+04  0.15347803653E+04  0.46999998093E+01 0. -1.
       -5    1    3    3    0  502 -0.21431689923E+03  0.14603758043E+03 -0.48075878333E+03  0.54626898680E+03  0.46999998093E+01 0.  1.
</event>
<event>
 5   0  0.7266519E-02  0.5477650E+03  0.7818609E-02  0.1002013E+00
        1   -1    0    0  501    0  0.00000000000E+00  0.00000000000E+00  0.22312183276E+04  0.22312183276E+04  0.50400001928E-02 0.  1.
       -1   -1    0    0    0  501  0.00000000000E+00  0.00000000000E+00 -0.33619136011E+02  0.33619136389E+02  0.50400001928E-02 0. -1.
    10030    2    1    2    0    0  0.00000000000E+00  0.00000000000E+00  0.21975991916E+04  0.22648374640E+04  0.54776503306E+03 0.  0.
        4    1    3    3  502    0 -0.10314832148E+03  0.80670701457E+02  0.20933848445E+04  0.20974768314E+04  0.12699999809E+01 0.  1.
       -4    1    3    3    0  502  0.10314832148E+03 -0.80670701457E+02  0.10421434712E+03  0.16736063260E+03  0.12699999809E+01 0. -1.
</event>
<event>
 5   0  0.1146468E-01  0.5948466E+03  0.7818609E-02  0.9916156E-01
       -2   -1    0    0    0  501  0.00000000000E+00  0.00000000000E+00  0.93763529582E+02  0.93763529617E+02  0.25500000920E-02 0.  1.
        2   -1    0    0  501    0  0.00000000000E+00  0.00000000000E+00 -0.94344388647E+03  0.94344388647E+03  0.25500000920E-02 0. -1.
    10030    2    1    2    0    0  0.00000000000E+00  0.00000000000E+00 -0.84968035689E+03  0.10372074161E+04  0.59484663159E+03 0.  0.
        4    1    3    3  502    0  0.19241703508E+03 -0.22456834548E+03 -0.36959743127E+03  0.47334884734E+03  0.12699999809E+01 0. -1.
       -4    1    3    3    0  502 -0.19241703508E+03  0.22456834548E+03 -0.48008292562E+03  0.56385856875E+03  0.12699999809E+01 0.  1.
</event>
<event>
 5   0  0.7221069E-02  0.5976145E+03  0.7818609E-02  0.9910368E-01
        1   -1    0    0  501    0  0.00000000000E+00  0.00000000000E+00  0.11888699266E+04  0.11888699266E+04  0.50400001928E-02 0.  1.
       -1   -1    0    0    0  501  0.00000000000E+00  0.00000000000E+00 -0.75101376446E+02  0.75101376615E+02  0.50400001928E-02 0. -1.
    10030    2    1    2    0    0  0.00000000000E+00  0.00000000000E+00  0.11137685502E+04  0.12639713032E+04  0.59761448449E+03 0.  0.
        5    1    3    3  502    0 -0.19143063956E+03  0.11604350007E+03  0.97538140991E+03  0.10007511022E+04  0.46999998093E+01 0.  1.
       -5    1    3    3    0  502  0.19143063956E+03 -0.11604350007E+03  0.13838714026E+03  0.26322020108E+03  0.46999998093E+01 0. -1.
</event>
<event>
 5   0  0.1219020E-01  0.5996047E+03  0.7818609E-02  0.9906226E-01
        2   -1    0    0  501    0  0.00000000000E+00  0.00000000000E+00  0.81113628899E+03  0.81113628899E+03  0.25500000920E-02 0. -1.
       -2   -1    0    0    0  501  0.00000000000E+00  0.00000000000E+00 -0.11080931367E+03  0.11080931370E+03  0.25500000920E-02 0.  1.
    10030    2    1    2    0    0  0.00000000000E+00  0.00000000000E+00  0.70032697532E+03  0.92194560270E+03  0.59960472144E+03 0.  0.
        2    1    3    3  502    0 -0.76603599931E+02 -0.90829945241E+02  0.77338681228E+03  0.78246108650E+03  0.25500000920E-02 0. -1.
       -2    1    3    3    0  502  0.76603599931E+02  0.90829945241E+02 -0.73059836962E+02  0.13948451620E+03  0.25500000920E-02 0.  1.
</event>
<event>
 5   0  0.1175861E-01  0.5939748E+03  0.7818609E-02  0.9917986E-01
        2   -1    0    0  501    0  0.00000000000E+00  0.00000000000E+00  0.20750391371E+03  0.20750391372E+03  0.25500000920E-02 0.  1.
       -2   -1    0    0    0  501  0.00000000000E+00  0.00000000000E+00 -0.42505956627E+03  0.42505956628E+03  0.25500000920E-02 0. -1.
    10030    2    1    2    0    0  0.00000000000E+00  0.00000000000E+00 -0.21755565256E+03  0.63256348000E+03  0.59397482629E+03 0.  0.
        3    1    3    3  502    0 -0.14152383578E+03  0.11303122482E+03  0.14187758237E+03  0.23007458021E+03  0.10100000352E+00 0.  1.
       -3    1    3    3    0  502  0.14152383578E+03 -0.11303122482E+03 -0.35943323493E+03  0.40248889979E+03  0.10100000352E+00 0. -1.
</event>
<event>
 5   0  0.7123340E-02  0.6027566E+03  0.7818609E-02  0.9899703E-01
        1   -1    0    0  501    0  0.00000000000E+00  0.00000000000E+00  0.73459885630E+03  0.73459885632E+03  0.50400001928E-02 0.  1.
       -1   -1    0    0    0  501  0.00000000000E+00  0.00000000000E+00 -0.12364419828E+03  0.12364419838E+03  0.50400001928E-02 0. -1.
    10030    2    1    2    0    0  0.00000000000E+00  0.00000000000E+00  0.61095465802E+03  0.85824305470E+03  0.60275662318E+03 0.  0.
        2    1    3    3  502    0 -0.70478137705E+02  0.12249760096E+03  0.68449267593E+03  0.69892993465E+03  0.25500000920E-02 0.  1.
       -2    1    3    3    0  502  0.70478137705E+02 -0.12249760096E+03 -0.73538017915E+02  0.15931312005E+03  0.25500000920E-02 0. -1.
</event>
<event>
 5   0  0.7221069E-02  0.6062538E+03  0.7818609E-02  0.9892516E-01
       -1   -1    0    0    0  501  0.00000000000E+00  0.00000000000E+00  0.12339749934E+03  0.12339749944E+03  0.50400001928E-02 0. -1.
        1   -1    0    0  501    0  0.00000000000E+00  0.00000000000E+00 -0.74463352289E+03  0.74463352291E+03  0.50400001928E-02 0.  1.
    10030    2    1    2    0    0  0.00000000000E+00  0.00000000000E+00 -0.62123602355E+03  0.86803102235E+03  0.60625379076E+03 0.  0.
        5    1    3    3  502    0  0.14114007709E+03 -0.48764314963E+02 -0.68825736997E+03  0.70428600518E+03  0.46999998093E+01 0.  1.
       -5    1    3    3    0  502 -0.14114007709E+03  0.48764314963E+02  0.67021346417E+02  0.16374501717E+03  0.46999998093E+01 0. -1.
</event>
<event>
 5   0  0.1175861E-01  0.5718924E+03  0.7818609E-02  0.9965500E-01
       -2   -1    0    0    0  501  0.00000000000E+00  0.00000000000E+00  0.45588863623E+02  0.45588863695E+02  0.25500000920E-02 0. -1.
        2   -1    0    0  501    0  0.00000000000E+00  0.00000000000E+00 -0.17935349716E+04  0.17935349716E+04  0.25500000920E-02 0.  1.
    10030    2    1    2    0    0  0.00000000000E+00  0.00000000000E+00 -0.17479461080E+04  0.18391238353E+04  0.57189237202E+03 0.  0.
        3    1    3    3  502    0  0.17338510976E+03 -0.14607087652E+02 -0.14425383246E+03  0.22601978161E+03  0.10100000352E+00 0. -1.
       -3    1    3    3    0  502 -0.17338510976E+03  0.14607087652E+02 -0.16036922756E+04  0.16131040537E+04  0.10100000352E+00 0.  1.
</event>
<event>
 5   0  0.1175861E-01  0.6484423E+03  0.7818609E-02  0.9809706E-01
        2   -1    0    0  501    0  0.00000000000E+00  0.00000000000E+00  0.16096734974E+03  0.16096734976E+03  0.25500000920E-02 0.  1.
       -2   -1    0    0    0  501  0.00000000000E+00  0.00000000000E+00 -0.65304773963E+03  0.65304773964E+03  0.25500000920E-02 0. -1.
    10030    2    1    2    0    0  0.00000000000E+00  0.00000000000E+00 -0.49208038990E+03  0.81401508940E+03  0.64844233024E+03 0.  0.
        3    1    3    3  502    0  0.30926872718E+03 -0.14263661143E+02 -0.36689719896E+03  0.48006683123E+03  0.10100000352E+00 0. -1.
       -3    1    3    3    0  502 -0.30926872718E+03  0.14263661143E+02 -0.12518319094E+03  0.33394825817E+03  0.10100000352E+00 0.  1.
</event>
<event>
 5   0  0.1219020E-01  0.5728883E+03  0.7818609E-02  0.9963307E-01
        2   -1    0    0  501    0  0.00000000000E+00  0.00000000000E+00  0.87876482461E+03  0.87876482462E+03  0.25500000920E-02 0. -1.
       -2   -1    0    0    0  501  0.00000000000E+00  0.00000000000E+00 -0.93369979434E+02  0.93369979469E+02  0.25500000920E-02 0.  1.
    10030    2    1    2    0    0  0.00000000000E+00  0.00000000000E+00  0.78539484518E+03  0.97213480408E+03  0.57288830890E+03 0.  0.
        2    1    3    3  502    0 -0.93407670549E+02  0.67473149230E+02 -0.52307037793E+02  0.12654503149E+03  0.25500000920E-02 0.  1.
       -2    1    3    3    0  502  0.93407670549E+02 -0.67473149230E+02  0.83770188297E+03  0.84558977260E+03  0.25500000920E-02 0. -1.
</event>
<event>
 5   0  0.7263385E-02  0.6004271E+03  0.7818609E-02  0.9904520E-01
        1   -1    0    0  501    0  0.00000000000E+00  0.00000000000E+00  0.93098405001E+03  0.93098405002E+03  0.50400001928E-02 0. -1.
       -1   -1    0    0    0  501  0.00000000000E+00  0.00000000000E+00 -0.96809588229E+02  0.96809588360E+02  0.50400001928E-02 0.  1.
    10030    2    1    2    0    0  0.00000000000E+00  0.00000000000E+00  0.83417446178E+03  0.10277936384E+04  0.60042712332E+03 0.  0.
        1    1    3    3  502    0  0.17043288670E+03 -0.24686308130E+03  0.43730010598E+03  0.53030192579E+03  0.50400001928E-02 0.  1.
       -1    1    3    3    0  502 -0.17043288670E+03  0.24686308130E+03  0.39687435580E+03  0.49749171259E+03  0.50400001928E-02 0. -1.
</event>
<event>
 5   0  0.1146468E-01  0.6033938E+03  0.7818609E-02  0.9898390E-01
       -2   -1    0    0    0  501  0.00000000000E+00  0.00000000000E+00  0.50590301039E+02  0.50590301103E+02  0.25500000920E-02 0.  1.
        2   -1    0    0  501    0  0.00000000000E+00  0.00000000000E+00 -0.17991789747E+04  0.17991789747E+04  0.25500000920E-02 0. -1.
    10030    2    1    2    0    0  0.00000000000E+00  0.00000000000E+00 -0.17485886737E+04  0.18497692758E+04  0.60339375540E+03 0.  0.
        4    1    3    3  502    0  0.27442967000E+03 -0.46920571300E+02 -0.51802086288E+03  0.58809898068E+03  0.12699999809E+01 0. -1.
       -4    1    3    3    0  502 -0.27442967000E+03  0.46920571300E+02 -0.12305678108E+04  0.12616702952E+04  0.12699999809E+01 0.  1.
</event>
<event>
 5   0  0.1175861E-01  0.6012486E+03  0.7818609E-02  0.9902819E-01
       -2   -1    0    0    0  501  0.00000000000E+00  0.00000000000E+00  0.85537398359E+02  0.85537398397E+02  0.25500000920E-02 0. -1.
        2   -1    0    0  501    0  0.00000000000E+00  0.00000000000E+00 -0.10565548715E+04  0.10565548715E+04  0.25500000920E-02 0.  1.
    10030    2    1    2    0    0  0.00000000000E+00  0.00000000000E+00 -0.97101747314E+03  0.11420922699E+04  0.60124855079E+03 0.  0.
        3    1    3    3  502    0 -0.18946145454E+03 -0.15204038543E+03 -0.82190883107E+03  0.85705662494E+03  0.10100000352E+00 0.  1.
       -3    1    3    3    0  502  0.18946145454E+03  0.15204038543E+03 -0.14910864207E+03  0.28503564497E+03  0.10100000352E+00 0. -1.
</event>
<event>
 5   0  0.4695625E-02  0.5971908E+03  0.7818609E-02  0.9911252E-01
        4   -1    0    0  501    0  0.00000000000E+00  0.00000000000E+00  0.10654316696E+04  0.10654324266E+04  0.12699999809E+01 0.  1.
       -4   -1    0    0    0  501  0.00000000000E+00  0.00000000000E+00 -0.83678037133E+02  0.83687674113E+02  0.12699999809E+01 0. -1.
    10030    2    1    2    0    0  0.00000000000E+00  0.00000000000E+00  0.98175363251E+03  0.11491201007E+04  0.59719076587E+03 0.  0.
        3    1    3    3  502    0  0.27828982789E+03  0.11140649886E+02  0.69802982599E+03  0.75154174239E+03  0.10100000352E+00 0.  1.
       -3    1    3    3    0  502 -0.27828982789E+03 -0.11140649886E+02  0.28372380652E+03  0.39757835828E+03  0.10100000352E+00 0. -1.
</event>
<event>
 5   0  0.7263385E-02  0.5766956E+03  0.7818609E-02  0.9954971E-01
       -1   -1    0    0    0  501  0.00000000000E+00  0.00000000000E+00  0.12213682124E+03  0.12213682134E+03  0.50400001928E-02 0.  1.
        1   -1    0    0  501    0  0.00000000000E+00  0.00000000000E+00 -0.68074846591E+03  0.68074846593E+03  0.50400001928E-02 0. -1.
    10030    2    1    2    0    0  0.00000000000E+00  0.00000000000E+00 -0.55861164467E+03  0.80288528727E+03  0.57669559991E+03 0.  0.
        1    1    3    3  502    0  0.24954382900E+03  0.11787697626E+03 -0.16301321615E+03  0.32053145367E+03  0.50400001928E-02 0.  1.
       -1    1    3    3    0  502 -0.24954382900E+03 -0.11787697626E+03 -0.39559842851E+03  0.48235383360E+03  0.50400001928E-02 0. -1.
</event>
<event>
 5   0  0.1166419E-01  0.6016612E+03  0.7818609E-02  0.9901966E-01
       -2   -1    0    0    0  501  0.00000000000E+00  0.00000000000E+00  0.65428289592E+02  0.65428289642E+02  0.25500000920E-02 0.  1.
        2   -1    0    0  501    0  0.00000000000E+00  0.00000000000E+00 -0.13831791259E+04  0.13831791259E+04  0.25500000920E-02 0. -1.
    10030    2    1    2    0    0  0.00000000000E+00  0.00000000000E+00 -0.13177508363E+04  0.14486074155E+04  0.60166118188E+03 0.  0.
        1    1    3    3  502    0  0.23260060764E+03 -0.59139031942E+02 -0.22217132158E+03  0.32704825933E+03  0.50400001928E-02 0.  1.
       -1    1    3    3    0  502 -0.23260060764E+03  0.59139031942E+02 -0.10955795147E+04  0.11215591562E+04  0.50400001928E-02 0. -1.
</event>
<event>
 5   0  0.7221069E-02  0.6057380E+03  0.7818609E-02  0.9893573E-01
        1   -1    0    0  501    0  0.00000000000E+00  0.00000000000E+00  0.12358826837E+03  0.12358826848E+03  0.50400001928E-02 0. -1.
       -1   -1    0    0    0  501  0.00000000000E+00  0.00000000000E+00 -0.74221959297E+03  0.74221959299E+03  0.50400001928E-02 0.  1.
    10030    2    1    2    0    0  0.00000000000E+00  0.00000000000E+00 -0.61863132460E+03  0.86580786147E+03  0.60573801036E+03 0.  0.
        5    1    3    3  502    0 -0.23399770678E+02 -0.30054533155E+03 -0.26807472898E+03  0.40343673097E+03  0.46999998093E+01 0. -1.
       -5    1    3    3    0  502  0.23399770678E+02  0.30054533155E+03 -0.35055659562E+03  0.46237113050E+03  0.46999998093E+01 0.  1.
</event>
<event>
 5   0  0.7266519E-02  0.5791818E+03  0.7818609E-02  0.9949564E-01
       -1   -1    0    0    0  501  0.00000000000E+00  0.00000000000E+00  0.14983529187E+03  0.14983529195E+03  0.50400001928E-02 0.  1.
        1   -1    0    0  501    0  0.00000000000E+00  0.00000000000E+00 -0.55970058223E+03  0.55970058225E+03  0.50400001928E-02 0. -1.
    10030    2    1    2    0    0  0.00000000000E+00  0.00000000000E+00 -0.40986529036E+03  0.70953587420E+03  0.57918183720E+03 0.  0.
        4    1    3    3  502    0  0.10086008662E+03 -0.19323416096E+03 -0.43849679920E+03  0.48968689368E+03  0.12699999809E+01 0. -1.
       -4    1    3    3    0  502 -0.10086008662E+03  0.19323416096E+03  0.28631508841E+02  0.21984898052E+03  0.12699999809E+01 0.  1.
</event>
<event>
 5   0  0.1175861E-01  0.5859673E+03  0.7818609E-02  0.9934955E-01
        2   -1    0    0  501    0  0.00000000000E+00  0.00000000000E+00  0.10328546989E+04  0.10328546990E+04  0.25500000920E-02 0. -1.
       -2   -1    0    0    0  501  0.00000000000E+00  0.00000000000E+00 -0.83108890081E+02  0.83108890120E+02  0.25500000920E-02 0.  1.
    10030    2    1    2    0    0  0.00000000000E+00  0.00000000000E+00  0.94974580887E+03  0.11159635891E+04  0.58596726075E+03 0.  0.
        3    1    3    3  502    0 -0.14870643814E+03 -0.28753937652E+01 -0.58625156460E+01  0.14884976293E+03  0.10100000352E+00 0.  1.
       -3    1    3    3    0  502  0.14870643814E+03  0.28753937652E+01  0.95560832451E+03  0.96711382614E+03  0.10100000352E+00 0. -1.
</event>
<event>
 5   0  0.7266519E-02  0.6045933E+03  0.7818609E-02  0.9895922E-01
       -1   -1    0    0    0  501  0.00000000000E+00  0.00000000000E+00  0.17429339033E+03  0.17429339041E+03  0.50400001928E-02 0. -1.
        1   -1    0    0  501    0  0.00000000000E+00  0.00000000000E+00 -0.52430717344E+03  0.52430717346E+03  0.50400001928E-02 0.  1.
    10030    2    1    2    0    0  0.00000000000E+00  0.00000000000E+00 -0.35001378310E+03  0.69860056387E+03  0.60459333396E+03 0.  0.
        4    1    3    3  502    0  0.11365394299E+03  0.15853801179E+03  0.91833732404E+02  0.21560743783E+03  0.12699999809E+01 0. -1.
       -4    1    3    3    0  502 -0.11365394299E+03 -0.15853801179E+03 -0.44184751551E+03  0.48299312604E+03  0.12699999809E+01 0.  1.
</event>
<event>
 5   0  0.7263385E-02  0.5753959E+03  0.7818609E-02  0.9957809E-01
       -1   -1    0    0    0  501  0.00000000000E+00  0.00000000000E+00  0.14450276164E+03  0.14450276173E+03  0.50400001928E-02 0.  1.
        1   -1    0    0  501    0  0.00000000000E+00  0.00000000000E+00 -0.57279252754E+03  0.57279252756E+03  0.50400001928E-02 0. -1.
    10030    2    1    2    0    0  0.00000000000E+00  0.00000000000E+00 -0.42828976590E+03  0.71729528929E+03  0.57539587109E+03 0.  0.
        1    1    3    3  502    0  0.39985912514E+02 -0.28480231109E+03 -0.20457982887E+03  0.35293644755E+03  0.50400001928E-02 0.  1.
       -1    1    3    3    0  502 -0.39985912514E+02  0.28480231109E+03 -0.22370993702E+03  0.36435884174E+03  0.50400001928E-02 0. -1.
</event>
<event>
 5   0  0.7123340E-02  0.5849614E+03  0.7818609E-02  0.9937107E-01
        1   -1    0    0  501    0  0.00000000000E+00  0.00000000000E+00  0.13763279362E+03  0.13763279372E+03  0.50400001928E-02 0. -1.
       -1   -1    0    0    0  501  0.00000000000E+00  0.00000000000E+00 -0.62154497423E+03  0.62154497425E+03  0.50400001928E-02 0.  1.
    10030    2    1    2    0    0  0.00000000000E+00  0.00000000000E+00 -0.48391218061E+03  0.75917776797E+03  0.58496143876E+03 0.  0.
        2    1    3    3  502    0  0.20953254699E+03 -0.17651413664E+03 -0.37484125164E+03  0.46429203377E+03  0.25500000920E-02 0.  1.
       -2    1    3    3    0  502 -0.20953254699E+03  0.17651413664E+03 -0.10907092898E+03  0.29488573421E+03  0.25500000920E-02 0. -1.
</event>
<event>
 5   0  0.1166419E-01  0.6054820E+03  0.7818609E-02  0.9894097E-01
        2   -1    0    0  501    0  0.00000000000E+00  0.00000000000E+00  0.65218807108E+03  0.65218807109E+03  0.25500000920E-02 0.  1.
       -2   -1    0    0    0  501  0.00000000000E+00  0.00000000000E+00 -0.14053019381E+03  0.14053019383E+03  0.25500000920E-02 0. -1.
    10030    2    1    2    0    0  0.00000000000E+00  0.00000000000E+00  0.51165787727E+03  0.79271826492E+03  0.60548200978E+03 0.  0.
        1    1    3    3  502    0  0.20101289914E+03  0.22225959219E+03  0.19956831838E+03  0.36004586606E+03  0.50400001928E-02 0.  1.
       -1    1    3    3    0  502 -0.20101289914E+03 -0.22225959219E+03  0.31208955889E+03  0.43267239886E+03  0.50400001928E-02 0. -1.
</event>
<event>
 5   0  0.7221069E-02  0.5971623E+03  0.7818609E-02  0.9911311E-01
        1   -1    0    0  501    0  0.00000000000E+00  0.00000000000E+00  0.40009702272E+03  0.40009702275E+03  0.50400001928E-02 0. -1.
       -1   -1    0    0    0  501  0.00000000000E+00  0.00000000000E+00 -0.22282273776E+03  0.22282273782E+03  0.50400001928E-02 0.  1.
    10030    2    1    2    0    0  0.00000000000E+00  0.00000000000E+00  0.17727428496E+03  0.62291976056E+03  0.59716233638E+03 0.  0.
        5    1    3    3  502    0 -0.83553672463E+02  0.11310702939E+03  0.36334817857E+03  0.38963881371E+03  0.46999998093E+01 0. -1.
       -5    1    3    3    0  502  0.83553672463E+02 -0.11310702939E+03 -0.18607389362E+03  0.23328094685E+03  0.46999998093E+01 0.  1.
</event>
<event>
 5   0  0.1175861E-01  0.5891068E+03  0.7818609E-02  0.9928267E-01
       -2   -1    0    0    0  501  0.00000000000E+00  0.00000000000E+00  0.90946801695E+02  0.90946801731E+02  0.25500000920E-02 0. -1.
        2   -1    0    0  501    0  0.00000000000E+00  0.00000000000E+00 -0.95398293732E+03  0.95398293732E+03  0.25500000920E-02 0.  1.
    10030    2    1    2    0    0  0.00000000000E+00  0.00000000000E+00 -0.86303613562E+03  0.10449297391E+04  0.58910677145E+03 0.  0.
        3    1    3    3  502    0  0.25834175708E+03  0.11812826101E+03 -0.56967663780E+03  0.63657382240E+03  0.10100000352E+00 0.  1.
       -3    1    3    3    0  502 -0.25834175708E+03 -0.11812826101E+03 -0.29335949782E+03  0.40835591665E+03  0.10100000352E+00 0. -1.
</event>
<event>
 5   0  0.1219020E-01  0.6008954E+03  0.7818609E-02  0.9903550E-01
        2   -1    0    0  501    0  0.00000000000E+00  0.00000000000E+00  0.61456740883E+03  0.61456740883E+03  0.25500000920E-02 0. -1.
       -2   -1    0    0    0  501  0.00000000000E+00  0.00000000000E+00 -0.14688190603E+03  0.14688190606E+03  0.25500000920E-02 0.  1.
    10030    2    1    2    0    0  0.00000000000E+00  0.00000000000E+00  0.46768550279E+03  0.76144931489E+03  0.60089543984E+03 0.  0.
        2    1    3    3  502    0  0.22020578087E+03 -0.14519664547E+03  0.41614297231E+03  0.49269425123E+03  0.25500000920E-02 0. -1.
       -2    1    3    3    0  502 -0.22020578087E+03  0.14519664547E+03  0.51542530480E+02  0.26875506366E+03  0.25500000920E-02 0.  1.
</event>
<event>
 5   0  0.1166419E-01  0.6032847E+03  0.7818609E-02  0.9898615E-01
       -2   -1    0    0    0  501  0.00000000000E+00  0.00000000000E+00  0.18744772568E+03  0.18744772570E+03  0.25500000920E-02 0.  1.
        2   -1    0    0  501    0  0.00000000000E+00  0.00000000000E+00 -0.48540529971E+03  0.48540529971E+03  0.25500000920E-02 0. -1.
    10030    2    1    2    0    0  0.00000000000E+00  0.00000000000E+00 -0.29795757402E+03  0.67285302541E+03  0.60328474031E+03 0.  0.
        1    1    3    3  502    0 -0.70969046886E+02  0.92750501987E+02 -0.45916666578E+03  0.47378612076E+03  0.50400001928E-02 0. -1.
       -1    1    3    3    0  502  0.70969046886E+02 -0.92750501987E+02  0.16120909176E+03  0.19906690465E+03  0.50400001928E-02 0.  1.
</event>
<event>
 5   0  0.1175861E-01  0.5955886E+03  0.7818609E-02  0.9914601E-01
        2   -1    0    0  501    0  0.00000000000E+00  0.00000000000E+00  0.19409680942E+03  0.19409680944E+03  0.25500000920E-02 0. -1.
       -2   -1    0    0    0  501  0.00000000000E+00  0.00000000000E+00 -0.45689290014E+03  0.45689290015E+03  0.25500000920E-02 0.  1.
    10030    2    1    2    0    0  0.00000000000E+00  0.00000000000E+00 -0.26279609073E+03  0.65098970959E+03  0.59558863042E+03 0.  0.
        3    1    3    3  502    0  0.52569590374E+02 -0.16199801516E+03  0.13560868654E+03  0.21770770500E+03  0.10100000352E+00 0. -1.
       -3    1    3    3    0  502 -0.52569590374E+02  0.16199801516E+03 -0.39840477727E+03  0.43328200459E+03  0.10100000352E+00 0.  1.
</event>
<event>
 5   0  0.7263385E-02  0.6121115E+03  0.7818609E-02  0.9880592E-01
       -1   -1    0    0    0  501  0.00000000000E+00  0.00000000000E+00  0.15027587615E+03  0.15027587623E+03  0.50400001928E-02 0.  1.
        1   -1    0    0  501    0  0.00000000000E+00  0.00000000000E+00 -0.62332099453E+03  0.62332099455E+03  0.50400001928E-02 0. -1.
    10030    2    1    2    0    0  0.00000000000E+00  0.00000000000E+00 -0.47304511839E+03  0.77359687079E+03  0.61211145592E+03 0.  0.
        1    1    3    3  502    0  0.93627278002E+02  0.28993934484E+03 -0.19991072226E+03  0.36441074047E+03  0.50400001928E-02 0. -1.
       -1    1    3    3    0  502 -0.93627278002E+02 -0.28993934484E+03 -0.27313439613E+03  0.40918613032E+03  0.50400001928E-02 0.  1.
</event>
<event>
 5   0  0.7221069E-02  0.5964303E+03  0.7818609E-02  0.9912840E-01
        1   -1    0    0  501    0  0.00000000000E+00  0.00000000000E+00  0.49144135690E+03  0.49144135692E+03  0.50400001928E-02 0. -1.
       -1   -1    0    0    0  501  0.00000000000E+00  0.00000000000E+00 -0.18096215091E+03  0.18096215098E+03  0.50400001928E-02 0.  1.
    10030    2    1    2    0    0  0.00000000000E+00  0.00000000000E+00  0.31047920598E+03  0.67240350791E+03  0.59643033130E+03 0.  0.
        5    1    3    3  502    0 -0.22760240544E+03 -0.14628830329E+03  0.13947505678E+02  0.27096078232E+03  0.46999998093E+01 0. -1.
       -5    1    3    3    0  502  0.22760240544E+03  0.14628830329E+03  0.29653170031E+03  0.40144272559E+03  0.46999998093E+01 0.  1.
</event>
<event>
 5   0  0.4695625E-02  0.6066814E+03  0.7818609E-02  0.9891640E-01
       -3   -1    0    0    0  501  0.00000000000E+00  0.00000000000E+00  0.22977500315E+03  0.22977502535E+03  0.10100000352E+00 0.  1.
        3   -1    0    0  501    0  0.00000000000E+00  0.00000000000E+00 -0.40045945728E+03  0.40045947002E+03  0.10100000352E+00 0. -1.
    10030    2    1    2    0    0  0.00000000000E+00  0.00000000000E+00 -0.17068445413E+03  0.63023449537E+03  0.60668141250E+03 0.  0.
        4    1    3    3  502    0  0.56660605254E+02  0.26483527674E+03  0.56584783309E+02  0.27667959556E+03  0.12699999809E+01 0.  1.
       -4    1    3    3    0  502 -0.56660605254E+02 -0.26483527674E+03 -0.22726923744E+03  0.35355489981E+03  0.12699999809E+01 0. -1.
</event>
<event>
 5   0  0.1146468E-01  0.6105237E+03  0.7818609E-02  0.9883810E-01
       -2   -1    0    0    0  501  0.00000000000E+00  0.00000000000E+00  0.19481884273E+03  0.19481884274E+03  0.25500000920E-02 0.  1.
        2   -1    0    0  501    0  0.00000000000E+00  0.00000000000E+00 -0.47831515998E+03  0.47831515999E+03  0.25500000920E-02 0. -1.
    10030    2    1    2    0    0  0.00000000000E+00  0.00000000000E+00 -0.28349631725E+03  0.67313400273E+03  0.61052372905E+03 0.  0.
        4    1    3    3  502    0 -0.21901571353E+03 -0.16543763313E+03 -0.28903561853E+03  0.39859841308E+03  0.12699999809E+01 0. -1.
       -4    1    3    3    0  502  0.21901571353E+03  0.16543763313E+03  0.55393012737E+01  0.27453558966E+03  0.12699999809E+01 0.  1.
</event>
<event>
 5   0  0.1219020E-01  0.5967139E+03  0.7818609E-02  0.9912247E-01
       -2   -1    0    0    0  501  0.00000000000E+00  0.00000000000E+00  0.21631837381E+03  0.21631837383E+03  0.25500000920E-02 0.  1.
        2   -1    0    0  501    0  0.00000000000E+00  0.00000000000E+00 -0.41150858858E+03  0.41150858859E+03  0.25500000920E-02 0. -1.
    10030    2    1    2    0    0  0.00000000000E+00  0.00000000000E+00 -0.19519021477E+03  0.62782696241E+03  0.59671389693E+03 0.  0.
        2    1    3    3  502    0  0.15599365948E+03  0.17493098042E+03  0.96643850824E+02  0.25352495660E+03  0.25500000920E-02 0.  1.
       -2    1    3    3    0  502 -0.15599365948E+03 -0.17493098042E+03 -0.29183406559E+03  0.37430200582E+03  0.25500000920E-02 0. -1.
</event>
<event>
 5   0  0.7123340E-02  0.6092576E+03  0.7818609E-02  0.9886384E-01
       -1   -1    0    0    0  501  0.00000000000E+00  0.00000000000E+00  0.72364324141E+03  0.72364324143E+03  0.50400001928E-02 0.  1.
        1   -1    0    0  501    0  0.00000000000E+00  0.00000000000E+00 -0.12823818049E+03  0.12823818058E+03  0.50400001928E-02 0. -1.
    10030    2    1    2    0    0  0.00000000000E+00  0.00000000000E+00  0.59540506092E+03  0.85188142201E+03  0.60925755686E+03 0.  0.
        2    1    3    3  502    0  0.48179843619E+02  0.11775579737E+03 -0.89308814312E+02  0.15544706323E+03  0.25500000920E-02 0. -1.
       -2    1    3    3    0  502 -0.48179843619E+02 -0.11775579737E+03  0.68471387524E+03  0.69643435878E+03  0.25500000920E-02 0.  1.
</event>
<event>
 5   0  0.4695625E-02  0.5933888E+03  0.7818609E-02  0.9919218E-01
        4   -1    0    0  501    0  0.00000000000E+00  0.00000000000E+00  0.40624820874E+03  0.40625019385E+03  0.12699999809E+01 0. -1.
       -4   -1    0    0    0  501  0.00000000000E+00  0.00000000000E+00 -0.21667982446E+03  0.21668354628E+03  0.12699999809E+01 0.  1.
    10030    2    1    2    0    0  0.00000000000E+00  0.00000000000E+00  0.18956838428E+03  0.62293374013E+03  0.59338880364E+03 0.  0.
        1    1    3    3  502    0  0.19274526428E+02  0.20192327187E+03 -0.13252157205E+03  0.24229420582E+03  0.50400001928E-02 0.  1.
       -1    1    3    3    0  502 -0.19274526428E+02 -0.20192327187E+03  0.32208995633E+03  0.38063953432E+03  0.50400001928E-02 0. -1.
</event>
<event>
 5   0  0.1166419E-01  0.5761418E+03  0.7818609E-02  0.9956179E-01
        2   -1    0    0  501    0  0.00000000000E+00  0.00000000000E+00  0.18011117378E+04  0.18011117378E+04  0.25500000920E-02 0. -1.
       -2   -1    0    0    0  501  0.00000000000E+00  0.00000000000E+00 -0.46074233049E+02  0.46074233120E+02  0.25500000920E-02 0.  1.
    10030    2    1    2    0    0  0.00000000000E+00  0.00000000000E+00  0.17550375047E+04  0.18471859709E+04  0.57614179512E+03 0.  0.
        1    1    3    3  502    0 -0.18853352735E+03 -0.92155021158E+02  0.15102517632E+04  0.15247615641E+04  0.50400001928E-02 0. -1.
       -1    1    3    3    0  502  0.18853352735E+03  0.92155021158E+02  0.24478574149E+03  0.32242440683E+03  0.50400001928E-02 0.  1.
</event>
<event>
 5   0  0.7266519E-02  0.6453812E+03  0.7818609E-02  0.9815485E-01
        1   -1    0    0  501    0  0.00000000000E+00  0.00000000000E+00  0.57059243491E+03  0.57059243494E+03  0.50400001928E-02 0.  1.
       -1   -1    0    0    0  501  0.00000000000E+00  0.00000000000E+00 -0.18249319534E+03  0.18249319541E+03  0.50400001928E-02 0. -1.
    10030    2    1    2    0    0  0.00000000000E+00  0.00000000000E+00  0.38809923957E+03  0.75308563035E+03  0.64538124150E+03 0.  0.
        4    1    3    3  502    0  0.18444066290E+03 -0.13165300083E+03  0.46212032493E+03  0.51469182855E+03  0.12699999809E+01 0.  1.
       -4    1    3    3    0  502 -0.18444066290E+03  0.13165300083E+03 -0.74021085361E+02  0.23839380180E+03  0.12699999809E+01 0. -1.
</event>
<event>
 5   0  0.7221069E-02  0.6065242E+03  0.7818609E-02  0.9891962E-01
       -1   -1    0    0    0  501  0.00000000000E+00  0.00000000000E+00  0.10348880728E+03  0.10348880740E+03  0.50400001928E-02 0.  1.
        1   -1    0    0  501    0  0.00000000000E+00  0.00000000000E+00 -0.88867497193E+03  0.88867497194E+03  0.50400001928E-02 0. -1.
    10030    2    1    2    0    0  0.00000000000E+00  0.00000000000E+00 -0.78518616465E+03  0.99216377934E+03  0.60652423850E+03 0.  0.
        5    1    3    3  502    0  0.22498930124E+03 -0.19888855790E+03 -0.32379180112E+03  0.44163340523E+03  0.46999998093E+01 0. -1.
       -5    1    3    3    0  502 -0.22498930124E+03  0.19888855790E+03 -0.46139436352E+03  0.55053037412E+03  0.46999998093E+01 0.  1.
</event>
<event>
 5   0  0.7263385E-02  0.6136724E+03  0.7818609E-02  0.9877439E-01
        1   -1    0    0  501    0  0.00000000000E+00  0.00000000000E+00  0.56452793689E+03  0.56452793691E+03  0.50400001928E-02 0.  1.
       -1   -1    0    0    0  501  0.00000000000E+00  0.00000000000E+00 -0.16677379870E+03  0.16677379878E+03  0.50400001928E-02 0. -1.
    10030    2    1    2    0    0  0.00000000000E+00  0.00000000000E+00  0.39775413819E+03  0.73130173569E+03  0.61367244860E+03 0.  0.
        1    1    3    3  502    0  0.96305396763E+02  0.13548879867E+03  0.50622107896E+03  0.53281490672E+03  0.50400001928E-02 0.  1.
       -1    1    3    3    0  502 -0.96305396763E+02 -0.13548879867E+03 -0.10846694077E+03  0.19848682897E+03  0.50400001928E-02 0. -1.
</event>
<event>
 5   0  0.7424930E-02  0.6047109E+03  0.7818609E-02  0.9895680E-01
        1   -1    0    0  501    0  0.00000000000E+00  0.00000000000E+00  0.64885118266E+02  0.64885118462E+02  0.50400001928E-02 0.  1.
       -1   -1    0    0    0  501  0.00000000000E+00  0.00000000000E+00 -0.14089337251E+04  0.14089337251E+04  0.50400001928E-02 0. -1.
    10030    2    1    2    0    0  0.00000000000E+00  0.00000000000E+00 -0.13440486068E+04  0.14738188435E+04  0.60471094427E+03 0.  0.
        3    1    3    3  502    0 -0.26887204637E+03 -0.10499243589E+03 -0.45262996106E+03  0.53683282385E+03  0.10100000352E+00 0.  1.
       -3    1    3    3    0  502  0.26887204637E+03  0.10499243589E+03 -0.89141864573E+03  0.93698601967E+03  0.10100000352E+00 0. -1.
</event>
<event>
 5   0  0.1175861E-01  0.6004375E+03  0.7818609E-02  0.9904499E-01
        2   -1    0    0  501    0  0.00000000000E+00  0.00000000000E+00  0.27442006225E+03  0.27442006226E+03  0.25500000920E-02 0.  1.
       -2   -1    0    0    0  501  0.00000000000E+00  0.00000000000E+00 -0.32844285154E+03  0.32844285155E+03  0.25500000920E-02 0. -1.
    10030    2    1    2    0    0  0.00000000000E+00  0.00000000000E+00 -0.54022789291E+02  0.60286291381E+03  0.60043753304E+03 0.  0.
        3    1    3    3  502    0  0.45376005510E+02  0.16313688740E+03 -0.27592138102E+03  0.32373638135E+03  0.10100000352E+00 0. -1.
       -3    1    3    3    0  502 -0.45376005510E+02 -0.16313688740E+03  0.22189859173E+03  0.27912653245E+03  0.10100000352E+00 0.  1.
</event>
<event>
 5   0  0.1166419E-01  0.6137401E+03  0.7818609E-02  0.9877303E-01
       -2   -1    0    0    0  501  0.00000000000E+00  0.00000000000E+00  0.15154288863E+03  0.15154288865E+03  0.25500000920E-02 0.  1.
        2   -1    0    0  501    0  0.00000000000E+00  0.00000000000E+00 -0.62140305353E+03  0.62140305353E+03  0.25500000920E-02 0. -1.
    10030    2    1    2    0    0  0.00000000000E+00  0.00000000000E+00 -0.46986016490E+03  0.77294594219E+03  0.61374005490E+03 0.  0.
        1    1    3    3  502    0 -0.17560582016E+03 -0.25162325806E+03 -0.24020540907E+03  0.38967974882E+03  0.50400001928E-02 0.  1.
       -1    1    3    3    0  502  0.17560582016E+03  0.25162325806E+03 -0.22965475583E+03  0.38326619336E+03  0.50400001928E-02 0. -1.
</event>
<event>
 5   0  0.4695625E-02  0.6068440E+03  0.7818609E-02  0.9891308E-01
       -3   -1    0    0    0  501  0.00000000000E+00  0.00000000000E+00  0.26582392282E+03  0.26582394200E+03  0.10100000352E+00 0. -1.
        3   -1    0    0  501    0  0.00000000000E+00  0.00000000000E+00 -0.34633790294E+03  0.34633791766E+03  0.10100000352E+00 0.  1.
    10030    2    1    2    0    0  0.00000000000E+00  0.00000000000E+00 -0.80513980119E+02  0.61216185967E+03  0.60684400091E+03 0.  0.
        2    1    3    3  502    0 -0.20713123668E+03  0.51458217887E+02  0.17730310608E+03  0.27746655444E+03  0.25500000920E-02 0. -1.
       -2    1    3    3    0  502  0.20713123668E+03 -0.51458217887E+02 -0.25781708620E+03  0.33469530523E+03  0.25500000920E-02 0.  1.
</event>
<event>
 5   0  0.1146468E-01  0.5902563E+03  0.7818609E-02  0.9925830E-01
       -2   -1    0    0    0  501  0.00000000000E+00  0.00000000000E+00  0.26304885595E+03  0.26304885596E+03  0.25500000920E-02 0. -1.
        2   -1    0    0  501    0  0.00000000000E+00  0.00000000000E+00 -0.33111956166E+03  0.33111956167E+03  0.25500000920E-02 0.  1.
    10030    2    1    2    0    0  0.00000000000E+00  0.00000000000E+00 -0.68070705712E+02  0.59416841763E+03  0.59025628970E+03 0.  0.
        4    1    3    3  502    0 -0.48230034997E+02  0.21433689676E+03  0.16433053589E+03  0.27435848723E+03  0.12699999809E+01 0. -1.
       -4    1    3    3    0  502  0.48230034997E+02 -0.21433689676E+03 -0.23240124160E+03  0.31980993040E+03  0.12699999809E+01 0.  1.
</event>
<event>
 5   0  0.7123340E-02  0.6019788E+03  0.7818609E-02  0.9901309E-01
        1   -1    0    0  501    0  0.00000000000E+00  0.00000000000E+00  0.67727081088E+03  0.67727081090E+03  0.50400001928E-02 0.  1.
       -1   -1    0    0    0  501  0.00000000000E+00  0.00000000000E+00 -0.13376423165E+03  0.13376423175E+03  0.50400001928E-02 0. -1.
    10030    2    1    2    0    0  0.00000000000E+00  0.00000000000E+00  0.54350657923E+03  0.81103504264E+03  0.60197876934E+03 0.  0.
        2    1    3    3  502    0  0.12819854473E+03  0.26719404530E+03  0.34262447419E+03  0.45301109813E+03  0.25500000920E-02 0. -1.
       -2    1    3    3    0  502 -0.12819854473E+03 -0.26719404530E+03  0.20088210504E+03  0.35802394451E+03  0.25500000920E-02 0.  1.
</event>
<event>
 5   0  0.1206238E-01  0.5806322E+03  0.7818609E-02  0.9946423E-01
        2   -1    0    0  501    0  0.00000000000E+00  0.00000000000E+00  0.20912009783E+04  0.20912009783E+04  0.25500000920E-02 0. -1.
       -2   -1    0    0    0  501  0.00000000000E+00  0.00000000000E+00 -0.40303841915E+02  0.40303841995E+02  0.25500000920E-02 0.  1.
    10030    2    1    2    0    0  0.00000000000E+00  0.00000000000E+00  0.20508971363E+04  0.21315048203E+04  0.58063218556E+03 0.  0.
        5    1    3    3  502    0  0.88726732000E+02  0.27551245587E+02  0.20350077963E+04  0.20371328688E+04  0.46999998093E+01 0. -1.
       -5    1    3    3    0  502 -0.88726732000E+02 -0.27551245587E+02  0.15889340086E+02  0.94371951508E+02  0.46999998093E+01 0.  1.
</event>
<event>
 5   0  0.1206238E-01  0.5988350E+03  0.7818609E-02  0.9907826E-01
       -2   -1    0    0    0  501  0.00000000000E+00  0.00000000000E+00  0.49915367954E+02  0.49915368020E+02  0.25500000920E-02 0.  1.
        2   -1    0    0  501    0  0.00000000000E+00  0.00000000000E+00 -0.17960569080E+04  0.17960569080E+04  0.25500000920E-02 0. -1.
    10030    2    1    2    0    0  0.00000000000E+00  0.00000000000E+00 -0.17461415401E+04  0.18459722761E+04  0.59883500730E+03 0.  0.
        5    1    3    3  502    0  0.97827205396E+00  0.10176314354E+03 -0.51540448940E+01  0.10200661046E+03  0.46999998093E+01 0.  1.
       -5    1    3    3    0  502 -0.97827205396E+00 -0.10176314354E+03 -0.17409874952E+04  0.17439656656E+04  0.46999998093E+01 0. -1.
</event>
<event>
 5   0  0.1175861E-01  0.6044792E+03  0.7818609E-02  0.9896157E-01
        2   -1    0    0  501    0  0.00000000000E+00  0.00000000000E+00  0.35756939209E+03  0.35756939210E+03  0.25500000920E-02 0.  1.
       -2   -1    0    0    0  501  0.00000000000E+00  0.00000000000E+00 -0.25547144655E+03  0.25547144657E+03  0.25500000920E-02 0. -1.
    10030    2    1    2    0    0  0.00000000000E+00  0.00000000000E+00  0.10209794554E+03  0.61304083867E+03  0.60447918028E+03 0.  0.
        3    1    3    3  502    0 -0.11122824993E+03  0.18037117033E+03 -0.16751042588E+03  0.27012077975E+03  0.10100000352E+00 0. -1.
       -3    1    3    3    0  502  0.11122824993E+03 -0.18037117033E+03  0.26960837142E+03  0.34292005892E+03  0.10100000352E+00 0.  1.
</event>
<event>
 5   0  0.1206238E-01  0.5985365E+03  0.7818609E-02  0.9908447E-01
        2   -1    0    0  501    0  0.00000000000E+00  0.00000000000E+00  0.53907607230E+03  0.53907607231E+03  0.25500000920E-02 0. -1.
       -2   -1    0    0    0  501  0.00000000000E+00  0.00000000000E+00 -0.16613886698E+03  0.16613886700E+03  0.25500000920E-02 0.  1.
    10030    2    1    2    0    0  0.00000000000E+00  0.00000000000E+00  0.37293720533E+03  0.70521493931E+03  0.59853650808E+03 0.  0.
        5    1    3    3  502    0  0.21520762898E+03  0.20195424721E+03  0.12827352069E+03  0.32183229740E+03  0.46999998093E+01 0. -1.
       -5    1    3    3    0  502 -0.21520762898E+03 -0.20195424721E+03  0.24466368463E+03  0.38338264191E+03  0.46999998093E+01 0.  1.
</event>
<event>
 5   0  0.1219020E-01  0.5981624E+03  0.7818609E-02  0.9909226E-01
        2   -1    0    0  501    0  0.00000000000E+00  0.00000000000E+00  0.12882868875E+04  0.12882868875E+04  0.25500000920E-02 0. -1.
       -2   -1    0    0    0  501  0.00000000000E+00  0.00000000000E+00 -0.69432957651E+02  0.69432957698E+02  0.25500000920E-02 0.  1.
    10030    2    1    2    0    0  0.00000000000E+00  0.00000000000E+00  0.12188539298E+04  0.13577198452E+04  0.59816241585E+03 0.  0.
        2    1    3    3  502    0  0.24387072776E+03 -0.24559156642E+02  0.99844414519E+03  0.10280889043E+04  0.25500000920E-02 0. -1.
       -2    1    3    3    0  502 -0.24387072776E+03  0.24559156642E+02  0.22040978465E+03  0.32963094091E+03  0.25500000920E-02 0.  1.
</event>
<event>
 5   0  0.1206238E-01  0.6075700E+03  0.7818609E-02  0.9889824E-01
       -2   -1    0    0    0  501  0.00000000000E+00  0.00000000000E+00  0.15978967262E+03  0.15978967264E+03  0.25500000920E-02 0. -1.
        2   -1    0    0  501    0  0.00000000000E+00  0.00000000000E+00 -0.57754248693E+03  0.57754248694E+03  0.25500000920E-02 0.  1.
    10030    2    1    2    0    0  0.00000000000E+00  0.00000000000E+00 -0.41775281432E+03  0.73733215957E+03  0.60756999570E+03 0.  0.
        5    1    3    3  502    0  0.14538493705E+03 -0.17852174369E+03 -0.44932504753E+03  0.50489789188E+03  0.46999998093E+01 0.  1.
       -5    1    3    3    0  502 -0.14538493705E+03  0.17852174369E+03  0.31572233209E+02  0.23243426770E+03  0.46999998093E+01 0. -1.
</event>
<event>
 5   0  0.1219020E-01  0.6007083E+03  0.7818609E-02  0.9903938E-01
       -2   -1    0    0    0  501  0.00000000000E+00  0.00000000000E+00  0.48538887676E+02  0.48538887743E+02  0.25500000920E-02 0. -1.
        2   -1    0    0  501    0  0.00000000000E+00  0.00000000000E+00 -0.18585636641E+04  0.18585636641E+04  0.25500000920E-02 0.  1.
    10030    2    1    2    0    0  0.00000000000E+00  0.00000000000E+00 -0.18100247764E+04  0.19071025518E+04  0.60070829192E+03 0.  0.
        2    1    3    3  502    0 -0.91619433503E+02  0.90649683535E+02 -0.17663088308E+04  0.17710049044E+04  0.25500000920E-02 0.  1.
       -2    1    3    3    0  502  0.91619433503E+02 -0.90649683535E+02 -0.43715945597E+02  0.13609764739E+03  0.25500000920E-02 0. -1.
</event>
<event>
 5   0  0.1146468E-01  0.6054093E+03  0.7818609E-02  0.9894247E-01
       -2   -1    0    0    0  501  0.00000000000E+00  0.00000000000E+00  0.12349344590E+03  0.12349344593E+03  0.25500000920E-02 0. -1.
        2   -1    0    0  501    0  0.00000000000E+00  0.00000000000E+00 -0.74198348170E+03  0.74198348171E+03  0.25500000920E-02 0.  1.
    10030    2    1    2    0    0  0.00000000000E+00  0.00000000000E+00 -0.61849003580E+03  0.86547692763E+03  0.60540927304E+03 0.  0.
        4    1    3    3  502    0 -0.66511909847E+02  0.26800611004E+03 -0.48652003147E+03  0.55942333084E+03  0.12699999809E+01 0.  1.
       -4    1    3    3    0  502  0.66511909847E+02 -0.26800611004E+03 -0.13197000433E+03  0.30605359680E+03  0.12699999809E+01 0. -1.
</event>
<event>
 5   0  0.1166419E-01  0.5939086E+03  0.7818609E-02  0.9918125E-01
       -2   -1    0    0    0  501  0.00000000000E+00  0.00000000000E+00  0.53183620732E+03  0.53183620733E+03  0.25500000920E-02 0.  1.
        2   -1    0    0  501    0  0.00000000000E+00  0.00000000000E+00 -0.16580640896E+03  0.16580640898E+03  0.25500000920E-02 0. -1.
    10030    2    1    2    0    0  0.00000000000E+00  0.00000000000E+00  0.36602979836E+03  0.69764261631E+03  0.59390858455E+03 0.  0.
        1    1    3    3  502    0  0.13494113831E+03  0.25264116158E+02  0.49232064282E+03  0.51110370939E+03  0.50400001928E-02 0.  1.
       -1    1    3    3    0  502 -0.13494113831E+03 -0.25264116158E+02 -0.12629084447E+03  0.18653890692E+03  0.50400001928E-02 0. -1.
</event>
<event>
 5   0  0.7263385E-02  0.6021163E+03  0.7818609E-02  0.9901025E-01
       -1   -1    0    0    0  501  0.00000000000E+00  0.00000000000E+00  0.27120184498E+03  0.27120184503E+03  0.50400001928E-02 0.  1.
        1   -1    0    0  501    0  0.00000000000E+00  0.00000000000E+00 -0.33420126258E+03  0.33420126261E+03  0.50400001928E-02 0. -1.
    10030    2    1    2    0    0  0.00000000000E+00  0.00000000000E+00 -0.62999417595E+02  0.60540310764E+03  0.60211626462E+03 0.  0.
        1    1    3    3  502    0 -0.14968172435E+03 -0.23447500365E+03 -0.14724917017E+03  0.31474666651E+03  0.50400001928E-02 0. -1.
       -1    1    3    3    0  502  0.14968172435E+03  0.23447500365E+03  0.84249752573E+02  0.29065644113E+03  0.50400001928E-02 0.  1.
</event>
<event>
 5   0  0.7221069E-02  0.5115036E+03  0.7818609E-02  0.1010819E+00
       -1   -1    0    0    0  501  0.00000000000E+00  0.00000000000E+00  0.11583814292E+03  0.11583814303E+03  0.50400001928E-02 0. -1.
        1   -1    0    0  501    0  0.00000000000E+00  0.00000000000E+00 -0.56465835134E+03  0.56465835136E+03  0.50400001928E-02 0.  1.
    10030    2    1    2    0    0  0.00000000000E+00  0.00000000000E+00 -0.44882020842E+03  0.68049649439E+03  0.51150356733E+03 0.  0.
        5    1    3    3  502    0  0.52526696655E+02 -0.21523081422E+03 -0.54539583974E+02  0.22821045872E+03  0.46999998093E+01 0. -1.
       -5    1    3    3    0  502 -0.52526696655E+02  0.21523081422E+03 -0.39428062444E+03  0.45228603567E+03  0.46999998093E+01 0.  1.
</event>
<event>
 5   0  0.7123340E-02  0.6698341E+03  0.7818609E-02  0.9770258E-01
       -1   -1    0    0    0  501  0.00000000000E+00  0.00000000000E+00  0.10873594062E+04  0.10873594062E+04  0.50400001928E-02 0.  1.
        1   -1    0    0  501    0  0.00000000000E+00  0.00000000000E+00 -0.10315764249E+03  0.10315764261E+03  0.50400001928E-02 0. -1.
    10030    2    1    2    0    0  0.00000000000E+00  0.00000000000E+00  0.98420176373E+03  0.11905170488E+04  0.66983410771E+03 0.  0.
        2    1    3    3  502    0 -0.10428045112E+03  0.95238556051E+02  0.10318498747E+04  0.10414696150E+04  0.25500000920E-02 0.  1.
       -2    1    3    3    0  502  0.10428045112E+03 -0.95238556051E+02 -0.47648110980E+02  0.14904743383E+03  0.25500000920E-02 0. -1.
</event>
<event>
 5   0  0.7221069E-02  0.5837402E+03  0.7818609E-02  0.9939726E-01
        1   -1    0    0  501    0  0.00000000000E+00  0.00000000000E+00  0.17423795248E+04  0.17423795248E+04  0.50400001928E-02 0.  1.
       -1   -1    0    0    0  501  0.00000000000E+00  0.00000000000E+00 -0.48891848998E+02  0.48891849257E+02  0.50400001928E-02 0. -1.
    10030    2    1    2    0    0  0.00000000000E+00  0.00000000000E+00  0.16934876758E+04  0.17912713741E+04  0.58374020544E+03 0.  0.
        5    1    3    3  502    0  0.55355775172E+00 -0.23512027793E+03  0.13772161337E+04  0.13971500351E+04  0.46999998093E+01 0.  1.
       -5    1    3    3    0  502 -0.55355775172E+00  0.23512027793E+03  0.31627154207E+03  0.39412133898E+03  0.46999998093E+01 0. -1.
</event>
<event>
 5   0  0.1166419E-01  0.5828284E+03  0.7818609E-02  0.9941686E-01
       -2   -1    0    0    0  501  0.00000000000E+00  0.00000000000E+00  0.11384208991E+03  0.11384208994E+03  0.25500000920E-02 0. -1.
        2   -1    0    0  501    0  0.00000000000E+00  0.00000000000E+00 -0.74596521323E+03  0.74596521324E+03  0.25500000920E-02 0.  1.
    10030    2    1    2    0    0  0.00000000000E+00  0.00000000000E+00 -0.63212312332E+03  0.85980730318E+03  0.58282841005E+03 0.  0.
        1    1    3    3  502    0 -0.13251766871E+03  0.25924574552E+03 -0.29781694119E+03  0.41649035953E+03  0.50400001928E-02 0. -1.
       -1    1    3    3    0  502  0.13251766871E+03 -0.25924574552E+03 -0.33430618213E+03  0.44331694365E+03  0.50400001928E-02 0.  1.
</event>
<event>
 5   0  0.1146468E-01  0.5280909E+03  0.7818609E-02  0.1006696E+00
       -2   -1    0    0    0  501  0.00000000000E+00  0.00000000000E+00  0.33853671112E+02  0.33853671208E+02  0.25500000920E-02 0. -1.
        2   -1    0    0  501    0  0.00000000000E+00  0.00000000000E+00 -0.20594519918E+04  0.20594519918E+04  0.25500000920E-02 0.  1.
    10030    2    1    2    0    0  0.00000000000E+00  0.00000000000E+00 -0.20255983207E+04  0.20933056631E+04  0.52809094105E+03 0.  0.
        4    1    3    3  502    0  0.91337589290E+02 -0.23477263855E+03 -0.69923271335E+03  0.74322859696E+03  0.12699999809E+01 0.  1.
       -4    1    3    3    0  502 -0.91337589290E+02  0.23477263855E+03 -0.13263656074E+04  0.13500770661E+04  0.12699999809E+01 0. -1.
</event>
<event>
 5   0  0.7266519E-02  0.5968927E+03  0.7818609E-02  0.9911874E-01
        1   -1    0    0  501    0  0.00000000000E+00  0.00000000000E+00  0.70060597849E+03  0.70060597851E+03  0.50400001928E-02 0.  1.
       -1   -1    0    0    0  501  0.00000000000E+00  0.00000000000E+00 -0.12713313846E+03  0.12713313856E+03  0.50400001928E-02 0. -1.
    10030    2    1    2    0    0  0.00000000000E+00  0.00000000000E+00  0.57347284003E+03  0.82773911708E+03  0.59689274387E+03 0.  0.
        4    1    3    3  502    0  0.12582591734E+03  0.14768745978E+03  0.60120974305E+03  0.63174244379E+03  0.12699999809E+01 0.  1.
       -4    1    3    3    0  502 -0.12582591734E+03 -0.14768745978E+03 -0.27736903020E+02  0.19599667329E+03  0.12699999809E+01 0. -1.
</event>
<event>
 5   0  0.7123340E-02  0.5705165E+03  0.7818609E-02  0.9968536E-01
       -1   -1    0    0    0  501  0.00000000000E+00  0.00000000000E+00  0.13947892721E+03  0.13947892730E+03  0.50400001928E-02 0. -1.
        1   -1    0    0  501    0  0.00000000000E+00  0.00000000000E+00 -0.58340188621E+03  0.58340188623E+03  0.50400001928E-02 0.  1.
    10030    2    1    2    0    0  0.00000000000E+00  0.00000000000E+00 -0.44392295900E+03  0.72288081353E+03  0.57051650024E+03 0.  0.
        2    1    3    3  502    0  0.57959437163E+02 -0.46291782368E+02 -0.57096809238E+03  0.57576626159E+03  0.25500000920E-02 0.  1.
       -2    1    3    3    0  502 -0.57959437163E+02  0.46291782368E+02  0.12704513337E+03  0.14711455194E+03  0.25500000920E-02 0. -1.
</event>
<event>
 5   0  0.7123340E-02  0.5606403E+03  0.7818609E-02  0.9990607E-01
       -1   -1    0    0    0  501  0.00000000000E+00  0.00000000000E+00  0.37500658983E+02  0.37500659321E+02  0.50400001928E-02 0.  1.
        1   -1    0    0  501    0  0.00000000000E+00  0.00000000000E+00 -0.20954134722E+04  0.20954134722E+04  0.50400001928E-02 0. -1.
    10030    2    1    2    0    0  0.00000000000E+00  0.00000000000E+00 -0.20579128132E+04  0.21329141315E+04  0.56064029971E+03 0.  0.
        2    1    3    3  502    0  0.13758095966E+03 -0.39720700468E+02 -0.19457607951E+04  0.19510231486E+04  0.25500000920E-02 0. -1.
       -2    1    3    3    0  502 -0.13758095966E+03  0.39720700468E+02 -0.11215201813E+03  0.18189098296E+03  0.25500000920E-02 0.  1.
</event>
<event>
 5   0  0.1219020E-01  0.6162871E+03  0.7818609E-02  0.9872180E-01
        2   -1    0    0  501    0  0.00000000000E+00  0.00000000000E+00  0.69773524511E+03  0.69773524511E+03  0.25500000920E-02 0. -1.
       -2   -1    0    0    0  501  0.00000000000E+00  0.00000000000E+00 -0.13608663534E+03  0.13608663536E+03  0.25500000920E-02 0.  1.
    10030    2    1    2    0    0  0.00000000000E+00  0.00000000000E+00  0.56164860977E+03  0.83382188048E+03  0.61628708205E+03 0.  0.
        2    1    3    3  502    0 -0.68382115152E+02 -0.27906996530E+03  0.13018581338E+03  0.31544334708E+03  0.25500000920E-02 0. -1.
       -2    1    3    3    0  502  0.68382115152E+02  0.27906996530E+03  0.43146279639E+03  0.51837853339E+03  0.25500000920E-02 0.  1.
</event>
<event>
 5   0  0.7266519E-02  0.6163217E+03  0.7818609E-02  0.9872111E-01
       -1   -1    0    0    0  501  0.00000000000E+00  0.00000000000E+00  0.52622532897E+02  0.52622533138E+02  0.50400001928E-02 0. -1.
        1   -1    0    0  501    0  0.00000000000E+00  0.00000000000E+00 -0.18046091871E+04  0.18046091871E+04  0.50400001928E-02 0.  1.
    10030    2    1    2    0    0  0.00000000000E+00  0.00000000000E+00 -0.17519866542E+04  0.18572317203E+04  0.61632169050E+03 0.  0.
        4    1    3    3  502    0 -0.42787571502E+02  0.36417935958E+01  0.43554216025E+02  0.61176969271E+02  0.12699999809E+01 0. -1.
       -4    1    3    3    0  502  0.42787571502E+02 -0.36417935958E+01 -0.17955408702E+04  0.17960547510E+04  0.12699999809E+01 0.  1.
</event>
<event>
 5   0  0.7123340E-02  0.5641500E+03  0.7818609E-02  0.9982708E-01
       -1   -1    0    0    0  501  0.00000000000E+00  0.00000000000E+00  0.20318036400E+03  0.20318036407E+03  0.50400001928E-02 0.  1.
        1   -1    0    0  501    0  0.00000000000E+00  0.00000000000E+00 -0.39160436993E+03  0.39160436996E+03  0.50400001928E-02 0. -1.
    10030    2    1    2    0    0  0.00000000000E+00  0.00000000000E+00 -0.18842400593E+03  0.59478473403E+03  0.56415004549E+03 0.  0.
        2    1    3    3  502    0 -0.26233812528E+03 -0.89711743151E+02 -0.39461017551E+02  0.28004760443E+03  0.25500000920E-02 0.  1.
       -2    1    3    3    0  502  0.26233812528E+03  0.89711743151E+02 -0.14896298838E+03  0.31473712960E+03  0.25500000920E-02 0. -1.
</event>
<event>
 5   0  0.7424930E-02  0.6263209E+03  0.7818609E-02  0.9852255E-01
       -1   -1    0    0    0  501  0.00000000000E+00  0.00000000000E+00  0.13584454786E+03  0.13584454795E+03  0.50400001928E-02 0. -1.
        1   -1    0    0  501    0  0.00000000000E+00  0.00000000000E+00 -0.72192409723E+03  0.72192409725E+03  0.50400001928E-02 0.  1.
    10030    2    1    2    0    0  0.00000000000E+00  0.00000000000E+00 -0.58607954938E+03  0.85776864520E+03  0.62632085267E+03 0.  0.
        3    1    3    3  502    0 -0.11072207056E+03  0.34861914467E+02 -0.69137150695E+03  0.70104871501E+03  0.10100000352E+00 0.  1.
       -3    1    3    3    0  502  0.11072207056E+03 -0.34861914467E+02  0.10529195757E+03  0.15671993019E+03  0.10100000352E+00 0. -1.
</event>
<event>
 5   0  0.7266519E-02  0.7196248E+03  0.7818609E-02  0.9684247E-01
       -1   -1    0    0    0  501  0.00000000000E+00  0.00000000000E+00  0.61251182974E+03  0.61251182976E+03  0.50400001928E-02 0.  1.
        1   -1    0    0  501    0  0.00000000000E+00  0.00000000000E+00 -0.21136729429E+03  0.21136729435E+03  0.50400001928E-02 0. -1.
    10030    2    1    2    0    0  0.00000000000E+00  0.00000000000E+00  0.40114453545E+03  0.82387912412E+03  0.71962481394E+03 0.  0.
        4    1    3    3  502    0  0.77533962614E+02 -0.37312050787E+01  0.60280893949E+03  0.60778751853E+03  0.12699999809E+01 0.  1.
       -4    1    3    3    0  502 -0.77533962614E+02  0.37312050787E+01 -0.20166440404E+03  0.21609160559E+03  0.12699999809E+01 0. -1.
</event>
<event>
 5   0  0.1146468E-01  0.6092923E+03  0.7818609E-02  0.9886313E-01
       -2   -1    0    0    0  501  0.00000000000E+00  0.00000000000E+00  0.19895953340E+03  0.19895953342E+03  0.25500000920E-02 0.  1.
        2   -1    0    0  501    0  0.00000000000E+00  0.00000000000E+00 -0.46647313671E+03  0.46647313671E+03  0.25500000920E-02 0. -1.
    10030    2    1    2    0    0  0.00000000000E+00  0.00000000000E+00 -0.26751360331E+03  0.66543267013E+03  0.60929230302E+03 0.  0.
        4    1    3    3  502    0  0.21334669861E+03  0.64433398519E+02  0.93080467803E+02  0.24152445640E+03  0.12699999809E+01 0.  1.
       -4    1    3    3    0  502 -0.21334669861E+03 -0.64433398519E+02 -0.36059407111E+03  0.42390821373E+03  0.12699999809E+01 0. -1.
</event>
<event>
 5   0  0.1219020E-01  0.5737007E+03  0.7818609E-02  0.9961523E-01
        2   -1    0    0  501    0  0.00000000000E+00  0.00000000000E+00  0.23881646911E+03  0.23881646912E+03  0.25500000920E-02 0. -1.
       -2   -1    0    0    0  501  0.00000000000E+00  0.00000000000E+00 -0.34454547881E+03  0.34454547882E+03  0.25500000920E-02 0.  1.
    10030    2    1    2    0    0  0.00000000000E+00  0.00000000000E+00 -0.10572900970E+03  0.58336194794E+03  0.57370073977E+03 0.  0.
        2    1    3    3  502    0 -0.26902958903E+03 -0.75025247067E+02  0.13638918531E+02  0.27962783763E+03  0.25500000920E-02 0. -1.
       -2    1    3    3    0  502  0.26902958903E+03  0.75025247067E+02 -0.11936792824E+03  0.30373411032E+03  0.25500000920E-02 0.  1.
</event>
<event>
 5   0  0.1206238E-01  0.6081176E+03  0.7818609E-02  0.9888706E-01
       -2   -1    0    0    0  501  0.00000000000E+00  0.00000000000E+00  0.29458325644E+03  0.29458325646E+03  0.25500000920E-02 0. -1.
        2   -1    0    0  501    0  0.00000000000E+00  0.00000000000E+00 -0.31383910582E+03  0.31383910583E+03  0.25500000920E-02 0.  1.
    10030    2    1    2    0    0  0.00000000000E+00  0.00000000000E+00 -0.19255849378E+02  0.60842236229E+03  0.60811757350E+03 0.  0.
        5    1    3    3  502    0 -0.36429077757E+01  0.67673173051E+02  0.28689323197E+03  0.29482663665E+03  0.46999998093E+01 0. -1.
       -5    1    3    3    0  502  0.36429077757E+01 -0.67673173051E+02 -0.30614908135E+03  0.31359572564E+03  0.46999998093E+01 0.  1.
</event>
<event>
 5   0  0.1175861E-01  0.6027417E+03  0.7818609E-02  0.9899734E-01
        2   -1    0    0  501    0  0.00000000000E+00  0.00000000000E+00  0.27613696426E+03  0.27613696427E+03  0.25500000920E-02 0. -1.
       -2   -1    0    0    0  501  0.00000000000E+00  0.00000000000E+00 -0.32891060846E+03  0.32891060847E+03  0.25500000920E-02 0.  1.
    10030    2    1    2    0    0  0.00000000000E+00  0.00000000000E+00 -0.52773644198E+02  0.60504757273E+03  0.60274165921E+03 0.  0.
        3    1    3    3  502    0 -0.22798649534E+03  0.37577188674E+01  0.17142646222E+03  0.28527005566E+03  0.10100000352E+00 0. -1.
       -3    1    3    3    0  502  0.22798649534E+03 -0.37577188674E+01 -0.22420010642E+03  0.31977751707E+03  0.10100000352E+00 0.  1.
</event>
<event>
 5   0  0.1166419E-01  0.6049640E+03  0.7818609E-02  0.9895160E-01
        2   -1    0    0  501    0  0.00000000000E+00  0.00000000000E+00  0.36598771617E+03  0.36598771617E+03  0.25500000920E-02 0. -1.
       -2   -1    0    0    0  501  0.00000000000E+00  0.00000000000E+00 -0.24999573704E+03  0.24999573706E+03  0.25500000920E-02 0.  1.
    10030    2    1    2    0    0  0.00000000000E+00  0.00000000000E+00  0.11599197912E+03  0.61598345323E+03  0.60496402821E+03 0.  0.
        1    1    3    3  502    0  0.30182617988E+02 -0.14759577108E+03  0.32507102391E+03  0.35828295059E+03  0.50400001928E-02 0. -1.
       -1    1    3    3    0  502 -0.30182617988E+02  0.14759577108E+03 -0.20907904479E+03  0.25770050264E+03  0.50400001928E-02 0.  1.
</event>
<event>
 5   0  0.7424930E-02  0.5975716E+03  0.7818609E-02  0.9910457E-01
        1   -1    0    0  501    0  0.00000000000E+00  0.00000000000E+00  0.26914963137E+03  0.26914963141E+03  0.50400001928E-02 0. -1.
       -1   -1    0    0    0  501  0.00000000000E+00  0.00000000000E+00 -0.33168523428E+03  0.33168523432E+03  0.50400001928E-02 0.  1.
    10030    2    1    2    0    0  0.00000000000E+00  0.00000000000E+00 -0.62535602913E+02  0.60083486573E+03  0.59757161432E+03 0.  0.
        3    1    3    3  502    0 -0.31490039011E+02 -0.28116780190E+03 -0.12784436024E+03  0.31046923524E+03  0.10100000352E+00 0. -1.
       -3    1    3    3    0  502  0.31490039011E+02  0.28116780190E+03  0.65308757327E+02  0.29036563049E+03  0.10100000352E+00 0.  1.
</event>
<event>
 5   0  0.7424930E-02  0.5961534E+03  0.7818609E-02  0.9913419E-01
       -1   -1    0    0    0  501  0.00000000000E+00  0.00000000000E+00  0.82406746540E+02  0.82406746694E+02  0.50400001928E-02 0. -1.
        1   -1    0    0  501    0  0.00000000000E+00  0.00000000000E+00 -0.10781850193E+04  0.10781850193E+04  0.50400001928E-02 0.  1.
    10030    2    1    2    0    0  0.00000000000E+00  0.00000000000E+00 -0.99577827275E+03  0.11605917660E+04  0.59615340208E+03 0.  0.
        3    1    3    3  502    0 -0.29471217706E+03 -0.21456369950E+02 -0.57413978368E+03  0.64571831670E+03  0.10100000352E+00 0. -1.
       -3    1    3    3    0  502  0.29471217706E+03  0.21456369950E+02 -0.42163848907E+03  0.51487344930E+03  0.10100000352E+00 0.  1.
</event>
<event>
 5   0  0.1206238E-01  0.6062097E+03  0.7818609E-02  0.9892606E-01
       -2   -1    0    0    0  501  0.00000000000E+00  0.00000000000E+00  0.61033452950E+02  0.61033453003E+02  0.25500000920E-02 0.  1.
        2   -1    0    0  501    0  0.00000000000E+00  0.00000000000E+00 -0.15052819503E+04  0.15052819503E+04  0.25500000920E-02 0. -1.
    10030    2    1    2    0    0  0.00000000000E+00  0.00000000000E+00 -0.14442484973E+04  0.15663154033E+04  0.60620971662E+03 0.  0.
        5    1    3    3  502    0  0.50490880261E+02 -0.69056232590E+02  0.29096986265E+02  0.90481030370E+02  0.46999998093E+01 0.  1.
       -5    1    3    3    0  502 -0.50490880261E+02  0.69056232590E+02 -0.14733454836E+04  0.14758343729E+04  0.46999998093E+01 0. -1.
</event>
<event>
 5   0  0.7123340E-02  0.5960095E+03  0.7818609E-02  0.9913720E-01
        1   -1    0    0  501    0  0.00000000000E+00  0.00000000000E+00  0.61880427041E+03  0.61880427043E+03  0.50400001928E-02 0.  1.
       -1   -1    0    0    0  501  0.00000000000E+00  0.00000000000E+00 -0.14351358400E+03  0.14351358409E+03  0.50400001928E-02 0. -1.
    10030    2    1    2    0    0  0.00000000000E+00  0.00000000000E+00  0.47529068641E+03  0.76231785452E+03  0.59600945859E+03 0.  0.
        2    1    3    3  502    0  0.28616289973E+03  0.71550733197E+02  0.18340897588E+03  0.34734358357E+03  0.25500000920E-02 0.  1.
       -2    1    3    3    0  502 -0.28616289973E+03 -0.71550733197E+02  0.29188171053E+03  0.41497427095E+03  0.25500000920E-02 0. -1.
</event>
<event>
 5   0  0.1166419E-01  0.5746855E+03  0.7818609E-02  0.9959364E-01
        2   -1    0    0  501    0  0.00000000000E+00  0.00000000000E+00  0.52364048289E+03  0.52364048290E+03  0.25500000920E-02 0.  1.
       -2   -1    0    0    0  501  0.00000000000E+00  0.00000000000E+00 -0.15767658476E+03  0.15767658478E+03  0.25500000920E-02 0. -1.
    10030    2    1    2    0    0  0.00000000000E+00  0.00000000000E+00  0.36596389813E+03  0.68131706768E+03  0.57468545481E+03 0.  0.
        1    1    3    3  502    0  0.48522596033E+02  0.96678333879E+02 -0.13261590456E+03  0.17113772446E+03  0.50400001928E-02 0. -1.
       -1    1    3    3    0  502 -0.48522596033E+02 -0.96678333879E+02  0.49857980269E+03  0.51017934321E+03  0.50400001928E-02 0.  1.
</event>
<event>
 5   0  0.4695625E-02  0.6059315E+03  0.7818609E-02  0.9893176E-01
        3   -1    0    0  501    0  0.00000000000E+00  0.00000000000E+00  0.85998998758E+02  0.85999058066E+02  0.10100000352E+00 0.  1.
       -3   -1    0    0    0  501  0.00000000000E+00  0.00000000000E+00 -0.10673170606E+04  0.10673170654E+04  0.10100000352E+00 0. -1.
    10030    2    1    2    0    0  0.00000000000E+00  0.00000000000E+00 -0.98131806184E+03  0.11533161234E+04  0.60593146651E+03 0.  0.
        5    1    3    3  502    0  0.14354744998E+03  0.47362542718E+02  0.90166845920E+01  0.15150073085E+03  0.46999998093E+01 0.  1.
       -5    1    3    3    0  502 -0.14354744998E+03 -0.47362542718E+02 -0.99033474644E+03  0.10018153926E+04  0.46999998093E+01 0. -1.
</event>
<event>
 5   0  0.1175861E-01  0.6046004E+03  0.7818609E-02  0.9895907E-01
        2   -1    0    0  501    0  0.00000000000E+00  0.00000000000E+00  0.12580896014E+04  0.12580896014E+04  0.25500000920E-02 0.  1.
       -2   -1    0    0    0  501  0.00000000000E+00  0.00000000000E+00 -0.72638237488E+02  0.72638237533E+02  0.25500000920E-02 0. -1.
    10030    2    1    2    0    0  0.00000000000E+00  0.00000000000E+00  0.11854513639E+04  0.13307278389E+04  0.60460040118E+03 0.  0.
        3    1    3    3  502    0  0.23555731585E+03 -0.44805972297E+02  0.99791715004E+03  0.10263203558E+04  0.10100000352E+00 0.  1.
       -3    1    3    3    0  502 -0.23555731585E+03  0.44805972297E+02  0.18753421385E+03  0.30440748310E+03  0.10100000352E+00 0. -1.
</event>
<event>
 5   0  0.4695625E-02  0.6605135E+03  0.7818609E-02  0.9787249E-01
       -3   -1    0    0    0  501  0.00000000000E+00  0.00000000000E+00  0.11932273383E+03  0.11932277658E+03  0.10100000352E+00 0. -1.
        3   -1    0    0  501    0  0.00000000000E+00  0.00000000000E+00 -0.91407137087E+03  0.91407137645E+03  0.10100000352E+00 0.  1.
    10030    2    1    2    0    0  0.00000000000E+00  0.00000000000E+00 -0.79474863704E+03  0.10333941530E+04  0.66051349679E+03 0.  0.
        3    1    3    3  502    0  0.17051672811E+03  0.71055924602E+02 -0.82568066295E+03  0.84609306010E+03  0.10100000352E+00 0.  1.
       -3    1    3    3    0  502 -0.17051672811E+03 -0.71055924602E+02  0.30932025909E+02  0.18730109293E+03  0.10100000352E+00 0. -1.
</event>
<event>
 5   0  0.7263385E-02  0.5490076E+03  0.7818609E-02  0.1001724E+00
       -1   -1    0    0    0  501  0.00000000000E+00  0.00000000000E+00  0.15563999361E+03  0.15563999369E+03  0.50400001928E-02 0. -1.
        1   -1    0    0  501    0  0.00000000000E+00  0.00000000000E+00 -0.48414512835E+03  0.48414512838E+03  0.50400001928E-02 0.  1.
    10030    2    1    2    0    0  0.00000000000E+00  0.00000000000E+00 -0.32850513474E+03  0.63978512208E+03  0.54900763098E+03 0.  0.
        1    1    3    3  502    0  0.99321232486E+02  0.11753464905E+03 -0.42915662950E+03  0.45591064214E+03  0.50400001928E-02 0.  1.
       -1    1    3    3    0  502 -0.99321232486E+02 -0.11753464905E+03  0.10065149476E+03  0.18387447993E+03  0.50400001928E-02 0. -1.
</event>
<event>
 5   0  0.1175861E-01  0.6018892E+03  0.7818609E-02  0.9901494E-01
        2   -1    0    0  501    0  0.00000000000E+00  0.00000000000E+00  0.81016167063E+03  0.81016167064E+03  0.25500000920E-02 0. -1.
       -2   -1    0    0    0  501  0.00000000000E+00  0.00000000000E+00 -0.11178960866E+03  0.11178960869E+03  0.25500000920E-02 0.  1.
    10030    2    1    2    0    0  0.00000000000E+00  0.00000000000E+00  0.69837206198E+03  0.92195127932E+03  0.60188921281E+03 0.  0.
        3    1    3    3  502    0  0.15057403229E+03  0.21368115501E+03  0.12077631420E+03  0.28795677363E+03  0.10100000352E+00 0.  1.
       -3    1    3    3    0  502 -0.15057403229E+03 -0.21368115501E+03  0.57759574777E+03  0.63399450569E+03  0.10100000352E+00 0. -1.
</event>
<event>
 5   0  0.1166419E-01  0.5998430E+03  0.7818609E-02  0.9905732E-01
       -2   -1    0    0    0  501  0.00000000000E+00  0.00000000000E+00  0.24430361223E+03  0.24430361225E+03  0.25500000920E-02 0. -1.
        2   -1    0    0  501    0  0.00000000000E+00  0.00000000000E+00 -0.36820132195E+03  0.36820132196E+03  0.25500000920E-02 0.  1.
    10030    2    1    2    0    0  0.00000000000E+00  0.00000000000E+00 -0.12389770971E+03  0.61250493421E+03  0.59984302276E+03 0.  0.
        1    1    3    3  502    0  0.16588249159E+03 -0.99852958546E+02 -0.29583691644E+03  0.35356342501E+03  0.50400001928E-02 0.  1.
       -1    1    3    3    0  502 -0.16588249159E+03  0.99852958546E+02  0.17193920673E+03  0.25894150920E+03  0.50400001928E-02 0. -1.
</event>
<event>
 5   0  0.7123340E-02  0.5918943E+03  0.7818609E-02  0.9922367E-01
       -1   -1    0    0    0  501  0.00000000000E+00  0.00000000000E+00  0.78477297775E+02  0.78477297937E+02  0.50400001928E-02 0.  1.
        1   -1    0    0  501    0  0.00000000000E+00  0.00000000000E+00 -0.11160517673E+04  0.11160517673E+04  0.50400001928E-02 0. -1.
    10030    2    1    2    0    0  0.00000000000E+00  0.00000000000E+00 -0.10375744695E+04  0.11945290652E+04  0.59189433846E+03 0.  0.
        2    1    3    3  502    0 -0.11452958910E+03  0.80257594224E+02  0.75830204418E+01  0.14005645439E+03  0.25500000920E-02 0.  1.
       -2    1    3    3    0  502  0.11452958910E+03 -0.80257594224E+02 -0.10451574899E+04  0.10544726108E+04  0.25500000920E-02 0. -1.
</event>
<event>
 5   0  0.1146468E-01  0.5931409E+03  0.7818609E-02  0.9919740E-01
        2   -1    0    0  501    0  0.00000000000E+00  0.00000000000E+00  0.17018558902E+04  0.17018558902E+04  0.25500000920E-02 0.  1.
       -2   -1    0    0    0  501  0.00000000000E+00  0.00000000000E+00 -0.51681244417E+02  0.51681244480E+02  0.25500000920E-02 0. -1.
    10030    2    1    2    0    0  0.00000000000E+00  0.00000000000E+00  0.16501746458E+04  0.17535371347E+04  0.59314089483E+03 0.  0.
        4    1    3    3  502    0 -0.76727057281E+00  0.21146873988E+03  0.14397881322E+04  0.14552357524E+04  0.12699999809E+01 0.  1.
       -4    1    3    3    0  502  0.76727057281E+00 -0.21146873988E+03  0.21038651357E+03  0.29830138223E+03  0.12699999809E+01 0. -1.
</event>
<event>
 5   0  0.1219020E-01  0.6124850E+03  0.7818609E-02  0.9879837E-01
       -2   -1    0    0    0  501  0.00000000000E+00  0.00000000000E+00  0.35555669641E+02  0.35555669732E+02  0.25500000920E-02 0. -1.
        2   -1    0    0  501    0  0.00000000000E+00  0.00000000000E+00 -0.26376801187E+04  0.26376801187E+04  0.25500000920E-02 0.  1.
    10030    2    1    2    0    0  0.00000000000E+00  0.00000000000E+00 -0.26021244491E+04  0.26732357885E+04  0.61248504649E+03 0.  0.
        2    1    3    3  502    0 -0.15413873068E+03  0.26258759751E+02 -0.15179285183E+03  0.21792049154E+03  0.25500000920E-02 0. -1.
       -2    1    3    3    0  502  0.15413873068E+03 -0.26258759751E+02 -0.24503315973E+04  0.24553152969E+04  0.25500000920E-02 0.  1.
</event>
<event>
 5   0  0.7424930E-02  0.5128548E+03  0.7818609E-02  0.1010477E+00
        1   -1    0    0  501    0  0.00000000000E+00  0.00000000000E+00  0.21359007152E+03  0.21359007157E+03  0.50400001928E-02 0. -1.
       -1   -1    0    0    0  501  0.00000000000E+00  0.00000000000E+00 -0.30785612950E+03  0.30785612954E+03  0.50400001928E-02 0.  1.
    10030    2    1    2    0    0  0.00000000000E+00  0.00000000000E+00 -0.94266057988E+02  0.52144620112E+03  0.51285480496E+03 0.  0.
        3    1    3    3  502    0 -0.11529840760E+03 -0.19175231909E+03 -0.17450057045E+03  0.28374836380E+03  0.10100000352E+00 0.  1.
       -3    1    3    3    0  502  0.11529840760E+03  0.19175231909E+03  0.80234512466E+02  0.23769783731E+03  0.10100000352E+00 0. -1.
</event>
<event>
 5   0  0.7266519E-02  0.4630598E+03  0.7818609E-02  0.1023898E+00
        1   -1    0    0  501    0  0.00000000000E+00  0.00000000000E+00  0.22543188823E+03  0.22543188829E+03  0.50400001928E-02 0.  1.
       -1   -1    0    0    0  501  0.00000000000E+00  0.00000000000E+00 -0.23779290419E+03  0.23779290424E+03  0.50400001928E-02 0. -1.
    10030    2    1    2    0    0  0.00000000000E+00  0.00000000000E+00 -0.12361015957E+02  0.46322479253E+03  0.46305983814E+03 0.  0.
        4    1    3    3  502    0 -0.10989373877E+02  0.32414317253E+02  0.22288367298E+03  0.22549988665E+03  0.12699999809E+01 0.  1.
       -4    1    3    3    0  502  0.10989373877E+02 -0.32414317253E+02 -0.23524468893E+03  0.23772490587E+03  0.12699999809E+01 0. -1.
</event>
<event>
 5   0  0.7221069E-02  0.5811082E+03  0.7818609E-02  0.9945395E-01
        1   -1    0    0  501    0  0.00000000000E+00  0.00000000000E+00  0.18729515300E+03  0.18729515307E+03  0.50400001928E-02 0. -1.
       -1   -1    0    0    0  501  0.00000000000E+00  0.00000000000E+00 -0.45074147159E+03  0.45074147162E+03  0.50400001928E-02 0.  1.
    10030    2    1    2    0    0  0.00000000000E+00  0.00000000000E+00 -0.26344631859E+03  0.63803662468E+03  0.58110822715E+03 0.  0.
        5    1    3    3  502    0  0.28739664822E+03 -0.29948623893E+02 -0.16476898389E+03  0.33266298492E+03  0.46999998093E+01 0.  1.
       -5    1    3    3    0  502 -0.28739664822E+03  0.29948623893E+02 -0.98677334697E+02  0.30537363976E+03  0.46999998093E+01 0. -1.
</event>
<event>
 5   0  0.7266519E-02  0.5875451E+03  0.7818609E-02  0.9931588E-01
        1   -1    0    0  501    0  0.00000000000E+00  0.00000000000E+00  0.85112706845E+03  0.85112706846E+03  0.50400001928E-02 0.  1.
       -1   -1    0    0    0  501  0.00000000000E+00  0.00000000000E+00 -0.10139768388E+03  0.10139768400E+03  0.50400001928E-02 0. -1.
    10030    2    1    2    0    0  0.00000000000E+00  0.00000000000E+00  0.74972938457E+03  0.95252475247E+03  0.58754510803E+03 0.  0.
        4    1    3    3  502    0 -0.55522168531E+01  0.26248015633E+03  0.16117406365E+03  0.30806712138E+03  0.12699999809E+01 0. -1.
       -4    1    3    3    0  502  0.55522168531E+01 -0.26248015633E+03  0.58855532092E+03  0.64445763108E+03  0.12699999809E+01 0.  1.
</event>
<event>
 5   0  0.7263385E-02  0.6022548E+03  0.7818609E-02  0.9900739E-01
       -1   -1    0    0    0  501  0.00000000000E+00  0.00000000000E+00  0.78752960637E+02  0.78752960799E+02  0.50400001928E-02 0.  1.
        1   -1    0    0  501    0  0.00000000000E+00  0.00000000000E+00 -0.11514195224E+04  0.11514195224E+04  0.50400001928E-02 0. -1.
    10030    2    1    2    0    0  0.00000000000E+00  0.00000000000E+00 -0.10726665617E+04  0.12301724832E+04  0.60225475151E+03 0.  0.
        1    1    3    3  502    0 -0.20378347952E+03 -0.17606290751E+03 -0.81153182392E+03  0.85504956300E+03  0.50400001928E-02 0. -1.
       -1    1    3    3    0  502  0.20378347952E+03  0.17606290751E+03 -0.26113473782E+03  0.37512292018E+03  0.50400001928E-02 0.  1.
</event>
<event>
 5   0  0.1206238E-01  0.6057770E+03  0.7818609E-02  0.9893493E-01
       -2   -1    0    0    0  501  0.00000000000E+00  0.00000000000E+00  0.67121808355E+02  0.67121808403E+02  0.25500000920E-02 0.  1.
        2   -1    0    0  501    0  0.00000000000E+00  0.00000000000E+00 -0.13667905081E+04  0.13667905081E+04  0.25500000920E-02 0. -1.
    10030    2    1    2    0    0  0.00000000000E+00  0.00000000000E+00 -0.12996686997E+04  0.14339123165E+04  0.60577702360E+03 0.  0.
        5    1    3    3  502    0 -0.11489077469E+03  0.26508643997E+03 -0.43485277927E+03  0.52210127408E+03  0.46999998093E+01 0.  1.
       -5    1    3    3    0  502  0.11489077469E+03 -0.26508643997E+03 -0.86481592043E+03  0.91181104238E+03  0.46999998093E+01 0. -1.
</event>
<event>
 5   0  0.7266519E-02  0.5953239E+03  0.7818609E-02  0.9915155E-01
       -1   -1    0    0    0  501  0.00000000000E+00  0.00000000000E+00  0.14728956120E+03  0.14728956128E+03  0.50400001928E-02 0. -1.
        1   -1    0    0  501    0  0.00000000000E+00  0.00000000000E+00 -0.60155407125E+03  0.60155407127E+03  0.50400001928E-02 0.  1.
    10030    2    1    2    0    0  0.00000000000E+00  0.00000000000E+00 -0.45426451005E+03  0.74884363255E+03  0.59532389581E+03 0.  0.
        4    1    3    3  502    0  0.10009138270E+03  0.13769988372E+03 -0.53427424975E+03  0.56074069740E+03  0.12699999809E+01 0.  1.
       -4    1    3    3    0  502 -0.10009138270E+03 -0.13769988372E+03  0.80009739704E+02  0.18810293516E+03  0.12699999809E+01 0. -1.
</event>
<event>
 5   0  0.4695625E-02  0.5680818E+03  0.7818609E-02  0.9973932E-01
        4   -1    0    0  501    0  0.00000000000E+00  0.00000000000E+00  0.16986480152E+03  0.16986954905E+03  0.12699999809E+01 0. -1.
       -4   -1    0    0    0  501  0.00000000000E+00  0.00000000000E+00 -0.47494921519E+03  0.47495091316E+03  0.12699999809E+01 0.  1.
    10030    2    1    2    0    0  0.00000000000E+00  0.00000000000E+00 -0.30508441367E+03  0.64482046221E+03  0.56808179783E+03 0.  0.
        4    1    3    3  502    0  0.82671878391E+02 -0.20663303189E+03  0.47779251253E+02  0.22763198171E+03  0.12699999809E+01 0. -1.
       -4    1    3    3    0  502 -0.82671878391E+02  0.20663303189E+03 -0.35286366492E+03  0.41718848051E+03  0.12699999809E+01 0.  1.
</event>
<event>
 5   0  0.1175861E-01  0.6038493E+03  0.7818609E-02  0.9897452E-01
        2   -1    0    0  501    0  0.00000000000E+00  0.00000000000E+00  0.52922615244E+03  0.52922615244E+03  0.25500000920E-02 0. -1.
       -2   -1    0    0    0  501  0.00000000000E+00  0.00000000000E+00 -0.17224863816E+03  0.17224863818E+03  0.25500000920E-02 0.  1.
    10030    2    1    2    0    0  0.00000000000E+00  0.00000000000E+00  0.35697751428E+03  0.70147479062E+03  0.60384926611E+03 0.  0.
        3    1    3    3  502    0  0.94865540377E+02  0.32205000275E+01 -0.15446482502E+03  0.18129874446E+03  0.10100000352E+00 0.  1.
       -3    1    3    3    0  502 -0.94865540377E+02 -0.32205000275E+01  0.51144233930E+03  0.52017604616E+03  0.10100000352E+00 0. -1.
</event>
<event>
 5   0  0.1175861E-01  0.6220000E+03  0.7818609E-02  0.9860786E-01
        2   -1    0    0  501    0  0.00000000000E+00  0.00000000000E+00  0.11159615169E+04  0.11159615169E+04  0.25500000920E-02 0.  1.
       -2   -1    0    0    0  501  0.00000000000E+00  0.00000000000E+00 -0.86670543508E+02  0.86670543545E+02  0.25500000920E-02 0. -1.
    10030    2    1    2    0    0  0.00000000000E+00  0.00000000000E+00  0.10292909734E+04  0.12026320605E+04  0.62199997180E+03 0.  0.
        3    1    3    3  502    0 -0.50527025128E+02  0.77299440034E+02  0.10888399114E+04  0.10927490776E+04  0.10100000352E+00 0.  1.
       -3    1    3    3    0  502  0.50527025128E+02 -0.77299440034E+02 -0.59548938028E+02  0.10988298285E+03  0.10100000352E+00 0. -1.
</event>
<event>
 5   0  0.7221069E-02  0.5945244E+03  0.7818609E-02  0.9916832E-01
        1   -1    0    0  501    0  0.00000000000E+00  0.00000000000E+00  0.62588606732E+03  0.62588606734E+03  0.50400001928E-02 0. -1.
       -1   -1    0    0    0  501  0.00000000000E+00  0.00000000000E+00 -0.14118356029E+03  0.14118356038E+03  0.50400001928E-02 0.  1.
    10030    2    1    2    0    0  0.00000000000E+00  0.00000000000E+00  0.48470250704E+03  0.76706962772E+03  0.59452442628E+03 0.  0.
        5    1    3    3  502    0 -0.71879059377E+02 -0.31585268443E+02  0.61221707655E+03  0.61724878872E+03  0.46999998093E+01 0. -1.
       -5    1    3    3    0  502  0.71879059377E+02  0.31585268443E+02 -0.12751456952E+03  0.14982083900E+03  0.46999998093E+01 0.  1.
</event>
<event>
 5   0  0.1206238E-01  0.5958825E+03  0.7818609E-02  0.9913986E-01
       -2   -1    0    0    0  501  0.00000000000E+00  0.00000000000E+00  0.10047080265E+03  0.10047080268E+03  0.25500000920E-02 0.  1.
        2   -1    0    0  501    0  0.00000000000E+00  0.00000000000E+00 -0.88353008401E+03  0.88353008402E+03  0.25500000920E-02 0. -1.
    10030    2    1    2    0    0  0.00000000000E+00  0.00000000000E+00 -0.78305928137E+03  0.98400088670E+03  0.59588246063E+03 0.  0.
        5    1    3    3  502    0 -0.16556117573E+03 -0.13968587376E+03 -0.72924352721E+03  0.76075019435E+03  0.46999998093E+01 0. -1.
       -5    1    3    3    0  502  0.16556117573E+03  0.13968587376E+03 -0.53815754162E+02  0.22325069234E+03  0.46999998093E+01 0.  1.
</event>
<event>
 5   0  0.1175861E-01  0.6844193E+03  0.7818609E-02  0.9744255E-01
       -2   -1    0    0    0  501  0.00000000000E+00  0.00000000000E+00  0.89280483167E+03  0.89280483168E+03  0.25500000920E-02 0.  1.
        2   -1    0    0  501    0  0.00000000000E+00  0.00000000000E+00 -0.13116801900E+03  0.13116801903E+03  0.25500000920E-02 0. -1.
    10030    2    1    2    0    0  0.00000000000E+00  0.00000000000E+00  0.76163681267E+03  0.10239728507E+04  0.68441929004E+03 0.  0.
        3    1    3    3  502    0 -0.12934072541E+03  0.78660814740E+02 -0.78348560650E+02  0.17045543166E+03  0.10100000352E+00 0. -1.
       -3    1    3    3    0  502  0.12934072541E+03 -0.78660814740E+02  0.83998537332E+03  0.85351741905E+03  0.10100000352E+00 0.  1.
</event>
<event>
 5   0  0.7263385E-02  0.6076548E+03  0.7818609E-02  0.9889651E-01
        1   -1    0    0  501    0  0.00000000000E+00  0.00000000000E+00  0.11295657461E+04  0.11295657461E+04  0.50400001928E-02 0.  1.
       -1   -1    0    0    0  501  0.00000000000E+00  0.00000000000E+00 -0.81722637458E+02  0.81722637613E+02  0.50400001928E-02 0. -1.
    10030    2    1    2    0    0  0.00000000000E+00  0.00000000000E+00  0.10478431086E+04  0.12112883837E+04  0.60765481007E+03 0.  0.
        1    1    3    3  502    0  0.29525079915E+03  0.66248744268E+02  0.46936105448E+03  0.55844581653E+03  0.50400001928E-02 0. -1.
       -1    1    3    3    0  502 -0.29525079915E+03 -0.66248744268E+02  0.57848205412E+03  0.65284256714E+03  0.50400001928E-02 0.  1.
</event>
<event>
 5   0  0.7424930E-02  0.6081913E+03  0.7818609E-02  0.9888556E-01
        1   -1    0    0  501    0  0.00000000000E+00  0.00000000000E+00  0.67248975938E+03  0.67248975940E+03  0.50400001928E-02 0. -1.
       -1   -1    0    0    0  501  0.00000000000E+00  0.00000000000E+00 -0.13751012475E+03  0.13751012484E+03  0.50400001928E-02 0.  1.
    10030    2    1    2    0    0  0.00000000000E+00  0.00000000000E+00  0.53497963463E+03  0.80999988424E+03  0.60819125529E+03 0.  0.
        3    1    3    3  502    0  0.55706386957E+02  0.10804714000E+03 -0.10374288311E+03  0.15981233371E+03  0.10100000352E+00 0.  1.
       -3    1    3    3    0  502 -0.55706386957E+02 -0.10804714000E+03  0.63872251773E+03  0.65018755053E+03  0.10100000352E+00 0. -1.
</event>
<event>
 5   0  0.7266519E-02  0.5998352E+03  0.7818609E-02  0.9905748E-01
        1   -1    0    0  501    0  0.00000000000E+00  0.00000000000E+00  0.14285887240E+04  0.14285887240E+04  0.50400001928E-02 0. -1.
       -1   -1    0    0    0  501  0.00000000000E+00  0.00000000000E+00 -0.62964642570E+02  0.62964642771E+02  0.50400001928E-02 0.  1.
    10030    2    1    2    0    0  0.00000000000E+00  0.00000000000E+00  0.13656240815E+04  0.14915533668E+04  0.59983523920E+03 0.  0.
        4    1    3    3  502    0  0.12352585444E+03 -0.56586176659E+02  0.13476631647E+04  0.13544955705E+04  0.12699999809E+01 0. -1.
       -4    1    3    3    0  502 -0.12352585444E+03  0.56586176659E+02  0.17960916783E+02  0.13705779634E+03  0.12699999809E+01 0.  1.
</event>
<event>
 5   0  0.4695625E-02  0.6003627E+03  0.7818609E-02  0.9904654E-01
       -3   -1    0    0    0  501  0.00000000000E+00  0.00000000000E+00  0.27415923930E+03  0.27415925790E+03  0.10100000352E+00 0.  1.
        3   -1    0    0  501    0  0.00000000000E+00  0.00000000000E+00 -0.32867335596E+03  0.32867337148E+03  0.10100000352E+00 0. -1.
    10030    2    1    2    0    0  0.00000000000E+00  0.00000000000E+00 -0.54514116666E+02  0.60283262938E+03  0.60036271547E+03 0.  0.
        3    1    3    3  502    0 -0.29650366995E+03  0.23790218204E+02  0.13262850479E+02  0.29775210189E+03  0.10100000352E+00 0.  1.
       -3    1    3    3    0  502  0.29650366995E+03 -0.23790218204E+02 -0.67776967145E+02  0.30508052749E+03  0.10100000352E+00 0. -1.
</event>
<event>
 5   0  0.1166419E-01  0.5867063E+03  0.7818609E-02  0.9933377E-01
        2   -1    0    0  501    0  0.00000000000E+00  0.00000000000E+00  0.16083010498E+04  0.16083010498E+04  0.25500000920E-02 0.  1.
       -2   -1    0    0    0  501  0.00000000000E+00  0.00000000000E+00 -0.53507440827E+02  0.53507440888E+02  0.25500000920E-02 0. -1.
    10030    2    1    2    0    0  0.00000000000E+00  0.00000000000E+00  0.15547936089E+04  0.16618084906E+04  0.58670630917E+03 0.  0.
        1    1    3    3  502    0 -0.65889374282E+02  0.17247460085E+03  0.14230878630E+04  0.14350149697E+04  0.50400001928E-02 0.  1.
       -1    1    3    3    0  502  0.65889374282E+02 -0.17247460085E+03  0.13170574594E+03  0.22679352090E+03  0.50400001928E-02 0. -1.
</event>
<event>
 5   0  0.4695625E-02  0.6078415E+03  0.7818609E-02  0.9889270E-01
       -4   -1    0    0    0  501  0.00000000000E+00  0.00000000000E+00  0.12077017473E+03  0.12077685210E+03  0.12699999809E+01 0.  1.
        4   -1    0    0  501    0  0.00000000000E+00  0.00000000000E+00 -0.76479470756E+03  0.76479576203E+03  0.12699999809E+01 0. -1.
    10030    2    1    2    0    0  0.00000000000E+00  0.00000000000E+00 -0.64402453283E+03  0.88557261413E+03  0.60784147275E+03 0.  0.
        2    1    3    3  502    0 -0.21729458260E+02 -0.27633962569E+03 -0.50358403420E+03  0.57483270400E+03  0.25500000920E-02 0.  1.
       -2    1    3    3    0  502  0.21729458260E+02  0.27633962569E+03 -0.14044049864E+03  0.31073991013E+03  0.25500000920E-02 0. -1.
</event>
<event>
 5   0  0.1219020E-01  0.6052419E+03  0.7818609E-02  0.9894590E-01
       -2   -1    0    0    0  501  0.00000000000E+00  0.00000000000E+00  0.14355742762E+03  0.14355742764E+03  0.25500000920E-02 0. -1.
        2   -1    0    0  501    0  0.00000000000E+00  0.00000000000E+00 -0.63792901777E+03  0.63792901777E+03  0.25500000920E-02 0.  1.
    10030    2    1    2    0    0  0.00000000000E+00  0.00000000000E+00 -0.49437159015E+03  0.78148644541E+03  0.60524193114E+03 0.  0.
        2    1    3    3  502    0  0.10327985162E+03 -0.12921291948E+03 -0.57438826787E+03  0.59773287393E+03  0.25500000920E-02 0.  1.
       -2    1    3    3    0  502 -0.10327985162E+03  0.12921291948E+03  0.80016677717E+02  0.18375357148E+03  0.25500000920E-02 0. -1.
</event>
<event>
 5   0  0.1175861E-01  0.5982947E+03  0.7818609E-02  0.9908950E-01
       -2   -1    0    0    0  501  0.00000000000E+00  0.00000000000E+00  0.52008669537E+02  0.52008669599E+02  0.25500000920E-02 0.  1.
        2   -1    0    0  501    0  0.00000000000E+00  0.00000000000E+00 -0.17206578982E+04  0.17206578982E+04  0.25500000920E-02 0. -1.
    10030    2    1    2    0    0  0.00000000000E+00  0.00000000000E+00 -0.16686492287E+04  0.17726665678E+04  0.59829467012E+03 0.  0.
        3    1    3    3  502    0  0.29403067080E+03 -0.34595581351E+02 -0.96135617627E+03  0.10059108298E+04  0.10100000352E+00 0.  1.
       -3    1    3    3    0  502 -0.29403067080E+03  0.34595581351E+02 -0.70729305243E+03  0.76675573806E+03  0.10100000352E+00 0. -1.
</event>
<event>
 5   0  0.7123340E-02  0.5953402E+03  0.7818609E-02  0.9915121E-01
        1   -1    0    0  501    0  0.00000000000E+00  0.00000000000E+00  0.37118839666E+03  0.37118839669E+03  0.50400001928E-02 0.  1.
       -1   -1    0    0    0  501  0.00000000000E+00  0.00000000000E+00 -0.23871295456E+03  0.23871295461E+03  0.50400001928E-02 0. -1.
    10030    2    1    2    0    0  0.00000000000E+00  0.00000000000E+00  0.13247544210E+03  0.60990135130E+03  0.59534016793E+03 0.  0.
        2    1    3    3  502    0 -0.59972153772E+02 -0.24771090851E+03  0.22378508259E+03  0.33917122021E+03  0.25500000920E-02 0.  1.
       -2    1    3    3    0  502  0.59972153772E+02  0.24771090851E+03 -0.91309640490E+02  0.27073013108E+03  0.25500000920E-02 0. -1.
</event>
<event>
 5   0  0.7263385E-02  0.5998425E+03  0.7818609E-02  0.9905733E-01
        1   -1    0    0  501    0  0.00000000000E+00  0.00000000000E+00  0.83671004817E+03  0.83671004819E+03  0.50400001928E-02 0. -1.
       -1   -1    0    0    0  501  0.00000000000E+00  0.00000000000E+00 -0.10750766980E+03  0.10750766992E+03  0.50400001928E-02 0.  1.
    10030    2    1    2    0    0  0.00000000000E+00  0.00000000000E+00  0.72920237837E+03  0.94421771811E+03  0.59984247146E+03 0.  0.
        1    1    3    3  502    0  0.16626983363E+03  0.24837259802E+03  0.32546493395E+03  0.44188463232E+03  0.50400001928E-02 0. -1.
       -1    1    3    3    0  502 -0.16626983363E+03 -0.24837259802E+03  0.40373744442E+03  0.50233308579E+03  0.50400001928E-02 0.  1.
</event>
<event>
 5   0  0.1175861E-01  0.5939436E+03  0.7818609E-02  0.9918052E-01
        2   -1    0    0  501    0  0.00000000000E+00  0.00000000000E+00  0.22146120874E+03  0.22146120876E+03  0.25500000920E-02 0.  1.
       -2   -1    0    0    0  501  0.00000000000E+00  0.00000000000E+00 -0.39822883371E+03  0.39822883372E+03  0.25500000920E-02 0. -1.
    10030    2    1    2    0    0  0.00000000000E+00  0.00000000000E+00 -0.17676762496E+03  0.61969004247E+03  0.59394356256E+03 0.  0.
        3    1    3    3  502    0 -0.85540394783E+02  0.40938874762E+02 -0.38200635921E+03  0.39360134563E+03  0.10100000352E+00 0. -1.
       -3    1    3    3    0  502  0.85540394783E+02 -0.40938874762E+02  0.20523873424E+03  0.22608869684E+03  0.10100000352E+00 0.  1.
</event>
<event>
 5   0  0.1206238E-01  0.6086344E+03  0.7818609E-02  0.9887653E-01
        2   -1    0    0  501    0  0.00000000000E+00  0.00000000000E+00  0.10564246260E+04  0.10564246260E+04  0.25500000920E-02 0. -1.
       -2   -1    0    0    0  501  0.00000000000E+00  0.00000000000E+00 -0.87662636837E+02  0.87662636875E+02  0.25500000920E-02 0.  1.
    10030    2    1    2    0    0  0.00000000000E+00  0.00000000000E+00  0.96876198917E+03  0.11440872629E+04  0.60863443333E+03 0.  0.
        5    1    3    3  502    0 -0.13319738046E+03 -0.12261638389E+03  0.24662939074E+02  0.18277491710E+03  0.46999998093E+01 0.  1.
       -5    1    3    3    0  502  0.13319738046E+03  0.12261638389E+03  0.94409905010E+03  0.96131234578E+03  0.46999998093E+01 0. -1.
</event>
<event>
 5   0  0.7424930E-02  0.6311219E+03  0.7818609E-02  0.9842862E-01
        1   -1    0    0  501    0  0.00000000000E+00  0.00000000000E+00  0.63873204293E+03  0.63873204295E+03  0.50400001928E-02 0. -1.
       -1   -1    0    0    0  501  0.00000000000E+00  0.00000000000E+00 -0.15590060743E+03  0.15590060752E+03  0.50400001928E-02 0.  1.
    10030    2    1    2    0    0  0.00000000000E+00  0.00000000000E+00  0.48283143550E+03  0.79463265047E+03  0.63112190113E+03 0.  0.
        3    1    3    3  502    0 -0.21873312349E+02  0.28127674428E+02 -0.15335961159E+03  0.15744455700E+03  0.10100000352E+00 0.  1.
       -3    1    3    3    0  502  0.21873312349E+02 -0.28127674428E+02  0.63619104709E+03  0.63718809347E+03  0.10100000352E+00 0. -1.
</event>
<event>
 5   0  0.7123340E-02  0.5997009E+03  0.7818609E-02  0.9906027E-01
       -1   -1    0    0    0  501  0.00000000000E+00  0.00000000000E+00  0.35077750542E+03  0.35077750546E+03  0.50400001928E-02 0. -1.
        1   -1    0    0  501    0  0.00000000000E+00  0.00000000000E+00 -0.25631714360E+03  0.25631714365E+03  0.50400001928E-02 0.  1.
    10030    2    1    2    0    0  0.00000000000E+00  0.00000000000E+00  0.94460361827E+02  0.60709464911E+03  0.59970088629E+03 0.  0.
        2    1    3    3  502    0  0.10255478103E+03  0.12249316035E+03 -0.20964666522E+03  0.26357879598E+03  0.25500000920E-02 0.  1.
       -2    1    3    3    0  502 -0.10255478103E+03 -0.12249316035E+03  0.30410702705E+03  0.34351585313E+03  0.25500000920E-02 0. -1.
</event>
<event>
 5   0  0.7123340E-02  0.5929332E+03  0.7818609E-02  0.9920177E-01
        1   -1    0    0  501    0  0.00000000000E+00  0.00000000000E+00  0.88995032649E+03  0.88995032650E+03  0.50400001928E-02 0. -1.
       -1   -1    0    0    0  501  0.00000000000E+00  0.00000000000E+00 -0.98761062823E+02  0.98761062952E+02  0.50400001928E-02 0.  1.
    10030    2    1    2    0    0  0.00000000000E+00  0.00000000000E+00  0.79118926367E+03  0.98871138946E+03  0.59293318401E+03 0.  0.
        2    1    3    3  502    0  0.32256505641E+02  0.59906370675E+02  0.87675548861E+03  0.87939151816E+03  0.25500000920E-02 0. -1.
       -2    1    3    3    0  502 -0.32256505641E+02 -0.59906370675E+02 -0.85566224939E+02  0.10931987130E+03  0.25500000920E-02 0.  1.
</event>
<event>
 5   0  0.1146468E-01  0.6105636E+03  0.7818609E-02  0.9883729E-01
       -2   -1    0    0    0  501  0.00000000000E+00  0.00000000000E+00  0.53835402212E+02  0.53835402272E+02  0.25500000920E-02 0. -1.
        2   -1    0    0  501    0  0.00000000000E+00  0.00000000000E+00 -0.17311467144E+04  0.17311467144E+04  0.25500000920E-02 0.  1.
    10030    2    1    2    0    0  0.00000000000E+00  0.00000000000E+00 -0.16773113122E+04  0.17849821167E+04  0.61056360754E+03 0.  0.
        4    1    3    3  502    0  0.28936475605E+02 -0.23105584107E+02  0.47237776326E+02  0.60035056839E+02  0.12699999809E+01 0. -1.
       -4    1    3    3    0  502 -0.28936475605E+02  0.23105584107E+02 -0.17245490885E+04  0.17249470598E+04  0.12699999809E+01 0.  1.
</event>
<event>
 5   0  0.4695625E-02  0.5875508E+03  0.7818609E-02  0.9931576E-01
       -3   -1    0    0    0  501  0.00000000000E+00  0.00000000000E+00  0.85885181482E+03  0.85885182076E+03  0.10100000352E+00 0.  1.
        3   -1    0    0  501    0  0.00000000000E+00  0.00000000000E+00 -0.10048759124E+03  0.10048764200E+03  0.10100000352E+00 0. -1.
    10030    2    1    2    0    0  0.00000000000E+00  0.00000000000E+00  0.75836422357E+03  0.95933946276E+03  0.58755077160E+03 0.  0.
        5    1    3    3  502    0 -0.14248628001E+03  0.25478211995E+02  0.79651690567E+03  0.80957566063E+03  0.46999998093E+01 0.  1.
       -5    1    3    3    0  502  0.14248628001E+03 -0.25478211995E+02 -0.38152682095E+02  0.14976380212E+03  0.46999998093E+01 0. -1.
</event>
<event>
 5   0  0.7221069E-02  0.5493407E+03  0.7818609E-02  0.1001647E+00
        1   -1    0    0  501    0  0.00000000000E+00  0.00000000000E+00  0.13155263325E+04  0.13155263325E+04  0.50400001928E-02 0.  1.
       -1   -1    0    0    0  501  0.00000000000E+00  0.00000000000E+00 -0.57348766911E+02  0.57348767133E+02  0.50400001928E-02 0. -1.
    10030    2    1    2    0    0  0.00000000000E+00  0.00000000000E+00  0.12581775655E+04  0.13728750996E+04  0.54934074367E+03 0.  0.
        5    1    3    3  502    0 -0.18426283630E+02  0.21631988290E+03  0.10494180183E+04  0.10716501700E+04  0.46999998093E+01 0.  1.
       -5    1    3    3    0  502  0.18426283630E+02 -0.21631988290E+03  0.20875954724E+03  0.30122492962E+03  0.46999998093E+01 0. -1.
</event>
<event>
 5   0  0.1206238E-01  0.5781576E+03  0.7818609E-02  0.9951788E-01
       -2   -1    0    0    0  501  0.00000000000E+00  0.00000000000E+00  0.83965662706E+02  0.83965662745E+02  0.25500000920E-02 0.  1.
        2   -1    0    0  501    0  0.00000000000E+00  0.00000000000E+00 -0.99524669837E+03  0.99524669838E+03  0.25500000920E-02 0. -1.
    10030    2    1    2    0    0  0.00000000000E+00  0.00000000000E+00 -0.91128103567E+03  0.10792123611E+04  0.57815758616E+03 0.  0.
        5    1    3    3  502    0  0.45896269198E+02  0.23018099233E+03 -0.77051517109E+03  0.80548462160E+03  0.46999998093E+01 0.  1.
       -5    1    3    3    0  502 -0.45896269198E+02 -0.23018099233E+03 -0.14076586457E+03  0.27372773952E+03  0.46999998093E+01 0. -1.
</event>
<event>
 5   0  0.7123340E-02  0.6003959E+03  0.7818609E-02  0.9904585E-01
        1   -1    0    0  501    0  0.00000000000E+00  0.00000000000E+00  0.24156584762E+03  0.24156584768E+03  0.50400001928E-02 0. -1.
       -1   -1    0    0    0  501  0.00000000000E+00  0.00000000000E+00 -0.37306111257E+03  0.37306111260E+03  0.50400001928E-02 0.  1.
    10030    2    1    2    0    0  0.00000000000E+00  0.00000000000E+00 -0.13149526494E+03  0.61462696027E+03  0.60039594902E+03 0.  0.
        2    1    3    3  502    0  0.30050855236E+02 -0.29478041296E+03 -0.16436624972E+02  0.29676372490E+03  0.25500000920E-02 0.  1.
       -2    1    3    3    0  502 -0.30050855236E+02  0.29478041296E+03 -0.11505863997E+03  0.31786323538E+03  0.25500000920E-02 0. -1.
</event>
<event>
 5   0  0.4695625E-02  0.6008870E+03  0.7818609E-02  0.9903568E-01
       -3   -1    0    0    0  501  0.00000000000E+00  0.00000000000E+00  0.19836360375E+03  0.19836362946E+03  0.10100000352E+00 0.  1.
        3   -1    0    0  501    0  0.00000000000E+00  0.00000000000E+00 -0.45505460025E+03  0.45505461146E+03  0.10100000352E+00 0. -1.
    10030    2    1    2    0    0  0.00000000000E+00  0.00000000000E+00 -0.25669099650E+03  0.65341824093E+03  0.60088695267E+03 0.  0.
        5    1    3    3  502    0  0.25857806706E+03 -0.10746387046E+03 -0.24663538208E+03  0.37317851213E+03  0.46999998093E+01 0. -1.
       -5    1    3    3    0  502 -0.25857806706E+03  0.10746387046E+03 -0.10055614418E+02  0.28023972880E+03  0.46999998093E+01 0.  1.
</event>
<event>
 5   0  0.1166419E-01  0.6047562E+03  0.7818609E-02  0.9895587E-01
        2   -1    0    0  501    0  0.00000000000E+00  0.00000000000E+00  0.55831718367E+03  0.55831718368E+03  0.25500000920E-02 0.  1.
       -2   -1    0    0    0  501  0.00000000000E+00  0.00000000000E+00 -0.16376448924E+03  0.16376448926E+03  0.25500000920E-02 0. -1.
    10030    2    1    2    0    0  0.00000000000E+00  0.00000000000E+00  0.39455269443E+03  0.72208167294E+03  0.60475624322E+03 0.  0.
        1    1    3    3  502    0  0.74617699884E+02  0.29295381285E+03  0.18946580515E+03  0.35677307767E+03  0.50400001928E-02 0. -1.
       -1    1    3    3    0  502 -0.74617699884E+02 -0.29295381285E+03  0.20508688928E+03  0.36530859527E+03  0.50400001928E-02 0.  1.
</event>
<event>
 5   0  0.7221069E-02  0.5931853E+03  0.7818609E-02  0.9919646E-01
       -1   -1    0    0    0  501  0.00000000000E+00  0.00000000000E+00  0.54706630651E+02  0.54706630884E+02  0.50400001928E-02 0.  1.
        1   -1    0    0  501    0  0.00000000000E+00  0.00000000000E+00 -0.16079805167E+04  0.16079805167E+04  0.50400001928E-02 0. -1.
    10030    2    1    2    0    0  0.00000000000E+00  0.00000000000E+00 -0.15532738861E+04  0.16626871476E+04  0.59318528782E+03 0.  0.
        5    1    3    3  502    0  0.10577578311E+03  0.15829894237E+03 -0.13931747254E+03  0.23596296235E+03  0.46999998093E+01 0.  1.
       -5    1    3    3    0  502 -0.10577578311E+03 -0.15829894237E+03 -0.14139564135E+04  0.14267241853E+04  0.46999998093E+01 0. -1.
</event>
<event>
 5   0  0.4695625E-02  0.4741364E+03  0.7818609E-02  0.1020759E+00
        4   -1    0    0  501    0  0.00000000000E+00  0.00000000000E+00  0.16748377201E+03  0.16748858703E+03  0.12699999809E+01 0. -1.
       -4   -1    0    0    0  501  0.00000000000E+00  0.00000000000E+00 -0.33555207352E+03  0.33555447687E+03  0.12699999809E+01 0.  1.
    10030    2    1    2    0    0  0.00000000000E+00  0.00000000000E+00 -0.16806830152E+03  0.50304306390E+03  0.47413644678E+03 0.  0.
        1    1    3    3  502    0 -0.26572555603E+02  0.23493053916E+03 -0.65569560111E+02  0.24535245298E+03  0.50400001928E-02 0.  1.
       -1    1    3    3    0  502  0.26572555603E+02 -0.23493053916E+03 -0.10249874141E+03  0.25769061092E+03  0.50400001928E-02 0. -1.
</event>
<event>
 5   0  0.1219020E-01  0.6051522E+03  0.7818609E-02  0.9894774E-01
       -2   -1    0    0    0  501  0.00000000000E+00  0.00000000000E+00  0.29250937562E+03  0.29250937564E+03  0.25500000920E-02 0.  1.
        2   -1    0    0  501    0  0.00000000000E+00  0.00000000000E+00 -0.31298924014E+03  0.31298924015E+03  0.25500000920E-02 0. -1.
    10030    2    1    2    0    0  0.00000000000E+00  0.00000000000E+00 -0.20479864518E+02  0.60549861579E+03  0.60515217001E+03 0.  0.
        2    1    3    3  502    0  0.22307450722E+03  0.20327796557E+03 -0.31888403308E+02  0.30348152716E+03  0.25500000920E-02 0.  1.
       -2    1    3    3    0  502 -0.22307450722E+03 -0.20327796557E+03  0.11408538789E+02  0.30201708863E+03  0.25500000920E-02 0. -1.
</event>
<event>
 5   0  0.1219020E-01  0.5939587E+03  0.7818609E-02  0.9918020E-01
        2   -1    0    0  501    0  0.00000000000E+00  0.00000000000E+00  0.11362260917E+04  0.11362260917E+04  0.25500000920E-02 0. -1.
       -2   -1    0    0    0  501  0.00000000000E+00  0.00000000000E+00 -0.77622513667E+02  0.77622513709E+02  0.25500000920E-02 0.  1.
    10030    2    1    2    0    0  0.00000000000E+00  0.00000000000E+00  0.10586035780E+04  0.12138486054E+04  0.59395866981E+03 0.  0.
        2    1    3    3  502    0  0.17701150138E+03 -0.55725852203E+01  0.42102035152E+02  0.18203490517E+03  0.25500000920E-02 0.  1.
       -2    1    3    3    0  502 -0.17701150138E+03  0.55725852203E+01  0.10165015429E+04  0.10318137003E+04  0.25500000920E-02 0. -1.
</event>
<event>
 5   0  0.1146468E-01  0.5969890E+03  0.7818609E-02  0.9911673E-01
        2   -1    0    0  501    0  0.00000000000E+00  0.00000000000E+00  0.34461974636E+03  0.34461974637E+03  0.25500000920E-02 0. -1.
       -2   -1    0    0    0  501  0.00000000000E+00  0.00000000000E+00 -0.25854286724E+03  0.25854286725E+03  0.25500000920E-02 0.  1.
    10030    2    1    2    0    0  0.00000000000E+00  0.00000000000E+00  0.86076879127E+02  0.60316261362E+03  0.59698903621E+03 0.  0.
        4    1    3    3  502    0 -0.31049249053E+02 -0.12030418479E+02 -0.25665774063E+03  0.25881189224E+03  0.12699999809E+01 0.  1.
       -4    1    3    3    0  502  0.31049249053E+02  0.12030418479E+02  0.34273461976E+03  0.34435072138E+03  0.12699999809E+01 0. -1.
</event>
<event>
 5   0  0.1219020E-01  0.6059785E+03  0.7818609E-02  0.9893080E-01
        2   -1    0    0  501    0  0.00000000000E+00  0.00000000000E+00  0.33668688967E+03  0.33668688968E+03  0.25500000920E-02 0. -1.
       -2   -1    0    0    0  501  0.00000000000E+00  0.00000000000E+00 -0.27266424969E+03  0.27266424970E+03  0.25500000920E-02 0.  1.
    10030    2    1    2    0    0  0.00000000000E+00  0.00000000000E+00  0.64022639980E+02  0.60935113938E+03  0.60597847539E+03 0.  0.
        2    1    3    3  502    0  0.16196736556E+03 -0.25309889375E+03 -0.70636806121E+01  0.30057008020E+03  0.25500000920E-02 0.  1.
       -2    1    3    3    0  502 -0.16196736556E+03  0.25309889375E+03  0.71086320592E+02  0.30878105918E+03  0.25500000920E-02 0. -1.
</event>
<event>
 5   0  0.1219020E-01  0.5891320E+03  0.7818609E-02  0.9928214E-01
        2   -1    0    0  501    0  0.00000000000E+00  0.00000000000E+00  0.51410926691E+03  0.51410926692E+03  0.25500000920E-02 0. -1.
       -2   -1    0    0    0  501  0.00000000000E+00  0.00000000000E+00 -0.16877566921E+03  0.16877566923E+03  0.25500000920E-02 0.  1.
    10030    2    1    2    0    0  0.00000000000E+00  0.00000000000E+00  0.34533359771E+03  0.68288493614E+03  0.58913202451E+03 0.  0.
        2    1    3    3  502    0  0.36254076038E+02  0.27234185338E+03  0.29580130278E+03  0.40371134969E+03  0.25500000920E-02 0. -1.
       -2    1    3    3    0  502 -0.36254076038E+02 -0.27234185338E+03  0.49532294922E+02  0.27917358646E+03  0.25500000920E-02 0.  1.
</event>
<event>
 5   0  0.1175861E-01  0.7319418E+03  0.7818609E-02  0.9664115E-01
       -2   -1    0    0    0  501  0.00000000000E+00  0.00000000000E+00  0.72774789816E+02  0.72774789861E+02  0.25500000920E-02 0. -1.
        2   -1    0    0  501    0  0.00000000000E+00  0.00000000000E+00 -0.18403998784E+04  0.18403998784E+04  0.25500000920E-02 0.  1.
    10030    2    1    2    0    0  0.00000000000E+00  0.00000000000E+00 -0.17676250886E+04  0.19131746683E+04  0.73194184024E+03 0.  0.
        3    1    3    3  502    0 -0.11587176172E+03 -0.20480879216E+03 -0.16164409522E+04  0.16334791914E+04  0.10100000352E+00 0.  1.
       -3    1    3    3    0  502  0.11587176172E+03  0.20480879216E+03 -0.15118413643E+03  0.27969547694E+03  0.10100000352E+00 0. -1.
</event>
<event>
 5   0  0.7123340E-02  0.6028473E+03  0.7818609E-02  0.9899516E-01
        1   -1    0    0  501    0  0.00000000000E+00  0.00000000000E+00  0.21653431548E+03  0.21653431553E+03  0.50400001928E-02 0. -1.
       -1   -1    0    0    0  501  0.00000000000E+00  0.00000000000E+00 -0.41959272123E+03  0.41959272126E+03  0.50400001928E-02 0.  1.
    10030    2    1    2    0    0  0.00000000000E+00  0.00000000000E+00 -0.20305840575E+03  0.63612703679E+03  0.60284731963E+03 0.  0.
        2    1    3    3  502    0  0.16680587065E+03  0.13462152280E+03  0.12208714485E+03  0.24668284057E+03  0.25500000920E-02 0. -1.
       -2    1    3    3    0  502 -0.16680587065E+03 -0.13462152280E+03 -0.32514555060E+03  0.38944419622E+03  0.25500000920E-02 0.  1.
</event>
<event>
 5   0  0.7263385E-02  0.5339464E+03  0.7818609E-02  0.1005280E+00
        1   -1    0    0  501    0  0.00000000000E+00  0.00000000000E+00  0.37790778539E+03  0.37790778542E+03  0.50400001928E-02 0. -1.
       -1   -1    0    0    0  501  0.00000000000E+00  0.00000000000E+00 -0.18860342240E+03  0.18860342247E+03  0.50400001928E-02 0.  1.
    10030    2    1    2    0    0  0.00000000000E+00  0.00000000000E+00  0.18930436299E+03  0.56651120790E+03  0.53394644565E+03 0.  0.
        1    1    3    3  502    0 -0.51526979823E+02  0.10371600074E+03 -0.16056506333E+03  0.19797266995E+03  0.50400001928E-02 0.  1.
       -1    1    3    3    0  502  0.51526979823E+02 -0.10371600074E+03  0.34986942631E+03  0.36853853795E+03  0.50400001928E-02 0. -1.
</event>
<event>
 5   0  0.7424930E-02  0.5965330E+03  0.7818609E-02  0.9912625E-01
        1   -1    0    0  501    0  0.00000000000E+00  0.00000000000E+00  0.68014989333E+03  0.68014989335E+03  0.50400001928E-02 0.  1.
       -1   -1    0    0    0  501  0.00000000000E+00  0.00000000000E+00 -0.13079898674E+03  0.13079898684E+03  0.50400001928E-02 0. -1.
    10030    2    1    2    0    0  0.00000000000E+00  0.00000000000E+00  0.54935090660E+03  0.81094888019E+03  0.59653303991E+03 0.  0.
        3    1    3    3  502    0  0.86561116781E+02  0.16084263068E+03  0.59522510472E+03  0.62262036127E+03  0.10100000352E+00 0.  1.
       -3    1    3    3    0  502 -0.86561116781E+02 -0.16084263068E+03 -0.45874198121E+02  0.18832851892E+03  0.10100000352E+00 0. -1.
</event>
<event>
 5   0  0.4695625E-02  0.5954563E+03  0.7818609E-02  0.9914878E-01
       -3   -1    0    0    0  501  0.00000000000E+00  0.00000000000E+00  0.67980618832E+02  0.67980693861E+02  0.10100000352E+00 0. -1.
        3   -1    0    0  501    0  0.00000000000E+00  0.00000000000E+00 -0.13039302094E+04  0.13039302133E+04  0.10100000352E+00 0.  1.
    10030    2    1    2    0    0  0.00000000000E+00  0.00000000000E+00 -0.12359495906E+04  0.13719109072E+04  0.59545625096E+03 0.  0.
        3    1    3    3  502    0  0.60866457214E+02  0.20546861681E+03 -0.14177258170E+03  0.25694659606E+03  0.10100000352E+00 0. -1.
       -3    1    3    3    0  502 -0.60866457214E+02 -0.20546861681E+03 -0.10941770089E+04  0.11149643111E+04  0.10100000352E+00 0.  1.
</event>
<event>
 5   0  0.7123340E-02  0.5971293E+03  0.7818609E-02  0.9911380E-01
       -1   -1    0    0    0  501  0.00000000000E+00  0.00000000000E+00  0.10316939446E+03  0.10316939458E+03  0.50400001928E-02 0. -1.
        1   -1    0    0  501    0  0.00000000000E+00  0.00000000000E+00 -0.86402416287E+03  0.86402416288E+03  0.50400001928E-02 0.  1.
    10030    2    1    2    0    0  0.00000000000E+00  0.00000000000E+00 -0.76085476840E+03  0.96719355746E+03  0.59712929839E+03 0.  0.
        2    1    3    3  502    0  0.93233305451E+02  0.28233262049E+03 -0.33646431909E+03  0.44901269009E+03  0.25500000920E-02 0.  1.
       -2    1    3    3    0  502 -0.93233305451E+02 -0.28233262049E+03 -0.42439044932E+03  0.51818086737E+03  0.25500000920E-02 0. -1.
</event>
<event>
 5   0  0.7263385E-02  0.5985958E+03  0.7818609E-02  0.9908324E-01
       -1   -1    0    0    0  501  0.00000000000E+00  0.00000000000E+00  0.31174719876E+03  0.31174719880E+03  0.50400001928E-02 0. -1.
        1   -1    0    0  501    0  0.00000000000E+00  0.00000000000E+00 -0.28734578432E+03  0.28734578436E+03  0.50400001928E-02 0.  1.
    10030    2    1    2    0    0  0.00000000000E+00  0.00000000000E+00  0.24401414438E+02  0.59909298316E+03  0.59859583481E+03 0.  0.
        1    1    3    3  502    0  0.11999602275E+03  0.26348882460E+03 -0.63716343201E+02  0.29645434485E+03  0.50400001928E-02 0.  1.
       -1    1    3    3    0  502 -0.11999602275E+03 -0.26348882460E+03  0.88117757639E+02  0.30263863831E+03  0.50400001928E-02 0. -1.
</event>
<event>
 5   0  0.1146468E-01  0.5897929E+03  0.7818609E-02  0.9926812E-01
        2   -1    0    0  501    0  0.00000000000E+00  0.00000000000E+00  0.19316361425E+04  0.19316361425E+04  0.25500000920E-02 0.  1.
       -2   -1    0    0    0  501  0.00000000000E+00  0.00000000000E+00 -0.45020862519E+02  0.45020862592E+02  0.25500000920E-02 0. -1.
    10030    2    1    2    0    0  0.00000000000E+00  0.00000000000E+00  0.18866152799E+04  0.19766570051E+04  0.58979293072E+03 0.  0.
        4    1    3    3  502    0  0.19495612166E+03 -0.19235925182E+03  0.57690529445E+03  0.63861671040E+03  0.12699999809E+01 0.  1.
       -4    1    3    3    0  502 -0.19495612166E+03  0.19235925182E+03  0.13097099855E+04  0.13380402947E+04  0.12699999809E+01 0. -1.
</event>
<event>
 5   0  0.1146468E-01  0.6017131E+03  0.7818609E-02  0.9901858E-01
       -2   -1    0    0    0  501  0.00000000000E+00  0.00000000000E+00  0.94593767761E+02  0.94593767796E+02  0.25500000920E-02 0. -1.
        2   -1    0    0  501    0  0.00000000000E+00  0.00000000000E+00 -0.95687757680E+03  0.95687757681E+03  0.25500000920E-02 0.  1.
    10030    2    1    2    0    0  0.00000000000E+00  0.00000000000E+00 -0.86228380904E+03  0.10514713446E+04  0.60171307214E+03 0.  0.
        4    1    3    3  502    0  0.86991051813E+02 -0.11896274801E+03 -0.88947538588E+03  0.90160282469E+03  0.12699999809E+01 0.  1.
       -4    1    3    3    0  502 -0.86991051813E+02  0.11896274801E+03  0.27191576836E+02  0.14986851991E+03  0.12699999809E+01 0. -1.
</event>
<event>
 5   0  0.1219020E-01  0.6082731E+03  0.7818609E-02  0.9888389E-01
       -2   -1    0    0    0  501  0.00000000000E+00  0.00000000000E+00  0.29469644666E+02  0.29469644776E+02  0.25500000920E-02 0. -1.
        2   -1    0    0  501    0  0.00000000000E+00  0.00000000000E+00 -0.31387900345E+04  0.31387900345E+04  0.25500000920E-02 0.  1.
    10030    2    1    2    0    0  0.00000000000E+00  0.00000000000E+00 -0.31093203898E+04  0.31682596792E+04  0.60827305439E+03 0.  0.
        2    1    3    3  502    0  0.10924354336E+03 -0.33325381378E+01 -0.30329688728E+04  0.30349374691E+04  0.25500000920E-02 0.  1.
       -2    1    3    3    0  502 -0.10924354336E+03  0.33325381378E+01 -0.76351516966E+02  0.13332221017E+03  0.25500000920E-02 0. -1.
</event>
<event>
 5   0  0.7221069E-02  0.5935626E+03  0.7818609E-02  0.9918852E-01
        1   -1    0    0  501    0  0.00000000000E+00  0.00000000000E+00  0.13652892644E+04  0.13652892644E+04  0.50400001928E-02 0.  1.
       -1   -1    0    0    0  501  0.00000000000E+00  0.00000000000E+00 -0.64513174972E+02  0.64513175169E+02  0.50400001928E-02 0. -1.
    10030    2    1    2    0    0  0.00000000000E+00  0.00000000000E+00  0.13007760894E+04  0.14298024396E+04  0.59356261792E+03 0.  0.
        5    1    3    3  502    0  0.29403359738E+03 -0.11872415786E+02  0.55833520674E+03  0.63115529288E+03  0.46999998093E+01 0. -1.
       -5    1    3    3    0  502 -0.29403359738E+03  0.11872415786E+02  0.74244088269E+03  0.79864714670E+03  0.46999998093E+01 0.  1.
</event>
<event>
 5   0  0.7266519E-02  0.5800791E+03  0.7818609E-02  0.9947620E-01
        1   -1    0    0  501    0  0.00000000000E+00  0.00000000000E+00  0.35184520941E+03  0.35184520945E+03  0.50400001928E-02 0. -1.
       -1   -1    0    0    0  501  0.00000000000E+00  0.00000000000E+00 -0.23909073913E+03  0.23909073919E+03  0.50400001928E-02 0.  1.
    10030    2    1    2    0    0  0.00000000000E+00  0.00000000000E+00  0.11275447028E+03  0.59093594863E+03  0.58007906773E+03 0.  0.
        4    1    3    3  502    0 -0.76938841151E+02 -0.27955724572E+03  0.49211423449E+02  0.29410069026E+03  0.12699999809E+01 0. -1.
       -4    1    3    3    0  502  0.76938841151E+02  0.27955724572E+03  0.63543046828E+02  0.29683525837E+03  0.12699999809E+01 0.  1.
</event>
<event>
 5   0  0.7424930E-02  0.5938240E+03  0.7818609E-02  0.9918303E-01
       -1   -1    0    0    0  501  0.00000000000E+00  0.00000000000E+00  0.74424425022E+02  0.74424425192E+02  0.50400001928E-02 0. -1.
        1   -1    0    0  501    0  0.00000000000E+00  0.00000000000E+00 -0.11845134081E+04  0.11845134081E+04  0.50400001928E-02 0.  1.
    10030    2    1    2    0    0  0.00000000000E+00  0.00000000000E+00 -0.11100889831E+04  0.12589378333E+04  0.59382397878E+03 0.  0.
        3    1    3    3  502    0 -0.21501633606E+03 -0.20150882333E+03 -0.47805160360E+03  0.56157918102E+03  0.10100000352E+00 0.  1.
       -3    1    3    3    0  502  0.21501633606E+03  0.20150882333E+03 -0.63203737948E+03  0.69735865228E+03  0.10100000352E+00 0. -1.
</event>
<event>
 5   0  0.4695625E-02  0.5976270E+03  0.7818609E-02  0.9910342E-01
        3   -1    0    0  501    0  0.00000000000E+00  0.00000000000E+00  0.27058580533E+03  0.27058582418E+03  0.10100000352E+00 0. -1.
       -3   -1    0    0    0  501  0.00000000000E+00  0.00000000000E+00 -0.32998590418E+03  0.32998591964E+03  0.10100000352E+00 0.  1.
    10030    2    1    2    0    0  0.00000000000E+00  0.00000000000E+00 -0.59400098846E+02  0.60057174382E+03  0.59762701389E+03 0.  0.
        1    1    3    3  502    0 -0.62813807506E+01 -0.74896016004E+02 -0.32033199982E+03  0.32903109138E+03  0.50400001928E-02 0.  1.
       -1    1    3    3    0  502  0.62813807506E+01  0.74896016004E+02  0.26093190098E+03  0.27154065244E+03  0.50400001928E-02 0. -1.
</event>
<event>
 5   0  0.7266519E-02  0.6075306E+03  0.7818609E-02  0.9889905E-01
       -1   -1    0    0    0  501  0.00000000000E+00  0.00000000000E+00  0.44738107229E+03  0.44738107232E+03  0.50400001928E-02 0. -1.
        1   -1    0    0  501    0  0.00000000000E+00  0.00000000000E+00 -0.20625224065E+03  0.20625224071E+03  0.50400001928E-02 0.  1.
    10030    2    1    2    0    0  0.00000000000E+00  0.00000000000E+00  0.24112883165E+03  0.65363331303E+03  0.60753057080E+03 0.  0.
        4    1    3    3  502    0  0.28048524056E+03 -0.27311636672E+02 -0.14138591995E+01  0.28181821724E+03  0.12699999809E+01 0. -1.
       -4    1    3    3    0  502 -0.28048524056E+03  0.27311636672E+02  0.24254269085E+03  0.37181509579E+03  0.12699999809E+01 0.  1.
</event>
<event>
 5   0  0.7123340E-02  0.6016166E+03  0.7818609E-02  0.9902058E-01
       -1   -1    0    0    0  501  0.00000000000E+00  0.00000000000E+00  0.20251238919E+03  0.20251238925E+03  0.50400001928E-02 0.  1.
        1   -1    0    0  501    0  0.00000000000E+00  0.00000000000E+00 -0.44681527075E+03  0.44681527078E+03  0.50400001928E-02 0. -1.
    10030    2    1    2    0    0  0.00000000000E+00  0.00000000000E+00 -0.24430288156E+03  0.64932766003E+03  0.60161658234E+03 0.  0.
        2    1    3    3  502    0 -0.24519479291E+03  0.41488427315E+02 -0.30481832263E+03  0.39339037341E+03  0.25500000920E-02 0. -1.
       -2    1    3    3    0  502  0.24519479291E+03 -0.41488427315E+02  0.60515441070E+02  0.25593728663E+03  0.25500000920E-02 0.  1.
</event>
<event>
 5   0  0.1166419E-01  0.6069760E+03  0.7818609E-02  0.9891038E-01
       -2   -1    0    0    0  501  0.00000000000E+00  0.00000000000E+00  0.13254650239E+03  0.13254650241E+03  0.25500000920E-02 0. -1.
        2   -1    0    0  501    0  0.00000000000E+00  0.00000000000E+00 -0.69488788617E+03  0.69488788618E+03  0.25500000920E-02 0.  1.
    10030    2    1    2    0    0  0.00000000000E+00  0.00000000000E+00 -0.56234138379E+03  0.82743438859E+03  0.60697597605E+03 0.  0.
        1    1    3    3  502    0 -0.16634815236E+03  0.22069161521E+03 -0.45213489781E+03  0.52990797565E+03  0.50400001928E-02 0.  1.
       -1    1    3    3    0  502  0.16634815236E+03 -0.22069161521E+03 -0.11020648598E+03  0.29752641294E+03  0.50400001928E-02 0. -1.
</event>
<event>
 5   0  0.1219020E-01  0.5873103E+03  0.7818609E-02  0.9932088E-01
       -2   -1    0    0    0  501  0.00000000000E+00  0.00000000000E+00  0.14802858982E+03  0.14802858984E+03  0.25500000920E-02 0.  1.
        2   -1    0    0  501    0  0.00000000000E+00  0.00000000000E+00 -0.58254530828E+03  0.58254530829E+03  0.25500000920E-02 0. -1.
    10030    2    1    2    0    0  0.00000000000E+00  0.00000000000E+00 -0.43451671847E+03  0.73057389813E+03  0.58731034556E+03 0.  0.
        2    1    3    3  502    0  0.55793931329E+02  0.25040523742E+03 -0.39512699958E+02  0.25957079798E+03  0.25500000920E-02 0.  1.
       -2    1    3    3    0  502 -0.55793931329E+02 -0.25040523742E+03 -0.39500401851E+03  0.47100310014E+03  0.25500000920E-02 0. -1.
</event>
<event>
 5   0  0.1175861E-01  0.5713119E+03  0.7818609E-02  0.9966780E-01
        2   -1    0    0  501    0  0.00000000000E+00  0.00000000000E+00  0.98067433576E+03  0.98067433576E+03  0.25500000920E-02 0.  1.
       -2   -1    0    0    0  501  0.00000000000E+00  0.00000000000E+00 -0.83207366596E+02  0.83207366635E+02  0.25500000920E-02 0. -1.
    10030    2    1    2    0    0  0.00000000000E+00  0.00000000000E+00  0.89746696916E+03  0.10638817024E+04  0.57131192527E+03 0.  0.
        3    1    3    3  502    0 -0.14414701315E+03 -0.65474860265E+02  0.59668283535E+01  0.15843273642E+03  0.10100000352E+00 0. -1.
       -3    1    3    3    0  502  0.14414701315E+03  0.65474860265E+02  0.89150014081E+03  0.90544896598E+03  0.10100000352E+00 0.  1.
</event>
<event>
 5   0  0.1206238E-01  0.5973757E+03  0.7818609E-02  0.9910866E-01
        2   -1    0    0  501    0  0.00000000000E+00  0.00000000000E+00  0.17856139137E+04  0.17856139137E+04  0.25500000920E-02 0. -1.
       -2   -1    0    0    0  501  0.00000000000E+00  0.00000000000E+00 -0.49962896974E+02  0.49962897039E+02  0.25500000920E-02 0.  1.
    10030    2    1    2    0    0  0.00000000000E+00  0.00000000000E+00  0.17356510168E+04  0.18355768108E+04  0.59737574129E+03 0.  0.
        5    1    3    3  502    0  0.13369089627E+02 -0.70258450928E+01 -0.48675111434E+02  0.51180577645E+02  0.46999998093E+01 0.  1.
       -5    1    3    3    0  502 -0.13369089627E+02  0.70258450928E+01  0.17843261282E+04  0.17843962331E+04  0.46999998093E+01 0. -1.
</event>
<event>
 5   0  0.4695625E-02  0.6013665E+03  0.7818609E-02  0.9902575E-01
        3   -1    0    0  501    0  0.00000000000E+00  0.00000000000E+00  0.52637104584E+03  0.52637105553E+03  0.10100000352E+00 0.  1.
       -3   -1    0    0    0  501  0.00000000000E+00  0.00000000000E+00 -0.17176172877E+03  0.17176175846E+03  0.10100000352E+00 0. -1.
    10030    2    1    2    0    0  0.00000000000E+00  0.00000000000E+00  0.35460931707E+03  0.69813281399E+03  0.60136649243E+03 0.  0.
        3    1    3    3  502    0 -0.10177450645E+03 -0.21749319874E+03  0.38739121508E+03  0.45577769294E+03  0.10100000352E+00 0.  1.
       -3    1    3    3    0  502  0.10177450645E+03  0.21749319874E+03 -0.32781898010E+02  0.24235512105E+03  0.10100000352E+00 0. -1.
</event>
<event>
 5   0  0.7221069E-02  0.5991661E+03  0.7818609E-02  0.9907138E-01
       -1   -1    0    0    0  501  0.00000000000E+00  0.00000000000E+00  0.77136257517E+02  0.77136257682E+02  0.50400001928E-02 0. -1.
        1   -1    0    0  501    0  0.00000000000E+00  0.00000000000E+00 -0.11635253555E+04  0.11635253555E+04  0.50400001928E-02 0.  1.
    10030    2    1    2    0    0  0.00000000000E+00  0.00000000000E+00 -0.10863890980E+04  0.12406616132E+04  0.59916605899E+03 0.  0.
        5    1    3    3  502    0 -0.17277666824E+03 -0.11983129533E+03 -0.10142988226E+03  0.23349823863E+03  0.46999998093E+01 0. -1.
       -5    1    3    3    0  502  0.17277666824E+03  0.11983129533E+03 -0.98495921574E+03  0.10071633746E+04  0.46999998093E+01 0.  1.
</event>
<event>
 5   0  0.7123340E-02  0.6301070E+03  0.7818609E-02  0.9844840E-01
       -1   -1    0    0    0  501  0.00000000000E+00  0.00000000000E+00  0.13309638344E+03  0.13309638353E+03  0.50400001928E-02 0. -1.
        1   -1    0    0  501    0  0.00000000000E+00  0.00000000000E+00 -0.74576561805E+03  0.74576561807E+03  0.50400001928E-02 0.  1.
    10030    2    1    2    0    0  0.00000000000E+00  0.00000000000E+00 -0.61266923461E+03  0.87886200160E+03  0.63010699632E+03 0.  0.
        2    1    3    3  502    0 -0.27118383199E+03 -0.15666083831E+03 -0.35415383862E+03  0.47276657074E+03  0.25500000920E-02 0. -1.
       -2    1    3    3    0  502  0.27118383199E+03  0.15666083831E+03 -0.25851539600E+03  0.40609543086E+03  0.25500000920E-02 0.  1.
</event>
<event>
 5   0  0.7221069E-02  0.6323145E+03  0.7818609E-02  0.9840543E-01
        1   -1    0    0  501    0  0.00000000000E+00  0.00000000000E+00  0.15474422706E+03  0.15474422714E+03  0.50400001928E-02 0.  1.
       -1   -1    0    0    0  501  0.00000000000E+00  0.00000000000E+00 -0.64593950355E+03  0.64593950357E+03  0.50400001928E-02 0. -1.
    10030    2    1    2    0    0  0.00000000000E+00  0.00000000000E+00 -0.49119527650E+03  0.80068373071E+03  0.63231450796E+03 0.  0.
        5    1    3    3  502    0  0.12517652288E+03  0.23058008746E+03 -0.46889673645E+03  0.53732911522E+03  0.46999998093E+01 0. -1.
       -5    1    3    3    0  502 -0.12517652288E+03 -0.23058008746E+03 -0.22298540046E+02  0.26335461549E+03  0.46999998093E+01 0.  1.
</event>
<event>
 5   0  0.1219020E-01  0.6024148E+03  0.7818609E-02  0.9900409E-01
        2   -1    0    0  501    0  0.00000000000E+00  0.00000000000E+00  0.73968468875E+02  0.73968468919E+02  0.25500000920E-02 0. -1.
       -2   -1    0    0    0  501  0.00000000000E+00  0.00000000000E+00 -0.12265482916E+04  0.12265482916E+04  0.25500000920E-02 0.  1.
    10030    2    1    2    0    0  0.00000000000E+00  0.00000000000E+00 -0.11525798227E+04  0.13005167605E+04  0.60241480448E+03 0.  0.
        2    1    3    3  502    0 -0.87584085610E+02 -0.28302129363E+03 -0.45895794905E+03  0.54627321343E+03  0.25500000920E-02 0. -1.
       -2    1    3    3    0  502  0.87584085610E+02  0.28302129363E+03 -0.69362187369E+03  0.75424354711E+03  0.25500000920E-02 0.  1.
</event>
<event>
 5   0  0.1166419E-01  0.5721812E+03  0.7818609E-02  0.9964863E-01
       -2   -1    0    0    0  501  0.00000000000E+00  0.00000000000E+00  0.87090696237E+02  0.87090696274E+02  0.25500000920E-02 0.  1.
        2   -1    0    0  501    0  0.00000000000E+00  0.00000000000E+00 -0.93979998832E+03  0.93979998832E+03  0.25500000920E-02 0. -1.
    10030    2    1    2    0    0  0.00000000000E+00  0.00000000000E+00 -0.85270929208E+03  0.10268906846E+04  0.57218121370E+03 0.  0.
        1    1    3    3  502    0  0.17409024177E+03  0.18548815724E+03 -0.66127853459E+03  0.70852139635E+03  0.50400001928E-02 0. -1.
       -1    1    3    3    0  502 -0.17409024177E+03 -0.18548815724E+03 -0.19143075749E+03  0.31836928824E+03  0.50400001928E-02 0.  1.
</event>
<event>
 5   0  0.1166419E-01  0.6020113E+03  0.7818609E-02  0.9901242E-01
       -2   -1    0    0    0  501  0.00000000000E+00  0.00000000000E+00  0.75363923154E+03  0.75363923154E+03  0.25500000920E-02 0. -1.
        2   -1    0    0  501    0  0.00000000000E+00  0.00000000000E+00 -0.12022251932E+03  0.12022251935E+03  0.25500000920E-02 0.  1.
    10030    2    1    2    0    0  0.00000000000E+00  0.00000000000E+00  0.63341671222E+03  0.87386175089E+03  0.60201131912E+03 0.  0.
        1    1    3    3  502    0 -0.11464189446E+03  0.27290074720E+03  0.39603936594E+03  0.49443377836E+03  0.50400001928E-02 0.  1.
       -1    1    3    3    0  502  0.11464189446E+03 -0.27290074720E+03  0.23737734628E+03  0.37942797253E+03  0.50400001928E-02 0. -1.
</event>
<event>
 5   0  0.1175861E-01  0.5959424E+03  0.7818609E-02  0.9913860E-01
        2   -1    0    0  501    0  0.00000000000E+00  0.00000000000E+00  0.97532450984E+03  0.97532450984E+03  0.25500000920E-02 0.  1.
       -2   -1    0    0    0  501  0.00000000000E+00  0.00000000000E+00 -0.91033124584E+02  0.91033124620E+02  0.25500000920E-02 0. -1.
    10030    2    1    2    0    0  0.00000000000E+00  0.00000000000E+00  0.88429138525E+03  0.10663576345E+04  0.59594240539E+03 0.  0.
        3    1    3    3  502    0  0.25762776248E+03  0.10878608921E+03  0.62620111434E+03  0.68580924680E+03  0.10100000352E+00 0.  1.
       -3    1    3    3    0  502 -0.25762776248E+03 -0.10878608921E+03  0.25809027092E+03  0.38054838766E+03  0.10100000352E+00 0. -1.
</event>
<event>
 5   0  0.7266519E-02  0.6003717E+03  0.7818609E-02  0.9904635E-01
        1   -1    0    0  501    0  0.00000000000E+00  0.00000000000E+00  0.60666013761E+03  0.60666013763E+03  0.50400001928E-02 0.  1.
       -1   -1    0    0    0  501  0.00000000000E+00  0.00000000000E+00 -0.14853712005E+03  0.14853712013E+03  0.50400001928E-02 0. -1.
    10030    2    1    2    0    0  0.00000000000E+00  0.00000000000E+00  0.45812301756E+03  0.75519725777E+03  0.60037171729E+03 0.  0.
        4    1    3    3  502    0 -0.66236213040E+02  0.12053119370E+03 -0.10657154148E+03  0.17399457154E+03  0.12699999809E+01 0. -1.
       -4    1    3    3    0  502  0.66236213040E+02 -0.12053119370E+03  0.56469455904E+03  0.58120268623E+03  0.12699999809E+01 0.  1.
</event>
<event>
 5   0  0.1175861E-01  0.5894104E+03  0.7818609E-02  0.9927623E-01
       -2   -1    0    0    0  501  0.00000000000E+00  0.00000000000E+00  0.54046491600E+03  0.54046491601E+03  0.25500000920E-02 0. -1.
        2   -1    0    0  501    0  0.00000000000E+00  0.00000000000E+00 -0.16069713750E+03  0.16069713752E+03  0.25500000920E-02 0.  1.
    10030    2    1    2    0    0  0.00000000000E+00  0.00000000000E+00  0.37976777850E+03  0.70116205352E+03  0.58941043400E+03 0.  0.
        3    1    3    3  502    0  0.13563626675E+03  0.14358921727E+03  0.45006660499E+03  0.49150281719E+03  0.10100000352E+00 0. -1.
       -3    1    3    3    0  502 -0.13563626675E+03 -0.14358921727E+03 -0.70298826489E+02  0.20965923633E+03  0.10100000352E+00 0.  1.
</event>
<event>
 5   0  0.7123340E-02  0.5985909E+03  0.7818609E-02  0.9908334E-01
       -1   -1    0    0    0  501  0.00000000000E+00  0.00000000000E+00  0.13276430881E+03  0.13276430890E+03  0.50400001928E-02 0.  1.
        1   -1    0    0  501    0  0.00000000000E+00  0.00000000000E+00 -0.67471271867E+03  0.67471271869E+03  0.50400001928E-02 0. -1.
    10030    2    1    2    0    0  0.00000000000E+00  0.00000000000E+00 -0.54194840986E+03  0.80747702759E+03  0.59859090466E+03 0.  0.
        2    1    3    3  502    0 -0.66172266782E+02 -0.25714835084E+03 -0.45727633281E+03  0.52877754092E+03  0.25500000920E-02 0. -1.
       -2    1    3    3    0  502  0.66172266782E+02  0.25714835084E+03 -0.84672077051E+02  0.27869948667E+03  0.25500000920E-02 0.  1.
</event>
<event>
 5   0  0.4695625E-02  0.5826245E+03  0.7818609E-02  0.9942125E-01
       -4   -1    0    0    0  501  0.00000000000E+00  0.00000000000E+00  0.26680225759E+03  0.26680528022E+03  0.12699999809E+01 0. -1.
        4   -1    0    0  501    0  0.00000000000E+00  0.00000000000E+00 -0.31806775500E+03  0.31807029045E+03  0.12699999809E+01 0.  1.
    10030    2    1    2    0    0  0.00000000000E+00  0.00000000000E+00 -0.51265497410E+02  0.58487557068E+03  0.58262447764E+03 0.  0.
        2    1    3    3  502    0 -0.24971814903E+03  0.14939105798E+03 -0.11942670983E+02  0.29123782302E+03  0.25500000920E-02 0. -1.
       -2    1    3    3    0  502  0.24971814903E+03 -0.14939105798E+03 -0.39322826427E+02  0.29363774765E+03  0.25500000920E-02 0.  1.
</event>
<event>
 5   0  0.1175861E-01  0.6117698E+03  0.7818609E-02  0.9881284E-01
       -2   -1    0    0    0  501  0.00000000000E+00  0.00000000000E+00  0.95031718143E+02  0.95031718177E+02  0.25500000920E-02 0.  1.
        2   -1    0    0  501    0  0.00000000000E+00  0.00000000000E+00 -0.98457218119E+03  0.98457218119E+03  0.25500000920E-02 0. -1.
    10030    2    1    2    0    0  0.00000000000E+00  0.00000000000E+00 -0.88954046304E+03  0.10796038994E+04  0.61176984572E+03 0.  0.
        3    1    3    3  502    0  0.48903194726E+02 -0.33488614323E+02 -0.97434151152E+03  0.97614261305E+03  0.10100000352E+00 0. -1.
       -3    1    3    3    0  502 -0.48903194726E+02  0.33488614323E+02  0.84801048472E+02  0.10346128632E+03  0.10100000352E+00 0.  1.
</event>
<event>
 5   0  0.7123340E-02  0.5847714E+03  0.7818609E-02  0.9937514E-01
        1   -1    0    0  501    0  0.00000000000E+00  0.00000000000E+00  0.15535111014E+04  0.15535111014E+04  0.50400001928E-02 0.  1.
       -1   -1    0    0    0  501  0.00000000000E+00  0.00000000000E+00 -0.55029798473E+02  0.55029798704E+02  0.50400001928E-02 0. -1.
    10030    2    1    2    0    0  0.00000000000E+00  0.00000000000E+00  0.14984813029E+04  0.16085409001E+04  0.58477141869E+03 0.  0.
        2    1    3    3  502    0 -0.88815851096E+02 -0.26542781851E+03  0.51665906712E+03  0.58760256458E+03  0.25500000920E-02 0. -1.
       -2    1    3    3    0  502  0.88815851096E+02  0.26542781851E+03  0.98182223582E+03  0.10209383356E+04  0.25500000920E-02 0.  1.
</event>
<event>
 5   0  0.7123340E-02  0.5675083E+03  0.7818609E-02  0.9975208E-01
        1   -1    0    0  501    0  0.00000000000E+00  0.00000000000E+00  0.12978093934E+04  0.12978093934E+04  0.50400001928E-02 0.  1.
       -1   -1    0    0    0  501  0.00000000000E+00  0.00000000000E+00 -0.62040255434E+02  0.62040255639E+02  0.50400001928E-02 0. -1.
    10030    2    1    2    0    0  0.00000000000E+00  0.00000000000E+00  0.12357691380E+04  0.13598496491E+04  0.56750833093E+03 0.  0.
        2    1    3    3  502    0 -0.87687123855E+02  0.19999682183E+03  0.18372910631E+03  0.28538420584E+03  0.25500000920E-02 0. -1.
       -2    1    3    3    0  502  0.87687123855E+02 -0.19999682183E+03  0.10520400317E+04  0.10744654432E+04  0.25500000920E-02 0.  1.
</event>
<event>
 5   0  0.4695625E-02  0.5987611E+03  0.7818609E-02  0.9907980E-01
        3   -1    0    0  501    0  0.00000000000E+00  0.00000000000E+00  0.11988372165E+04  0.11988372208E+04  0.10100000352E+00 0. -1.
       -3   -1    0    0    0  501  0.00000000000E+00  0.00000000000E+00 -0.74762994858E+02  0.74763063080E+02  0.10100000352E+00 0.  1.
    10030    2    1    2    0    0  0.00000000000E+00  0.00000000000E+00  0.11240742216E+04  0.12736002838E+04  0.59876107691E+03 0.  0.
        3    1    3    3  502    0 -0.36363092871E+02  0.28248867596E+03  0.75821805818E+03  0.80994861597E+03  0.10100000352E+00 0. -1.
       -3    1    3    3    0  502  0.36363092871E+02 -0.28248867596E+03  0.36585616346E+03  0.46365166786E+03  0.10100000352E+00 0.  1.
</event>
<event>
 5   0  0.7221069E-02  0.6014913E+03  0.7818609E-02  0.9902317E-01
        1   -1    0    0  501    0  0.00000000000E+00  0.00000000000E+00  0.47610987902E+03  0.47610987905E+03  0.50400001928E-02 0.  1.
       -1   -1    0    0    0  501  0.00000000000E+00  0.00000000000E+00 -0.18997285330E+03  0.18997285337E+03  0.50400001928E-02 0. -1.
    10030    2    1    2    0    0  0.00000000000E+00  0.00000000000E+00  0.28613702572E+03  0.66608273242E+03  0.60149132075E+03 0.  0.
        5    1    3    3  502    0  0.18758282260E+02 -0.18331496922E+03  0.40622023023E+03  0.44608655723E+03  0.46999998093E+01 0.  1.
       -5    1    3    3    0  502 -0.18758282260E+02  0.18331496922E+03 -0.12008320451E+03  0.21999617519E+03  0.46999998093E+01 0. -1.
</event>
<event>
 5   0  0.1219020E-01  0.6024893E+03  0.7818609E-02  0.9900255E-01
        2   -1    0    0  501    0  0.00000000000E+00  0.00000000000E+00  0.19126343448E+04  0.19126343448E+04  0.25500000920E-02 0. -1.
       -2   -1    0    0    0  501  0.00000000000E+00  0.00000000000E+00 -0.47446785535E+02  0.47446785604E+02  0.25500000920E-02 0.  1.
    10030    2    1    2    0    0  0.00000000000E+00  0.00000000000E+00  0.18651875593E+04  0.19600811304E+04  0.60248934143E+03 0.  0.
        2    1    3    3  502    0 -0.32043996534E+02 -0.46660463400E+00 -0.41885249470E+02  0.52739070559E+02  0.25500000920E-02 0.  1.
       -2    1    3    3    0  502  0.32043996534E+02  0.46660463400E+00  0.19070728088E+04  0.19073420599E+04  0.25500000920E-02 0. -1.
</event>
<event>
 5   0  0.1219020E-01  0.6246601E+03  0.7818609E-02  0.9855525E-01
       -2   -1    0    0    0  501  0.00000000000E+00  0.00000000000E+00  0.42984316589E+03  0.42984316590E+03  0.25500000920E-02 0. -1.
        2   -1    0    0  501    0  0.00000000000E+00  0.00000000000E+00 -0.22694336613E+03  0.22694336615E+03  0.25500000920E-02 0.  1.
    10030    2    1    2    0    0  0.00000000000E+00  0.00000000000E+00  0.20289979976E+03  0.65678653204E+03  0.62466008351E+03 0.  0.
        2    1    3    3  502    0 -0.18367144174E+03  0.20604587995E+03  0.25511690176E+03  0.37586531728E+03  0.25500000920E-02 0. -1.
       -2    1    3    3    0  502  0.18367144174E+03 -0.20604587995E+03 -0.52217102007E+02  0.28092121477E+03  0.25500000920E-02 0.  1.
</event>
<event>
 5   0  0.7424930E-02  0.6099155E+03  0.7818609E-02  0.9885045E-01
       -1   -1    0    0    0  501  0.00000000000E+00  0.00000000000E+00  0.18270054002E+03  0.18270054009E+03  0.50400001928E-02 0. -1.
        1   -1    0    0  501    0  0.00000000000E+00  0.00000000000E+00 -0.50902553588E+03  0.50902553591E+03  0.50400001928E-02 0.  1.
    10030    2    1    2    0    0  0.00000000000E+00  0.00000000000E+00 -0.32632499587E+03  0.69172607600E+03  0.60991553619E+03 0.  0.
        3    1    3    3  502    0 -0.85860523063E+02 -0.64347993144E+02 -0.48691071164E+03  0.49859276464E+03  0.10100000352E+00 0.  1.
       -3    1    3    3    0  502  0.85860523063E+02  0.64347993144E+02  0.16058571577E+03  0.19313331135E+03  0.10100000352E+00 0. -1.
</event>
<event>
 5   0  0.1146468E-01  0.5985114E+03  0.7818609E-02  0.9908499E-01
        2   -1    0    0  501    0  0.00000000000E+00  0.00000000000E+00  0.32667221893E+03  0.32667221894E+03  0.25500000920E-02 0. -1.
       -2   -1    0    0    0  501  0.00000000000E+00  0.00000000000E+00 -0.27414012352E+03  0.27414012354E+03  0.25500000920E-02 0.  1.
    10030    2    1    2    0    0  0.00000000000E+00  0.00000000000E+00  0.52532095405E+02  0.60081234248E+03  0.59851136148E+03 0.  0.
        4    1    3    3  502    0  0.23677795951E+03 -0.15248217949E+03  0.12783672145E+03  0.30928701463E+03  0.12699999809E+01 0. -1.
       -4    1    3    3    0  502 -0.23677795951E+03  0.15248217949E+03 -0.75304626041E+02  0.29152532784E+03  0.12699999809E+01 0.  1.
</event>
<event>
 5   0  0.7263385E-02  0.5870711E+03  0.7818609E-02  0.9932599E-01
       -1   -1    0    0    0  501  0.00000000000E+00  0.00000000000E+00  0.29972020830E+03  0.29972020835E+03  0.50400001928E-02 0.  1.
        1   -1    0    0  501    0  0.00000000000E+00  0.00000000000E+00 -0.28747847991E+03  0.28747847995E+03  0.50400001928E-02 0. -1.
    10030    2    1    2    0    0  0.00000000000E+00  0.00000000000E+00  0.12241728393E+02  0.58719868830E+03  0.58707106863E+03 0.  0.
        1    1    3    3  502    0 -0.59237195139E+02  0.23247127480E+03 -0.16306427564E+03  0.29007222706E+03  0.50400001928E-02 0. -1.
       -1    1    3    3    0  502  0.59237195139E+02 -0.23247127480E+03  0.17530600403E+03  0.29712646124E+03  0.50400001928E-02 0.  1.
</event>
<event>
 5   0  0.1219020E-01  0.6052144E+03  0.7818609E-02  0.9894646E-01
        2   -1    0    0  501    0  0.00000000000E+00  0.00000000000E+00  0.50970778575E+03  0.50970778575E+03  0.25500000920E-02 0.  1.
       -2   -1    0    0    0  501  0.00000000000E+00  0.00000000000E+00 -0.17965415587E+03  0.17965415589E+03  0.25500000920E-02 0. -1.
    10030    2    1    2    0    0  0.00000000000E+00  0.00000000000E+00  0.33005362987E+03  0.68936194164E+03  0.60521441489E+03 0.  0.
        2    1    3    3  502    0 -0.13428324907E+03  0.22304663231E+03  0.34070957778E+03  0.42879459833E+03  0.25500000920E-02 0.  1.
       -2    1    3    3    0  502  0.13428324907E+03 -0.22304663231E+03 -0.10655947902E+02  0.26056734331E+03  0.25500000920E-02 0. -1.
</event>
<event>
 5   0  0.7424930E-02  0.6105408E+03  0.7818609E-02  0.9883775E-01
        1   -1    0    0  501    0  0.00000000000E+00  0.00000000000E+00  0.94212618120E+03  0.94212618121E+03  0.50400001928E-02 0.  1.
       -1   -1    0    0    0  501  0.00000000000E+00  0.00000000000E+00 -0.98914588981E+02  0.98914589109E+02  0.50400001928E-02 0. -1.
    10030    2    1    2    0    0  0.00000000000E+00  0.00000000000E+00  0.84321159222E+03  0.10410407703E+04  0.61054082273E+03 0.  0.
        3    1    3    3  502    0  0.22326020399E+02 -0.10325369979E+03  0.90996571333E+03  0.91607717325E+03  0.10100000352E+00 0.  1.
       -3    1    3    3    0  502 -0.22326020399E+02  0.10325369979E+03 -0.66754121111E+02  0.12496359707E+03  0.10100000352E+00 0. -1.
</event>
<event>
 5   0  0.4695625E-02  0.6071952E+03  0.7818609E-02  0.9890590E-01
       -3   -1    0    0    0  501  0.00000000000E+00  0.00000000000E+00  0.63516268762E+03  0.63516269565E+03  0.10100000352E+00 0. -1.
        3   -1    0    0  501    0  0.00000000000E+00  0.00000000000E+00 -0.14511475851E+03  0.14511479366E+03  0.10100000352E+00 0.  1.
    10030    2    1    2    0    0  0.00000000000E+00  0.00000000000E+00  0.49004792912E+03  0.78027748931E+03  0.60719518072E+03 0.  0.
        3    1    3    3  502    0 -0.70319815258E+02  0.27330098198E+03  0.10116018654E+03  0.29978608492E+03  0.10100000352E+00 0.  1.
       -3    1    3    3    0  502  0.70319815258E+02 -0.27330098198E+03  0.38888774257E+03  0.48049140439E+03  0.10100000352E+00 0. -1.
</event>
<event>
 5   0  0.1166419E-01  0.5887971E+03  0.7818609E-02  0.9928925E-01
        2   -1    0    0  501    0  0.00000000000E+00  0.00000000000E+00  0.51611260752E+03  0.51611260753E+03  0.25500000920E-02 0.  1.
       -2   -1    0    0    0  501  0.00000000000E+00  0.00000000000E+00 -0.16792943973E+03  0.16792943975E+03  0.25500000920E-02 0. -1.
    10030    2    1    2    0    0  0.00000000000E+00  0.00000000000E+00  0.34818316779E+03  0.68404204727E+03  0.58879708228E+03 0.  0.
        1    1    3    3  502    0  0.19500888000E+03  0.18501836018E+03  0.31355259768E+03  0.41300785516E+03  0.50400001928E-02 0.  1.
       -1    1    3    3    0  502 -0.19500888000E+03 -0.18501836018E+03  0.34630570108E+02  0.27103419211E+03  0.50400001928E-02 0. -1.
</event>
<event>
 5   0  0.4695625E-02  0.5835082E+03  0.7818609E-02  0.9940225E-01
       -4   -1    0    0    0  501  0.00000000000E+00  0.00000000000E+00  0.16260859479E+03  0.16261355417E+03  0.12699999809E+01 0. -1.
        4   -1    0    0  501    0  0.00000000000E+00  0.00000000000E+00 -0.52345466505E+03  0.52345620568E+03  0.12699999809E+01 0.  1.
    10030    2    1    2    0    0  0.00000000000E+00  0.00000000000E+00 -0.36084607026E+03  0.68606975985E+03  0.58350820813E+03 0.  0.
        2    1    3    3  502    0 -0.26052896434E+03 -0.11480387315E+03 -0.10545751567E+03  0.30360592578E+03  0.25500000920E-02 0.  1.
       -2    1    3    3    0  502  0.26052896434E+03  0.11480387315E+03 -0.25538855458E+03  0.38246383407E+03  0.25500000920E-02 0. -1.
</event>
<event>
 5   0  0.7263385E-02  0.5422580E+03  0.7818609E-02  0.1003302E+00
       -1   -1    0    0    0  501  0.00000000000E+00  0.00000000000E+00  0.39898643560E+02  0.39898643879E+02  0.50400001928E-02 0. -1.
        1   -1    0    0  501    0  0.00000000000E+00  0.00000000000E+00 -0.18424419840E+04  0.18424419841E+04  0.50400001928E-02 0.  1.
    10030    2    1    2    0    0  0.00000000000E+00  0.00000000000E+00 -0.18025433405E+04  0.18823406279E+04  0.54225800615E+03 0.  0.
        1    1    3    3  502    0  0.10268678232E+03 -0.12570458973E+03 -0.16551493067E+04  0.16630891277E+04  0.50400001928E-02 0.  1.
       -1    1    3    3    0  502 -0.10268678232E+03  0.12570458973E+03 -0.14739403381E+03  0.21925150027E+03  0.50400001928E-02 0. -1.
</event>
<event>
 5   0  0.7123340E-02  0.6005454E+03  0.7818609E-02  0.9904275E-01
        1   -1    0    0  501    0  0.00000000000E+00  0.00000000000E+00  0.17171923302E+04  0.17171923302E+04  0.50400001928E-02 0. -1.
       -1   -1    0    0    0  501  0.00000000000E+00  0.00000000000E+00 -0.52506462548E+02  0.52506462790E+02  0.50400001928E-02 0.  1.
    10030    2    1    2    0    0  0.00000000000E+00  0.00000000000E+00  0.16646858676E+04  0.17696987930E+04  0.60054540209E+03 0.  0.
        2    1    3    3  502    0  0.58809319073E+01 -0.85791873142E+02 -0.15444560535E+02  0.87369132501E+02  0.25500000920E-02 0.  1.
       -2    1    3    3    0  502 -0.58809319073E+01  0.85791873142E+02  0.16801304281E+04  0.16823296605E+04  0.25500000920E-02 0. -1.
</event>
<event>
 5   0  0.7266519E-02  0.5823419E+03  0.7818609E-02  0.9942734E-01
        1   -1    0    0  501    0  0.00000000000E+00  0.00000000000E+00  0.80577608916E+03  0.80577608917E+03  0.50400001928E-02 0. -1.
       -1   -1    0    0    0  501  0.00000000000E+00  0.00000000000E+00 -0.10521599425E+03  0.10521599437E+03  0.50400001928E-02 0.  1.
    10030    2    1    2    0    0  0.00000000000E+00  0.00000000000E+00  0.70056009491E+03  0.91099208355E+03  0.58234193539E+03 0.  0.
        4    1    3    3  502    0  0.88631553223E+02  0.95018219208E+02 -0.57339620648E+02  0.14203330315E+03  0.12699999809E+01 0.  1.
       -4    1    3    3    0  502 -0.88631553223E+02 -0.95018219208E+02  0.75789971555E+03  0.76895878039E+03  0.12699999809E+01 0. -1.
</event>
<event>
 5   0  0.1219020E-01  0.5943152E+03  0.7818609E-02  0.9917271E-01
       -2   -1    0    0    0  501  0.00000000000E+00  0.00000000000E+00  0.18264981048E+03  0.18264981050E+03  0.25500000920E-02 0.  1.
        2   -1    0    0  501    0  0.00000000000E+00  0.00000000000E+00 -0.48345326149E+03  0.48345326150E+03  0.25500000920E-02 0. -1.
    10030    2    1    2    0    0  0.00000000000E+00  0.00000000000E+00 -0.30080345101E+03  0.66610307200E+03  0.59431522476E+03 0.  0.
        2    1    3    3  502    0 -0.80624791405E+02 -0.19378366679E+03 -0.38616822855E+03  0.43952061072E+03  0.25500000920E-02 0. -1.
       -2    1    3    3    0  502  0.80624791405E+02  0.19378366679E+03  0.85364777542E+02  0.22658246127E+03  0.25500000920E-02 0.  1.
</event>
<event>
 5   0  0.1219020E-01  0.5752936E+03  0.7818609E-02  0.9958032E-01
        2   -1    0    0  501    0  0.00000000000E+00  0.00000000000E+00  0.68876335714E+02  0.68876335761E+02  0.25500000920E-02 0. -1.
       -2   -1    0    0    0  501  0.00000000000E+00  0.00000000000E+00 -0.12012934776E+04  0.12012934776E+04  0.25500000920E-02 0.  1.
    10030    2    1    2    0    0  0.00000000000E+00  0.00000000000E+00 -0.11324171419E+04  0.12701698134E+04  0.57529363941E+03 0.  0.
        2    1    3    3  502    0  0.65892711165E+02 -0.23144448375E+03 -0.21828757386E+03  0.32489669643E+03  0.25500000920E-02 0. -1.
       -2    1    3    3    0  502 -0.65892711165E+02  0.23144448375E+03 -0.91412956803E+03  0.94527311693E+03  0.25500000920E-02 0.  1.
</event>
<event>
 5   0  0.1146468E-01  0.5953573E+03  0.7818609E-02  0.9915085E-01
       -2   -1    0    0    0  501  0.00000000000E+00  0.00000000000E+00  0.47809968359E+02  0.47809968427E+02  0.25500000920E-02 0. -1.
        2   -1    0    0  501    0  0.00000000000E+00  0.00000000000E+00 -0.18534328162E+04  0.18534328162E+04  0.25500000920E-02 0.  1.
    10030    2    1    2    0    0  0.00000000000E+00  0.00000000000E+00 -0.18056228478E+04  0.19012427846E+04  0.59535725195E+03 0.  0.
        4    1    3    3  502    0  0.95698648100E+02  0.27019835663E+03 -0.11591951989E+04  0.11941107592E+04  0.12699999809E+01 0.  1.
       -4    1    3    3    0  502 -0.95698648100E+02 -0.27019835663E+03 -0.64642764887E+03  0.70713202537E+03  0.12699999809E+01 0. -1.
</event>
<event>
 5   0  0.4695625E-02  0.5983448E+03  0.7818609E-02  0.9908846E-01
       -3   -1    0    0    0  501  0.00000000000E+00  0.00000000000E+00  0.38354378831E+03  0.38354380161E+03  0.10100000352E+00 0. -1.
        3   -1    0    0  501    0  0.00000000000E+00  0.00000000000E+00 -0.23336086711E+03  0.23336088897E+03  0.10100000352E+00 0.  1.
    10030    2    1    2    0    0  0.00000000000E+00  0.00000000000E+00  0.15018292120E+03  0.61690469058E+03  0.59834478977E+03 0.  0.
        5    1    3    3  502    0  0.10792321900E+03  0.92899536010E+02 -0.19613562513E+03  0.24242322172E+03  0.46999998093E+01 0.  1.
       -5    1    3    3    0  502 -0.10792321900E+03 -0.92899536010E+02  0.34631854632E+03  0.37448146886E+03  0.46999998093E+01 0. -1.
</event>
<event>
 5   0  0.1206238E-01  0.6043635E+03  0.7818609E-02  0.9896394E-01
        2   -1    0    0  501    0  0.00000000000E+00  0.00000000000E+00  0.50893577332E+03  0.50893577333E+03  0.25500000920E-02 0. -1.
       -2   -1    0    0    0  501  0.00000000000E+00  0.00000000000E+00 -0.17942107608E+03  0.17942107610E+03  0.25500000920E-02 0.  1.
    10030    2    1    2    0    0  0.00000000000E+00  0.00000000000E+00  0.32951469724E+03  0.68835684943E+03  0.60436348041E+03 0.  0.
        5    1    3    3  502    0 -0.15256682404E+03 -0.42423921689E+02  0.45784300508E+03  0.48447779332E+03  0.46999998093E+01 0. -1.
       -5    1    3    3    0  502  0.15256682404E+03  0.42423921689E+02 -0.12832830784E+03  0.20387905610E+03  0.46999998093E+01 0.  1.
</event>
<event>
 5   0  0.1219020E-01  0.5919651E+03  0.7818609E-02  0.9922217E-01
        2   -1    0    0  501    0  0.00000000000E+00  0.00000000000E+00  0.10959445478E+04  0.10959445478E+04  0.25500000920E-02 0. -1.
       -2   -1    0    0    0  501  0.00000000000E+00  0.00000000000E+00 -0.79936233197E+02  0.79936233238E+02  0.25500000920E-02 0.  1.
    10030    2    1    2    0    0  0.00000000000E+00  0.00000000000E+00  0.10160083146E+04  0.11758807810E+04  0.59196513062E+03 0.  0.
        2    1    3    3  502    0 -0.87338193839E+02 -0.53500179515E+02  0.10596214395E+04  0.10645599205E+04  0.25500000920E-02 0. -1.
       -2    1    3    3    0  502  0.87338193839E+02  0.53500179515E+02 -0.43613124920E+02  0.11132086050E+03  0.25500000920E-02 0.  1.
</event>
<event>
 5   0  0.1166419E-01  0.6005058E+03  0.7818609E-02  0.9904357E-01
       -2   -1    0    0    0  501  0.00000000000E+00  0.00000000000E+00  0.70130077198E+03  0.70130077199E+03  0.25500000920E-02 0. -1.
        2   -1    0    0  501    0  0.00000000000E+00  0.00000000000E+00 -0.12854943343E+03  0.12854943346E+03  0.25500000920E-02 0.  1.
    10030    2    1    2    0    0  0.00000000000E+00  0.00000000000E+00  0.57275133855E+03  0.82985020544E+03  0.60050584316E+03 0.  0.
        1    1    3    3  502    0  0.61342649789E+02 -0.12117456874E+03  0.65642452547E+03  0.67032779627E+03  0.50400001928E-02 0. -1.
       -1    1    3    3    0  502 -0.61342649789E+02  0.12117456874E+03 -0.83673186925E+02  0.15952240917E+03  0.50400001928E-02 0.  1.
</event>
<event>
 5   0  0.1146468E-01  0.5879362E+03  0.7818609E-02  0.9930756E-01
        2   -1    0    0  501    0  0.00000000000E+00  0.00000000000E+00  0.12748551737E+04  0.12748551737E+04  0.25500000920E-02 0. -1.
       -2   -1    0    0    0  501  0.00000000000E+00  0.00000000000E+00 -0.67785924820E+02  0.67785924868E+02  0.25500000920E-02 0.  1.
    10030    2    1    2    0    0  0.00000000000E+00  0.00000000000E+00  0.12070692489E+04  0.13426410986E+04  0.58793617679E+03 0.  0.
        4    1    3    3  502    0 -0.29113296916E+03  0.18464772519E+02  0.68638649796E+03  0.74580653727E+03  0.12699999809E+01 0. -1.
       -4    1    3    3    0  502  0.29113296916E+03 -0.18464772519E+02  0.52068275092E+03  0.59683456130E+03  0.12699999809E+01 0.  1.
</event>
<event>
 5   0  0.1146468E-01  0.6082476E+03  0.7818609E-02  0.9888441E-01
        2   -1    0    0  501    0  0.00000000000E+00  0.00000000000E+00  0.18949190400E+04  0.18949190400E+04  0.25500000920E-02 0.  1.
       -2   -1    0    0    0  501  0.00000000000E+00  0.00000000000E+00 -0.48810159427E+02  0.48810159494E+02  0.25500000920E-02 0. -1.
    10030    2    1    2    0    0  0.00000000000E+00  0.00000000000E+00  0.18461088806E+04  0.19437291995E+04  0.60824764862E+03 0.  0.
        4    1    3    3  502    0  0.52161192342E+02  0.67234710656E+02 -0.99815931509E+01  0.85688630549E+02  0.12699999809E+01 0. -1.
       -4    1    3    3    0  502 -0.52161192342E+02 -0.67234710656E+02  0.18560904738E+04  0.18580405690E+04  0.12699999809E+01 0.  1.
</event>
<event>
 5   0  0.1206238E-01  0.5958758E+03  0.7818609E-02  0.9914000E-01
        2   -1    0    0  501    0  0.00000000000E+00  0.00000000000E+00  0.15743473684E+04  0.15743473684E+04  0.25500000920E-02 0.  1.
       -2   -1    0    0    0  501  0.00000000000E+00  0.00000000000E+00 -0.56383366188E+02  0.56383366246E+02  0.25500000920E-02 0. -1.
    10030    2    1    2    0    0  0.00000000000E+00  0.00000000000E+00  0.15179640023E+04  0.16307307347E+04  0.59587584019E+03 0.  0.
        5    1    3    3  502    0 -0.19619124451E+03  0.72003319690E+02  0.13399704802E+04  0.13561778867E+04  0.46999998093E+01 0.  1.
       -5    1    3    3    0  502  0.19619124451E+03 -0.72003319690E+02  0.17799352204E+03  0.27455284802E+03  0.46999998093E+01 0. -1.
</event>
<event>
 5   0  0.7123340E-02  0.5972381E+03  0.7818609E-02  0.9911153E-01
       -1   -1    0    0    0  501  0.00000000000E+00  0.00000000000E+00  0.10228681461E+03  0.10228681473E+03  0.50400001928E-02 0.  1.
        1   -1    0    0  501    0  0.00000000000E+00  0.00000000000E+00 -0.87179700123E+03  0.87179700124E+03  0.50400001928E-02 0. -1.
    10030    2    1    2    0    0  0.00000000000E+00  0.00000000000E+00 -0.76951018662E+03  0.97408381598E+03  0.59723810431E+03 0.  0.
        2    1    3    3  502    0  0.26840140315E+03  0.39219337811E+02 -0.18107264641E+03  0.32613612642E+03  0.25500000920E-02 0. -1.
       -2    1    3    3    0  502 -0.26840140315E+03 -0.39219337811E+02 -0.58843754021E+03  0.64794768956E+03  0.25500000920E-02 0.  1.
</event>
<event>
 5   0  0.1206238E-01  0.5925397E+03  0.7818609E-02  0.9921006E-01
       -2   -1    0    0    0  501  0.00000000000E+00  0.00000000000E+00  0.20300903995E+03  0.20300903996E+03  0.25500000920E-02 0.  1.
        2   -1    0    0  501    0  0.00000000000E+00  0.00000000000E+00 -0.43237398131E+03  0.43237398132E+03  0.25500000920E-02 0. -1.
    10030    2    1    2    0    0  0.00000000000E+00  0.00000000000E+00 -0.22936494136E+03  0.63538302128E+03  0.59253970956E+03 0.  0.
        5    1    3    3  502    0  0.67133238961E+02  0.12740824228E+03 -0.39227062649E+03  0.41789719595E+03  0.46999998093E+01 0. -1.
       -5    1    3    3    0  502 -0.67133238961E+02 -0.12740824228E+03  0.16290568513E+03  0.21748582533E+03  0.46999998093E+01 0.  1.
</event>
<event>
 5   0  0.1175861E-01  0.6019136E+03  0.7818609E-02  0.9901444E-01
        2   -1    0    0  501    0  0.00000000000E+00  0.00000000000E+00  0.23195397677E+03  0.23195397678E+03  0.25500000920E-02 0.  1.
       -2   -1    0    0    0  501  0.00000000000E+00  0.00000000000E+00 -0.39048694165E+03  0.39048694166E+03  0.25500000920E-02 0. -1.
    10030    2    1    2    0    0  0.00000000000E+00  0.00000000000E+00 -0.15853296488E+03  0.62244091844E+03  0.60191361174E+03 0.  0.
        3    1    3    3  502    0 -0.21819477462E+03 -0.44120945470E+01  0.13503647996E+03  0.25663843705E+03  0.10100000352E+00 0.  1.
       -3    1    3    3    0  502  0.21819477462E+03  0.44120945470E+01 -0.29356944484E+03  0.36580248139E+03  0.10100000352E+00 0. -1.
</event>
<event>
 5   0  0.4695625E-02  0.5991666E+03  0.7818609E-02  0.9907137E-01
        4   -1    0    0  501    0  0.00000000000E+00  0.00000000000E+00  0.30107918098E+03  0.30108185950E+03  0.12699999809E+01 0. -1.
       -4   -1    0    0    0  501  0.00000000000E+00  0.00000000000E+00 -0.29808950696E+03  0.29809221234E+03  0.12699999809E+01 0.  1.
    10030    2    1    2    0    0  0.00000000000E+00  0.00000000000E+00  0.29896740243E+01  0.59917407185E+03  0.59916661308E+03 0.  0.
        4    1    3    3  502    0  0.23947628379E+03  0.15231196055E+03  0.97416419072E+02  0.30006565186E+03  0.12699999809E+01 0. -1.
       -4    1    3    3    0  502 -0.23947628379E+03 -0.15231196055E+03 -0.94426745048E+02  0.29910841998E+03  0.12699999809E+01 0.  1.
</event>
<event>
 5   0  0.7266519E-02  0.6069123E+03  0.7818609E-02  0.9891168E-01
        1   -1    0    0  501    0  0.00000000000E+00  0.00000000000E+00  0.14589422884E+04  0.14589422884E+04  0.50400001928E-02 0.  1.
       -1   -1    0    0    0  501  0.00000000000E+00  0.00000000000E+00 -0.63118077575E+02  0.63118077776E+02  0.50400001928E-02 0. -1.
    10030    2    1    2    0    0  0.00000000000E+00  0.00000000000E+00  0.13958242108E+04  0.15220603662E+04  0.60691229250E+03 0.  0.
        4    1    3    3  502    0 -0.26381900699E+03 -0.68537832888E+02  0.10323738983E+04  0.10677524909E+04  0.12699999809E+01 0.  1.
       -4    1    3    3    0  502  0.26381900699E+03  0.68537832888E+02  0.36345031249E+03  0.45430787527E+03  0.12699999809E+01 0. -1.
</event>
<event>
 5   0  0.7221069E-02  0.5997279E+03  0.7818609E-02  0.9905971E-01
       -1   -1    0    0    0  501  0.00000000000E+00  0.00000000000E+00  0.45931978047E+03  0.45931978050E+03  0.50400001928E-02 0. -1.
        1   -1    0    0  501    0  0.00000000000E+00  0.00000000000E+00 -0.19576426523E+03  0.19576426530E+03  0.50400001928E-02 0.  1.
    10030    2    1    2    0    0  0.00000000000E+00  0.00000000000E+00  0.26355551524E+03  0.65508404580E+03  0.59972793619E+03 0.  0.
        5    1    3    3  502    0  0.17040955812E+03  0.29427555250E+02  0.39931575456E+03  0.43517876826E+03  0.46999998093E+01 0. -1.
       -5    1    3    3    0  502 -0.17040955812E+03 -0.29427555250E+02 -0.13576023932E+03  0.21990527753E+03  0.46999998093E+01 0.  1.
</event>
<event>
 5   0  0.7221069E-02  0.6025001E+03  0.7818609E-02  0.9900233E-01
       -1   -1    0    0    0  501  0.00000000000E+00  0.00000000000E+00  0.15000077881E+03  0.15000077889E+03  0.50400001928E-02 0.  1.
        1   -1    0    0  501    0  0.00000000000E+00  0.00000000000E+00 -0.60500745131E+03  0.60500745133E+03  0.50400001928E-02 0. -1.
    10030    2    1    2    0    0  0.00000000000E+00  0.00000000000E+00 -0.45500667250E+03  0.75500823022E+03  0.60250008771E+03 0.  0.
        5    1    3    3  502    0 -0.16712989784E+03  0.23284983687E+03 -0.34356501523E+03  0.44744883391E+03  0.46999998093E+01 0. -1.
       -5    1    3    3    0  502  0.16712989784E+03 -0.23284983687E+03 -0.11144165727E+03  0.30755939631E+03  0.46999998093E+01 0.  1.
</event>
<event>
 5   0  0.4695625E-02  0.5998183E+03  0.7818609E-02  0.9905783E-01
        3   -1    0    0  501    0  0.00000000000E+00  0.00000000000E+00  0.90164381943E+03  0.90164382509E+03  0.10100000352E+00 0. -1.
       -3   -1    0    0    0  501  0.00000000000E+00  0.00000000000E+00 -0.99757223569E+02  0.99757274698E+02  0.10100000352E+00 0.  1.
    10030    2    1    2    0    0  0.00000000000E+00  0.00000000000E+00  0.80188659586E+03  0.10014010998E+04  0.59981834753E+03 0.  0.
        1    1    3    3  502    0  0.18129406825E+03 -0.23470527738E+03  0.32644124649E+03  0.44104194114E+03  0.50400001928E-02 0.  1.
       -1    1    3    3    0  502 -0.18129406825E+03  0.23470527738E+03  0.47544534937E+03  0.56035915865E+03  0.50400001928E-02 0. -1.
</event>
<event>
 5   0  0.1166419E-01  0.6085176E+03  0.7818609E-02  0.9887891E-01
       -2   -1    0    0    0  501  0.00000000000E+00  0.00000000000E+00  0.56324561559E+02  0.56324561617E+02  0.25500000920E-02 0. -1.
        2   -1    0    0  501    0  0.00000000000E+00  0.00000000000E+00 -0.16435711276E+04  0.16435711276E+04  0.25500000920E-02 0.  1.
    10030    2    1    2    0    0  0.00000000000E+00  0.00000000000E+00 -0.15872465660E+04  0.16998956892E+04  0.60851761914E+03 0.  0.
        1    1    3    3  502    0 -0.15439599204E+03  0.14730731682E+03 -0.13994712259E+04  0.14156473008E+04  0.50400001928E-02 0.  1.
       -1    1    3    3    0  502  0.15439599204E+03 -0.14730731682E+03 -0.18777534007E+03  0.28424838840E+03  0.50400001928E-02 0. -1.
</event>
<event>
 5   0  0.1166419E-01  0.4489491E+03  0.7818609E-02  0.1028036E+00
       -2   -1    0    0    0  501  0.00000000000E+00  0.00000000000E+00  0.57672790551E+02  0.57672790607E+02  0.25500000920E-02 0.  1.
        2   -1    0    0  501    0  0.00000000000E+00  0.00000000000E+00 -0.87370169616E+03  0.87370169616E+03  0.25500000920E-02 0. -1.
    10030    2    1    2    0    0  0.00000000000E+00  0.00000000000E+00 -0.81602890561E+03  0.93137448677E+03  0.44894906150E+03 0.  0.
        1    1    3    3  502    0 -0.14227514396E+03 -0.49776685863E+02 -0.62931855566E+02  0.16334121806E+03  0.50400001928E-02 0.  1.
       -1    1    3    3    0  502  0.14227514396E+03  0.49776685863E+02 -0.75309705004E+03  0.76803326871E+03  0.50400001928E-02 0. -1.
</event>
<event>
 5   0  0.7266519E-02  0.5949296E+03  0.7818609E-02  0.9915982E-01
       -1   -1    0    0    0  501  0.00000000000E+00  0.00000000000E+00  0.11723797094E+03  0.11723797105E+03  0.50400001928E-02 0. -1.
        1   -1    0    0  501    0  0.00000000000E+00  0.00000000000E+00 -0.75474950886E+03  0.75474950887E+03  0.50400001928E-02 0.  1.
    10030    2    1    2    0    0  0.00000000000E+00  0.00000000000E+00 -0.63751153792E+03  0.87198747992E+03  0.59492957916E+03 0.  0.
        4    1    3    3  502    0 -0.31623789524E+02  0.11829788207E+03  0.78578982818E+02  0.14550162338E+03  0.12699999809E+01 0. -1.
       -4    1    3    3    0  502  0.31623789524E+02 -0.11829788207E+03 -0.71609052073E+03  0.72648585654E+03  0.12699999809E+01 0.  1.
</event>
<event>
 5   0  0.1219020E-01  0.6008396E+03  0.7818609E-02  0.9903666E-01
       -2   -1    0    0    0  501  0.00000000000E+00  0.00000000000E+00  0.52210987439E+02  0.52210987501E+02  0.25500000920E-02 0. -1.
        2   -1    0    0  501    0  0.00000000000E+00  0.00000000000E+00 -0.17286028340E+04  0.17286028340E+04  0.25500000920E-02 0.  1.
    10030    2    1    2    0    0  0.00000000000E+00  0.00000000000E+00 -0.16763918465E+04  0.17808138215E+04  0.60083961557E+03 0.  0.
        2    1    3    3  502    0 -0.26396130371E+03  0.13429474128E+03 -0.98761210200E+03  0.10310617399E+04  0.25500000920E-02 0.  1.
       -2    1    3    3    0  502  0.26396130371E+03 -0.13429474128E+03 -0.68877974454E+03  0.74975208162E+03  0.25500000920E-02 0. -1.
</event>
<event>
 5   0  0.4695625E-02  0.5795849E+03  0.7818609E-02  0.9948690E-01
       -3   -1    0    0    0  501  0.00000000000E+00  0.00000000000E+00  0.26247295189E+03  0.26247297132E+03  0.10100000352E+00 0.  1.
        3   -1    0    0  501    0  0.00000000000E+00  0.00000000000E+00 -0.31995548551E+03  0.31995550145E+03  0.10100000352E+00 0. -1.
    10030    2    1    2    0    0  0.00000000000E+00  0.00000000000E+00 -0.57482533620E+02  0.58242847277E+03  0.57958492408E+03 0.  0.
        2    1    3    3  502    0  0.28753842530E+03  0.36073423762E+02 -0.28924150843E+02  0.29123228605E+03  0.25500000920E-02 0. -1.
       -2    1    3    3    0  502 -0.28753842530E+03 -0.36073423762E+02 -0.28558382777E+02  0.29119618672E+03  0.25500000920E-02 0.  1.
</event>
<event>
 5   0  0.1206238E-01  0.5881619E+03  0.7818609E-02  0.9930275E-01
       -2   -1    0    0    0  501  0.00000000000E+00  0.00000000000E+00  0.84390371382E+02  0.84390371421E+02  0.25500000920E-02 0. -1.
        2   -1    0    0  501    0  0.00000000000E+00  0.00000000000E+00 -0.10248040894E+04  0.10248040894E+04  0.25500000920E-02 0.  1.
    10030    2    1    2    0    0  0.00000000000E+00  0.00000000000E+00 -0.94041371803E+03  0.11091944608E+04  0.58816187473E+03 0.  0.
        5    1    3    3  502    0 -0.25096798918E+03 -0.15375609516E+02 -0.18271176206E+03  0.31084886835E+03  0.46999998093E+01 0. -1.
       -5    1    3    3    0  502  0.25096798918E+03  0.15375609516E+02 -0.75770195597E+03  0.79834559249E+03  0.46999998093E+01 0.  1.
</event>
<event>
 5   0  0.1206238E-01  0.5889310E+03  0.7818609E-02  0.9928641E-01
        2   -1    0    0  501    0  0.00000000000E+00  0.00000000000E+00  0.68127936073E+03  0.68127936073E+03  0.25500000920E-02 0. -1.
       -2   -1    0    0    0  501  0.00000000000E+00  0.00000000000E+00 -0.12727514365E+03  0.12727514368E+03  0.25500000920E-02 0.  1.
    10030    2    1    2    0    0  0.00000000000E+00  0.00000000000E+00  0.55400421707E+03  0.80855450441E+03  0.58893099262E+03 0.  0.
        5    1    3    3  502    0  0.19810044071E+02  0.27333943860E+03  0.12925566979E+03  0.30304455895E+03  0.46999998093E+01 0. -1.
       -5    1    3    3    0  502 -0.19810044071E+02 -0.27333943860E+03  0.42474854729E+03  0.50550994546E+03  0.46999998093E+01 0.  1.
</event>
<event>
 5   0  0.7263385E-02  0.5956579E+03  0.7818609E-02  0.9914456E-01
       -1   -1    0    0    0  501  0.00000000000E+00  0.00000000000E+00  0.16660814999E+03  0.16660815007E+03  0.50400001928E-02 0. -1.
        1   -1    0    0  501    0  0.00000000000E+00  0.00000000000E+00 -0.53239938329E+03  0.53239938331E+03  0.50400001928E-02 0.  1.
    10030    2    1    2    0    0  0.00000000000E+00  0.00000000000E+00 -0.36579123329E+03  0.69900753338E+03  0.59565787611E+03 0.  0.
        1    1    3    3  502    0 -0.46655443459E+02 -0.24142265529E+03 -0.38010190271E+03  0.45270198294E+03  0.50400001928E-02 0.  1.
       -1    1    3    3    0  502  0.46655443459E+02  0.24142265529E+03  0.14310669419E+02  0.24630555044E+03  0.50400001928E-02 0. -1.
</event>
<event>
 5   0  0.7266519E-02  0.6031632E+03  0.7818609E-02  0.9898865E-01
        1   -1    0    0  501    0  0.00000000000E+00  0.00000000000E+00  0.81866419994E+03  0.81866419996E+03  0.50400001928E-02 0.  1.
       -1   -1    0    0    0  501  0.00000000000E+00  0.00000000000E+00 -0.11109739381E+03  0.11109739392E+03  0.50400001928E-02 0. -1.
    10030    2    1    2    0    0  0.00000000000E+00  0.00000000000E+00  0.70756680613E+03  0.92976159388E+03  0.60316319211E+03 0.  0.
        4    1    3    3  502    0  0.83332425171E+01 -0.11650375983E+03  0.78237826502E+03  0.79104989189E+03  0.12699999809E+01 0.  1.
       -4    1    3    3    0  502 -0.83332425171E+01  0.11650375983E+03 -0.74811458890E+02  0.13871170198E+03  0.12699999809E+01 0. -1.
</event>
<event>
 5   0  0.1175861E-01  0.5933723E+03  0.7818609E-02  0.9919253E-01
       -2   -1    0    0    0  501  0.00000000000E+00  0.00000000000E+00  0.10218532675E+03  0.10218532678E+03  0.25500000920E-02 0. -1.
        2   -1    0    0  501    0  0.00000000000E+00  0.00000000000E+00 -0.86140231228E+03  0.86140231228E+03  0.25500000920E-02 0.  1.
    10030    2    1    2    0    0  0.00000000000E+00  0.00000000000E+00 -0.75921698553E+03  0.96358763907E+03  0.59337231739E+03 0.  0.
        3    1    3    3  502    0  0.90828115669E+02 -0.20374263412E+03 -0.69725711241E+03  0.73207123872E+03  0.10100000352E+00 0.  1.
       -3    1    3    3    0  502 -0.90828115669E+02  0.20374263412E+03 -0.61959873123E+02  0.23151640035E+03  0.10100000352E+00 0. -1.
</event>
<event>
 5   0  0.1166419E-01  0.5929093E+03  0.7818609E-02  0.9920227E-01
        2   -1    0    0  501    0  0.00000000000E+00  0.00000000000E+00  0.22539349671E+04  0.22539349671E+04  0.25500000920E-02 0.  1.
       -2   -1    0    0    0  501  0.00000000000E+00  0.00000000000E+00 -0.38991967698E+02  0.38991967782E+02  0.25500000920E-02 0. -1.
    10030    2    1    2    0    0  0.00000000000E+00  0.00000000000E+00  0.22149429994E+04  0.22929269349E+04  0.59290930008E+03 0.  0.
        1    1    3    3  502    0  0.22177428326E+03  0.57879120212E+02  0.18345914936E+04  0.18488536377E+04  0.50400001928E-02 0.  1.
       -1    1    3    3    0  502 -0.22177428326E+03 -0.57879120212E+02  0.38035150582E+03  0.44407329718E+03  0.50400001928E-02 0. -1.
</event>
<event>
 5   0  0.1206238E-01  0.5952409E+03  0.7818609E-02  0.9915329E-01
        2   -1    0    0  501    0  0.00000000000E+00  0.00000000000E+00  0.12542091608E+04  0.12542091608E+04  0.25500000920E-02 0.  1.
       -2   -1    0    0    0  501  0.00000000000E+00  0.00000000000E+00 -0.70624531649E+02  0.70624531695E+02  0.25500000920E-02 0. -1.
    10030    2    1    2    0    0  0.00000000000E+00  0.00000000000E+00  0.11835846291E+04  0.13248336925E+04  0.59524090787E+03 0.  0.
        5    1    3    3  502    0 -0.13586790464E+03  0.11728893258E+03  0.11200835496E+04  0.11343835459E+04  0.46999998093E+01 0.  1.
       -5    1    3    3    0  502  0.13586790464E+03 -0.11728893258E+03  0.63501079534E+02  0.19045014654E+03  0.46999998093E+01 0. -1.
</event>
<event>
 5   0  0.4695625E-02  0.5971585E+03  0.7818609E-02  0.9911319E-01
       -4   -1    0    0    0  501  0.00000000000E+00  0.00000000000E+00  0.73176357063E+03  0.73176467269E+03  0.12699999809E+01 0. -1.
        4   -1    0    0  501    0  0.00000000000E+00  0.00000000000E+00 -0.12182385646E+03  0.12183047608E+03  0.12699999809E+01 0.  1.
    10030    2    1    2    0    0  0.00000000000E+00  0.00000000000E+00  0.60993971417E+03  0.85359514877E+03  0.59715845726E+03 0.  0.
        4    1    3    3  502    0 -0.92406806142E+02 -0.70141266685E+02  0.69822924691E+03  0.70780259201E+03  0.12699999809E+01 0. -1.
       -4    1    3    3    0  502  0.92406806142E+02  0.70141266685E+02 -0.88289532743E+02  0.14579255676E+03  0.12699999809E+01 0.  1.
</event>
<event>
 5   0  0.1175861E-01  0.6047791E+03  0.7818609E-02  0.9895540E-01
       -2   -1    0    0    0  501  0.00000000000E+00  0.00000000000E+00  0.59727110921E+02  0.59727110975E+02  0.25500000920E-02 0. -1.
        2   -1    0    0  501    0  0.00000000000E+00  0.00000000000E+00 -0.15309536885E+04  0.15309536885E+04  0.25500000920E-02 0.  1.
    10030    2    1    2    0    0  0.00000000000E+00  0.00000000000E+00 -0.14712265775E+04  0.15906807994E+04  0.60477910285E+03 0.  0.
        3    1    3    3  502    0  0.61804335273E+02 -0.29579024861E+03 -0.70588131199E+03  0.76784118400E+03  0.10100000352E+00 0. -1.
       -3    1    3    3    0  502 -0.61804335273E+02  0.29579024861E+03 -0.76534526555E+03  0.82283961544E+03  0.10100000352E+00 0.  1.
</event>
<event>
 5   0  0.1146468E-01  0.5975900E+03  0.7818609E-02  0.9910419E-01
       -2   -1    0    0    0  501  0.00000000000E+00  0.00000000000E+00  0.77111719124E+02  0.77111719166E+02  0.25500000920E-02 0.  1.
        2   -1    0    0  501    0  0.00000000000E+00  0.00000000000E+00 -0.11577806461E+04  0.11577806461E+04  0.25500000920E-02 0. -1.
    10030    2    1    2    0    0  0.00000000000E+00  0.00000000000E+00 -0.10806689270E+04  0.12348923652E+04  0.59759001335E+03 0.  0.
        4    1    3    3  502    0 -0.25153953258E+03  0.68971961061E+02 -0.84155214571E+03  0.88104534204E+03  0.12699999809E+01 0. -1.
       -4    1    3    3    0  502  0.25153953258E+03 -0.68971961061E+02 -0.23911678124E+03  0.35384702321E+03  0.12699999809E+01 0.  1.
</event>
<event>
 5   0  0.7221069E-02  0.6130462E+03  0.7818609E-02  0.9878703E-01
       -1   -1    0    0    0  501  0.00000000000E+00  0.00000000000E+00  0.60288717811E+03  0.60288717813E+03  0.50400001928E-02 0. -1.
        1   -1    0    0  501    0  0.00000000000E+00  0.00000000000E+00 -0.15584409130E+03  0.15584409138E+03  0.50400001928E-02 0.  1.
    10030    2    1    2    0    0  0.00000000000E+00  0.00000000000E+00  0.44704308681E+03  0.75873126951E+03  0.61304617923E+03 0.  0.
        5    1    3    3  502    0 -0.83575392604E+02  0.28929742896E+03  0.29414810359E+03  0.42097867582E+03  0.46999998093E+01 0. -1.
       -5    1    3    3    0  502  0.83575392604E+02 -0.28929742896E+03  0.15289498322E+03  0.33775259369E+03  0.46999998093E+01 0.  1.
</event>
<event>
 5   0  0.1175861E-01  0.6126101E+03  0.7818609E-02  0.9879584E-01
        2   -1    0    0  501    0  0.00000000000E+00  0.00000000000E+00  0.14654758908E+04  0.14654758908E+04  0.25500000920E-02 0.  1.
       -2   -1    0    0    0  501  0.00000000000E+00  0.00000000000E+00 -0.64022062161E+02  0.64022062212E+02  0.25500000920E-02 0. -1.
    10030    2    1    2    0    0  0.00000000000E+00  0.00000000000E+00  0.14014538286E+04  0.15294979530E+04  0.61261011620E+03 0.  0.
        3    1    3    3  502    0  0.25475842835E+03 -0.12181704462E+03  0.40445557102E+03  0.49328041549E+03  0.10100000352E+00 0. -1.
       -3    1    3    3    0  502 -0.25475842835E+03  0.12181704462E+03  0.99699825761E+03  0.10362175375E+04  0.10100000352E+00 0.  1.
</event>
<event>
 5   0  0.1146468E-01  0.5849399E+03  0.7818609E-02  0.9937153E-01
        2   -1    0    0  501    0  0.00000000000E+00  0.00000000000E+00  0.71423657058E+03  0.71423657058E+03  0.25500000920E-02 0. -1.
       -2   -1    0    0    0  501  0.00000000000E+00  0.00000000000E+00 -0.11976238835E+03  0.11976238838E+03  0.25500000920E-02 0.  1.
    10030    2    1    2    0    0  0.00000000000E+00  0.00000000000E+00  0.59447418222E+03  0.83399895896E+03  0.58493992018E+03 0.  0.
        4    1    3    3  502    0 -0.25748144386E+03  0.97007951824E+02  0.15587687302E+03  0.31623796276E+03  0.12699999809E+01 0.  1.
       -4    1    3    3    0  502  0.25748144386E+03 -0.97007951824E+02  0.43859730921E+03  0.51776099620E+03  0.12699999809E+01 0. -1.
</event>
<event>
 5   0  0.1166419E-01  0.4725574E+03  0.7818609E-02  0.1021201E+00
       -2   -1    0    0    0  501  0.00000000000E+00  0.00000000000E+00  0.56615267358E+02  0.56615267415E+02  0.25500000920E-02 0. -1.
        2   -1    0    0  501    0  0.00000000000E+00  0.00000000000E+00 -0.98608786074E+03  0.98608786074E+03  0.25500000920E-02 0.  1.
    10030    2    1    2    0    0  0.00000000000E+00  0.00000000000E+00 -0.92947259338E+03  0.10427031282E+04  0.47255741622E+03 0.  0.
        1    1    3    3  502    0 -0.74369149501E+02 -0.94446722327E+02 -0.91356836878E+03  0.92144349703E+03  0.50400001928E-02 0.  1.
       -1    1    3    3    0  502  0.74369149501E+02  0.94446722327E+02 -0.15904224601E+02  0.12125963113E+03  0.50400001928E-02 0. -1.
</event>
<event>
 5   0  0.7266519E-02  0.5252499E+03  0.7818609E-02  0.1007391E+00
        1   -1    0    0  501    0  0.00000000000E+00  0.00000000000E+00  0.10480795835E+04  0.10480795835E+04  0.50400001928E-02 0.  1.
       -1   -1    0    0    0  501  0.00000000000E+00  0.00000000000E+00 -0.65807840000E+02  0.65807840193E+02  0.50400001928E-02 0. -1.
    10030    2    1    2    0    0  0.00000000000E+00  0.00000000000E+00  0.98227174345E+03  0.11138874237E+04  0.52524985921E+03 0.  0.
        4    1    3    3  502    0 -0.26021726259E+03  0.23253393754E+02  0.43437063586E+03  0.50688579214E+03  0.12699999809E+01 0. -1.
       -4    1    3    3    0  502  0.26021726259E+03 -0.23253393754E+02  0.54790110759E+03  0.60700163152E+03  0.12699999809E+01 0.  1.
</event>
<event>
 5   0  0.1175861E-01  0.6021829E+03  0.7818609E-02  0.9900888E-01
       -2   -1    0    0    0  501  0.00000000000E+00  0.00000000000E+00  0.16559540329E+03  0.16559540331E+03  0.25500000920E-02 0.  1.
        2   -1    0    0  501    0  0.00000000000E+00  0.00000000000E+00 -0.54745510403E+03  0.54745510403E+03  0.25500000920E-02 0. -1.
    10030    2    1    2    0    0  0.00000000000E+00  0.00000000000E+00 -0.38185970074E+03  0.71305050734E+03  0.60218285841E+03 0.  0.
        3    1    3    3  502    0 -0.10492582410E+03 -0.73730565769E+02  0.13164041431E+03  0.18377930725E+03  0.10100000352E+00 0.  1.
       -3    1    3    3    0  502  0.10492582410E+03  0.73730565769E+02 -0.51350011505E+03  0.52927120010E+03  0.10100000352E+00 0. -1.
</event>
<event>
 5   0  0.1206238E-01  0.5991871E+03  0.7818609E-02  0.9907094E-01
       -2   -1    0    0    0  501  0.00000000000E+00  0.00000000000E+00  0.48093981997E+02  0.48093982065E+02  0.25500000920E-02 0. -1.
        2   -1    0    0  501    0  0.00000000000E+00  0.00000000000E+00 -0.18662688563E+04  0.18662688563E+04  0.25500000920E-02 0.  1.
    10030    2    1    2    0    0  0.00000000000E+00  0.00000000000E+00 -0.18181748743E+04  0.19143628383E+04  0.59918711883E+03 0.  0.
        5    1    3    3  502    0  0.29517240579E+03  0.47658686018E+02 -0.85051364015E+03  0.90155068719E+03  0.46999998093E+01 0. -1.
       -5    1    3    3    0  502 -0.29517240579E+03 -0.47658686018E+02 -0.96766123414E+03  0.10128121512E+04  0.46999998093E+01 0.  1.
</event>
<event>
 5   0  0.7424930E-02  0.6045065E+03  0.7818609E-02  0.9896100E-01
       -1   -1    0    0    0  501  0.00000000000E+00  0.00000000000E+00  0.28909375042E+03  0.28909375047E+03  0.50400001928E-02 0. -1.
        1   -1    0    0  501    0  0.00000000000E+00  0.00000000000E+00 -0.31601175380E+03  0.31601175384E+03  0.50400001928E-02 0.  1.
    10030    2    1    2    0    0  0.00000000000E+00  0.00000000000E+00 -0.26918003379E+02  0.60510550431E+03  0.60450648668E+03 0.  0.
        3    1    3    3  502    0 -0.13014958789E+03  0.17997461162E+02 -0.28593121068E+03  0.31467362660E+03  0.10100000352E+00 0.  1.
       -3    1    3    3    0  502  0.13014958789E+03 -0.17997461162E+02  0.25901320730E+03  0.29043187771E+03  0.10100000352E+00 0. -1.
</event>
<event>
 5   0  0.4695625E-02  0.5917287E+03  0.7818609E-02  0.9922716E-01
       -3   -1    0    0    0  501  0.00000000000E+00  0.00000000000E+00  0.13372719567E+04  0.13372719605E+04  0.10100000352E+00 0. -1.
        3   -1    0    0  501    0  0.00000000000E+00  0.00000000000E+00 -0.65458387241E+02  0.65458465161E+02  0.10100000352E+00 0.  1.
    10030    2    1    2    0    0  0.00000000000E+00  0.00000000000E+00  0.12718135694E+04  0.14027304256E+04  0.59172873147E+03 0.  0.
        4    1    3    3  502    0 -0.28546592202E+03 -0.71696109950E+02  0.70714152978E+03  0.76595161783E+03  0.12699999809E+01 0. -1.
       -4    1    3    3    0  502  0.28546592202E+03  0.71696109950E+02  0.56467203963E+03  0.63677880779E+03  0.12699999809E+01 0.  1.
</event>
<event>
 5   0  0.7266519E-02  0.6035201E+03  0.7818609E-02  0.9898130E-01
        1   -1    0    0  501    0  0.00000000000E+00  0.00000000000E+00  0.13473980291E+04  0.13473980291E+04  0.50400001928E-02 0. -1.
       -1   -1    0    0    0  501  0.00000000000E+00  0.00000000000E+00 -0.67581463932E+02  0.67581464120E+02  0.50400001928E-02 0.  1.
    10030    2    1    2    0    0  0.00000000000E+00  0.00000000000E+00  0.12798165652E+04  0.14149794932E+04  0.60352011216E+03 0.  0.
        4    1    3    3  502    0  0.14268919404E+03  0.13544384834E+03  0.10346206970E+03  0.22228642540E+03  0.12699999809E+01 0.  1.
       -4    1    3    3    0  502 -0.14268919404E+03 -0.13544384834E+03  0.11763544955E+04  0.11926930678E+04  0.12699999809E+01 0. -1.
</event>
<event>
 5   0  0.1146468E-01  0.6087298E+03  0.7818609E-02  0.9887458E-01
        2   -1    0    0  501    0  0.00000000000E+00  0.00000000000E+00  0.11981149220E+03  0.11981149222E+03  0.25500000920E-02 0. -1.
       -2   -1    0    0    0  501  0.00000000000E+00  0.00000000000E+00 -0.77319792087E+03  0.77319792087E+03  0.25500000920E-02 0.  1.
    10030    2    1    2    0    0  0.00000000000E+00  0.00000000000E+00 -0.65338642867E+03  0.89300941310E+03  0.60872981421E+03 0.  0.
        4    1    3    3  502    0 -0.14978071012E+03  0.27927620759E+02 -0.71322085704E+03  0.72931462136E+03  0.12699999809E+01 0.  1.
       -4    1    3    3    0  502  0.14978071012E+03 -0.27927620759E+02  0.59834428362E+02  0.16369479174E+03  0.12699999809E+01 0. -1.
</event>
<event>
 5   0  0.7424930E-02  0.5974727E+03  0.7818609E-02  0.9910663E-01
       -1   -1    0    0    0  501  0.00000000000E+00  0.00000000000E+00  0.36390378562E+03  0.36390378565E+03  0.50400001928E-02 0. -1.
        1   -1    0    0  501    0  0.00000000000E+00  0.00000000000E+00 -0.24523900706E+03  0.24523900712E+03  0.50400001928E-02 0.  1.
    10030    2    1    2    0    0  0.00000000000E+00  0.00000000000E+00  0.11866477855E+03  0.60914279277E+03  0.59747268750E+03 0.  0.
        3    1    3    3  502    0  0.14108087745E+03 -0.83684380055E+01 -0.20899946415E+03  0.25229869392E+03  0.10100000352E+00 0.  1.
       -3    1    3    3    0  502 -0.14108087745E+03  0.83684380055E+01  0.32766424270E+03  0.35684409885E+03  0.10100000352E+00 0. -1.
</event>
<event>
 5   0  0.1206238E-01  0.6155166E+03  0.7818609E-02  0.9873727E-01
        2   -1    0    0  501    0  0.00000000000E+00  0.00000000000E+00  0.13100258906E+04  0.13100258906E+04  0.25500000920E-02 0.  1.
       -2   -1    0    0    0  501  0.00000000000E+00  0.00000000000E+00 -0.72300217500E+02  0.72300217545E+02  0.25500000920E-02 0. -1.
    10030    2    1    2    0    0  0.00000000000E+00  0.00000000000E+00  0.12377256731E+04  0.13823261082E+04  0.61551655333E+03 0.  0.
        5    1    3    3  502    0 -0.21791274867E+03  0.21616630497E+03  0.56969936869E+03  0.64714240946E+03  0.46999998093E+01 0. -1.
       -5    1    3    3    0  502  0.21791274867E+03 -0.21616630497E+03  0.66802630445E+03  0.73518369873E+03  0.46999998093E+01 0.  1.
</event>
<event>
 5   0  0.1219020E-01  0.5992690E+03  0.7818609E-02  0.9906924E-01
       -2   -1    0    0    0  501  0.00000000000E+00  0.00000000000E+00  0.27152948917E+03  0.27152948918E+03  0.25500000920E-02 0.  1.
        2   -1    0    0  501    0  0.00000000000E+00  0.00000000000E+00 -0.33064856737E+03  0.33064856738E+03  0.25500000920E-02 0. -1.
    10030    2    1    2    0    0  0.00000000000E+00  0.00000000000E+00 -0.59119078202E+02  0.60217805656E+03  0.59926901004E+03 0.  0.
        2    1    3    3  502    0 -0.39861681111E+01  0.29621647686E+03 -0.74730461438E+02  0.30552370215E+03  0.25500000920E-02 0. -1.
       -2    1    3    3    0  502  0.39861681111E+01 -0.29621647686E+03  0.15611383236E+02  0.29665435442E+03  0.25500000920E-02 0.  1.
</event>
<event>
 5   0  0.1206238E-01  0.5946768E+03  0.7818609E-02  0.9916512E-01
       -2   -1    0    0    0  501  0.00000000000E+00  0.00000000000E+00  0.14987322221E+03  0.14987322224E+03  0.25500000920E-02 0. -1.
        2   -1    0    0  501    0  0.00000000000E+00  0.00000000000E+00 -0.58989948276E+03  0.58989948277E+03  0.25500000920E-02 0.  1.
    10030    2    1    2    0    0  0.00000000000E+00  0.00000000000E+00 -0.44002626055E+03  0.73977270501E+03  0.59467684089E+03 0.  0.
        5    1    3    3  502    0 -0.89802862681E+02 -0.86681281727E+02 -0.55568298336E+03  0.56954707158E+03  0.46999998093E+01 0.  1.
       -5    1    3    3    0  502  0.89802862681E+02  0.86681281727E+02  0.11565672281E+03  0.17022563343E+03  0.46999998093E+01 0. -1.
</event>
<event>
 5   0  0.7424930E-02  0.6598034E+03  0.7818609E-02  0.9788556E-01
        1   -1    0    0  501    0  0.00000000000E+00  0.00000000000E+00  0.89563118390E+03  0.89563118392E+03  0.50400001928E-02 0. -1.
       -1   -1    0    0    0  501  0.00000000000E+00  0.00000000000E+00 -0.12151780430E+03  0.12151780441E+03  0.50400001928E-02 0.  1.
    10030    2    1    2    0    0  0.00000000000E+00  0.00000000000E+00  0.77411337960E+03  0.10171489883E+04  0.65980341009E+03 0.  0.
        3    1    3    3  502    0  0.25155302248E+03 -0.19727678840E+03  0.51265706698E+03  0.60416416055E+03  0.10100000352E+00 0.  1.
       -3    1    3    3    0  502 -0.25155302248E+03  0.19727678840E+03  0.26145631262E+03  0.41298482777E+03  0.10100000352E+00 0. -1.
</event>
<event>
 5   0  0.7123340E-02  0.5941746E+03  0.7818609E-02  0.9917566E-01
        1   -1    0    0  501    0  0.00000000000E+00  0.00000000000E+00  0.23983731172E+03  0.23983731178E+03  0.50400001928E-02 0.  1.
       -1   -1    0    0    0  501  0.00000000000E+00  0.00000000000E+00 -0.36800300913E+03  0.36800300916E+03  0.50400001928E-02 0. -1.
    10030    2    1    2    0    0  0.00000000000E+00  0.00000000000E+00 -0.12816569740E+03  0.60784032094E+03  0.59417456170E+03 0.  0.
        2    1    3    3  502    0 -0.19498539109E+03 -0.17983949232E+03 -0.20094821242E+03  0.33277880013E+03  0.25500000920E-02 0.  1.
       -2    1    3    3    0  502  0.19498539109E+03  0.17983949232E+03  0.72782515015E+02  0.27506152081E+03  0.25500000920E-02 0. -1.
</event>
<event>
 5   0  0.1175861E-01  0.6066120E+03  0.7818609E-02  0.9891782E-01
       -2   -1    0    0    0  501  0.00000000000E+00  0.00000000000E+00  0.26389343940E+03  0.26389343941E+03  0.25500000920E-02 0. -1.
        2   -1    0    0  501    0  0.00000000000E+00  0.00000000000E+00 -0.34860483851E+03  0.34860483852E+03  0.25500000920E-02 0.  1.
    10030    2    1    2    0    0  0.00000000000E+00  0.00000000000E+00 -0.84711399114E+02  0.61249827793E+03  0.60661200065E+03 0.  0.
        3    1    3    3  502    0 -0.49084280473E+02  0.15127317004E+03  0.21841708472E+03  0.27018303364E+03  0.10100000352E+00 0. -1.
       -3    1    3    3    0  502  0.49084280473E+02 -0.15127317004E+03 -0.30312848384E+03  0.34231524430E+03  0.10100000352E+00 0.  1.
</event>
<event>
 5   0  0.7123340E-02  0.4449600E+03  0.7818609E-02  0.1029236E+00
        1   -1    0    0  501    0  0.00000000000E+00  0.00000000000E+00  0.42664974797E+03  0.42664974800E+03  0.50400001928E-02 0.  1.
       -1   -1    0    0    0  501  0.00000000000E+00  0.00000000000E+00 -0.11601400685E+03  0.11601400696E+03  0.50400001928E-02 0. -1.
    10030    2    1    2    0    0  0.00000000000E+00  0.00000000000E+00  0.31063574112E+03  0.54266375496E+03  0.44495998392E+03 0.  0.
        2    1    3    3  502    0 -0.78820948851E+02  0.10281700143E+03  0.37590076572E+03  0.39759962706E+03  0.25500000920E-02 0.  1.
       -2    1    3    3    0  502  0.78820948851E+02 -0.10281700143E+03 -0.65265024605E+02  0.14506412790E+03  0.25500000920E-02 0. -1.
</event>
<event>
 5   0  0.1146468E-01  0.5232654E+03  0.7818609E-02  0.1007879E+00
        2   -1    0    0  501    0  0.00000000000E+00  0.00000000000E+00  0.10316928728E+04  0.10316928728E+04  0.25500000920E-02 0.  1.
       -2   -1    0    0    0  501  0.00000000000E+00  0.00000000000E+00 -0.66348878188E+02  0.66348878237E+02  0.25500000920E-02 0. -1.
    10030    2    1    2    0    0  0.00000000000E+00  0.00000000000E+00  0.96534399462E+03  0.10980417510E+04  0.52326538113E+03 0.  0.
        4    1    3    3  502    0 -0.18400218604E+02  0.22936073062E+03  0.22137484080E+03  0.31930134017E+03  0.12699999809E+01 0. -1.
       -4    1    3    3    0  502  0.18400218604E+02 -0.22936073062E+03  0.74396915382E+03  0.77874041087E+03  0.12699999809E+01 0.  1.
</event>
<event>
 5   0  0.7266519E-02  0.6610410E+03  0.7818609E-02  0.9786279E-01
        1   -1    0    0  501    0  0.00000000000E+00  0.00000000000E+00  0.88806471867E+03  0.88806471868E+03  0.50400001928E-02 0. -1.
       -1   -1    0    0    0  501  0.00000000000E+00  0.00000000000E+00 -0.12301333431E+03  0.12301333441E+03  0.50400001928E-02 0.  1.
    10030    2    1    2    0    0  0.00000000000E+00  0.00000000000E+00  0.76505138436E+03  0.10110780531E+04  0.66104100383E+03 0.  0.
        4    1    3    3  502    0  0.95549354746E+01 -0.30316838471E+03  0.18169842169E+03  0.35357926357E+03  0.12699999809E+01 0.  1.
       -4    1    3    3    0  502 -0.95549354746E+01  0.30316838471E+03  0.58335296267E+03  0.65749878953E+03  0.12699999809E+01 0. -1.
</event>
<event>
 5   0  0.7263385E-02  0.6110674E+03  0.7818609E-02  0.9882707E-01
        1   -1    0    0  501    0  0.00000000000E+00  0.00000000000E+00  0.20015101205E+04  0.20015101206E+04  0.50400001928E-02 0.  1.
       -1   -1    0    0    0  501  0.00000000000E+00  0.00000000000E+00 -0.46640197953E+02  0.46640198225E+02  0.50400001928E-02 0. -1.
    10030    2    1    2    0    0  0.00000000000E+00  0.00000000000E+00  0.19548699226E+04  0.20481503188E+04  0.61106735640E+03 0.  0.
        1    1    3    3  502    0 -0.10577576894E+03  0.28479402487E+03  0.86858386482E+03  0.92018154739E+03  0.50400001928E-02 0.  1.
       -1    1    3    3    0  502  0.10577576894E+03 -0.28479402487E+03  0.10862860578E+04  0.11279687714E+04  0.50400001928E-02 0. -1.
</event>
<event>
 5   0  0.7221069E-02  0.6044952E+03  0.7818609E-02  0.9896124E-01
       -1   -1    0    0    0  501  0.00000000000E+00  0.00000000000E+00  0.33096122629E+03  0.33096122633E+03  0.50400001928E-02 0. -1.
        1   -1    0    0  501    0  0.00000000000E+00  0.00000000000E+00 -0.27602507660E+03  0.27602507664E+03  0.50400001928E-02 0.  1.
    10030    2    1    2    0    0  0.00000000000E+00  0.00000000000E+00  0.54936149692E+02  0.60698630297E+03  0.60449515420E+03 0.  0.
        5    1    3    3  502    0 -0.23642109148E+02  0.56284623920E+02 -0.26973241569E+03  0.27659460278E+03  0.46999998093E+01 0.  1.
       -5    1    3    3    0  502  0.23642109148E+02 -0.56284623920E+02  0.32466856538E+03  0.33039170020E+03  0.46999998093E+01 0. -1.
</event>
<event>
 5   0  0.7424930E-02  0.5977479E+03  0.7818609E-02  0.9910089E-01
       -1   -1    0    0    0  501  0.00000000000E+00  0.00000000000E+00  0.66312573652E+02  0.66312573843E+02  0.50400001928E-02 0.  1.
        1   -1    0    0  501    0  0.00000000000E+00  0.00000000000E+00 -0.13470392725E+04  0.13470392725E+04  0.50400001928E-02 0. -1.
    10030    2    1    2    0    0  0.00000000000E+00  0.00000000000E+00 -0.12807266989E+04  0.14133518464E+04  0.59774791045E+03 0.  0.
        3    1    3    3  502    0  0.20791925723E+03 -0.51192362589E+02 -0.11333666180E+04  0.11534170869E+04  0.10100000352E+00 0. -1.
       -3    1    3    3    0  502 -0.20791925723E+03  0.51192362589E+02 -0.14736008089E+03  0.25993475943E+03  0.10100000352E+00 0.  1.
</event>
<event>
 5   0  0.1219020E-01  0.5983866E+03  0.7818609E-02  0.9908759E-01
        2   -1    0    0  501    0  0.00000000000E+00  0.00000000000E+00  0.23690004305E+04  0.23690004305E+04  0.25500000920E-02 0. -1.
       -2   -1    0    0    0  501  0.00000000000E+00  0.00000000000E+00 -0.37786662154E+02  0.37786662240E+02  0.25500000920E-02 0.  1.
    10030    2    1    2    0    0  0.00000000000E+00  0.00000000000E+00  0.23312137684E+04  0.24067870928E+04  0.59838656074E+03 0.  0.
        2    1    3    3  502    0 -0.29609063849E+03  0.42646426623E+02  0.11442346189E+04  0.11826923721E+04  0.25500000920E-02 0. -1.
       -2    1    3    3    0  502  0.29609063849E+03 -0.42646426623E+02  0.11869791495E+04  0.12240947207E+04  0.25500000920E-02 0.  1.
</event>
<event>
 5   0  0.7266519E-02  0.6336231E+03  0.7818609E-02  0.9838004E-01
       -1   -1    0    0    0  501  0.00000000000E+00  0.00000000000E+00  0.13456082535E+03  0.13456082544E+03  0.50400001928E-02 0.  1.
        1   -1    0    0  501    0  0.00000000000E+00  0.00000000000E+00 -0.74590467676E+03  0.74590467678E+03  0.50400001928E-02 0. -1.
    10030    2    1    2    0    0  0.00000000000E+00  0.00000000000E+00 -0.61134385142E+03  0.88046550222E+03  0.63362307087E+03 0.  0.
        4    1    3    3  502    0 -0.11262445342E+03  0.45274181653E+01 -0.71709623685E+03  0.72590177767E+03  0.12699999809E+01 0. -1.
       -4    1    3    3    0  502  0.11262445342E+03 -0.45274181653E+01  0.10575238543E+03  0.15456372455E+03  0.12699999809E+01 0.  1.
</event>
<event>
 5   0  0.1206238E-01  0.6424840E+03  0.7818609E-02  0.9820986E-01
       -2   -1    0    0    0  501  0.00000000000E+00  0.00000000000E+00  0.58355977938E+02  0.58355977994E+02  0.25500000920E-02 0. -1.
        2   -1    0    0  501    0  0.00000000000E+00  0.00000000000E+00 -0.17683950763E+04  0.17683950763E+04  0.25500000920E-02 0.  1.
    10030    2    1    2    0    0  0.00000000000E+00  0.00000000000E+00 -0.17100390984E+04  0.18267510543E+04  0.64248400482E+03 0.  0.
        5    1    3    3  502    0  0.61460988113E+02  0.10217747449E+03 -0.69992588110E+01  0.11953563893E+03  0.46999998093E+01 0. -1.
       -5    1    3    3    0  502 -0.61460988113E+02 -0.10217747449E+03 -0.17030398396E+04  0.17072154154E+04  0.46999998093E+01 0.  1.
</event>
<event>
 5   0  0.4695625E-02  0.6089073E+03  0.7818609E-02  0.9887097E-01
        3   -1    0    0  501    0  0.00000000000E+00  0.00000000000E+00  0.58062086754E+03  0.58062087632E+03  0.10100000352E+00 0. -1.
       -3   -1    0    0    0  501  0.00000000000E+00  0.00000000000E+00 -0.15964293912E+03  0.15964297107E+03  0.10100000352E+00 0.  1.
    10030    2    1    2    0    0  0.00000000000E+00  0.00000000000E+00  0.42097792842E+03  0.74026384739E+03  0.60890733905E+03 0.  0.
        1    1    3    3  502    0  0.18701203786E+03 -0.85254479802E+02  0.48355445141E+03  0.52542053266E+03  0.50400001928E-02 0. -1.
       -1    1    3    3    0  502 -0.18701203786E+03  0.85254479802E+02 -0.62576522993E+02  0.21484331474E+03  0.50400001928E-02 0.  1.
</event>
<event>
 5   0  0.1146468E-01  0.5947247E+03  0.7818609E-02  0.9916411E-01
        2   -1    0    0  501    0  0.00000000000E+00  0.00000000000E+00  0.49737496507E+03  0.49737496508E+03  0.25500000920E-02 0. -1.
       -2   -1    0    0    0  501  0.00000000000E+00  0.00000000000E+00 -0.17778213225E+03  0.17778213227E+03  0.25500000920E-02 0.  1.
    10030    2    1    2    0    0  0.00000000000E+00  0.00000000000E+00  0.31959283281E+03  0.67515709735E+03  0.59472474920E+03 0.  0.
        4    1    3    3  502    0  0.12566114650E+03  0.26912802373E+03  0.14365551149E+03  0.32993807871E+03  0.12699999809E+01 0.  1.
       -4    1    3    3    0  502 -0.12566114650E+03 -0.26912802373E+03  0.17593732132E+03  0.34521901864E+03  0.12699999809E+01 0. -1.
</event>
<event>
 5   0  0.7263385E-02  0.5888482E+03  0.7818609E-02  0.9928816E-01
        1   -1    0    0  501    0  0.00000000000E+00  0.00000000000E+00  0.28258430453E+03  0.28258430457E+03  0.50400001928E-02 0.  1.
       -1   -1    0    0    0  501  0.00000000000E+00  0.00000000000E+00 -0.30675996168E+03  0.30675996172E+03  0.50400001928E-02 0. -1.
    10030    2    1    2    0    0  0.00000000000E+00  0.00000000000E+00 -0.24175657156E+02  0.58934426629E+03  0.58884819929E+03 0.  0.
        1    1    3    3  502    0 -0.83015114971E+02 -0.20259180300E+03 -0.20910539071E+03  0.30275404606E+03  0.50400001928E-02 0. -1.
       -1    1    3    3    0  502  0.83015114971E+02  0.20259180300E+03  0.18492973355E+03  0.28659022023E+03  0.50400001928E-02 0.  1.
</event>
<event>
 5   0  0.1206238E-01  0.5973821E+03  0.7818609E-02  0.9910852E-01
        2   -1    0    0  501    0  0.00000000000E+00  0.00000000000E+00  0.21344988576E+04  0.21344988576E+04  0.25500000920E-02 0. -1.
       -2   -1    0    0    0  501  0.00000000000E+00  0.00000000000E+00 -0.41797325188E+02  0.41797325266E+02  0.25500000920E-02 0.  1.
    10030    2    1    2    0    0  0.00000000000E+00  0.00000000000E+00  0.20927015325E+04  0.21762961829E+04  0.59738209867E+03 0.  0.
        5    1    3    3  502    0 -0.65398378129E+02 -0.48319702972E+02  0.20932619495E+04  0.20948459182E+04  0.46999998093E+01 0. -1.
       -5    1    3    3    0  502  0.65398378129E+02  0.48319702972E+02 -0.56041709007E+00  0.81450264718E+02  0.46999998093E+01 0.  1.
</event>
<event>
 5   0  0.4695625E-02  0.6145765E+03  0.7818609E-02  0.9875618E-01
        3   -1    0    0  501    0  0.00000000000E+00  0.00000000000E+00  0.49281978310E+03  0.49281979345E+03  0.10100000352E+00 0. -1.
       -3   -1    0    0    0  501  0.00000000000E+00  0.00000000000E+00 -0.19160362096E+03  0.19160364758E+03  0.10100000352E+00 0.  1.
    10030    2    1    2    0    0  0.00000000000E+00  0.00000000000E+00  0.30121616215E+03  0.68442344103E+03  0.61457649669E+03 0.  0.
        4    1    3    3  502    0  0.13402997960E+03  0.11176934799E+03  0.43227148476E+03  0.46617236299E+03  0.12699999809E+01 0. -1.
       -4    1    3    3    0  502 -0.13402997960E+03 -0.11176934799E+03 -0.13105532261E+03  0.21825107804E+03  0.12699999809E+01 0.  1.
</event>
<event>
 5   0  0.1166419E-01  0.5966395E+03  0.7818609E-02  0.9912403E-01
        2   -1    0    0  501    0  0.00000000000E+00  0.00000000000E+00  0.34617467778E+03  0.34617467779E+03  0.25500000920E-02 0.  1.
       -2   -1    0    0    0  501  0.00000000000E+00  0.00000000000E+00 -0.25708022236E+03  0.25708022237E+03  0.25500000920E-02 0. -1.
    10030    2    1    2    0    0  0.00000000000E+00  0.00000000000E+00  0.89094455420E+02  0.60325490016E+03  0.59663946616E+03 0.  0.
        1    1    3    3  502    0 -0.11942811740E+02 -0.44305965429E+02  0.34258500431E+03  0.34564452046E+03  0.50400001928E-02 0.  1.
       -1    1    3    3    0  502  0.11942811740E+02  0.44305965429E+02 -0.25349054889E+03  0.25761037969E+03  0.50400001928E-02 0. -1.
</event>
<event>
 5   0  0.1175861E-01  0.5987750E+03  0.7818609E-02  0.9907951E-01
        2   -1    0    0  501    0  0.00000000000E+00  0.00000000000E+00  0.82699054722E+03  0.82699054723E+03  0.25500000920E-02 0. -1.
       -2   -1    0    0    0  501  0.00000000000E+00  0.00000000000E+00 -0.10838439566E+03  0.10838439569E+03  0.25500000920E-02 0.  1.
    10030    2    1    2    0    0  0.00000000000E+00  0.00000000000E+00  0.71860615157E+03  0.93537494291E+03  0.59877498508E+03 0.  0.
        3    1    3    3  502    0 -0.38520131992E+02 -0.36126510770E+02  0.81965697954E+03  0.82135649974E+03  0.10100000352E+00 0. -1.
       -3    1    3    3    0  502  0.38520131992E+02  0.36126510770E+02 -0.10105082797E+03  0.11401844318E+03  0.10100000352E+00 0.  1.
</event>
<event>
 5   0  0.7263385E-02  0.5979846E+03  0.7818609E-02  0.9909596E-01
       -1   -1    0    0    0  501  0.00000000000E+00  0.00000000000E+00  0.59933537599E+02  0.59933537811E+02  0.50400001928E-02 0.  1.
        1   -1    0    0  501    0  0.00000000000E+00  0.00000000000E+00 -0.14915923677E+04  0.14915923677E+04  0.50400001928E-02 0. -1.
    10030    2    1    2    0    0  0.00000000000E+00  0.00000000000E+00 -0.14316588301E+04  0.15515259055E+04  0.59798464001E+03 0.  0.
        1    1    3    3  502    0 -0.14084006043E+03  0.57029919095E+02 -0.13839459289E+04  0.13922624280E+04  0.50400001928E-02 0. -1.
       -1    1    3    3    0  502  0.14084006043E+03 -0.57029919095E+02 -0.47712901163E+02  0.15926347748E+03  0.50400001928E-02 0.  1.
</event>
<event>
 5   0  0.4695625E-02  0.6003007E+03  0.7818609E-02  0.9904782E-01
       -4   -1    0    0    0  501  0.00000000000E+00  0.00000000000E+00  0.52811377185E+03  0.52811529889E+03  0.12699999809E+01 0.  1.
        4   -1    0    0  501    0  0.00000000000E+00  0.00000000000E+00 -0.17058453903E+03  0.17058926653E+03  0.12699999809E+01 0. -1.
    10030    2    1    2    0    0  0.00000000000E+00  0.00000000000E+00  0.35752923282E+03  0.69870456542E+03  0.60030068917E+03 0.  0.
        3    1    3    3  502    0 -0.75346379957E+02 -0.25240924257E+03  0.34623515074E+03  0.43504746007E+03  0.10100000352E+00 0.  1.
       -3    1    3    3    0  502  0.75346379957E+02  0.25240924257E+03  0.11294082086E+02  0.26365710535E+03  0.10100000352E+00 0. -1.
</event>
<event>
 5   0  0.1166419E-01  0.5825031E+03  0.7818609E-02  0.9942386E-01
        2   -1    0    0  501    0  0.00000000000E+00  0.00000000000E+00  0.15000141483E+04  0.15000141483E+04  0.25500000920E-02 0. -1.
       -2   -1    0    0    0  501  0.00000000000E+00  0.00000000000E+00 -0.56551111662E+02  0.56551111719E+02  0.25500000920E-02 0.  1.
    10030    2    1    2    0    0  0.00000000000E+00  0.00000000000E+00  0.14434630367E+04  0.15565652601E+04  0.58250310778E+03 0.  0.
        1    1    3    3  502    0  0.25929360651E+02  0.26104446243E+02  0.14937788078E+04  0.14942318765E+04  0.50400001928E-02 0. -1.
       -1    1    3    3    0  502 -0.25929360651E+02 -0.26104446243E+02 -0.50315771164E+02  0.62333383597E+02  0.50400001928E-02 0.  1.
</event>
<event>
 5   0  0.1175861E-01  0.5923811E+03  0.7818609E-02  0.9921340E-01
        2   -1    0    0  501    0  0.00000000000E+00  0.00000000000E+00  0.11016567351E+04  0.11016567351E+04  0.25500000920E-02 0.  1.
       -2   -1    0    0    0  501  0.00000000000E+00  0.00000000000E+00 -0.79633565930E+02  0.79633565971E+02  0.25500000920E-02 0. -1.
    10030    2    1    2    0    0  0.00000000000E+00  0.00000000000E+00  0.10220231692E+04  0.11812903011E+04  0.59238114175E+03 0.  0.
        3    1    3    3  502    0  0.16632660865E+03 -0.22011451910E+03  0.29610758970E+03  0.40471552620E+03  0.10100000352E+00 0. -1.
       -3    1    3    3    0  502 -0.16632660865E+03  0.22011451910E+03  0.72591557948E+03  0.77657477489E+03  0.10100000352E+00 0.  1.
</event>
<event>
 5   0  0.7221069E-02  0.6044076E+03  0.7818609E-02  0.9896304E-01
       -1   -1    0    0    0  501  0.00000000000E+00  0.00000000000E+00  0.53772171903E+03  0.53772171906E+03  0.50400001928E-02 0. -1.
        1   -1    0    0  501    0  0.00000000000E+00  0.00000000000E+00 -0.16984091763E+03  0.16984091771E+03  0.50400001928E-02 0.  1.
    10030    2    1    2    0    0  0.00000000000E+00  0.00000000000E+00  0.36788080140E+03  0.70756263676E+03  0.60440764464E+03 0.  0.
        5    1    3    3  502    0 -0.28275867880E+03 -0.10383888105E+03  0.21189167036E+03  0.36831393351E+03  0.46999998093E+01 0. -1.
       -5    1    3    3    0  502  0.28275867880E+03  0.10383888105E+03  0.15598913104E+03  0.33924870325E+03  0.46999998093E+01 0.  1.
</event>
<event>
 5   0  0.1175861E-01  0.5926421E+03  0.7818609E-02  0.9920790E-01
        2   -1    0    0  501    0  0.00000000000E+00  0.00000000000E+00  0.17408749837E+03  0.17408749838E+03  0.25500000920E-02 0.  1.
       -2   -1    0    0    0  501  0.00000000000E+00  0.00000000000E+00 -0.50437946689E+03  0.50437946689E+03  0.25500000920E-02 0. -1.
    10030    2    1    2    0    0  0.00000000000E+00  0.00000000000E+00 -0.33029196852E+03  0.67846696528E+03  0.59264208297E+03 0.  0.
        3    1    3    3  502    0  0.14853799531E+03 -0.25621301578E+03 -0.15384159101E+03  0.33373026658E+03  0.10100000352E+00 0.  1.
       -3    1    3    3    0  502 -0.14853799531E+03  0.25621301578E+03 -0.17645037752E+03  0.34473669870E+03  0.10100000352E+00 0. -1.
</event>
<event>
 5   0  0.7123340E-02  0.6109014E+03  0.7818609E-02  0.9883044E-01
        1   -1    0    0  501    0  0.00000000000E+00  0.00000000000E+00  0.70094144597E+03  0.70094144599E+03  0.50400001928E-02 0.  1.
       -1   -1    0    0    0  501  0.00000000000E+00  0.00000000000E+00 -0.13310687948E+03  0.13310687958E+03  0.50400001928E-02 0. -1.
    10030    2    1    2    0    0  0.00000000000E+00  0.00000000000E+00  0.56783456649E+03  0.83404832556E+03  0.61090139505E+03 0.  0.
        2    1    3    3  502    0  0.25348905748E+03  0.15650635245E+03  0.37600189045E+03  0.47971696056E+03  0.25500000920E-02 0.  1.
       -2    1    3    3    0  502 -0.25348905748E+03 -0.15650635245E+03  0.19183267604E+03  0.35433136500E+03  0.25500000920E-02 0. -1.
</event>
<event>
 5   0  0.7266519E-02  0.6136445E+03  0.7818609E-02  0.9877496E-01
       -1   -1    0    0    0  501  0.00000000000E+00  0.00000000000E+00  0.38780926185E+03  0.38780926188E+03  0.50400001928E-02 0.  1.
        1   -1    0    0  501    0  0.00000000000E+00  0.00000000000E+00 -0.24274790688E+03  0.24274790693E+03  0.50400001928E-02 0. -1.
    10030    2    1    2    0    0  0.00000000000E+00  0.00000000000E+00  0.14506135497E+03  0.63055716881E+03  0.61364447886E+03 0.  0.
        4    1    3    3  502    0  0.14904487753E+03  0.21144087291E+03  0.24205226634E+03  0.35427747712E+03  0.12699999809E+01 0.  1.
       -4    1    3    3    0  502 -0.14904487753E+03 -0.21144087291E+03 -0.96990911368E+02  0.27627969169E+03  0.12699999809E+01 0. -1.
</event>
<event>
 5   0  0.1175861E-01  0.5989154E+03  0.7818609E-02  0.9907659E-01
       -2   -1    0    0    0  501  0.00000000000E+00  0.00000000000E+00  0.58644626830E+02  0.58644626885E+02  0.25500000920E-02 0. -1.
        2   -1    0    0  501    0  0.00000000000E+00  0.00000000000E+00 -0.15291241036E+04  0.15291241036E+04  0.25500000920E-02 0.  1.
    10030    2    1    2    0    0  0.00000000000E+00  0.00000000000E+00 -0.14704794767E+04  0.15877687305E+04  0.59891539461E+03 0.  0.
        3    1    3    3  502    0 -0.21101813696E+03 -0.94534994636E+02 -0.12397062370E+04  0.12610856765E+04  0.10100000352E+00 0.  1.
       -3    1    3    3    0  502  0.21101813696E+03  0.94534994636E+02 -0.23077323978E+03  0.32668305395E+03  0.10100000352E+00 0. -1.
</event>
<event>
 5   0  0.7424930E-02  0.6029673E+03  0.7818609E-02  0.9899269E-01
       -1   -1    0    0    0  501  0.00000000000E+00  0.00000000000E+00  0.17759192245E+03  0.17759192252E+03  0.50400001928E-02 0.  1.
        1   -1    0    0  501    0  0.00000000000E+00  0.00000000000E+00 -0.51180482670E+03  0.51180482672E+03  0.50400001928E-02 0. -1.
    10030    2    1    2    0    0  0.00000000000E+00  0.00000000000E+00 -0.33421290425E+03  0.68939674924E+03  0.60296733950E+03 0.  0.
        3    1    3    3  502    0 -0.15855507393E+03 -0.19852351603E+03  0.18456962351E+02  0.25473901850E+03  0.10100000352E+00 0.  1.
       -3    1    3    3    0  502  0.15855507393E+03  0.19852351603E+03 -0.35266986660E+03  0.43465773074E+03  0.10100000352E+00 0. -1.
</event>
<event>
 5   0  0.7263385E-02  0.6473665E+03  0.7818609E-02  0.9811733E-01
       -1   -1    0    0    0  501  0.00000000000E+00  0.00000000000E+00  0.12907179985E+03  0.12907179995E+03  0.50400001928E-02 0.  1.
        1   -1    0    0  501    0  0.00000000000E+00  0.00000000000E+00 -0.81172536482E+03  0.81172536484E+03  0.50400001928E-02 0. -1.
    10030    2    1    2    0    0  0.00000000000E+00  0.00000000000E+00 -0.68265356498E+03  0.94079716479E+03  0.64736652330E+03 0.  0.
        1    1    3    3  502    0 -0.23498709333E+03  0.21629823677E+03 -0.26488166364E+03  0.41492909879E+03  0.50400001928E-02 0. -1.
       -1    1    3    3    0  502  0.23498709333E+03 -0.21629823677E+03 -0.41777190134E+03  0.52586806600E+03  0.50400001928E-02 0.  1.
</event>
<event>
 5   0  0.7266519E-02  0.5648730E+03  0.7818609E-02  0.9981088E-01
       -1   -1    0    0    0  501  0.00000000000E+00  0.00000000000E+00  0.29147862528E+03  0.29147862532E+03  0.50400001928E-02 0. -1.
        1   -1    0    0  501    0  0.00000000000E+00  0.00000000000E+00 -0.27367492353E+03  0.27367492357E+03  0.50400001928E-02 0.  1.
    10030    2    1    2    0    0  0.00000000000E+00  0.00000000000E+00  0.17803701750E+02  0.56515354889E+03  0.56487304948E+03 0.  0.
        4    1    3    3  502    0 -0.14659205041E+03 -0.22490324501E+03 -0.78880413443E+02  0.27981142111E+03  0.12699999809E+01 0. -1.
       -4    1    3    3    0  502  0.14659205041E+03  0.22490324501E+03  0.96684115192E+02  0.28534212778E+03  0.12699999809E+01 0.  1.
</event>
<event>
 5   0  0.1219020E-01  0.6064099E+03  0.7818609E-02  0.9892196E-01
       -2   -1    0    0    0  501  0.00000000000E+00  0.00000000000E+00  0.39328522788E+03  0.39328522789E+03  0.25500000920E-02 0. -1.
        2   -1    0    0  501    0  0.00000000000E+00  0.00000000000E+00 -0.23375715240E+03  0.23375715241E+03  0.25500000920E-02 0.  1.
    10030    2    1    2    0    0  0.00000000000E+00  0.00000000000E+00  0.15952807549E+03  0.62704238030E+03  0.60640987774E+03 0.  0.
        2    1    3    3  502    0  0.94257137258E+02  0.26081424598E+03  0.20651006147E+03  0.34576709549E+03  0.25500000920E-02 0. -1.
       -2    1    3    3    0  502 -0.94257137258E+02 -0.26081424598E+03 -0.46981985984E+02  0.28127528481E+03  0.25500000920E-02 0.  1.
</event>
<event>
 5   0  0.1219020E-01  0.5217920E+03  0.7818609E-02  0.1008242E+00
        2   -1    0    0  501    0  0.00000000000E+00  0.00000000000E+00  0.10451853066E+04  0.10451853066E+04  0.25500000920E-02 0. -1.
       -2   -1    0    0    0  501  0.00000000000E+00  0.00000000000E+00 -0.65124082372E+02  0.65124082422E+02  0.25500000920E-02 0.  1.
    10030    2    1    2    0    0  0.00000000000E+00  0.00000000000E+00  0.98006122419E+03  0.11103093890E+04  0.52179204298E+03 0.  0.
        2    1    3    3  502    0  0.52382447055E+02  0.16215133721E+02  0.10327848188E+04  0.10342394951E+04  0.25500000920E-02 0. -1.
       -2    1    3    3    0  502 -0.52382447055E+02 -0.16215133721E+02 -0.52723594596E+02  0.76069893879E+02  0.25500000920E-02 0.  1.
</event>
<event>
 5   0  0.1219020E-01  0.5882224E+03  0.7818609E-02  0.9930147E-01
       -2   -1    0    0    0  501  0.00000000000E+00  0.00000000000E+00  0.13075007577E+03  0.13075007580E+03  0.25500000920E-02 0.  1.
        2   -1    0    0  501    0  0.00000000000E+00  0.00000000000E+00 -0.66157809714E+03  0.66157809715E+03  0.25500000920E-02 0. -1.
    10030    2    1    2    0    0  0.00000000000E+00  0.00000000000E+00 -0.53082802137E+03  0.79232817294E+03  0.58822236048E+03 0.  0.
        2    1    3    3  502    0 -0.96078572613E+02 -0.92572099366E+02  0.87642440888E+02  0.15963045808E+03  0.25500000920E-02 0.  1.
       -2    1    3    3    0  502  0.96078572613E+02  0.92572099366E+02 -0.61847046226E+03  0.63269771486E+03  0.25500000920E-02 0. -1.
</event>
<event>
 5   0  0.4695625E-02  0.6019690E+03  0.7818609E-02  0.9901330E-01
       -4   -1    0    0    0  501  0.00000000000E+00  0.00000000000E+00  0.56163503463E+03  0.56163647052E+03  0.12699999809E+01 0.  1.
        4   -1    0    0  501    0  0.00000000000E+00  0.00000000000E+00 -0.16129572421E+03  0.16130072396E+03  0.12699999809E+01 0. -1.
    10030    2    1    2    0    0  0.00000000000E+00  0.00000000000E+00  0.40033931042E+03  0.72293719448E+03  0.60196895576E+03 0.  0.
        5    1    3    3  502    0 -0.22829078230E+03  0.91316352991E+02  0.40857660617E+03  0.47687764753E+03  0.46999998093E+01 0.  1.
       -5    1    3    3    0  502  0.22829078230E+03 -0.91316352991E+02 -0.82372957511E+01  0.24605954695E+03  0.46999998093E+01 0. -1.
</event>
<event>
 5   0  0.7266519E-02  0.6294512E+03  0.7818609E-02  0.9846120E-01
        1   -1    0    0  501    0  0.00000000000E+00  0.00000000000E+00  0.30537179089E+03  0.30537179093E+03  0.50400001928E-02 0. -1.
       -1   -1    0    0    0  501  0.00000000000E+00  0.00000000000E+00 -0.32436590644E+03  0.32436590648E+03  0.50400001928E-02 0.  1.
    10030    2    1    2    0    0  0.00000000000E+00  0.00000000000E+00 -0.18994115548E+02  0.62973769741E+03  0.62945118248E+03 0.  0.
        4    1    3    3  502    0 -0.84244153443E+02  0.17628440652E+03 -0.25634265456E+03  0.32231419271E+03  0.12699999809E+01 0.  1.
       -4    1    3    3    0  502  0.84244153443E+02 -0.17628440652E+03  0.23734853902E+03  0.30742350471E+03  0.12699999809E+01 0. -1.
</event>
<event>
 5   0  0.7424930E-02  0.6412234E+03  0.7818609E-02  0.9823389E-01
       -1   -1    0    0    0  501  0.00000000000E+00  0.00000000000E+00  0.11384422070E+03  0.11384422082E+03  0.50400001928E-02 0. -1.
        1   -1    0    0  501    0  0.00000000000E+00  0.00000000000E+00 -0.90291686696E+03  0.90291686697E+03  0.50400001928E-02 0.  1.
    10030    2    1    2    0    0  0.00000000000E+00  0.00000000000E+00 -0.78907264625E+03  0.10167610878E+04  0.64122341549E+03 0.  0.
        3    1    3    3  502    0 -0.16770371202E+03 -0.17572629395E+03 -0.72634296342E+03  0.76588404874E+03  0.10100000352E+00 0.  1.
       -3    1    3    3    0  502  0.16770371202E+03  0.17572629395E+03 -0.62729682834E+02  0.25087703905E+03  0.10100000352E+00 0. -1.
</event>
<event>
 5   0  0.1206238E-01  0.6217274E+03  0.7818609E-02  0.9861326E-01
        2   -1    0    0  501    0  0.00000000000E+00  0.00000000000E+00  0.74511727066E+03  0.74511727066E+03  0.25500000920E-02 0.  1.
       -2   -1    0    0    0  501  0.00000000000E+00  0.00000000000E+00 -0.12969265900E+03  0.12969265902E+03  0.25500000920E-02 0. -1.
    10030    2    1    2    0    0  0.00000000000E+00  0.00000000000E+00  0.61542461166E+03  0.87480992968E+03  0.62172740042E+03 0.  0.
        5    1    3    3  502    0  0.21099322412E+03 -0.22672654494E+03  0.34470184304E+03  0.46342692778E+03  0.46999998093E+01 0. -1.
       -5    1    3    3    0  502 -0.21099322412E+03  0.22672654494E+03  0.27072276862E+03  0.41138300190E+03  0.46999998093E+01 0.  1.
</event>
<event>
 5   0  0.7123340E-02  0.6261883E+03  0.7818609E-02  0.9852515E-01
       -1   -1    0    0    0  501  0.00000000000E+00  0.00000000000E+00  0.31369831081E+03  0.31369831085E+03  0.50400001928E-02 0.  1.
        1   -1    0    0  501    0  0.00000000000E+00  0.00000000000E+00 -0.31249111454E+03  0.31249111458E+03  0.50400001928E-02 0. -1.
    10030    2    1    2    0    0  0.00000000000E+00  0.00000000000E+00  0.12071962698E+01  0.62618942543E+03  0.62618826178E+03 0.  0.
        2    1    3    3  502    0  0.19849437503E+03 -0.72429465181E+02 -0.23044204421E+03  0.31264929248E+03  0.25500000920E-02 0. -1.
       -2    1    3    3    0  502 -0.19849437503E+03  0.72429465181E+02  0.23164924048E+03  0.31354013294E+03  0.25500000920E-02 0.  1.
</event>
<event>
 5   0  0.1206238E-01  0.5958948E+03  0.7818609E-02  0.9913960E-01
        2   -1    0    0  501    0  0.00000000000E+00  0.00000000000E+00  0.17291577136E+04  0.17291577136E+04  0.25500000920E-02 0. -1.
       -2   -1    0    0    0  501  0.00000000000E+00  0.00000000000E+00 -0.51338673212E+02  0.51338673275E+02  0.25500000920E-02 0.  1.
    10030    2    1    2    0    0  0.00000000000E+00  0.00000000000E+00  0.16778190404E+04  0.17804963869E+04  0.59589483250E+03 0.  0.
        5    1    3    3  502    0 -0.28566167040E+03 -0.50021959411E+02  0.10425673451E+04  0.10821615154E+04  0.46999998093E+01 0. -1.
       -5    1    3    3    0  502  0.28566167040E+03  0.50021959411E+02  0.63525169535E+03  0.69833487154E+03  0.46999998093E+01 0.  1.
</event>
<event>
 5   0  0.7266519E-02  0.5938326E+03  0.7818609E-02  0.9918285E-01
        1   -1    0    0  501    0  0.00000000000E+00  0.00000000000E+00  0.13603613679E+04  0.13603613679E+04  0.50400001928E-02 0.  1.
       -1   -1    0    0    0  501  0.00000000000E+00  0.00000000000E+00 -0.64805782211E+02  0.64805782407E+02  0.50400001928E-02 0. -1.
    10030    2    1    2    0    0  0.00000000000E+00  0.00000000000E+00  0.12955555857E+04  0.14251671503E+04  0.59383257803E+03 0.  0.
        4    1    3    3  502    0  0.10528191356E+01 -0.20021447511E+03  0.12158836098E+03  0.23424834449E+03  0.12699999809E+01 0. -1.
       -4    1    3    3    0  502 -0.10528191356E+01  0.20021447511E+03  0.11739672247E+04  0.11909188058E+04  0.12699999809E+01 0.  1.
</event>
<event>
 5   0  0.7221069E-02  0.6117917E+03  0.7818609E-02  0.9881240E-01
        1   -1    0    0  501    0  0.00000000000E+00  0.00000000000E+00  0.64161367424E+03  0.64161367426E+03  0.50400001928E-02 0.  1.
       -1   -1    0    0    0  501  0.00000000000E+00  0.00000000000E+00 -0.14583894461E+03  0.14583894469E+03  0.50400001928E-02 0. -1.
    10030    2    1    2    0    0  0.00000000000E+00  0.00000000000E+00  0.49577472963E+03  0.78745261896E+03  0.61179166761E+03 0.  0.
        5    1    3    3  502    0  0.63633910525E+02 -0.29897532314E+03  0.26166939067E+03  0.40240337776E+03  0.46999998093E+01 0.  1.
       -5    1    3    3    0  502 -0.63633910525E+02  0.29897532314E+03  0.23410533896E+03  0.38504924120E+03  0.46999998093E+01 0. -1.
</event>
<event>
 5   0  0.7424930E-02  0.4675202E+03  0.7818609E-02  0.1022622E+00
       -1   -1    0    0    0  501  0.00000000000E+00  0.00000000000E+00  0.23887751762E+03  0.23887751767E+03  0.50400001928E-02 0. -1.
        1   -1    0    0  501    0  0.00000000000E+00  0.00000000000E+00 -0.22875235312E+03  0.22875235317E+03  0.50400001928E-02 0.  1.
    10030    2    1    2    0    0  0.00000000000E+00  0.00000000000E+00  0.10125164496E+02  0.46762987084E+03  0.46752024250E+03 0.  0.
        3    1    3    3  502    0 -0.16138929219E+02  0.95727488045E+02  0.21776137526E+03  0.23842030903E+03  0.10100000352E+00 0. -1.
       -3    1    3    3    0  502  0.16138929219E+02 -0.95727488045E+02 -0.20763621076E+03  0.22920956181E+03  0.10100000352E+00 0.  1.
</event>
<event>
 5   0  0.7263385E-02  0.5701963E+03  0.7818609E-02  0.9969244E-01
       -1   -1    0    0    0  501  0.00000000000E+00  0.00000000000E+00  0.13199136397E+03  0.13199136407E+03  0.50400001928E-02 0.  1.
        1   -1    0    0  501    0  0.00000000000E+00  0.00000000000E+00 -0.61580506128E+03  0.61580506130E+03  0.50400001928E-02 0. -1.
    10030    2    1    2    0    0  0.00000000000E+00  0.00000000000E+00 -0.48381369731E+03  0.74779642537E+03  0.57019628207E+03 0.  0.
        1    1    3    3  502    0 -0.82746914121E+02  0.51010656806E+02  0.10958674328E+03  0.14648683638E+03  0.50400001928E-02 0.  1.
       -1    1    3    3    0  502  0.82746914121E+02 -0.51010656806E+02 -0.59340044058E+03  0.60130958899E+03  0.50400001928E-02 0. -1.
</event>
<event>
 5   0  0.1146468E-01  0.5872644E+03  0.7818609E-02  0.9932186E-01
       -2   -1    0    0    0  501  0.00000000000E+00  0.00000000000E+00  0.30735664912E+03  0.30735664913E+03  0.25500000920E-02 0.  1.
        2   -1    0    0  501    0  0.00000000000E+00  0.00000000000E+00 -0.28052060678E+03  0.28052060679E+03  0.25500000920E-02 0. -1.
    10030    2    1    2    0    0  0.00000000000E+00  0.00000000000E+00  0.26836042345E+02  0.58787725592E+03  0.58726441648E+03 0.  0.
        4    1    3    3  502    0 -0.28826503528E+03  0.42046105779E+02 -0.23412427214E+02  0.29225735272E+03  0.12699999809E+01 0.  1.
       -4    1    3    3    0  502  0.28826503528E+03 -0.42046105779E+02  0.50248469558E+02  0.29561990320E+03  0.12699999809E+01 0. -1.
</event>
<event>
 5   0  0.1219020E-01  0.5807341E+03  0.7818609E-02  0.9946203E-01
       -2   -1    0    0    0  501  0.00000000000E+00  0.00000000000E+00  0.79151957046E+03  0.79151957046E+03  0.25500000920E-02 0. -1.
        2   -1    0    0  501    0  0.00000000000E+00  0.00000000000E+00 -0.10652046172E+03  0.10652046175E+03  0.25500000920E-02 0.  1.
    10030    2    1    2    0    0  0.00000000000E+00  0.00000000000E+00  0.68499910874E+03  0.89804003221E+03  0.58073412202E+03 0.  0.
        2    1    3    3  502    0 -0.22581007518E+03 -0.17957541659E+03  0.29178582578E+03  0.41033704248E+03  0.25500000920E-02 0.  1.
       -2    1    3    3    0  502  0.22581007518E+03  0.17957541659E+03  0.39321328296E+03  0.48770298973E+03  0.25500000920E-02 0. -1.
</event>
<event>
 5   0  0.7424930E-02  0.6185268E+03  0.7818609E-02  0.9867697E-01
       -1   -1    0    0    0  501  0.00000000000E+00  0.00000000000E+00  0.19102838809E+03  0.19102838815E+03  0.50400001928E-02 0.  1.
        1   -1    0    0  501    0  0.00000000000E+00  0.00000000000E+00 -0.50067873830E+03  0.50067873832E+03  0.50400001928E-02 0. -1.
    10030    2    1    2    0    0  0.00000000000E+00  0.00000000000E+00 -0.30965035021E+03  0.69170712648E+03  0.61852680575E+03 0.  0.
        3    1    3    3  502    0  0.20702145351E+03  0.20625276255E+03 -0.26802239708E+03  0.39652755239E+03  0.10100000352E+00 0. -1.
       -3    1    3    3    0  502 -0.20702145351E+03 -0.20625276255E+03 -0.41627953136E+02  0.29517957408E+03  0.10100000352E+00 0.  1.
</event>
<event>
 5   0  0.1175861E-01  0.6126121E+03  0.7818609E-02  0.9879580E-01
       -2   -1    0    0    0  501  0.00000000000E+00  0.00000000000E+00  0.25668308397E+03  0.25668308398E+03  0.25500000920E-02 0.  1.
        2   -1    0    0  501    0  0.00000000000E+00  0.00000000000E+00 -0.36552226600E+03  0.36552226601E+03  0.25500000920E-02 0. -1.
    10030    2    1    2    0    0  0.00000000000E+00  0.00000000000E+00 -0.10883918203E+03  0.62220534999E+03  0.61261205506E+03 0.  0.
        3    1    3    3  502    0 -0.26553896962E+03 -0.68935492142E+02 -0.19278929138E+03  0.33530697508E+03  0.10100000352E+00 0. -1.
       -3    1    3    3    0  502  0.26553896962E+03  0.68935492142E+02  0.83950109347E+02  0.28689837491E+03  0.10100000352E+00 0.  1.
</event>
<event>
 5   0  0.7263385E-02  0.6091613E+03  0.7818609E-02  0.9886579E-01
       -1   -1    0    0    0  501  0.00000000000E+00  0.00000000000E+00  0.17953727357E+03  0.17953727364E+03  0.50400001928E-02 0. -1.
        1   -1    0    0  501    0  0.00000000000E+00  0.00000000000E+00 -0.51671374743E+03  0.51671374745E+03  0.50400001928E-02 0.  1.
    10030    2    1    2    0    0  0.00000000000E+00  0.00000000000E+00 -0.33717647386E+03  0.69625102109E+03  0.60916131677E+03 0.  0.
        1    1    3    3  502    0  0.29087507867E+03  0.12081100263E+02 -0.66261681534E+02  0.29857138985E+03  0.50400001928E-02 0. -1.
       -1    1    3    3    0  502 -0.29087507867E+03 -0.12081100263E+02 -0.27091479233E+03  0.39767963124E+03  0.50400001928E-02 0.  1.
</event>
<event>
 5   0  0.7266519E-02  0.6287751E+03  0.7818609E-02  0.9847442E-01
       -1   -1    0    0    0  501  0.00000000000E+00  0.00000000000E+00  0.15670957761E+03  0.15670957769E+03  0.50400001928E-02 0. -1.
        1   -1    0    0  501    0  0.00000000000E+00  0.00000000000E+00 -0.63071780771E+03  0.63071780773E+03  0.50400001928E-02 0.  1.
    10030    2    1    2    0    0  0.00000000000E+00  0.00000000000E+00 -0.47400823010E+03  0.78742738542E+03  0.62877506719E+03 0.  0.
        4    1    3    3  502    0 -0.29346231990E+03  0.38401646794E+02 -0.10421636236E+03  0.31377935363E+03  0.12699999809E+01 0. -1.
       -4    1    3    3    0  502  0.29346231990E+03 -0.38401646794E+02 -0.36979186773E+03  0.47364803179E+03  0.12699999809E+01 0.  1.
</event>
<event>
 5   0  0.7221069E-02  0.5715420E+03  0.7818609E-02  0.9966272E-01
        1   -1    0    0  501    0  0.00000000000E+00  0.00000000000E+00  0.27267821737E+03  0.27267821742E+03  0.50400001928E-02 0. -1.
       -1   -1    0    0    0  501  0.00000000000E+00  0.00000000000E+00 -0.29949241440E+03  0.29949241444E+03  0.50400001928E-02 0.  1.
    10030    2    1    2    0    0  0.00000000000E+00  0.00000000000E+00 -0.26814197029E+02  0.57217063186E+03  0.57154197641E+03 0.  0.
        5    1    3    3  502    0  0.24191232055E+02  0.75787888504E+02 -0.28814282429E+03  0.29896052740E+03  0.46999998093E+01 0.  1.
       -5    1    3    3    0  502 -0.24191232055E+02 -0.75787888504E+02  0.26132862726E+03  0.27321010446E+03  0.46999998093E+01 0. -1.
</event>
<event>
 5   0  0.1175861E-01  0.6181531E+03  0.7818609E-02  0.9868444E-01
       -2   -1    0    0    0  501  0.00000000000E+00  0.00000000000E+00  0.23201750114E+03  0.23201750116E+03  0.25500000920E-02 0. -1.
        2   -1    0    0  501    0  0.00000000000E+00  0.00000000000E+00 -0.41172888223E+03  0.41172888223E+03  0.25500000920E-02 0.  1.
    10030    2    1    2    0    0  0.00000000000E+00  0.00000000000E+00 -0.17971138108E+03  0.64374638339E+03  0.61815307622E+03 0.  0.
        3    1    3    3  502    0  0.19611252389E+03  0.16762981734E+03 -0.26710361587E+03  0.37135458728E+03  0.10100000352E+00 0.  1.
       -3    1    3    3    0  502 -0.19611252389E+03 -0.16762981734E+03  0.87392234784E+02  0.27239179611E+03  0.10100000352E+00 0. -1.
</event>
<event>
 5   0  0.7263385E-02  0.6278705E+03  0.7818609E-02  0.9849213E-01
        1   -1    0    0  501    0  0.00000000000E+00  0.00000000000E+00  0.20399638442E+03  0.20399638448E+03  0.50400001928E-02 0. -1.
       -1   -1    0    0    0  501  0.00000000000E+00  0.00000000000E+00 -0.48312295538E+03  0.48312295541E+03  0.50400001928E-02 0.  1.
    10030    2    1    2    0    0  0.00000000000E+00  0.00000000000E+00 -0.27912657096E+03  0.68711933989E+03  0.62787048397E+03 0.  0.
        1    1    3    3  502    0 -0.27411632554E+03  0.13149495472E+03 -0.53918120077E+02  0.30876827353E+03  0.50400001928E-02 0.  1.
       -1    1    3    3    0  502  0.27411632554E+03 -0.13149495472E+03 -0.22520845088E+03  0.37835106636E+03  0.50400001928E-02 0. -1.
</event>
<event>
 5   0  0.1166419E-01  0.6145202E+03  0.7818609E-02  0.9875731E-01
       -2   -1    0    0    0  501  0.00000000000E+00  0.00000000000E+00  0.12214833294E+03  0.12214833297E+03  0.25500000920E-02 0.  1.
        2   -1    0    0  501    0  0.00000000000E+00  0.00000000000E+00 -0.77290264131E+03  0.77290264132E+03  0.25500000920E-02 0. -1.
    10030    2    1    2    0    0  0.00000000000E+00  0.00000000000E+00 -0.65075430837E+03  0.89505097428E+03  0.61452020040E+03 0.  0.
        1    1    3    3  502    0  0.56908882589E+02 -0.16985419327E+03 -0.68897749994E+03  0.71188416427E+03  0.50400001928E-02 0. -1.
       -1    1    3    3    0  502 -0.56908882589E+02  0.16985419327E+03  0.38223191570E+02  0.18316681001E+03  0.50400001928E-02 0.  1.
</event>
<event>
 5   0  0.7266519E-02  0.5944843E+03  0.7818609E-02  0.9916916E-01
        1   -1    0    0  501    0  0.00000000000E+00  0.00000000000E+00  0.17974859333E+03  0.17974859340E+03  0.50400001928E-02 0. -1.
       -1   -1    0    0    0  501  0.00000000000E+00  0.00000000000E+00 -0.49153595635E+03  0.49153595637E+03  0.50400001928E-02 0.  1.
    10030    2    1    2    0    0  0.00000000000E+00  0.00000000000E+00 -0.31178736302E+03  0.67128454977E+03  0.59448430343E+03 0.  0.
        4    1    3    3  502    0  0.12136951821E+03  0.52668900074E+02 -0.45645016838E+03  0.47523987848E+03  0.12699999809E+01 0.  1.
       -4    1    3    3    0  502 -0.12136951821E+03 -0.52668900074E+02  0.14466280537E+03  0.19604467129E+03  0.12699999809E+01 0. -1.
</event>
<event>
 5   0  0.7221069E-02  0.5985812E+03  0.7818609E-02  0.9908354E-01
       -1   -1    0    0    0  501  0.00000000000E+00  0.00000000000E+00  0.13643590496E+03  0.13643590506E+03  0.50400001928E-02 0.  1.
        1   -1    0    0  501    0  0.00000000000E+00  0.00000000000E+00 -0.65653431579E+03  0.65653431581E+03  0.50400001928E-02 0. -1.
    10030    2    1    2    0    0  0.00000000000E+00  0.00000000000E+00 -0.52009841083E+03  0.79297022087E+03  0.59858116762E+03 0.  0.
        5    1    3    3  502    0 -0.52398573960E+02  0.28319216712E+03 -0.36774858157E+03  0.46712367026E+03  0.46999998093E+01 0.  1.
       -5    1    3    3    0  502  0.52398573960E+02 -0.28319216712E+03 -0.15234982926E+03  0.32584655061E+03  0.46999998093E+01 0. -1.
</event>
<event>
 5   0  0.4695625E-02  0.6060483E+03  0.7818609E-02  0.9892937E-01
        3   -1    0    0  501    0  0.00000000000E+00  0.00000000000E+00  0.73295368232E+02  0.73295437820E+02  0.10100000352E+00 0. -1.
       -3   -1    0    0    0  501  0.00000000000E+00  0.00000000000E+00 -0.12527883866E+04  0.12527883906E+04  0.10100000352E+00 0.  1.
    10030    2    1    2    0    0  0.00000000000E+00  0.00000000000E+00 -0.11794930183E+04  0.13260838285E+04  0.60604829824E+03 0.  0.
        3    1    3    3  502    0 -0.21742865315E+03  0.15907341144E+03 -0.28620922712E+03  0.39305890313E+03  0.10100000352E+00 0. -1.
       -3    1    3    3    0  502  0.21742865315E+03 -0.15907341144E+03 -0.89328379121E+03  0.93302492533E+03  0.10100000352E+00 0.  1.
</event>
<event>
 5   0  0.7123340E-02  0.6021915E+03  0.7818609E-02  0.9900870E-01
       -1   -1    0    0    0  501  0.00000000000E+00  0.00000000000E+00  0.88002874827E+02  0.88002874971E+02  0.50400001928E-02 0.  1.
        1   -1    0    0  501    0  0.00000000000E+00  0.00000000000E+00 -0.10301784392E+04  0.10301784392E+04  0.50400001928E-02 0. -1.
    10030    2    1    2    0    0  0.00000000000E+00  0.00000000000E+00 -0.94217556438E+03  0.11181813142E+04  0.60219154535E+03 0.  0.
        2    1    3    3  502    0  0.21694906701E+03 -0.76265994790E+02 -0.83198317236E+03  0.86317981831E+03  0.25500000920E-02 0. -1.
       -2    1    3    3    0  502 -0.21694906701E+03  0.76265994790E+02 -0.11019239202E+03  0.25500149588E+03  0.25500000920E-02 0.  1.
</event>
<event>
 5   0  0.4695625E-02  0.6069363E+03  0.7818609E-02  0.9891119E-01
       -3   -1    0    0    0  501  0.00000000000E+00  0.00000000000E+00  0.14238203857E+04  0.14238203893E+04  0.10100000352E+00 0.  1.
        3   -1    0    0  501    0  0.00000000000E+00  0.00000000000E+00 -0.64680107625E+02  0.64680186482E+02  0.10100000352E+00 0. -1.
    10030    2    1    2    0    0  0.00000000000E+00  0.00000000000E+00  0.13591402780E+04  0.14885005757E+04  0.60693629695E+03 0.  0.
        5    1    3    3  502    0  0.27107006353E+03 -0.74550315505E+02  0.95956263472E+03  0.99990963034E+03  0.46999998093E+01 0.  1.
       -5    1    3    3    0  502 -0.27107006353E+03  0.74550315505E+02  0.39957764332E+03  0.48859094540E+03  0.46999998093E+01 0. -1.
</event>
<event>
 5   0  0.7123340E-02  0.6047021E+03  0.7818609E-02  0.9895698E-01
       -1   -1    0    0    0  501  0.00000000000E+00  0.00000000000E+00  0.16148480191E+03  0.16148480199E+03  0.50400001928E-02 0.  1.
        1   -1    0    0  501    0  0.00000000000E+00  0.00000000000E+00 -0.56609756887E+03  0.56609756889E+03  0.50400001928E-02 0. -1.
    10030    2    1    2    0    0  0.00000000000E+00  0.00000000000E+00 -0.40461276696E+03  0.72758237088E+03  0.60470208800E+03 0.  0.
        2    1    3    3  502    0 -0.19075362319E+03  0.21527181084E+03 -0.90160839533E+02  0.30142639947E+03  0.25500000920E-02 0. -1.
       -2    1    3    3    0  502  0.19075362319E+03 -0.21527181084E+03 -0.31445192743E+03  0.42615597141E+03  0.25500000920E-02 0.  1.
</event>
<event>
 5   0  0.4695625E-02  0.5997317E+03  0.7818609E-02  0.9905963E-01
       -3   -1    0    0    0  501  0.00000000000E+00  0.00000000000E+00  0.32936423854E+03  0.32936425403E+03  0.10100000352E+00 0. -1.
        3   -1    0    0  501    0  0.00000000000E+00  0.00000000000E+00 -0.27300938471E+03  0.27300940339E+03  0.10100000352E+00 0.  1.
    10030    2    1    2    0    0  0.00000000000E+00  0.00000000000E+00  0.56354853831E+02  0.60237365742E+03  0.59973173470E+03 0.  0.
        3    1    3    3  502    0 -0.22363188411E+03 -0.16022686832E+03 -0.91661450931E+02  0.28997534500E+03  0.10100000352E+00 0.  1.
       -3    1    3    3    0  502  0.22363188411E+03  0.16022686832E+03  0.14801630476E+03  0.31239831241E+03  0.10100000352E+00 0. -1.
</event>
<event>
 5   0  0.7221069E-02  0.6030673E+03  0.7818609E-02  0.9899063E-01
        1   -1    0    0  501    0  0.00000000000E+00  0.00000000000E+00  0.15467556587E+04  0.15467556587E+04  0.50400001928E-02 0.  1.
       -1   -1    0    0    0  501  0.00000000000E+00  0.00000000000E+00 -0.58782738376E+02  0.58782738592E+02  0.50400001928E-02 0. -1.
    10030    2    1    2    0    0  0.00000000000E+00  0.00000000000E+00  0.14879729203E+04  0.16055383973E+04  0.60306727119E+03 0.  0.
        5    1    3    3  502    0  0.20772112241E+03  0.15948417409E+03  0.11417038356E+04  0.11713637372E+04  0.46999998093E+01 0.  1.
       -5    1    3    3    0  502 -0.20772112241E+03 -0.15948417409E+03  0.34626908468E+03  0.43417466011E+03  0.46999998093E+01 0. -1.
</event>
<event>
 5   0  0.1219020E-01  0.6279904E+03  0.7818609E-02  0.9848978E-01
        2   -1    0    0  501    0  0.00000000000E+00  0.00000000000E+00  0.11154613350E+04  0.11154613350E+04  0.25500000920E-02 0. -1.
       -2   -1    0    0    0  501  0.00000000000E+00  0.00000000000E+00 -0.88387632683E+02  0.88387632720E+02  0.25500000920E-02 0.  1.
    10030    2    1    2    0    0  0.00000000000E+00  0.00000000000E+00  0.10270737023E+04  0.12038489677E+04  0.62799040366E+03 0.  0.
        2    1    3    3  502    0  0.29312264669E+03 -0.89479031925E+02  0.64447702600E+03  0.71363717686E+03  0.25500000920E-02 0.  1.
       -2    1    3    3    0  502 -0.29312264669E+03  0.89479031925E+02  0.38259667631E+03  0.49021179085E+03  0.25500000920E-02 0. -1.
</event>
<event>
 5   0  0.7266519E-02  0.5802777E+03  0.7818609E-02  0.9947190E-01
        1   -1    0    0  501    0  0.00000000000E+00  0.00000000000E+00  0.43757365126E+03  0.43757365129E+03  0.50400001928E-02 0.  1.
       -1   -1    0    0    0  501  0.00000000000E+00  0.00000000000E+00 -0.19238027742E+03  0.19238027748E+03  0.50400001928E-02 0. -1.
    10030    2    1    2    0    0  0.00000000000E+00  0.00000000000E+00  0.24519337384E+03  0.62995392877E+03  0.58027765923E+03 0.  0.
        4    1    3    3  502    0 -0.13361866782E+03 -0.39244289303E+02  0.39891503068E+03  0.42252677695E+03  0.12699999809E+01 0.  1.
       -4    1    3    3    0  502  0.13361866782E+03  0.39244289303E+02 -0.15372165684E+03  0.20742715183E+03  0.12699999809E+01 0. -1.
</event>
<event>
 5   0  0.7263385E-02  0.5917994E+03  0.7818609E-02  0.9922567E-01
       -1   -1    0    0    0  501  0.00000000000E+00  0.00000000000E+00  0.28713841860E+03  0.28713841865E+03  0.50400001928E-02 0.  1.
        1   -1    0    0  501    0  0.00000000000E+00  0.00000000000E+00 -0.30492828463E+03  0.30492828467E+03  0.50400001928E-02 0. -1.
    10030    2    1    2    0    0  0.00000000000E+00  0.00000000000E+00 -0.17789866023E+02  0.59206670331E+03  0.59179937634E+03 0.  0.
        1    1    3    3  502    0 -0.11760764899E+03 -0.16415738933E+03  0.20748364240E+03  0.28953181079E+03  0.50400001928E-02 0.  1.
       -1    1    3    3    0  502  0.11760764899E+03  0.16415738933E+03 -0.22527350842E+03  0.30253489252E+03  0.50400001928E-02 0. -1.
</event>
<event>
 5   0  0.7263385E-02  0.5821877E+03  0.7818609E-02  0.9943066E-01
       -1   -1    0    0    0  501  0.00000000000E+00  0.00000000000E+00  0.36879640810E+03  0.36879640813E+03  0.50400001928E-02 0. -1.
        1   -1    0    0  501    0  0.00000000000E+00  0.00000000000E+00 -0.22976262390E+03  0.22976262395E+03  0.50400001928E-02 0.  1.
    10030    2    1    2    0    0  0.00000000000E+00  0.00000000000E+00  0.13903378420E+03  0.59855903208E+03  0.58218770319E+03 0.  0.
        1    1    3    3  502    0 -0.26766883473E+03 -0.10502739225E+03  0.11616084678E+03  0.31011401219E+03  0.50400001928E-02 0.  1.
       -1    1    3    3    0  502  0.26766883473E+03  0.10502739225E+03  0.22872937423E+02  0.28844501989E+03  0.50400001928E-02 0. -1.
</event>
<event>
 5   0  0.4695625E-02  0.6097087E+03  0.7818609E-02  0.9885466E-01
        3   -1    0    0  501    0  0.00000000000E+00  0.00000000000E+00  0.27896807029E+03  0.27896808857E+03  0.10100000352E+00 0.  1.
       -3   -1    0    0    0  501  0.00000000000E+00  0.00000000000E+00 -0.33314265889E+03  0.33314267420E+03  0.10100000352E+00 0. -1.
    10030    2    1    2    0    0  0.00000000000E+00  0.00000000000E+00 -0.54174588606E+02  0.61211076278E+03  0.60970870082E+03 0.  0.
        1    1    3    3  502    0  0.16603349794E+02 -0.27477633857E+03 -0.15859368884E+03  0.31769429587E+03  0.50400001928E-02 0. -1.
       -1    1    3    3    0  502 -0.16603349794E+02  0.27477633857E+03  0.10441910024E+03  0.29441646690E+03  0.50400001928E-02 0.  1.
</event>
<event>
 5   0  0.1146468E-01  0.6181746E+03  0.7818609E-02  0.9868401E-01
        2   -1    0    0  501    0  0.00000000000E+00  0.00000000000E+00  0.54204529093E+03  0.54204529094E+03  0.25500000920E-02 0.  1.
       -2   -1    0    0    0  501  0.00000000000E+00  0.00000000000E+00 -0.17624904227E+03  0.17624904229E+03  0.25500000920E-02 0. -1.
    10030    2    1    2    0    0  0.00000000000E+00  0.00000000000E+00  0.36579624866E+03  0.71829433322E+03  0.61817461417E+03 0.  0.
        4    1    3    3  502    0  0.10970064067E+03 -0.27205008411E+03  0.29607968415E+03  0.41678564165E+03  0.12699999809E+01 0.  1.
       -4    1    3    3    0  502 -0.10970064067E+03  0.27205008411E+03  0.69716564512E+02  0.30150869157E+03  0.12699999809E+01 0. -1.
</event>
<event>
 5   0  0.7263385E-02  0.6239931E+03  0.7818609E-02  0.9856841E-01
       -1   -1    0    0    0  501  0.00000000000E+00  0.00000000000E+00  0.39966669003E+03  0.39966669007E+03  0.50400001928E-02 0.  1.
        1   -1    0    0  501    0  0.00000000000E+00  0.00000000000E+00 -0.24355757984E+03  0.24355757989E+03  0.50400001928E-02 0. -1.
    10030    2    1    2    0    0  0.00000000000E+00  0.00000000000E+00  0.15610911020E+03  0.64322426996E+03  0.62399311468E+03 0.  0.
        1    1    3    3  502    0  0.11711752823E+02 -0.25916154660E+03  0.25671665751E+03  0.36497303278E+03  0.50400001928E-02 0. -1.
       -1    1    3    3    0  502 -0.11711752823E+02  0.25916154660E+03 -0.10060754731E+03  0.27825123718E+03  0.50400001928E-02 0.  1.
</event>
<event>
 5   0  0.1146468E-01  0.6020075E+03  0.7818609E-02  0.9901250E-01
        2   -1    0    0  501    0  0.00000000000E+00  0.00000000000E+00  0.72003346119E+03  0.72003346119E+03  0.25500000920E-02 0.  1.
       -2   -1    0    0    0  501  0.00000000000E+00  0.00000000000E+00 -0.12583202156E+03  0.12583202159E+03  0.25500000920E-02 0. -1.
    10030    2    1    2    0    0  0.00000000000E+00  0.00000000000E+00  0.59420143963E+03  0.84586548278E+03  0.60200752828E+03 0.  0.
        4    1    3    3  502    0 -0.24139535577E+03  0.17930177713E+03  0.27820740009E+03  0.40966061006E+03  0.12699999809E+01 0. -1.
       -4    1    3    3    0  502  0.24139535577E+03 -0.17930177713E+03  0.31599403953E+03  0.43620487272E+03  0.12699999809E+01 0.  1.
</event>
<event>
 5   0  0.1175861E-01  0.5684626E+03  0.7818609E-02  0.9973086E-01
       -2   -1    0    0    0  501  0.00000000000E+00  0.00000000000E+00  0.38326403291E+03  0.38326403292E+03  0.25500000920E-02 0. -1.
        2   -1    0    0  501    0  0.00000000000E+00  0.00000000000E+00 -0.21078793739E+03  0.21078793741E+03  0.25500000920E-02 0.  1.
    10030    2    1    2    0    0  0.00000000000E+00  0.00000000000E+00  0.17247609552E+03  0.59405197033E+03  0.56846261084E+03 0.  0.
        3    1    3    3  502    0 -0.19955550023E+03  0.19176418925E+03  0.18581715056E+02  0.27738275413E+03  0.10100000352E+00 0.  1.
       -3    1    3    3    0  502  0.19955550023E+03 -0.19176418925E+03  0.15389438047E+03  0.31666921620E+03  0.10100000352E+00 0. -1.
</event>
<event>
 5   0  0.1166419E-01  0.5971552E+03  0.7818609E-02  0.9911326E-01
       -2   -1    0    0    0  501  0.00000000000E+00  0.00000000000E+00  0.26224115841E+03  0.26224115843E+03  0.25500000920E-02 0. -1.
        2   -1    0    0  501    0  0.00000000000E+00  0.00000000000E+00 -0.33994884169E+03  0.33994884170E+03  0.25500000920E-02 0.  1.
    10030    2    1    2    0    0  0.00000000000E+00  0.00000000000E+00 -0.77707683279E+02  0.60219000013E+03  0.59715518269E+03 0.  0.
        1    1    3    3  502    0  0.19854505618E+03  0.18013912934E+03 -0.17140918854E+03  0.31820018101E+03  0.50400001928E-02 0.  1.
       -1    1    3    3    0  502 -0.19854505618E+03 -0.18013912934E+03  0.93701505259E+02  0.28398981912E+03  0.50400001928E-02 0. -1.
</event>
<event>
 5   0  0.1146468E-01  0.5968264E+03  0.7818609E-02  0.9912012E-01
        2   -1    0    0  501    0  0.00000000000E+00  0.00000000000E+00  0.14550383808E+03  0.14550383810E+03  0.25500000920E-02 0.  1.
       -2   -1    0    0    0  501  0.00000000000E+00  0.00000000000E+00 -0.61201443378E+03  0.61201443379E+03  0.25500000920E-02 0. -1.
    10030    2    1    2    0    0  0.00000000000E+00  0.00000000000E+00 -0.46651059570E+03  0.75751827189E+03  0.59682643737E+03 0.  0.
        4    1    3    3  502    0  0.10615376332E+03 -0.27464184085E+03 -0.17169927558E+03  0.34085043105E+03  0.12699999809E+01 0.  1.
       -4    1    3    3    0  502 -0.10615376332E+03  0.27464184085E+03 -0.29481132013E+03  0.41666784084E+03  0.12699999809E+01 0. -1.
</event>
<event>
 5   0  0.7263385E-02  0.6067427E+03  0.7818609E-02  0.9891515E-01
        1   -1    0    0  501    0  0.00000000000E+00  0.00000000000E+00  0.43888595128E+03  0.43888595131E+03  0.50400001928E-02 0.  1.
       -1   -1    0    0    0  501  0.00000000000E+00  0.00000000000E+00 -0.20969955384E+03  0.20969955390E+03  0.50400001928E-02 0. -1.
    10030    2    1    2    0    0  0.00000000000E+00  0.00000000000E+00  0.22918639744E+03  0.64858550521E+03  0.60674274021E+03 0.  0.
        1    1    3    3  502    0  0.23184860906E+03 -0.18079153998E+03  0.19455012428E+03  0.35254660591E+03  0.50400001928E-02 0.  1.
       -1    1    3    3    0  502 -0.23184860906E+03  0.18079153998E+03  0.34636273156E+02  0.29603889930E+03  0.50400001928E-02 0. -1.
</event>
<event>
 5   0  0.1175861E-01  0.6410447E+03  0.7818609E-02  0.9823730E-01
        2   -1    0    0  501    0  0.00000000000E+00  0.00000000000E+00  0.46553854023E+03  0.46553854023E+03  0.25500000920E-02 0. -1.
       -2   -1    0    0    0  501  0.00000000000E+00  0.00000000000E+00 -0.22067901499E+03  0.22067901500E+03  0.25500000920E-02 0.  1.
    10030    2    1    2    0    0  0.00000000000E+00  0.00000000000E+00  0.24485952524E+03  0.68621755524E+03  0.64104473012E+03 0.  0.
        3    1    3    3  502    0 -0.88198391989E+02 -0.26274722138E+03 -0.49910578108E+02  0.28161344908E+03  0.10100000352E+00 0.  1.
       -3    1    3    3    0  502  0.88198391989E+02  0.26274722138E+03  0.29477010335E+03  0.40460410616E+03  0.10100000352E+00 0. -1.
</event>
<event>
 5   0  0.7263385E-02  0.6025719E+03  0.7818609E-02  0.9900084E-01
        1   -1    0    0  501    0  0.00000000000E+00  0.00000000000E+00  0.15260784978E+03  0.15260784986E+03  0.50400001928E-02 0. -1.
       -1   -1    0    0    0  501  0.00000000000E+00  0.00000000000E+00 -0.59481364145E+03  0.59481364147E+03  0.50400001928E-02 0.  1.
    10030    2    1    2    0    0  0.00000000000E+00  0.00000000000E+00 -0.44220579167E+03  0.74742149133E+03  0.60257192394E+03 0.  0.
        1    1    3    3  502    0  0.12087163066E+03 -0.25606300746E+03 -0.93427416582E+02  0.29817259613E+03  0.50400001928E-02 0.  1.
       -1    1    3    3    0  502 -0.12087163066E+03  0.25606300746E+03 -0.34877837508E+03  0.44924889520E+03  0.50400001928E-02 0. -1.
</event>
<event>
 5   0  0.1146468E-01  0.5935531E+03  0.7818609E-02  0.9918872E-01
       -2   -1    0    0    0  501  0.00000000000E+00  0.00000000000E+00  0.52632789795E+02  0.52632789857E+02  0.25500000920E-02 0.  1.
        2   -1    0    0  501    0  0.00000000000E+00  0.00000000000E+00 -0.16734115904E+04  0.16734115904E+04  0.25500000920E-02 0. -1.
    10030    2    1    2    0    0  0.00000000000E+00  0.00000000000E+00 -0.16207788006E+04  0.17260443803E+04  0.59355309968E+03 0.  0.
        4    1    3    3  502    0  0.62438478474E+02 -0.71610076670E+01 -0.16538301284E+04  0.16550243353E+04  0.12699999809E+01 0. -1.
       -4    1    3    3    0  502 -0.62438478474E+02  0.71610076670E+01  0.33051327820E+02  0.71020045027E+02  0.12699999809E+01 0.  1.
</event>
<event>
 5   0  0.1219020E-01  0.6015173E+03  0.7818609E-02  0.9902263E-01
        2   -1    0    0  501    0  0.00000000000E+00  0.00000000000E+00  0.91147241828E+03  0.91147241828E+03  0.25500000920E-02 0. -1.
       -2   -1    0    0    0  501  0.00000000000E+00  0.00000000000E+00 -0.99241360621E+02  0.99241360653E+02  0.25500000920E-02 0.  1.
    10030    2    1    2    0    0  0.00000000000E+00  0.00000000000E+00  0.81223105766E+03  0.10107137789E+04  0.60151729144E+03 0.  0.
        2    1    3    3  502    0  0.25112296692E+03 -0.94118281092E+02  0.63487213402E+03  0.68919055559E+03  0.25500000920E-02 0. -1.
       -2    1    3    3    0  502 -0.25112296692E+03  0.94118281092E+02  0.17735892363E+03  0.32152322334E+03  0.25500000920E-02 0.  1.
</event>
<event>
 5   0  0.1166419E-01  0.5937214E+03  0.7818609E-02  0.9918519E-01
        2   -1    0    0  501    0  0.00000000000E+00  0.00000000000E+00  0.63584871906E+03  0.63584871906E+03  0.25500000920E-02 0. -1.
       -2   -1    0    0    0  501  0.00000000000E+00  0.00000000000E+00 -0.13859627810E+03  0.13859627812E+03  0.25500000920E-02 0.  1.
    10030    2    1    2    0    0  0.00000000000E+00  0.00000000000E+00  0.49725244096E+03  0.77444499719E+03  0.59372136868E+03 0.  0.
        1    1    3    3  502    0 -0.16699534054E+03 -0.12127619358E+03 -0.29704439581E+02  0.20851309946E+03  0.50400001928E-02 0.  1.
       -1    1    3    3    0  502  0.16699534054E+03  0.12127619358E+03  0.52695688054E+03  0.56593189773E+03  0.50400001928E-02 0. -1.
</event>
<event>
 5   0  0.1175861E-01  0.5939644E+03  0.7818609E-02  0.9918008E-01
        2   -1    0    0  501    0  0.00000000000E+00  0.00000000000E+00  0.45390105265E+03  0.45390105266E+03  0.25500000920E-02 0.  1.
       -2   -1    0    0    0  501  0.00000000000E+00  0.00000000000E+00 -0.19431199163E+03  0.19431199165E+03  0.25500000920E-02 0. -1.
    10030    2    1    2    0    0  0.00000000000E+00  0.00000000000E+00  0.25958906102E+03  0.64821304430E+03  0.59396436779E+03 0.  0.
        3    1    3    3  502    0 -0.28607335395E+03  0.45780241173E+02  0.58526100968E+02  0.29556574398E+03  0.10100000352E+00 0. -1.
       -3    1    3    3    0  502  0.28607335395E+03 -0.45780241173E+02  0.20106296005E+03  0.35264730032E+03  0.10100000352E+00 0.  1.
</event>
<event>
 5   0  0.4695625E-02  0.5919679E+03  0.7818609E-02  0.9922212E-01
       -3   -1    0    0    0  501  0.00000000000E+00  0.00000000000E+00  0.43285481811E+03  0.43285482989E+03  0.10100000352E+00 0. -1.
        3   -1    0    0  501    0  0.00000000000E+00  0.00000000000E+00 -0.20239232724E+03  0.20239235244E+03  0.10100000352E+00 0.  1.
    10030    2    1    2    0    0  0.00000000000E+00  0.00000000000E+00  0.23046249086E+03  0.63524718233E+03  0.59196792394E+03 0.  0.
        1    1    3    3  502    0  0.41521811196E+02 -0.23656452040E+03 -0.70387994897E+02  0.25028244639E+03  0.50400001928E-02 0.  1.
       -1    1    3    3    0  502 -0.41521811196E+02  0.23656452040E+03  0.30085048576E+03  0.38496473595E+03  0.50400001928E-02 0. -1.
</event>
<event>
 5   0  0.1219020E-01  0.6001214E+03  0.7818609E-02  0.9905154E-01
       -2   -1    0    0    0  501  0.00000000000E+00  0.00000000000E+00  0.62257214894E+03  0.62257214895E+03  0.25500000920E-02 0.  1.
        2   -1    0    0  501    0  0.00000000000E+00  0.00000000000E+00 -0.14462007128E+03  0.14462007131E+03  0.25500000920E-02 0. -1.
    10030    2    1    2    0    0  0.00000000000E+00  0.00000000000E+00  0.47795207766E+03  0.76719222025E+03  0.60012141628E+03 0.  0.
        2    1    3    3  502    0  0.45419801333E+02 -0.20796972364E+03 -0.31373719280E+02  0.21517126799E+03  0.25500000920E-02 0. -1.
       -2    1    3    3    0  502 -0.45419801333E+02  0.20796972364E+03  0.50932579694E+03  0.55202095226E+03  0.25500000920E-02 0.  1.
</event>
<event>
 5   0  0.7123340E-02  0.6268410E+03  0.7818609E-02  0.9851233E-01
       -1   -1    0    0    0  501  0.00000000000E+00  0.00000000000E+00  0.10609557189E+03  0.10609557201E+03  0.50400001928E-02 0.  1.
        1   -1    0    0  501    0  0.00000000000E+00  0.00000000000E+00 -0.92588594087E+03  0.92588594088E+03  0.50400001928E-02 0. -1.
    10030    2    1    2    0    0  0.00000000000E+00  0.00000000000E+00 -0.81979036898E+03  0.10319815129E+04  0.62684096380E+03 0.  0.
        2    1    3    3  502    0 -0.24611763571E+03 -0.35350000140E+02 -0.95758801213E+02  0.26644560633E+03  0.25500000920E-02 0.  1.
       -2    1    3    3    0  502  0.24611763571E+03  0.35350000140E+02 -0.72403156776E+03  0.76553590657E+03  0.25500000920E-02 0. -1.
</event>
<event>
 5   0  0.7123340E-02  0.5907752E+03  0.7818609E-02  0.9924732E-01
       -1   -1    0    0    0  501  0.00000000000E+00  0.00000000000E+00  0.13708256952E+03  0.13708256962E+03  0.50400001928E-02 0.  1.
        1   -1    0    0  501    0  0.00000000000E+00  0.00000000000E+00 -0.63650571160E+03  0.63650571162E+03  0.50400001928E-02 0. -1.
    10030    2    1    2    0    0  0.00000000000E+00  0.00000000000E+00 -0.49942314208E+03  0.77358828124E+03  0.59077521446E+03 0.  0.
        2    1    3    3  502    0  0.27840597629E+03 -0.93211150190E+02 -0.20716701850E+03  0.35932767736E+03  0.25500000920E-02 0. -1.
       -2    1    3    3    0  502 -0.27840597629E+03  0.93211150190E+02 -0.29225612357E+03  0.41426060388E+03  0.25500000920E-02 0.  1.
</event>
<event>
 5   0  0.7266519E-02  0.6079106E+03  0.7818609E-02  0.9889129E-01
       -1   -1    0    0    0  501  0.00000000000E+00  0.00000000000E+00  0.47921911490E+02  0.47921911755E+02  0.50400001928E-02 0. -1.
        1   -1    0    0  501    0  0.00000000000E+00  0.00000000000E+00 -0.19279038028E+04  0.19279038028E+04  0.50400001928E-02 0.  1.
    10030    2    1    2    0    0  0.00000000000E+00  0.00000000000E+00 -0.18799818913E+04  0.19758257145E+04  0.60791063707E+03 0.  0.
        4    1    3    3  502    0  0.29928601994E+03  0.30262055633E+02 -0.10816377257E+04  0.11226886016E+04  0.12699999809E+01 0. -1.
       -4    1    3    3    0  502 -0.29928601994E+03 -0.30262055633E+02 -0.79834416561E+03  0.85313711290E+03  0.12699999809E+01 0.  1.
</event>
<event>
 5   0  0.7221069E-02  0.6339566E+03  0.7818609E-02  0.9837358E-01
       -1   -1    0    0    0  501  0.00000000000E+00  0.00000000000E+00  0.63676921121E+02  0.63676921320E+02  0.50400001928E-02 0.  1.
        1   -1    0    0  501    0  0.00000000000E+00  0.00000000000E+00 -0.15778912598E+04  0.15778912598E+04  0.50400001928E-02 0. -1.
    10030    2    1    2    0    0  0.00000000000E+00  0.00000000000E+00 -0.15142143387E+04  0.16415681811E+04  0.63395664665E+03 0.  0.
        5    1    3    3  502    0 -0.30831753084E+02 -0.16630229262E+03 -0.63040771213E+02  0.18056377920E+03  0.46999998093E+01 0.  1.
       -5    1    3    3    0  502  0.30831753084E+02  0.16630229262E+03 -0.14511735674E+04  0.14610044019E+04  0.46999998093E+01 0. -1.
</event>
<event>
 5   0  0.7221069E-02  0.6157790E+03  0.7818609E-02  0.9873200E-01
       -1   -1    0    0    0  501  0.00000000000E+00  0.00000000000E+00  0.13994622768E+03  0.13994622777E+03  0.50400001928E-02 0. -1.
        1   -1    0    0  501    0  0.00000000000E+00  0.00000000000E+00 -0.67737411155E+03  0.67737411157E+03  0.50400001928E-02 0.  1.
    10030    2    1    2    0    0  0.00000000000E+00  0.00000000000E+00 -0.53742788387E+03  0.81732033934E+03  0.61577902428E+03 0.  0.
        5    1    3    3  502    0  0.14104451101E+03 -0.67806460707E+02 -0.62059128074E+03  0.64003663796E+03  0.46999998093E+01 0.  1.
       -5    1    3    3    0  502 -0.14104451101E+03  0.67806460707E+02  0.83163396865E+02  0.17728370139E+03  0.46999998093E+01 0. -1.
</event>
<event>
 5   0  0.1175861E-01  0.5999783E+03  0.7818609E-02  0.9905451E-01
       -2   -1    0    0    0  501  0.00000000000E+00  0.00000000000E+00  0.20717389783E+03  0.20717389784E+03  0.25500000920E-02 0.  1.
        2   -1    0    0  501    0  0.00000000000E+00  0.00000000000E+00 -0.43438617648E+03  0.43438617649E+03  0.25500000920E-02 0. -1.
    10030    2    1    2    0    0  0.00000000000E+00  0.00000000000E+00 -0.22721227865E+03  0.64156007433E+03  0.59997825745E+03 0.  0.
        3    1    3    3  502    0  0.29140919863E+03 -0.17257027425E+02 -0.18750699795E+03  0.34695246147E+03  0.10100000352E+00 0. -1.
       -3    1    3    3    0  502 -0.29140919863E+03  0.17257027425E+02 -0.39705280708E+02  0.29460761286E+03  0.10100000352E+00 0.  1.
</event>
<event>
 5   0  0.1175861E-01  0.6038009E+03  0.7818609E-02  0.9897552E-01
        2   -1    0    0  501    0  0.00000000000E+00  0.00000000000E+00  0.60442650115E+03  0.60442650116E+03  0.25500000920E-02 0.  1.
       -2   -1    0    0    0  501  0.00000000000E+00  0.00000000000E+00 -0.15079398781E+03  0.15079398784E+03  0.25500000920E-02 0. -1.
    10030    2    1    2    0    0  0.00000000000E+00  0.00000000000E+00  0.45363251334E+03  0.75522048899E+03  0.60380090248E+03 0.  0.
        3    1    3    3  502    0  0.18785435090E+03 -0.14309186221E+03 -0.84473946618E+01  0.23629622693E+03  0.10100000352E+00 0. -1.
       -3    1    3    3    0  502 -0.18785435090E+03  0.14309186221E+03  0.46207990800E+03  0.51892426206E+03  0.10100000352E+00 0.  1.
</event>
<event>
 5   0  0.7221069E-02  0.6081599E+03  0.7818609E-02  0.9888620E-01
       -1   -1    0    0    0  501  0.00000000000E+00  0.00000000000E+00  0.13446463073E+03  0.13446463082E+03  0.50400001928E-02 0.  1.
        1   -1    0    0  501    0  0.00000000000E+00  0.00000000000E+00 -0.68765019730E+03  0.68765019732E+03  0.50400001928E-02 0. -1.
    10030    2    1    2    0    0  0.00000000000E+00  0.00000000000E+00 -0.55318556657E+03  0.82211482814E+03  0.60815994573E+03 0.  0.
        5    1    3    3  502    0 -0.22632149591E+03  0.16035044315E+03 -0.44493945961E+03  0.52433471833E+03  0.46999998093E+01 0. -1.
       -5    1    3    3    0  502  0.22632149591E+03 -0.16035044315E+03 -0.10824610696E+03  0.29778010981E+03  0.46999998093E+01 0.  1.
</event>
<event>
 5   0  0.1166419E-01  0.6218759E+03  0.7818609E-02  0.9861032E-01
       -2   -1    0    0    0  501  0.00000000000E+00  0.00000000000E+00  0.27114868893E+03  0.27114868894E+03  0.25500000920E-02 0. -1.
        2   -1    0    0  501    0  0.00000000000E+00  0.00000000000E+00 -0.35656604331E+03  0.35656604332E+03  0.25500000920E-02 0.  1.
    10030    2    1    2    0    0  0.00000000000E+00  0.00000000000E+00 -0.85417354380E+02  0.62771473226E+03  0.62187592064E+03 0.  0.
        1    1    3    3  502    0  0.12796770250E+03 -0.21453756877E+03  0.14417913293E+03  0.28842628815E+03  0.50400001928E-02 0. -1.
       -1    1    3    3    0  502 -0.12796770250E+03  0.21453756877E+03 -0.22959648731E+03  0.33928844411E+03  0.50400001928E-02 0.  1.
</event>
<event>
 5   0  0.7123340E-02  0.6002661E+03  0.7818609E-02  0.9904854E-01
        1   -1    0    0  501    0  0.00000000000E+00  0.00000000000E+00  0.81390730365E+03  0.81390730366E+03  0.50400001928E-02 0.  1.
       -1   -1    0    0    0  501  0.00000000000E+00  0.00000000000E+00 -0.11067581207E+03  0.11067581218E+03  0.50400001928E-02 0. -1.
    10030    2    1    2    0    0  0.00000000000E+00  0.00000000000E+00  0.70323149158E+03  0.92458311585E+03  0.60026611379E+03 0.  0.
        2    1    3    3  502    0  0.84768179106E+02 -0.13688138797E+03 -0.38529663928E+02  0.16554967101E+03  0.25500000920E-02 0. -1.
       -2    1    3    3    0  502 -0.84768179106E+02  0.13688138797E+03  0.74176115551E+03  0.75903344484E+03  0.25500000920E-02 0.  1.
</event>
<event>
 5   0  0.1175861E-01  0.5993496E+03  0.7818609E-02  0.9906756E-01
       -2   -1    0    0    0  501  0.00000000000E+00  0.00000000000E+00  0.11685315057E+03  0.11685315060E+03  0.25500000920E-02 0.  1.
        2   -1    0    0  501    0  0.00000000000E+00  0.00000000000E+00 -0.76852857215E+03  0.76852857215E+03  0.25500000920E-02 0. -1.
    10030    2    1    2    0    0  0.00000000000E+00  0.00000000000E+00 -0.65167542158E+03  0.88538172276E+03  0.59934959740E+03 0.  0.
        3    1    3    3  502    0  0.17780676648E+02  0.60242303286E+02  0.10701982776E+03  0.12409085906E+03  0.10100000352E+00 0.  1.
       -3    1    3    3    0  502 -0.17780676648E+02 -0.60242303286E+02 -0.75869524934E+03  0.76129086369E+03  0.10100000352E+00 0. -1.
</event>
<event>
 5   0  0.1146468E-01  0.6128588E+03  0.7818609E-02  0.9879082E-01
        2   -1    0    0  501    0  0.00000000000E+00  0.00000000000E+00  0.11336044493E+04  0.11336044493E+04  0.25500000920E-02 0. -1.
       -2   -1    0    0    0  501  0.00000000000E+00  0.00000000000E+00 -0.82832214335E+02  0.82832214374E+02  0.25500000920E-02 0.  1.
    10030    2    1    2    0    0  0.00000000000E+00  0.00000000000E+00  0.10507722349E+04  0.12164366637E+04  0.61285876591E+03 0.  0.
        4    1    3    3  502    0 -0.28912524881E+03 -0.17943845357E+02  0.32707956177E+03  0.43691880677E+03  0.12699999809E+01 0.  1.
       -4    1    3    3    0  502  0.28912524881E+03  0.17943845357E+02  0.72369267317E+03  0.77951785688E+03  0.12699999809E+01 0. -1.
</event>
<event>
 5   0  0.1206238E-01  0.6024583E+03  0.7818609E-02  0.9900319E-01
       -2   -1    0    0    0  501  0.00000000000E+00  0.00000000000E+00  0.49639976162E+03  0.49639976163E+03  0.25500000920E-02 0.  1.
        2   -1    0    0  501    0  0.00000000000E+00  0.00000000000E+00 -0.18279423220E+03  0.18279423222E+03  0.25500000920E-02 0. -1.
    10030    2    1    2    0    0  0.00000000000E+00  0.00000000000E+00  0.31360552942E+03  0.67919399384E+03  0.60245834146E+03 0.  0.
        5    1    3    3  502    0 -0.36895565407E+02 -0.19402123184E+03 -0.99562966409E+02  0.22122476224E+03  0.46999998093E+01 0. -1.
       -5    1    3    3    0  502  0.36895565407E+02  0.19402123184E+03  0.41316849583E+03  0.45796923160E+03  0.46999998093E+01 0.  1.
</event>
<event>
 5   0  0.7263385E-02  0.5514661E+03  0.7818609E-02  0.1001155E+00
        1   -1    0    0  501    0  0.00000000000E+00  0.00000000000E+00  0.68989217073E+03  0.68989217074E+03  0.50400001928E-02 0. -1.
       -1   -1    0    0    0  501  0.00000000000E+00  0.00000000000E+00 -0.11020377091E+03  0.11020377102E+03  0.50400001928E-02 0.  1.
    10030    2    1    2    0    0  0.00000000000E+00  0.00000000000E+00  0.57968839982E+03  0.80009594177E+03  0.55146611423E+03 0.  0.
        1    1    3    3  502    0 -0.45369124990E+02 -0.15767718622E+03 -0.31670279859E+02  0.16710313944E+03  0.50400001928E-02 0.  1.
       -1    1    3    3    0  502  0.45369124990E+02  0.15767718622E+03  0.61135867968E+03  0.63299280233E+03  0.50400001928E-02 0. -1.
</event>
<event>
 5   0  0.4695625E-02  0.6021864E+03  0.7818609E-02  0.9900880E-01
       -3   -1    0    0    0  501  0.00000000000E+00  0.00000000000E+00  0.20777712387E+03  0.20777714842E+03  0.10100000352E+00 0. -1.
        3   -1    0    0  501    0  0.00000000000E+00  0.00000000000E+00 -0.43631895260E+03  0.43631896429E+03  0.10100000352E+00 0.  1.
    10030    2    1    2    0    0  0.00000000000E+00  0.00000000000E+00 -0.22854182873E+03  0.64409611270E+03  0.60218637889E+03 0.  0.
        5    1    3    3  502    0  0.10581561808E+03 -0.28184291605E+03 -0.11253158770E+03  0.32143089862E+03  0.46999998093E+01 0.  1.
       -5    1    3    3    0  502 -0.10581561808E+03  0.28184291605E+03 -0.11601024103E+03  0.32266521409E+03  0.46999998093E+01 0. -1.
</event>
<event>
 5   0  0.7424930E-02  0.6663459E+03  0.7818609E-02  0.9776582E-01
       -1   -1    0    0    0  501  0.00000000000E+00  0.00000000000E+00  0.11247800113E+04  0.11247800113E+04  0.50400001928E-02 0. -1.
        1   -1    0    0  501    0  0.00000000000E+00  0.00000000000E+00 -0.98689717915E+02  0.98689718044E+02  0.50400001928E-02 0.  1.
    10030    2    1    2    0    0  0.00000000000E+00  0.00000000000E+00  0.10260902934E+04  0.12234697293E+04  0.66634592252E+03 0.  0.
        3    1    3    3  502    0  0.14417292539E+03  0.12488161037E+03  0.11477253310E+02  0.19108371612E+03  0.10100000352E+00 0.  1.
       -3    1    3    3    0  502 -0.14417292539E+03 -0.12488161037E+03  0.10146130400E+04  0.10323860132E+04  0.10100000352E+00 0. -1.
</event>
<event>
 5   0  0.7266519E-02  0.6046123E+03  0.7818609E-02  0.9895883E-01
        1   -1    0    0  501    0  0.00000000000E+00  0.00000000000E+00  0.81651794040E+03  0.81651794042E+03  0.50400001928E-02 0. -1.
       -1   -1    0    0    0  501  0.00000000000E+00  0.00000000000E+00 -0.11192528545E+03  0.11192528556E+03  0.50400001928E-02 0.  1.
    10030    2    1    2    0    0  0.00000000000E+00  0.00000000000E+00  0.70459265495E+03  0.92844322598E+03  0.60461228441E+03 0.  0.
        4    1    3    3  502    0 -0.16870477728E+03 -0.21195251214E+03  0.14626112217E+03  0.30786214129E+03  0.12699999809E+01 0.  1.
       -4    1    3    3    0  502  0.16870477728E+03  0.21195251214E+03  0.55833153278E+03  0.62058108470E+03  0.12699999809E+01 0. -1.
</event>
<event>
 5   0  0.7221069E-02  0.5929279E+03  0.7818609E-02  0.9920188E-01
       -1   -1    0    0    0  501  0.00000000000E+00  0.00000000000E+00  0.17927167147E+03  0.17927167154E+03  0.50400001928E-02 0. -1.
        1   -1    0    0  501    0  0.00000000000E+00  0.00000000000E+00 -0.49026645757E+03  0.49026645760E+03  0.50400001928E-02 0.  1.
    10030    2    1    2    0    0  0.00000000000E+00  0.00000000000E+00 -0.31099478610E+03  0.66953812913E+03  0.59292794620E+03 0.  0.
        5    1    3    3  502    0 -0.24059123653E+03  0.16245553502E+03 -0.87812282571E+02  0.30332990443E+03  0.46999998093E+01 0. -1.
       -5    1    3    3    0  502  0.24059123653E+03 -0.16245553502E+03 -0.22318250353E+03  0.36620822470E+03  0.46999998093E+01 0.  1.
</event>
<event>
 5   0  0.1175861E-01  0.6017395E+03  0.7818609E-02  0.9901804E-01
       -2   -1    0    0    0  501  0.00000000000E+00  0.00000000000E+00  0.93410821078E+02  0.93410821113E+02  0.25500000920E-02 0. -1.
        2   -1    0    0  501    0  0.00000000000E+00  0.00000000000E+00 -0.96908037520E+03  0.96908037520E+03  0.25500000920E-02 0.  1.
    10030    2    1    2    0    0  0.00000000000E+00  0.00000000000E+00 -0.87566955412E+03  0.10624911963E+04  0.60173945710E+03 0.  0.
        3    1    3    3  502    0  0.14453334968E+03  0.19587759052E+03 -0.12562698981E+03  0.27393442720E+03  0.10100000352E+00 0. -1.
       -3    1    3    3    0  502 -0.14453334968E+03 -0.19587759052E+03 -0.75004256431E+03  0.78855676911E+03  0.10100000352E+00 0.  1.
</event>
<event>
 5   0  0.7123340E-02  0.5941210E+03  0.7818609E-02  0.9917679E-01
        1   -1    0    0  501    0  0.00000000000E+00  0.00000000000E+00  0.16928590588E+04  0.16928590588E+04  0.50400001928E-02 0.  1.
       -1   -1    0    0    0  501  0.00000000000E+00  0.00000000000E+00 -0.52127748876E+02  0.52127749119E+02  0.50400001928E-02 0. -1.
    10030    2    1    2    0    0  0.00000000000E+00  0.00000000000E+00  0.16407313099E+04  0.17449868079E+04  0.59412097125E+03 0.  0.
        2    1    3    3  502    0  0.26694970038E+03 -0.24638555032E+02  0.44451300551E+03  0.51909634269E+03  0.25500000920E-02 0. -1.
       -2    1    3    3    0  502 -0.26694970038E+03  0.24638555032E+02  0.11962183044E+04  0.12258904652E+04  0.25500000920E-02 0.  1.
</event>
<event>
 5   0  0.7266519E-02  0.6255448E+03  0.7818609E-02  0.9853781E-01
        1   -1    0    0  501    0  0.00000000000E+00  0.00000000000E+00  0.32917978793E+03  0.32917978796E+03  0.50400001928E-02 0.  1.
       -1   -1    0    0    0  501  0.00000000000E+00  0.00000000000E+00 -0.29718285500E+03  0.29718285505E+03  0.50400001928E-02 0. -1.
    10030    2    1    2    0    0  0.00000000000E+00  0.00000000000E+00  0.31996932923E+02  0.62636264301E+03  0.62554484799E+03 0.  0.
        4    1    3    3  502    0  0.32876773394E+01 -0.13692440285E+03 -0.26555568691E+03  0.29879848840E+03  0.12699999809E+01 0. -1.
       -4    1    3    3    0  502 -0.32876773394E+01  0.13692440285E+03  0.29755261983E+03  0.32756415461E+03  0.12699999809E+01 0.  1.
</event>
<event>
 5   0  0.7424930E-02  0.6031155E+03  0.7818609E-02  0.9898963E-01
       -1   -1    0    0    0  501  0.00000000000E+00  0.00000000000E+00  0.14922682441E+03  0.14922682450E+03  0.50400001928E-02 0. -1.
        1   -1    0    0  501    0  0.00000000000E+00  0.00000000000E+00 -0.60938817786E+03  0.60938817788E+03  0.50400001928E-02 0.  1.
    10030    2    1    2    0    0  0.00000000000E+00  0.00000000000E+00 -0.46016135344E+03  0.75861500238E+03  0.60311545382E+03 0.  0.
        3    1    3    3  502    0 -0.13524220061E+03 -0.97161234726E+01  0.10872154780E+03  0.17379655071E+03  0.10100000352E+00 0. -1.
       -3    1    3    3    0  502  0.13524220061E+03  0.97161234726E+01 -0.56888290125E+03  0.58481845167E+03  0.10100000352E+00 0.  1.
</event>
<event>
 5   0  0.7266519E-02  0.5866170E+03  0.7818609E-02  0.9933567E-01
       -1   -1    0    0    0  501  0.00000000000E+00  0.00000000000E+00  0.14217549456E+03  0.14217549465E+03  0.50400001928E-02 0.  1.
        1   -1    0    0  501    0  0.00000000000E+00  0.00000000000E+00 -0.60509642656E+03  0.60509642658E+03  0.50400001928E-02 0. -1.
    10030    2    1    2    0    0  0.00000000000E+00  0.00000000000E+00 -0.46292093200E+03  0.74727192123E+03  0.58661702582E+03 0.  0.
        4    1    3    3  502    0 -0.82906389342E+02  0.15077511286E+03  0.71124228245E+02  0.18619042079E+03  0.12699999809E+01 0.  1.
       -4    1    3    3    0  502  0.82906389342E+02 -0.15077511286E+03 -0.53404516024E+03  0.56108150043E+03  0.12699999809E+01 0. -1.
</event>
<event>
 5   0  0.1219020E-01  0.6022854E+03  0.7818609E-02  0.9900676E-01
        2   -1    0    0  501    0  0.00000000000E+00  0.00000000000E+00  0.11404499696E+04  0.11404499696E+04  0.25500000920E-02 0. -1.
       -2   -1    0    0    0  501  0.00000000000E+00  0.00000000000E+00 -0.79518546332E+02  0.79518546373E+02  0.25500000920E-02 0.  1.
    10030    2    1    2    0    0  0.00000000000E+00  0.00000000000E+00  0.10609314232E+04  0.12199685159E+04  0.60228539339E+03 0.  0.
        2    1    3    3  502    0 -0.10974698926E+03  0.26414399529E+03  0.33969150617E+03  0.44407969022E+03  0.25500000920E-02 0.  1.
       -2    1    3    3    0  502  0.10974698926E+03 -0.26414399529E+03  0.72123991707E+03  0.77588882573E+03  0.25500000920E-02 0. -1.
</event>
<event>
 5   0  0.1206238E-01  0.6016611E+03  0.7818609E-02  0.9901966E-01
       -2   -1    0    0    0  501  0.00000000000E+00  0.00000000000E+00  0.37028047376E+03  0.37028047377E+03  0.25500000920E-02 0. -1.
        2   -1    0    0  501    0  0.00000000000E+00  0.00000000000E+00 -0.24440670583E+03  0.24440670585E+03  0.25500000920E-02 0.  1.
    10030    2    1    2    0    0  0.00000000000E+00  0.00000000000E+00  0.12587376793E+03  0.61468717961E+03  0.60166113663E+03 0.  0.
        5    1    3    3  502    0 -0.17399993749E+03  0.15385592162E+03  0.25820124169E+03  0.34732923009E+03  0.46999998093E+01 0. -1.
       -5    1    3    3    0  502  0.17399993749E+03 -0.15385592162E+03 -0.13232747377E+03  0.26735794953E+03  0.46999998093E+01 0.  1.
</event>
<event>
 5   0  0.1175861E-01  0.5853721E+03  0.7818609E-02  0.9936228E-01
        2   -1    0    0  501    0  0.00000000000E+00  0.00000000000E+00  0.10994093373E+04  0.10994093373E+04  0.25500000920E-02 0.  1.
       -2   -1    0    0    0  501  0.00000000000E+00  0.00000000000E+00 -0.77919225297E+02  0.77919225339E+02  0.25500000920E-02 0. -1.
    10030    2    1    2    0    0  0.00000000000E+00  0.00000000000E+00  0.10214901120E+04  0.11773285626E+04  0.58537210003E+03 0.  0.
        3    1    3    3  502    0 -0.20670674652E+03 -0.12616621007E+03  0.84134630682E+03  0.87550511696E+03  0.10100000352E+00 0.  1.
       -3    1    3    3    0  502  0.20670674652E+03  0.12616621007E+03  0.18014380519E+03  0.30182344569E+03  0.10100000352E+00 0. -1.
</event>
<event>
 5   0  0.1206238E-01  0.5765084E+03  0.7818609E-02  0.9955379E-01
        2   -1    0    0  501    0  0.00000000000E+00  0.00000000000E+00  0.86226295504E+03  0.86226295504E+03  0.25500000920E-02 0. -1.
       -2   -1    0    0    0  501  0.00000000000E+00  0.00000000000E+00 -0.96363282882E+02  0.96363282916E+02  0.25500000920E-02 0.  1.
    10030    2    1    2    0    0  0.00000000000E+00  0.00000000000E+00  0.76589967215E+03  0.95862623796E+03  0.57650841823E+03 0.  0.
        5    1    3    3  502    0 -0.25406068723E+03  0.19922328858E+02  0.15908871337E+03  0.30045805149E+03  0.46999998093E+01 0.  1.
       -5    1    3    3    0  502  0.25406068723E+03 -0.19922328858E+02  0.60681095878E+03  0.65816818647E+03  0.46999998093E+01 0. -1.
</event>
<event>
 5   0  0.7266519E-02  0.5970785E+03  0.7818609E-02  0.9911486E-01
       -1   -1    0    0    0  501  0.00000000000E+00  0.00000000000E+00  0.16333382503E+03  0.16333382511E+03  0.50400001928E-02 0.  1.
        1   -1    0    0  501    0  0.00000000000E+00  0.00000000000E+00 -0.54566580102E+03  0.54566580104E+03  0.50400001928E-02 0. -1.
    10030    2    1    2    0    0  0.00000000000E+00  0.00000000000E+00 -0.38233197599E+03  0.70899962616E+03  0.59707849570E+03 0.  0.
        4    1    3    3  502    0  0.69381683384E+01 -0.18332097128E+03  0.88500949071E+02  0.20368786802E+03  0.12699999809E+01 0.  1.
       -4    1    3    3    0  502 -0.69381683384E+01  0.18332097128E+03 -0.47083292506E+03  0.50531175814E+03  0.12699999809E+01 0. -1.
</event>
<event>
 5   0  0.7424930E-02  0.5886360E+03  0.7818609E-02  0.9929267E-01
       -1   -1    0    0    0  501  0.00000000000E+00  0.00000000000E+00  0.12924740671E+03  0.12924740681E+03  0.50400001928E-02 0.  1.
        1   -1    0    0  501    0  0.00000000000E+00  0.00000000000E+00 -0.67021143512E+03  0.67021143513E+03  0.50400001928E-02 0. -1.
    10030    2    1    2    0    0  0.00000000000E+00  0.00000000000E+00 -0.54096402841E+03  0.79945884194E+03  0.58863601651E+03 0.  0.
        3    1    3    3  502    0 -0.11196424878E+03  0.12295413511E+03 -0.60029102218E+03  0.62289889537E+03  0.10100000352E+00 0. -1.
       -3    1    3    3    0  502  0.11196424878E+03 -0.12295413511E+03  0.59326993770E+02  0.17655994657E+03  0.10100000352E+00 0.  1.
</event>
<event>
 5   0  0.7424930E-02  0.6046297E+03  0.7818609E-02  0.9895847E-01
       -1   -1    0    0    0  501  0.00000000000E+00  0.00000000000E+00  0.91533665537E+02  0.91533665676E+02  0.50400001928E-02 0. -1.
        1   -1    0    0  501    0  0.00000000000E+00  0.00000000000E+00 -0.99847715206E+03  0.99847715207E+03  0.50400001928E-02 0.  1.
    10030    2    1    2    0    0  0.00000000000E+00  0.00000000000E+00 -0.90694348652E+03  0.10900108177E+04  0.60462971732E+03 0.  0.
        3    1    3    3  502    0  0.13077408468E+03 -0.34534934171E+02 -0.94088713286E+03  0.95055937735E+03  0.10100000352E+00 0.  1.
       -3    1    3    3    0  502 -0.13077408468E+03  0.34534934171E+02  0.33943646331E+02  0.13945144040E+03  0.10100000352E+00 0. -1.
</event>
<event>
 5   0  0.7221069E-02  0.6463493E+03  0.7818609E-02  0.9813654E-01
        1   -1    0    0  501    0  0.00000000000E+00  0.00000000000E+00  0.17111632011E+03  0.17111632018E+03  0.50400001928E-02 0. -1.
       -1   -1    0    0    0  501  0.00000000000E+00  0.00000000000E+00 -0.61035580482E+03  0.61035580484E+03  0.50400001928E-02 0.  1.
    10030    2    1    2    0    0  0.00000000000E+00  0.00000000000E+00 -0.43923948472E+03  0.78147212502E+03  0.64634925331E+03 0.  0.
        5    1    3    3  502    0 -0.43250322773E+02 -0.29070816241E+03 -0.57237136391E+02  0.29946620158E+03  0.46999998093E+01 0. -1.
       -5    1    3    3    0  502  0.43250322773E+02  0.29070816241E+03 -0.38200234832E+03  0.48200592344E+03  0.46999998093E+01 0.  1.
</event>
<event>
 5   0  0.1219020E-01  0.6004376E+03  0.7818609E-02  0.9904499E-01
        2   -1    0    0  501    0  0.00000000000E+00  0.00000000000E+00  0.17873089809E+03  0.17873089811E+03  0.25500000920E-02 0. -1.
       -2   -1    0    0    0  501  0.00000000000E+00  0.00000000000E+00 -0.50428515497E+03  0.50428515498E+03  0.25500000920E-02 0.  1.
    10030    2    1    2    0    0  0.00000000000E+00  0.00000000000E+00 -0.32555425688E+03  0.68301605309E+03  0.60043763590E+03 0.  0.
        2    1    3    3  502    0  0.20113248229E+03  0.15458808081E+03  0.19865014896E+02  0.25445307816E+03  0.25500000920E-02 0. -1.
       -2    1    3    3    0  502 -0.20113248229E+03 -0.15458808081E+03 -0.34541927178E+03  0.42856297493E+03  0.25500000920E-02 0.  1.
</event>
<event>
 5   0  0.1175861E-01  0.5449798E+03  0.7818609E-02  0.1002663E+00
       -2   -1    0    0    0  501  0.00000000000E+00  0.00000000000E+00  0.33050000919E+03  0.33050000920E+03  0.25500000920E-02 0.  1.
        2   -1    0    0  501    0  0.00000000000E+00  0.00000000000E+00 -0.22466182078E+03  0.22466182080E+03  0.25500000920E-02 0. -1.
    10030    2    1    2    0    0  0.00000000000E+00  0.00000000000E+00  0.10583818841E+03  0.55516183000E+03  0.54497975684E+03 0.  0.
        3    1    3    3  502    0  0.14303727883E+03 -0.21912302532E+03  0.13034010655E+03  0.29234075483E+03  0.10100000352E+00 0.  1.
       -3    1    3    3    0  502 -0.14303727883E+03  0.21912302532E+03 -0.24501918142E+02  0.26282107517E+03  0.10100000352E+00 0. -1.
</event>
<event>
 5   0  0.1175861E-01  0.6027773E+03  0.7818609E-02  0.9899661E-01
       -2   -1    0    0    0  501  0.00000000000E+00  0.00000000000E+00  0.21802343467E+03  0.21802343468E+03  0.25500000920E-02 0.  1.
        2   -1    0    0  501    0  0.00000000000E+00  0.00000000000E+00 -0.41663002681E+03  0.41663002682E+03  0.25500000920E-02 0. -1.
    10030    2    1    2    0    0  0.00000000000E+00  0.00000000000E+00 -0.19860659215E+03  0.63465346150E+03  0.60277727043E+03 0.  0.
        3    1    3    3  502    0  0.18822341047E+03  0.22462386806E+03 -0.25217751035E+02  0.29414261766E+03  0.10100000352E+00 0. -1.
       -3    1    3    3    0  502 -0.18822341047E+03 -0.22462386806E+03 -0.17338884111E+03  0.34051084385E+03  0.10100000352E+00 0.  1.
</event>
<event>
 5   0  0.7123340E-02  0.5930010E+03  0.7818609E-02  0.9920034E-01
        1   -1    0    0  501    0  0.00000000000E+00  0.00000000000E+00  0.67727226457E+03  0.67727226458E+03  0.50400001928E-02 0. -1.
       -1   -1    0    0    0  501  0.00000000000E+00  0.00000000000E+00 -0.12980386882E+03  0.12980386892E+03  0.50400001928E-02 0.  1.
    10030    2    1    2    0    0  0.00000000000E+00  0.00000000000E+00  0.54746839575E+03  0.80707613350E+03  0.59300104631E+03 0.  0.
        2    1    3    3  502    0 -0.65719551747E+02  0.94561935910E+02 -0.98124919121E+02  0.15129282522E+03  0.25500000920E-02 0.  1.
       -2    1    3    3    0  502  0.65719551747E+02 -0.94561935910E+02  0.64559331487E+03  0.65578330828E+03  0.25500000920E-02 0. -1.
</event>
<event>
 5   0  0.1146468E-01  0.5973652E+03  0.7818609E-02  0.9910888E-01
       -2   -1    0    0    0  501  0.00000000000E+00  0.00000000000E+00  0.13275689082E+03  0.13275689085E+03  0.25500000920E-02 0. -1.
        2   -1    0    0  501    0  0.00000000000E+00  0.00000000000E+00 -0.67198993960E+03  0.67198993960E+03  0.25500000920E-02 0.  1.
    10030    2    1    2    0    0  0.00000000000E+00  0.00000000000E+00 -0.53923304878E+03  0.80474683045E+03  0.59736519837E+03 0.  0.
        4    1    3    3  502    0  0.14582748417E+01 -0.24295709087E+03 -0.35584810855E+02  0.24555684929E+03  0.12699999809E+01 0. -1.
       -4    1    3    3    0  502 -0.14582748417E+01  0.24295709087E+03 -0.50364823792E+03  0.55918998116E+03  0.12699999809E+01 0.  1.
</event>
<event>
 5   0  0.1175861E-01  0.5976338E+03  0.7818609E-02  0.9910327E-01
       -2   -1    0    0    0  501  0.00000000000E+00  0.00000000000E+00  0.10185748260E+03  0.10185748263E+03  0.25500000920E-02 0. -1.
        2   -1    0    0  501    0  0.00000000000E+00  0.00000000000E+00 -0.87663205965E+03  0.87663205965E+03  0.25500000920E-02 0.  1.
    10030    2    1    2    0    0  0.00000000000E+00  0.00000000000E+00 -0.77477457705E+03  0.97848954228E+03  0.59763378345E+03 0.  0.
        3    1    3    3  502    0 -0.17725244004E+02  0.22101444958E+03 -0.71537334146E+03  0.74894632590E+03  0.10100000352E+00 0.  1.
       -3    1    3    3    0  502  0.17725244004E+02 -0.22101444958E+03 -0.59401235580E+02  0.22954321638E+03  0.10100000352E+00 0. -1.
</event>
<event>
 5   0  0.1175861E-01  0.6048286E+03  0.7818609E-02  0.9895439E-01
        2   -1    0    0  501    0  0.00000000000E+00  0.00000000000E+00  0.33923247548E+03  0.33923247548E+03  0.25500000920E-02 0. -1.
       -2   -1    0    0    0  501  0.00000000000E+00  0.00000000000E+00 -0.26959216121E+03  0.26959216122E+03  0.25500000920E-02 0.  1.
    10030    2    1    2    0    0  0.00000000000E+00  0.00000000000E+00  0.69640314263E+02  0.60882463671E+03  0.60482862440E+03 0.  0.
        3    1    3    3  502    0 -0.71793665739E+02 -0.19756559767E+03  0.25366840935E+03  0.32944524268E+03  0.10100000352E+00 0. -1.
       -3    1    3    3    0  502  0.71793665739E+02  0.19756559767E+03 -0.18402809509E+03  0.27937939402E+03  0.10100000352E+00 0.  1.
</event>
<event>
 5   0  0.4695625E-02  0.5998399E+03  0.7818609E-02  0.9905738E-01
        3   -1    0    0  501    0  0.00000000000E+00  0.00000000000E+00  0.16059956115E+03  0.16059959291E+03  0.10100000352E+00 0.  1.
       -3   -1    0    0    0  501  0.00000000000E+00  0.00000000000E+00 -0.56010089794E+03  0.56010090705E+03  0.10100000352E+00 0. -1.
    10030    2    1    2    0    0  0.00000000000E+00  0.00000000000E+00 -0.39950133679E+03  0.72070049996E+03  0.59983988909E+03 0.  0.
        1    1    3    3  502    0  0.10932536885E+03 -0.98125911461E+02 -0.51391452255E+03  0.53449870653E+03  0.50400001928E-02 0. -1.
       -1    1    3    3    0  502 -0.10932536885E+03  0.98125911461E+02  0.11441318576E+03  0.18620179343E+03  0.50400001928E-02 0.  1.
</event>
<event>
 5   0  0.1175861E-01  0.5968775E+03  0.7818609E-02  0.9911906E-01
       -2   -1    0    0    0  501  0.00000000000E+00  0.00000000000E+00  0.14294659894E+03  0.14294659897E+03  0.25500000920E-02 0. -1.
        2   -1    0    0  501    0  0.00000000000E+00  0.00000000000E+00 -0.62306955914E+03  0.62306955914E+03  0.25500000920E-02 0.  1.
    10030    2    1    2    0    0  0.00000000000E+00  0.00000000000E+00 -0.48012296019E+03  0.76601615811E+03  0.59687745608E+03 0.  0.
        3    1    3    3  502    0  0.23158655079E+03  0.69076121456E+02 -0.46478666253E+03  0.52386113898E+03  0.10100000352E+00 0.  1.
       -3    1    3    3    0  502 -0.23158655079E+03 -0.69076121456E+02 -0.15336297663E+02  0.24215501913E+03  0.10100000352E+00 0. -1.
</event>
<event>
 5   0  0.1206238E-01  0.6039878E+03  0.7818609E-02  0.9897167E-01
       -2   -1    0    0    0  501  0.00000000000E+00  0.00000000000E+00  0.16297677326E+03  0.16297677328E+03  0.25500000920E-02 0. -1.
        2   -1    0    0  501    0  0.00000000000E+00  0.00000000000E+00 -0.55959094626E+03  0.55959094627E+03  0.25500000920E-02 0.  1.
    10030    2    1    2    0    0  0.00000000000E+00  0.00000000000E+00 -0.39661417301E+03  0.72256771955E+03  0.60398783688E+03 0.  0.
        5    1    3    3  502    0 -0.16413266610E+03 -0.17411855553E+03 -0.41864410079E+03  0.48222585640E+03  0.46999998093E+01 0.  1.
       -5    1    3    3    0  502  0.16413266610E+03  0.17411855553E+03  0.22029927779E+02  0.24034186314E+03  0.46999998093E+01 0. -1.
</event>
<event>
 5   0  0.7424930E-02  0.4460534E+03  0.7818609E-02  0.1028906E+00
       -1   -1    0    0    0  501  0.00000000000E+00  0.00000000000E+00  0.31108849019E+02  0.31108849427E+02  0.50400001928E-02 0.  1.
        1   -1    0    0  501    0  0.00000000000E+00  0.00000000000E+00 -0.15989313126E+04  0.15989313126E+04  0.50400001928E-02 0. -1.
    10030    2    1    2    0    0  0.00000000000E+00  0.00000000000E+00 -0.15678224636E+04  0.16300401621E+04  0.44605341893E+03 0.  0.
        3    1    3    3  502    0 -0.55459970123E+02 -0.20021293671E+03 -0.48748253709E+03  0.52990589964E+03  0.10100000352E+00 0.  1.
       -3    1    3    3    0  502  0.55459970123E+02  0.20021293671E+03 -0.10803399265E+04  0.11001342624E+04  0.10100000352E+00 0. -1.
</event>
<event>
 5   0  0.4695625E-02  0.6020385E+03  0.7818609E-02  0.9901186E-01
       -3   -1    0    0    0  501  0.00000000000E+00  0.00000000000E+00  0.11166484196E+03  0.11166488763E+03  0.10100000352E+00 0. -1.
        3   -1    0    0  501    0  0.00000000000E+00  0.00000000000E+00 -0.81146906312E+03  0.81146906940E+03  0.10100000352E+00 0.  1.
    10030    2    1    2    0    0  0.00000000000E+00  0.00000000000E+00 -0.69980422116E+03  0.92313395704E+03  0.60203849934E+03 0.  0.
        1    1    3    3  502    0  0.24447416173E+03  0.17560255166E+03 -0.35442918424E+03  0.46499883717E+03  0.50400001928E-02 0.  1.
       -1    1    3    3    0  502 -0.24447416173E+03 -0.17560255166E+03 -0.34537503692E+03  0.45813511987E+03  0.50400001928E-02 0. -1.
</event>
<event>
 5   0  0.7123340E-02  0.5964948E+03  0.7818609E-02  0.9912705E-01
       -1   -1    0    0    0  501  0.00000000000E+00  0.00000000000E+00  0.72074387260E+03  0.72074387262E+03  0.50400001928E-02 0. -1.
        1   -1    0    0  501    0  0.00000000000E+00  0.00000000000E+00 -0.12341626347E+03  0.12341626357E+03  0.50400001928E-02 0.  1.
    10030    2    1    2    0    0  0.00000000000E+00  0.00000000000E+00  0.59732760913E+03  0.84416013619E+03  0.59649481382E+03 0.  0.
        2    1    3    3  502    0 -0.22111026869E+03  0.63286848072E+02  0.29937493661E+02  0.23192936337E+03  0.25500000920E-02 0.  1.
       -2    1    3    3    0  502  0.22111026869E+03 -0.63286848072E+02  0.56739011547E+03  0.61223077283E+03  0.25500000920E-02 0. -1.
</event>
<event>
 5   0  0.7266519E-02  0.5995044E+03  0.7818609E-02  0.9906435E-01
       -1   -1    0    0    0  501  0.00000000000E+00  0.00000000000E+00  0.25859441592E+03  0.25859441597E+03  0.50400001928E-02 0. -1.
        1   -1    0    0  501    0  0.00000000000E+00  0.00000000000E+00 -0.34746064337E+03  0.34746064341E+03  0.50400001928E-02 0.  1.
    10030    2    1    2    0    0  0.00000000000E+00  0.00000000000E+00 -0.88866227452E+02  0.60605505938E+03  0.59950440250E+03 0.  0.
        4    1    3    3  502    0 -0.70845986361E+02 -0.61124340036E+02 -0.33231558262E+03  0.34523991380E+03  0.12699999809E+01 0.  1.
       -4    1    3    3    0  502  0.70845986361E+02  0.61124340036E+02  0.24344935517E+03  0.26081514558E+03  0.12699999809E+01 0. -1.
</event>
<event>
 5   0  0.1175861E-01  0.6059363E+03  0.7818609E-02  0.9893166E-01
        2   -1    0    0  501    0  0.00000000000E+00  0.00000000000E+00  0.12198204023E+04  0.12198204023E+04  0.25500000920E-02 0.  1.
       -2   -1    0    0    0  501  0.00000000000E+00  0.00000000000E+00 -0.75248542479E+02  0.75248542522E+02  0.25500000920E-02 0. -1.
    10030    2    1    2    0    0  0.00000000000E+00  0.00000000000E+00  0.11445718598E+04  0.12950689448E+04  0.60593632467E+03 0.  0.
        3    1    3    3  502    0  0.20927072307E+03  0.19069170392E+03  0.80279904043E+03  0.85126016645E+03  0.10100000352E+00 0.  1.
       -3    1    3    3    0  502 -0.20927072307E+03 -0.19069170392E+03  0.34177281938E+03  0.44380877836E+03  0.10100000352E+00 0. -1.
</event>
<event>
 5   0  0.1175861E-01  0.5971208E+03  0.7818609E-02  0.9911397E-01
       -2   -1    0    0    0  501  0.00000000000E+00  0.00000000000E+00  0.58140693499E+02  0.58140693555E+02  0.25500000920E-02 0. -1.
        2   -1    0    0  501    0  0.00000000000E+00  0.00000000000E+00 -0.15331486544E+04  0.15331486544E+04  0.25500000920E-02 0.  1.
    10030    2    1    2    0    0  0.00000000000E+00  0.00000000000E+00 -0.14750079609E+04  0.15912893480E+04  0.59712084556E+03 0.  0.
        3    1    3    3  502    0 -0.22329879425E+03  0.19780615626E+03 -0.70500825986E+03  0.76552353565E+03  0.10100000352E+00 0. -1.
       -3    1    3    3    0  502  0.22329879425E+03 -0.19780615626E+03 -0.76999970104E+03  0.82576581230E+03  0.10100000352E+00 0.  1.
</event>
<event>
 5   0  0.1166419E-01  0.5883143E+03  0.7818609E-02  0.9929951E-01
        2   -1    0    0  501    0  0.00000000000E+00  0.00000000000E+00  0.46775283374E+03  0.46775283375E+03  0.25500000920E-02 0.  1.
       -2   -1    0    0    0  501  0.00000000000E+00  0.00000000000E+00 -0.18498749507E+03  0.18498749509E+03  0.25500000920E-02 0. -1.
    10030    2    1    2    0    0  0.00000000000E+00  0.00000000000E+00  0.28276533867E+03  0.65274032884E+03  0.58831428688E+03 0.  0.
        1    1    3    3  502    0 -0.14967763957E+03  0.89535642321E+02  0.40419454467E+03  0.44021955544E+03  0.50400001928E-02 0.  1.
       -1    1    3    3    0  502  0.14967763957E+03 -0.89535642321E+02 -0.12142920600E+03  0.21252077340E+03  0.50400001928E-02 0. -1.
</event>
<event>
 5   0  0.7263385E-02  0.5998481E+03  0.7818609E-02  0.9905721E-01
       -1   -1    0    0    0  501  0.00000000000E+00  0.00000000000E+00  0.14502741919E+03  0.14502741928E+03  0.50400001928E-02 0. -1.
        1   -1    0    0  501    0  0.00000000000E+00  0.00000000000E+00 -0.62025816039E+03  0.62025816041E+03  0.50400001928E-02 0.  1.
    10030    2    1    2    0    0  0.00000000000E+00  0.00000000000E+00 -0.47523074120E+03  0.76528557969E+03  0.59984811503E+03 0.  0.
        1    1    3    3  502    0  0.19943790422E+01 -0.26657828602E+03 -0.41294598089E+03  0.49152044035E+03  0.50400001928E-02 0.  1.
       -1    1    3    3    0  502 -0.19943790422E+01  0.26657828602E+03 -0.62284760307E+02  0.27376513934E+03  0.50400001928E-02 0. -1.
</event>
<event>
 5   0  0.1219020E-01  0.6088036E+03  0.7818609E-02  0.9887308E-01
        2   -1    0    0  501    0  0.00000000000E+00  0.00000000000E+00  0.24621620575E+04  0.24621620575E+04  0.25500000920E-02 0. -1.
       -2   -1    0    0    0  501  0.00000000000E+00  0.00000000000E+00 -0.37633775259E+02  0.37633775345E+02  0.25500000920E-02 0.  1.
    10030    2    1    2    0    0  0.00000000000E+00  0.00000000000E+00  0.24245282823E+04  0.24997958329E+04  0.60880359274E+03 0.  0.
        2    1    3    3  502    0  0.29937068318E+03 -0.24820907863E+02  0.14143220556E+04  0.14458719723E+04  0.25500000920E-02 0. -1.
       -2    1    3    3    0  502 -0.29937068318E+03  0.24820907863E+02  0.10102062267E+04  0.10539238606E+04  0.25500000920E-02 0.  1.
</event>
<event>
 5   0  0.1175861E-01  0.5023765E+03  0.7818609E-02  0.1013160E+00
       -2   -1    0    0    0  501  0.00000000000E+00  0.00000000000E+00  0.12737627786E+03  0.12737627789E+03  0.25500000920E-02 0. -1.
        2   -1    0    0  501    0  0.00000000000E+00  0.00000000000E+00 -0.49534764359E+03  0.49534764360E+03  0.25500000920E-02 0.  1.
    10030    2    1    2    0    0  0.00000000000E+00  0.00000000000E+00 -0.36797136573E+03  0.62272392149E+03  0.50237650860E+03 0.  0.
        3    1    3    3  502    0  0.16760106280E+03 -0.12960570923E+03 -0.35124666337E+03  0.41019749493E+03  0.10100000352E+00 0.  1.
       -3    1    3    3    0  502 -0.16760106280E+03  0.12960570923E+03 -0.16724702361E+02  0.21252642656E+03  0.10100000352E+00 0. -1.
</event>
<event>
 5   0  0.7263385E-02  0.5445492E+03  0.7818609E-02  0.1002764E+00
        1   -1    0    0  501    0  0.00000000000E+00  0.00000000000E+00  0.20444686170E+03  0.20444686176E+03  0.50400001928E-02 0. -1.
       -1   -1    0    0    0  501  0.00000000000E+00  0.00000000000E+00 -0.36260495600E+03  0.36260495603E+03  0.50400001928E-02 0.  1.
    10030    2    1    2    0    0  0.00000000000E+00  0.00000000000E+00 -0.15815809430E+03  0.56705181779E+03  0.54454915414E+03 0.  0.
        1    1    3    3  502    0 -0.13646164207E+03  0.18141103170E+03  0.77472095619E+02  0.23986176812E+03  0.50400001928E-02 0. -1.
       -1    1    3    3    0  502  0.13646164207E+03 -0.18141103170E+03 -0.23563018992E+03  0.32719004967E+03  0.50400001928E-02 0.  1.
</event>
<event>
 5   0  0.1146468E-01  0.5708092E+03  0.7818609E-02  0.9967889E-01
       -2   -1    0    0    0  501  0.00000000000E+00  0.00000000000E+00  0.28998630435E+03  0.28998630436E+03  0.25500000920E-02 0.  1.
        2   -1    0    0  501    0  0.00000000000E+00  0.00000000000E+00 -0.28089533384E+03  0.28089533385E+03  0.25500000920E-02 0. -1.
    10030    2    1    2    0    0  0.00000000000E+00  0.00000000000E+00  0.90909705130E+01  0.57088163821E+03  0.57080924932E+03 0.  0.
        4    1    3    3  502    0  0.22556757045E+03  0.68651701827E+02 -0.15628660551E+03  0.28287965809E+03  0.12699999809E+01 0. -1.
       -4    1    3    3    0  502 -0.22556757045E+03 -0.68651701827E+02  0.16537757603E+03  0.28800198012E+03  0.12699999809E+01 0.  1.
</event>
<event>
 5   0  0.7221069E-02  0.5834648E+03  0.7818609E-02  0.9940318E-01
        1   -1    0    0  501    0  0.00000000000E+00  0.00000000000E+00  0.20663974952E+03  0.20663974958E+03  0.50400001928E-02 0. -1.
       -1   -1    0    0    0  501  0.00000000000E+00  0.00000000000E+00 -0.41186553727E+03  0.41186553730E+03  0.50400001928E-02 0.  1.
    10030    2    1    2    0    0  0.00000000000E+00  0.00000000000E+00 -0.20522578775E+03  0.61850528689E+03  0.58346479410E+03 0.  0.
        5    1    3    3  502    0  0.60239899684E+02 -0.23841556718E+02  0.19887645907E+03  0.20921568132E+03  0.46999998093E+01 0. -1.
       -5    1    3    3    0  502 -0.60239899684E+02  0.23841556718E+02 -0.40410224682E+03  0.40928960556E+03  0.46999998093E+01 0.  1.
</event>
<event>
 5   0  0.1206238E-01  0.5366060E+03  0.7818609E-02  0.1004643E+00
       -2   -1    0    0    0  501  0.00000000000E+00  0.00000000000E+00  0.20721943215E+03  0.20721943217E+03  0.25500000920E-02 0. -1.
        2   -1    0    0  501    0  0.00000000000E+00  0.00000000000E+00 -0.34739256033E+03  0.34739256034E+03  0.25500000920E-02 0.  1.
    10030    2    1    2    0    0  0.00000000000E+00  0.00000000000E+00 -0.14017312818E+03  0.55461199251E+03  0.53660596006E+03 0.  0.
        5    1    3    3  502    0 -0.21348185611E+03  0.14785792873E+03 -0.13963439249E+03  0.29488357625E+03  0.46999998093E+01 0.  1.
       -5    1    3    3    0  502  0.21348185611E+03 -0.14785792873E+03 -0.53873569001E+00  0.25972841626E+03  0.46999998093E+01 0. -1.
</event>
<event>
 5   0  0.1146468E-01  0.6124793E+03  0.7818609E-02  0.9879848E-01
        2   -1    0    0  501    0  0.00000000000E+00  0.00000000000E+00  0.22209333028E+03  0.22209333030E+03  0.25500000920E-02 0.  1.
       -2   -1    0    0    0  501  0.00000000000E+00  0.00000000000E+00 -0.42226721733E+03  0.42226721733E+03  0.25500000920E-02 0. -1.
    10030    2    1    2    0    0  0.00000000000E+00  0.00000000000E+00 -0.20017388705E+03  0.64436054763E+03  0.61247933050E+03 0.  0.
        4    1    3    3  502    0  0.28656005516E+03 -0.97057793266E+02 -0.50247626846E+02  0.30669743616E+03  0.12699999809E+01 0.  1.
       -4    1    3    3    0  502 -0.28656005516E+03  0.97057793266E+02 -0.14992626020E+03  0.33766311146E+03  0.12699999809E+01 0. -1.
</event>
<event>
 5   0  0.1175861E-01  0.5945331E+03  0.7818609E-02  0.9916814E-01
        2   -1    0    0  501    0  0.00000000000E+00  0.00000000000E+00  0.31468428453E+03  0.31468428454E+03  0.25500000920E-02 0. -1.
       -2   -1    0    0    0  501  0.00000000000E+00  0.00000000000E+00 -0.28081285488E+03  0.28081285489E+03  0.25500000920E-02 0.  1.
    10030    2    1    2    0    0  0.00000000000E+00  0.00000000000E+00  0.33871429650E+02  0.59549713943E+03  0.59453306832E+03 0.  0.
        3    1    3    3  502    0 -0.81980486306E+02  0.36938979166E+02  0.30073611897E+03  0.31389092337E+03  0.10100000352E+00 0. -1.
       -3    1    3    3    0  502  0.81980486306E+02 -0.36938979166E+02 -0.26686468932E+03  0.28160621606E+03  0.10100000352E+00 0.  1.
</event>
<event>
 5   0  0.1175861E-01  0.5991129E+03  0.7818609E-02  0.9907248E-01
       -2   -1    0    0    0  501  0.00000000000E+00  0.00000000000E+00  0.10718883101E+03  0.10718883104E+03  0.25500000920E-02 0. -1.
        2   -1    0    0  501    0  0.00000000000E+00  0.00000000000E+00 -0.83715873219E+03  0.83715873219E+03  0.25500000920E-02 0.  1.
    10030    2    1    2    0    0  0.00000000000E+00  0.00000000000E+00 -0.72996990118E+03  0.94434756323E+03  0.59911289716E+03 0.  0.
        3    1    3    3  502    0  0.74386673427E+02 -0.28636079090E+03 -0.29108325210E+03  0.41504861113E+03  0.10100000352E+00 0. -1.
       -3    1    3    3    0  502 -0.74386673427E+02  0.28636079090E+03 -0.43888664908E+03  0.52929895209E+03  0.10100000352E+00 0.  1.
</event>
<event>
 5   0  0.1146468E-01  0.6018386E+03  0.7818609E-02  0.9901599E-01
       -2   -1    0    0    0  501  0.00000000000E+00  0.00000000000E+00  0.73177055670E+02  0.73177055714E+02  0.25500000920E-02 0. -1.
        2   -1    0    0  501    0  0.00000000000E+00  0.00000000000E+00 -0.12374427733E+04  0.12374427733E+04  0.25500000920E-02 0.  1.
    10030    2    1    2    0    0  0.00000000000E+00  0.00000000000E+00 -0.11642657176E+04  0.13106198290E+04  0.60183857882E+03 0.  0.
        4    1    3    3  502    0  0.52017670653E+02  0.20119429922E+03 -0.10818643661E+03  0.23428807496E+03  0.12699999809E+01 0. -1.
       -4    1    3    3    0  502 -0.52017670653E+02 -0.20119429922E+03 -0.10560792810E+04  0.10763317540E+04  0.12699999809E+01 0.  1.
</event>
<event>
 5   0  0.1175861E-01  0.6057941E+03  0.7818609E-02  0.9893458E-01
       -2   -1    0    0    0  501  0.00000000000E+00  0.00000000000E+00  0.78090138215E+02  0.78090138257E+02  0.25500000920E-02 0.  1.
        2   -1    0    0  501    0  0.00000000000E+00  0.00000000000E+00 -0.11748808763E+04  0.11748808763E+04  0.25500000920E-02 0. -1.
    10030    2    1    2    0    0  0.00000000000E+00  0.00000000000E+00 -0.10967907381E+04  0.12529710146E+04  0.60579405756E+03 0.  0.
        3    1    3    3  502    0  0.23037425089E+03 -0.18091231987E+03 -0.38892011874E+03  0.48688852103E+03  0.10100000352E+00 0.  1.
       -3    1    3    3    0  502 -0.23037425089E+03  0.18091231987E+03 -0.70787061934E+03  0.76608249352E+03  0.10100000352E+00 0. -1.
</event>
<event>
 5   0  0.4695625E-02  0.5935431E+03  0.7818609E-02  0.9918893E-01
       -3   -1    0    0    0  501  0.00000000000E+00  0.00000000000E+00  0.86359739949E+03  0.86359740539E+03  0.10100000352E+00 0. -1.
        3   -1    0    0  501    0  0.00000000000E+00  0.00000000000E+00 -0.10198424181E+03  0.10198429182E+03  0.10100000352E+00 0.  1.
    10030    2    1    2    0    0  0.00000000000E+00  0.00000000000E+00  0.76161315767E+03  0.96558169722E+03  0.59354310042E+03 0.  0.
        1    1    3    3  502    0 -0.59279920927E+02 -0.26901221658E+03  0.56043224285E+03  0.62447256188E+03  0.50400001928E-02 0. -1.
       -1    1    3    3    0  502  0.59279920927E+02  0.26901221658E+03  0.20118091482E+03  0.34110913533E+03  0.50400001928E-02 0.  1.
</event>
<event>
 5   0  0.7221069E-02  0.6152393E+03  0.7818609E-02  0.9874284E-01
       -1   -1    0    0    0  501  0.00000000000E+00  0.00000000000E+00  0.12434317941E+03  0.12434317951E+03  0.50400001928E-02 0. -1.
        1   -1    0    0  501    0  0.00000000000E+00  0.00000000000E+00 -0.76103771896E+03  0.76103771898E+03  0.50400001928E-02 0.  1.
    10030    2    1    2    0    0  0.00000000000E+00  0.00000000000E+00 -0.63669453956E+03  0.88538089849E+03  0.61523930198E+03 0.  0.
        5    1    3    3  502    0  0.24301291057E+03 -0.17780825893E+03 -0.22805456132E+03  0.37775921509E+03  0.46999998093E+01 0. -1.
       -5    1    3    3    0  502 -0.24301291057E+03  0.17780825893E+03 -0.40863997824E+03  0.50762168340E+03  0.46999998093E+01 0.  1.
</event>
<event>
 5   0  0.1166419E-01  0.5972784E+03  0.7818609E-02  0.9911069E-01
       -2   -1    0    0    0  501  0.00000000000E+00  0.00000000000E+00  0.86105044367E+02  0.86105044405E+02  0.25500000920E-02 0. -1.
        2   -1    0    0  501    0  0.00000000000E+00  0.00000000000E+00 -0.10357740803E+04  0.10357740803E+04  0.25500000920E-02 0.  1.
    10030    2    1    2    0    0  0.00000000000E+00  0.00000000000E+00 -0.94966903590E+03  0.11218791247E+04  0.59727840463E+03 0.  0.
        1    1    3    3  502    0 -0.17307481615E+03  0.43555183954E+02 -0.25082411937E+02  0.18022506332E+03  0.50400001928E-02 0. -1.
       -1    1    3    3    0  502  0.17307481615E+03 -0.43555183954E+02 -0.92458662397E+03  0.94165406136E+03  0.50400001928E-02 0.  1.
</event>
<event>
 5   0  0.7263385E-02  0.5944488E+03  0.7818609E-02  0.9916990E-01
        1   -1    0    0  501    0  0.00000000000E+00  0.00000000000E+00  0.32427589789E+03  0.32427589793E+03  0.50400001928E-02 0. -1.
       -1   -1    0    0    0  501  0.00000000000E+00  0.00000000000E+00 -0.27242961019E+03  0.27242961024E+03  0.50400001928E-02 0.  1.
    10030    2    1    2    0    0  0.00000000000E+00  0.00000000000E+00  0.51846287693E+02  0.59670550817E+03  0.59444884215E+03 0.  0.
        1    1    3    3  502    0  0.29418065654E+02 -0.28265094519E+03  0.11334784334E+03  0.30594887321E+03  0.50400001928E-02 0.  1.
       -1    1    3    3    0  502 -0.29418065654E+02  0.28265094519E+03 -0.61501555648E+02  0.29075663496E+03  0.50400001928E-02 0. -1.
</event>
<event>
 5   0  0.1146468E-01  0.5910581E+03  0.7818609E-02  0.9924133E-01
        2   -1    0    0  501    0  0.00000000000E+00  0.00000000000E+00  0.60502097397E+03  0.60502097397E+03  0.25500000920E-02 0. -1.
       -2   -1    0    0    0  501  0.00000000000E+00  0.00000000000E+00 -0.14435437779E+03  0.14435437781E+03  0.25500000920E-02 0.  1.
    10030    2    1    2    0    0  0.00000000000E+00  0.00000000000E+00  0.46066659618E+03  0.74937535178E+03  0.59105812322E+03 0.  0.
        4    1    3    3  502    0  0.23051740868E+03 -0.13905473013E+03  0.75773015883E+02  0.27967419708E+03  0.12699999809E+01 0.  1.
       -4    1    3    3    0  502 -0.23051740868E+03  0.13905473013E+03  0.38489358030E+03  0.46970115470E+03  0.12699999809E+01 0. -1.
</event>
<event>
 5   0  0.1146468E-01  0.5902265E+03  0.7818609E-02  0.9925893E-01
        2   -1    0    0  501    0  0.00000000000E+00  0.00000000000E+00  0.77532970877E+03  0.77532970877E+03  0.25500000920E-02 0. -1.
       -2   -1    0    0    0  501  0.00000000000E+00  0.00000000000E+00 -0.11232877897E+03  0.11232877900E+03  0.25500000920E-02 0.  1.
    10030    2    1    2    0    0  0.00000000000E+00  0.00000000000E+00  0.66300092980E+03  0.88765848777E+03  0.59022653108E+03 0.  0.
        4    1    3    3  502    0 -0.46776887356E+01 -0.41319005217E+02  0.77089752582E+03  0.77201926736E+03  0.12699999809E+01 0. -1.
       -4    1    3    3    0  502  0.46776887356E+01  0.41319005217E+02 -0.10789659602E+03  0.11563922041E+03  0.12699999809E+01 0.  1.
</event>
<event>
 5   0  0.4695625E-02  0.6028166E+03  0.7818609E-02  0.9899580E-01
        3   -1    0    0  501    0  0.00000000000E+00  0.00000000000E+00  0.10876206018E+03  0.10876210708E+03  0.10100000352E+00 0. -1.
       -3   -1    0    0    0  501  0.00000000000E+00  0.00000000000E+00 -0.83528158437E+03  0.83528159048E+03  0.10100000352E+00 0.  1.
    10030    2    1    2    0    0  0.00000000000E+00  0.00000000000E+00 -0.72651952419E+03  0.94404369756E+03  0.60281662541E+03 0.  0.
        2    1    3    3  502    0 -0.11711344248E+03  0.27715709865E+03 -0.39107013978E+03  0.49342422922E+03  0.25500000920E-02 0.  1.
       -2    1    3    3    0  502  0.11711344248E+03 -0.27715709865E+03 -0.33544938440E+03  0.45061946834E+03  0.25500000920E-02 0. -1.
</event>
<event>
 5   0  0.1146468E-01  0.5991149E+03  0.7818609E-02  0.9907244E-01
       -2   -1    0    0    0  501  0.00000000000E+00  0.00000000000E+00  0.56663090173E+03  0.56663090174E+03  0.25500000920E-02 0.  1.
        2   -1    0    0  501    0  0.00000000000E+00  0.00000000000E+00 -0.15836528527E+03  0.15836528529E+03  0.25500000920E-02 0. -1.
    10030    2    1    2    0    0  0.00000000000E+00  0.00000000000E+00  0.40826561646E+03  0.72499618703E+03  0.59911489517E+03 0.  0.
        4    1    3    3  502    0  0.37026253410E+02 -0.69508578260E+02  0.55387544215E+03  0.55944794593E+03  0.12699999809E+01 0.  1.
       -4    1    3    3    0  502 -0.37026253410E+02  0.69508578260E+02 -0.14560982568E+03  0.16554824109E+03  0.12699999809E+01 0. -1.
</event>
<event>
 5   0  0.1166419E-01  0.5694714E+03  0.7818609E-02  0.9970849E-01
        2   -1    0    0  501    0  0.00000000000E+00  0.00000000000E+00  0.99172663164E+03  0.99172663164E+03  0.25500000920E-02 0. -1.
       -2   -1    0    0    0  501  0.00000000000E+00  0.00000000000E+00 -0.81750772876E+02  0.81750772916E+02  0.25500000920E-02 0.  1.
    10030    2    1    2    0    0  0.00000000000E+00  0.00000000000E+00  0.90997585876E+03  0.10734774046E+04  0.56947139925E+03 0.  0.
        1    1    3    3  502    0 -0.26628632398E+03 -0.10072403519E+03  0.46356041791E+03  0.54400551347E+03  0.50400001928E-02 0. -1.
       -1    1    3    3    0  502  0.26628632398E+03  0.10072403519E+03  0.44641544085E+03  0.52947189109E+03  0.50400001928E-02 0.  1.
</event>
<event>
 5   0  0.7266519E-02  0.6119760E+03  0.7818609E-02  0.9880867E-01
        1   -1    0    0  501    0  0.00000000000E+00  0.00000000000E+00  0.11166727714E+03  0.11166727725E+03  0.50400001928E-02 0. -1.
       -1   -1    0    0    0  501  0.00000000000E+00  0.00000000000E+00 -0.83846097243E+03  0.83846097245E+03  0.50400001928E-02 0.  1.
    10030    2    1    2    0    0  0.00000000000E+00  0.00000000000E+00 -0.72679369529E+03  0.95012824970E+03  0.61197599247E+03 0.  0.
        4    1    3    3  502    0 -0.16040306380E+02  0.21842788489E+03 -0.31646730888E+02  0.22129428552E+03  0.12699999809E+01 0. -1.
       -4    1    3    3    0  502  0.16040306380E+02 -0.21842788489E+03 -0.69514696441E+03  0.72883396418E+03  0.12699999809E+01 0.  1.
</event>
<event>
 5   0  0.4695625E-02  0.6469164E+03  0.7818609E-02  0.9812583E-01
        3   -1    0    0  501    0  0.00000000000E+00  0.00000000000E+00  0.13707228870E+04  0.13707228907E+04  0.10100000352E+00 0. -1.
       -3   -1    0    0    0  501  0.00000000000E+00  0.00000000000E+00 -0.76328447075E+02  0.76328513898E+02  0.10100000352E+00 0.  1.
    10030    2    1    2    0    0  0.00000000000E+00  0.00000000000E+00  0.12943944399E+04  0.14470514046E+04  0.64691637907E+03 0.  0.
        4    1    3    3  502    0 -0.15785040965E+02  0.37274950802E+02  0.13650291867E+04  0.13656298484E+04  0.12699999809E+01 0. -1.
       -4    1    3    3    0  502  0.15785040965E+02 -0.37274950802E+02 -0.70634746726E+02  0.81421556240E+02  0.12699999809E+01 0.  1.
</event>
<event>
 5   0  0.7221069E-02  0.5977928E+03  0.7818609E-02  0.9909996E-01
        1   -1    0    0  501    0  0.00000000000E+00  0.00000000000E+00  0.29641475459E+03  0.29641475463E+03  0.50400001928E-02 0. -1.
       -1   -1    0    0    0  501  0.00000000000E+00  0.00000000000E+00 -0.30139883199E+03  0.30139883204E+03  0.50400001928E-02 0.  1.
    10030    2    1    2    0    0  0.00000000000E+00  0.00000000000E+00 -0.49840774066E+01  0.59781358667E+03  0.59779280974E+03 0.  0.
        5    1    3    3  502    0 -0.94982651769E+02  0.19380580126E+03  0.20423858005E+03  0.29718324367E+03  0.46999998093E+01 0. -1.
       -5    1    3    3    0  502  0.94982651769E+02 -0.19380580126E+03 -0.20922265746E+03  0.30063034300E+03  0.46999998093E+01 0.  1.
</event>
<event>
 5   0  0.1146468E-01  0.5940341E+03  0.7818609E-02  0.9917861E-01
       -2   -1    0    0    0  501  0.00000000000E+00  0.00000000000E+00  0.14113943584E+03  0.14113943586E+03  0.25500000920E-02 0. -1.
        2   -1    0    0  501    0  0.00000000000E+00  0.00000000000E+00 -0.62504939182E+03  0.62504939182E+03  0.25500000920E-02 0.  1.
    10030    2    1    2    0    0  0.00000000000E+00  0.00000000000E+00 -0.48390995598E+03  0.76618882768E+03  0.59403406819E+03 0.  0.
        4    1    3    3  502    0  0.97251480315E+01 -0.10643971187E+03 -0.59938146707E+03  0.60883802997E+03  0.12699999809E+01 0.  1.
       -4    1    3    3    0  502 -0.97251480315E+01  0.10643971187E+03  0.11547151109E+03  0.15735079771E+03  0.12699999809E+01 0. -1.
</event>
<event>
 5   0  0.1166419E-01  0.6258063E+03  0.7818609E-02  0.9853267E-01
        2   -1    0    0  501    0  0.00000000000E+00  0.00000000000E+00  0.24233794116E+03  0.24233794118E+03  0.25500000920E-02 0. -1.
       -2   -1    0    0    0  501  0.00000000000E+00  0.00000000000E+00 -0.40401593750E+03  0.40401593751E+03  0.25500000920E-02 0.  1.
    10030    2    1    2    0    0  0.00000000000E+00  0.00000000000E+00 -0.16167799634E+03  0.64635387869E+03  0.62580632946E+03 0.  0.
        1    1    3    3  502    0  0.27056741959E+03 -0.52012068328E+02  0.72342487807E+02  0.28486035064E+03  0.50400001928E-02 0. -1.
       -1    1    3    3    0  502 -0.27056741959E+03  0.52012068328E+02 -0.23402048415E+03  0.36149352805E+03  0.50400001928E-02 0.  1.
</event>
<event>
 5   0  0.1146468E-01  0.6033378E+03  0.7818609E-02  0.9898505E-01
        2   -1    0    0  501    0  0.00000000000E+00  0.00000000000E+00  0.61237646367E+03  0.61237646367E+03  0.25500000920E-02 0. -1.
       -2   -1    0    0    0  501  0.00000000000E+00  0.00000000000E+00 -0.14860811366E+03  0.14860811368E+03  0.25500000920E-02 0.  1.
    10030    2    1    2    0    0  0.00000000000E+00  0.00000000000E+00  0.46376835001E+03  0.76098457735E+03  0.60333775325E+03 0.  0.
        4    1    3    3  502    0 -0.13270656066E+03 -0.39095757038E+02 -0.10623359123E+03  0.17443250347E+03  0.12699999809E+01 0.  1.
       -4    1    3    3    0  502  0.13270656066E+03  0.39095757038E+02  0.57000194124E+03  0.58655207389E+03  0.12699999809E+01 0. -1.
</event>
<event>
 5   0  0.1206238E-01  0.5991323E+03  0.7818609E-02  0.9907208E-01
        2   -1    0    0  501    0  0.00000000000E+00  0.00000000000E+00  0.23538246184E+04  0.23538246184E+04  0.25500000920E-02 0. -1.
       -2   -1    0    0    0  501  0.00000000000E+00  0.00000000000E+00 -0.38125137926E+02  0.38125138011E+02  0.25500000920E-02 0.  1.
    10030    2    1    2    0    0  0.00000000000E+00  0.00000000000E+00  0.23156994805E+04  0.23919497564E+04  0.59913233374E+03 0.  0.
        5    1    3    3  502    0 -0.11862940051E+03 -0.25833678054E+03  0.15346353657E+04  0.15607493785E+04  0.46999998093E+01 0.  1.
       -5    1    3    3    0  502  0.11862940051E+03  0.25833678054E+03  0.78106411474E+03  0.83120037787E+03  0.46999998093E+01 0. -1.
</event>
<event>
 5   0  0.1219020E-01  0.5935649E+03  0.7818609E-02  0.9918847E-01
        2   -1    0    0  501    0  0.00000000000E+00  0.00000000000E+00  0.12774021345E+04  0.12774021345E+04  0.25500000920E-02 0.  1.
       -2   -1    0    0    0  501  0.00000000000E+00  0.00000000000E+00 -0.68952306240E+02  0.68952306287E+02  0.25500000920E-02 0. -1.
    10030    2    1    2    0    0  0.00000000000E+00  0.00000000000E+00  0.12084498283E+04  0.13463544408E+04  0.59356490194E+03 0.  0.
        2    1    3    3  502    0  0.13280507229E+03  0.67447463442E+02  0.11864788088E+04  0.11957919181E+04  0.25500000920E-02 0.  1.
       -2    1    3    3    0  502 -0.13280507229E+03 -0.67447463442E+02  0.21971019468E+02  0.15056252274E+03  0.25500000920E-02 0. -1.
</event>
<event>
 5   0  0.7424930E-02  0.6030865E+03  0.7818609E-02  0.9899023E-01
       -1   -1    0    0    0  501  0.00000000000E+00  0.00000000000E+00  0.20452121644E+03  0.20452121650E+03  0.50400001928E-02 0. -1.
        1   -1    0    0  501    0  0.00000000000E+00  0.00000000000E+00 -0.44459120267E+03  0.44459120270E+03  0.50400001928E-02 0.  1.
    10030    2    1    2    0    0  0.00000000000E+00  0.00000000000E+00 -0.24006998623E+03  0.64911241920E+03  0.60308650662E+03 0.  0.
        3    1    3    3  502    0 -0.74752661947E+02  0.21781702831E+03  0.89490849038E+02  0.24706444615E+03  0.10100000352E+00 0. -1.
       -3    1    3    3    0  502  0.74752661947E+02 -0.21781702831E+03 -0.32956083527E+03  0.40204797305E+03  0.10100000352E+00 0.  1.
</event>
<event>
 5   0  0.1166419E-01  0.6004369E+03  0.7818609E-02  0.9904500E-01
        2   -1    0    0  501    0  0.00000000000E+00  0.00000000000E+00  0.89269464998E+03  0.89269464999E+03  0.25500000920E-02 0.  1.
       -2   -1    0    0    0  501  0.00000000000E+00  0.00000000000E+00 -0.10096521482E+03  0.10096521486E+03  0.25500000920E-02 0. -1.
    10030    2    1    2    0    0  0.00000000000E+00  0.00000000000E+00  0.79172943516E+03  0.99365986484E+03  0.60043686471E+03 0.  0.
        1    1    3    3  502    0 -0.30609951702E+02 -0.12583902989E+03 -0.52360352387E+02  0.13969265233E+03  0.50400001928E-02 0. -1.
       -1    1    3    3    0  502  0.30609951702E+02  0.12583902989E+03  0.84408978754E+03  0.85396721251E+03  0.50400001928E-02 0.  1.
</event>
<event>
 5   0  0.7123340E-02  0.6012875E+03  0.7818609E-02  0.9902739E-01
       -1   -1    0    0    0  501  0.00000000000E+00  0.00000000000E+00  0.53937748570E+03  0.53937748572E+03  0.50400001928E-02 0. -1.
        1   -1    0    0  501    0  0.00000000000E+00  0.00000000000E+00 -0.16757587476E+03  0.16757587484E+03  0.50400001928E-02 0.  1.
    10030    2    1    2    0    0  0.00000000000E+00  0.00000000000E+00  0.37180161094E+03  0.70695336056E+03  0.60128746545E+03 0.  0.
        2    1    3    3  502    0  0.84688271835E+01 -0.48392567065E+02 -0.16282456315E+03  0.17007468934E+03  0.25500000920E-02 0.  1.
       -2    1    3    3    0  502 -0.84688271835E+01  0.48392567065E+02  0.53462617409E+03  0.53687867122E+03  0.25500000920E-02 0. -1.
</event>
<event>
 5   0  0.7266519E-02  0.5961165E+03  0.7818609E-02  0.9913496E-01
        1   -1    0    0  501    0  0.00000000000E+00  0.00000000000E+00  0.29598010172E+03  0.29598010176E+03  0.50400001928E-02 0. -1.
       -1   -1    0    0    0  501  0.00000000000E+00  0.00000000000E+00 -0.30015100350E+03  0.30015100354E+03  0.50400001928E-02 0.  1.
    10030    2    1    2    0    0  0.00000000000E+00  0.00000000000E+00 -0.41709017790E+01  0.59613110531E+03  0.59611651402E+03 0.  0.
        4    1    3    3  502    0  0.37486228537E+02  0.58084895488E+02  0.28784929061E+03  0.29603698994E+03  0.12699999809E+01 0. -1.
       -4    1    3    3    0  502 -0.37486228537E+02 -0.58084895488E+02 -0.29202019238E+03  0.30009411536E+03  0.12699999809E+01 0.  1.
</event>
<event>
 5   0  0.1175861E-01  0.5998452E+03  0.7818609E-02  0.9905727E-01
        2   -1    0    0  501    0  0.00000000000E+00  0.00000000000E+00  0.21257600910E+03  0.21257600911E+03  0.25500000920E-02 0. -1.
       -2   -1    0    0    0  501  0.00000000000E+00  0.00000000000E+00 -0.42315952322E+03  0.42315952322E+03  0.25500000920E-02 0.  1.
    10030    2    1    2    0    0  0.00000000000E+00  0.00000000000E+00 -0.21058351412E+03  0.63573553234E+03  0.59984518891E+03 0.  0.
        3    1    3    3  502    0  0.32177593840E+02  0.15782967566E+03 -0.37342722171E+03  0.40668600195E+03  0.10100000352E+00 0.  1.
       -3    1    3    3    0  502 -0.32177593840E+02 -0.15782967566E+03  0.16284370760E+03  0.22904953039E+03  0.10100000352E+00 0. -1.
</event>
<event>
 5   0  0.1206238E-01  0.5309395E+03  0.7818609E-02  0.1006005E+00
        2   -1    0    0  501    0  0.00000000000E+00  0.00000000000E+00  0.65781448158E+03  0.65781448159E+03  0.25500000920E-02 0. -1.
       -2   -1    0    0    0  501  0.00000000000E+00  0.00000000000E+00 -0.10713381726E+03  0.10713381729E+03  0.25500000920E-02 0.  1.
    10030    2    1    2    0    0  0.00000000000E+00  0.00000000000E+00  0.55068066432E+03  0.76494829888E+03  0.53093945596E+03 0.  0.
        5    1    3    3  502    0 -0.23361624326E+03 -0.49587983234E+02  0.10845897557E+03  0.26233748603E+03  0.46999998093E+01 0.  1.
       -5    1    3    3    0  502  0.23361624326E+03  0.49587983234E+02  0.44222168875E+03  0.50261081285E+03  0.46999998093E+01 0. -1.
</event>
<event>
 5   0  0.4695625E-02  0.5956081E+03  0.7818609E-02  0.9914560E-01
       -3   -1    0    0    0  501  0.00000000000E+00  0.00000000000E+00  0.93398493859E+02  0.93398548469E+02  0.10100000352E+00 0.  1.
        3   -1    0    0  501    0  0.00000000000E+00  0.00000000000E+00 -0.94955742036E+03  0.94955742574E+03  0.10100000352E+00 0. -1.
    10030    2    1    2    0    0  0.00000000000E+00  0.00000000000E+00 -0.85615892651E+03  0.10429559742E+04  0.59560814022E+03 0.  0.
        1    1    3    3  502    0 -0.18950685698E+03  0.63801178922E+02 -0.81452374561E+03  0.83870875247E+03  0.50400001928E-02 0. -1.
       -1    1    3    3    0  502  0.18950685698E+03 -0.63801178922E+02 -0.41635180893E+02  0.20424722174E+03  0.50400001928E-02 0.  1.
</event>
<event>
 5   0  0.4695625E-02  0.5873838E+03  0.7818609E-02  0.9931932E-01
       -3   -1    0    0    0  501  0.00000000000E+00  0.00000000000E+00  0.44785608067E+03  0.44785609206E+03  0.10100000352E+00 0. -1.
        3   -1    0    0  501    0  0.00000000000E+00  0.00000000000E+00 -0.19259518890E+03  0.19259521538E+03  0.10100000352E+00 0.  1.
    10030    2    1    2    0    0  0.00000000000E+00  0.00000000000E+00  0.25526089178E+03  0.64045130744E+03  0.58738382199E+03 0.  0.
        2    1    3    3  502    0 -0.13082216395E+03  0.24503764626E+00 -0.15907121253E+03  0.20595666847E+03  0.25500000920E-02 0.  1.
       -2    1    3    3    0  502  0.13082216395E+03 -0.24503764626E+00  0.41433210431E+03  0.43449463897E+03  0.25500000920E-02 0. -1.
</event>
<event>
 5   0  0.1206238E-01  0.5806118E+03  0.7818609E-02  0.9946467E-01
        2   -1    0    0  501    0  0.00000000000E+00  0.00000000000E+00  0.33022065798E+03  0.33022065798E+03  0.25500000920E-02 0. -1.
       -2   -1    0    0    0  501  0.00000000000E+00  0.00000000000E+00 -0.25521579720E+03  0.25521579721E+03  0.25500000920E-02 0.  1.
    10030    2    1    2    0    0  0.00000000000E+00  0.00000000000E+00  0.75004860777E+02  0.58543645520E+03  0.58061184446E+03 0.  0.
        5    1    3    3  502    0  0.10383239609E+03 -0.19509744110E+02 -0.23510247840E+03  0.25779267240E+03  0.46999998093E+01 0.  1.
       -5    1    3    3    0  502 -0.10383239609E+03  0.19509744110E+02  0.31010733918E+03  0.32764378280E+03  0.46999998093E+01 0. -1.
</event>
<event>
 5   0  0.1166419E-01  0.5707268E+03  0.7818609E-02  0.9968072E-01
       -2   -1    0    0    0  501  0.00000000000E+00  0.00000000000E+00  0.70223620846E+02  0.70223620892E+02  0.25500000920E-02 0.  1.
        2   -1    0    0  501    0  0.00000000000E+00  0.00000000000E+00 -0.11596136545E+04  0.11596136545E+04  0.25500000920E-02 0. -1.
    10030    2    1    2    0    0  0.00000000000E+00  0.00000000000E+00 -0.10893900336E+04  0.12298372754E+04  0.57072679849E+03 0.  0.
        1    1    3    3  502    0 -0.12004343683E+03 -0.25882665696E+03 -0.53277403034E+03  0.60435902617E+03  0.50400001928E-02 0. -1.
       -1    1    3    3    0  502  0.12004343683E+03  0.25882665696E+03 -0.55661600329E+03  0.62547824920E+03  0.50400001928E-02 0.  1.
</event>
<event>
 5   0  0.7266519E-02  0.5897139E+03  0.7818609E-02  0.9926979E-01
        1   -1    0    0  501    0  0.00000000000E+00  0.00000000000E+00  0.40678613407E+03  0.40678613410E+03  0.50400001928E-02 0. -1.
       -1   -1    0    0    0  501  0.00000000000E+00  0.00000000000E+00 -0.21372562633E+03  0.21372562639E+03  0.50400001928E-02 0.  1.
    10030    2    1    2    0    0  0.00000000000E+00  0.00000000000E+00  0.19306050774E+03  0.62051176049E+03  0.58971390119E+03 0.  0.
        4    1    3    3  502    0 -0.23115059168E+03 -0.18152535524E+03  0.12136271660E+03  0.31798203174E+03  0.12699999809E+01 0. -1.
       -4    1    3    3    0  502  0.23115059168E+03  0.18152535524E+03  0.71697791142E+02  0.30252972876E+03  0.12699999809E+01 0.  1.
</event>
<event>
 5   0  0.4695625E-02  0.5897598E+03  0.7818609E-02  0.9926882E-01
       -3   -1    0    0    0  501  0.00000000000E+00  0.00000000000E+00  0.48752694000E+03  0.48752695046E+03  0.10100000352E+00 0. -1.
        3   -1    0    0  501    0  0.00000000000E+00  0.00000000000E+00 -0.17835758889E+03  0.17835761749E+03  0.10100000352E+00 0.  1.
    10030    2    1    2    0    0  0.00000000000E+00  0.00000000000E+00  0.30916935110E+03  0.66588456795E+03  0.58975975632E+03 0.  0.
        5    1    3    3  502    0 -0.20666848065E+03  0.20970409772E+03  0.13693408034E+03  0.32474713525E+03  0.46999998093E+01 0.  1.
       -5    1    3    3    0  502  0.20666848065E+03 -0.20970409772E+03  0.17223527076E+03  0.34113743270E+03  0.46999998093E+01 0. -1.
</event>
<event>
 5   0  0.7221069E-02  0.6026727E+03  0.7818609E-02  0.9899876E-01
       -1   -1    0    0    0  501  0.00000000000E+00  0.00000000000E+00  0.15397645022E+03  0.15397645030E+03  0.50400001928E-02 0. -1.
        1   -1    0    0  501    0  0.00000000000E+00  0.00000000000E+00 -0.58972395371E+03  0.58972395373E+03  0.50400001928E-02 0.  1.
    10030    2    1    2    0    0  0.00000000000E+00  0.00000000000E+00 -0.43574750349E+03  0.74370040403E+03  0.60267271728E+03 0.  0.
        5    1    3    3  502    0 -0.13152148425E+03  0.11581168483E+03  0.84573658786E+02  0.19464079973E+03  0.46999998093E+01 0. -1.
       -5    1    3    3    0  502  0.13152148425E+03 -0.11581168483E+03 -0.52032116228E+03  0.54905960430E+03  0.46999998093E+01 0.  1.
</event>
<event>
 5   0  0.1206238E-01  0.5979755E+03  0.7818609E-02  0.9909615E-01
       -2   -1    0    0    0  501  0.00000000000E+00  0.00000000000E+00  0.17686561096E+03  0.17686561098E+03  0.25500000920E-02 0.  1.
        2   -1    0    0  501    0  0.00000000000E+00  0.00000000000E+00 -0.50543281466E+03  0.50543281467E+03  0.25500000920E-02 0. -1.
    10030    2    1    2    0    0  0.00000000000E+00  0.00000000000E+00 -0.32856720370E+03  0.68229842565E+03  0.59797552984E+03 0.  0.
        5    1    3    3  502    0  0.81084595253E+02 -0.10553977536E+03 -0.46972227106E+03  0.48823606760E+03  0.46999998093E+01 0. -1.
       -5    1    3    3    0  502 -0.81084595253E+02  0.10553977536E+03  0.14115506736E+03  0.19406235805E+03  0.46999998093E+01 0.  1.
</event>
<event>
 5   0  0.1219020E-01  0.6023093E+03  0.7818609E-02  0.9900627E-01
        2   -1    0    0  501    0  0.00000000000E+00  0.00000000000E+00  0.14343051881E+03  0.14343051883E+03  0.25500000920E-02 0.  1.
       -2   -1    0    0    0  501  0.00000000000E+00  0.00000000000E+00 -0.63232086928E+03  0.63232086928E+03  0.25500000920E-02 0. -1.
    10030    2    1    2    0    0  0.00000000000E+00  0.00000000000E+00 -0.48889035047E+03  0.77575138811E+03  0.60230925726E+03 0.  0.
        2    1    3    3  502    0 -0.11252321545E+03  0.26739032835E+03 -0.14032678740E+03  0.32225869885E+03  0.25500000920E-02 0.  1.
       -2    1    3    3    0  502  0.11252321545E+03 -0.26739032835E+03 -0.34856356307E+03  0.45349268927E+03  0.25500000920E-02 0. -1.
</event>
<event>
 5   0  0.1175861E-01  0.6228242E+03  0.7818609E-02  0.9859153E-01
       -2   -1    0    0    0  501  0.00000000000E+00  0.00000000000E+00  0.10999031302E+04  0.10999031302E+04  0.25500000920E-02 0.  1.
        2   -1    0    0  501    0  0.00000000000E+00  0.00000000000E+00 -0.88169110831E+02  0.88169110868E+02  0.25500000920E-02 0. -1.
    10030    2    1    2    0    0  0.00000000000E+00  0.00000000000E+00  0.10117340193E+04  0.11880722410E+04  0.62282415179E+03 0.  0.
        3    1    3    3  502    0 -0.12632260619E+02  0.18698376831E+03  0.98028887206E+03  0.99804247730E+03  0.10100000352E+00 0.  1.
       -3    1    3    3    0  502  0.12632260619E+02 -0.18698376831E+03  0.31445147289E+02  0.19002976375E+03  0.10100000352E+00 0. -1.
</event>
<event>
 5   0  0.7263385E-02  0.6101370E+03  0.7818609E-02  0.9884595E-01
       -1   -1    0    0    0  501  0.00000000000E+00  0.00000000000E+00  0.23987989400E+03  0.23987989405E+03  0.50400001928E-02 0. -1.
        1   -1    0    0  501    0  0.00000000000E+00  0.00000000000E+00 -0.38797247023E+03  0.38797247027E+03  0.50400001928E-02 0.  1.
    10030    2    1    2    0    0  0.00000000000E+00  0.00000000000E+00 -0.14809257624E+03  0.62785236432E+03  0.61013701760E+03 0.  0.
        1    1    3    3  502    0  0.21294906839E+03  0.14591139031E+03 -0.24133762253E+03  0.35338546607E+03  0.50400001928E-02 0. -1.
       -1    1    3    3    0  502 -0.21294906839E+03 -0.14591139031E+03  0.93245046295E+02  0.27446689825E+03  0.50400001928E-02 0.  1.
</event>
<event>
 5   0  0.1175861E-01  0.5969261E+03  0.7818609E-02  0.9911804E-01
       -2   -1    0    0    0  501  0.00000000000E+00  0.00000000000E+00  0.65255731595E+03  0.65255731596E+03  0.25500000920E-02 0. -1.
        2   -1    0    0  501    0  0.00000000000E+00  0.00000000000E+00 -0.13650937310E+03  0.13650937313E+03  0.25500000920E-02 0.  1.
    10030    2    1    2    0    0  0.00000000000E+00  0.00000000000E+00  0.51604794285E+03  0.78906668908E+03  0.59692609300E+03 0.  0.
        3    1    3    3  502    0 -0.12050259981E+02  0.17751207619E+03 -0.58744178400E+02  0.18736764570E+03  0.10100000352E+00 0.  1.
       -3    1    3    3    0  502  0.12050259981E+02 -0.17751207619E+03  0.57479212125E+03  0.60169904338E+03  0.10100000352E+00 0. -1.
</event>
<event>
 5   0  0.1206238E-01  0.6199716E+03  0.7818609E-02  0.9864816E-01
        2   -1    0    0  501    0  0.00000000000E+00  0.00000000000E+00  0.85334904420E+03  0.85334904420E+03  0.25500000920E-02 0.  1.
       -2   -1    0    0    0  501  0.00000000000E+00  0.00000000000E+00 -0.11260478629E+03  0.11260478632E+03  0.25500000920E-02 0. -1.
    10030    2    1    2    0    0  0.00000000000E+00  0.00000000000E+00  0.74074425791E+03  0.96595383052E+03  0.61997156957E+03 0.  0.
        5    1    3    3  502    0  0.87730284154E+00  0.30991554353E+03  0.36328629016E+03  0.47754312098E+03  0.46999998093E+01 0.  1.
       -5    1    3    3    0  502 -0.87730284154E+00 -0.30991554353E+03  0.37745796775E+03  0.48841070954E+03  0.46999998093E+01 0. -1.
</event>
<event>
 5   0  0.7263385E-02  0.6015277E+03  0.7818609E-02  0.9902242E-01
        1   -1    0    0  501    0  0.00000000000E+00  0.00000000000E+00  0.15375552351E+03  0.15375552359E+03  0.50400001928E-02 0.  1.
       -1   -1    0    0    0  501  0.00000000000E+00  0.00000000000E+00 -0.58832943556E+03  0.58832943559E+03  0.50400001928E-02 0. -1.
    10030    2    1    2    0    0  0.00000000000E+00  0.00000000000E+00 -0.43457391206E+03  0.74208495918E+03  0.60152772305E+03 0.  0.
        1    1    3    3  502    0 -0.10494882202E+03 -0.12287923348E+03 -0.53022367763E+03  0.55430200217E+03  0.50400001928E-02 0. -1.
       -1    1    3    3    0  502  0.10494882202E+03  0.12287923348E+03  0.95649765570E+02  0.18778295701E+03  0.50400001928E-02 0.  1.
</event>
<event>
 5   0  0.7123340E-02  0.6053009E+03  0.7818609E-02  0.9894469E-01
        1   -1    0    0  501    0  0.00000000000E+00  0.00000000000E+00  0.93216062382E+03  0.93216062383E+03  0.50400001928E-02 0.  1.
       -1   -1    0    0    0  501  0.00000000000E+00  0.00000000000E+00 -0.98263424844E+02  0.98263424973E+02  0.50400001928E-02 0. -1.
    10030    2    1    2    0    0  0.00000000000E+00  0.00000000000E+00  0.83389719897E+03  0.10304240488E+04  0.60530090195E+03 0.  0.
        2    1    3    3  502    0 -0.48136959233E+02 -0.64777906732E+02 -0.79607693811E+02  0.11336105577E+03  0.25500000920E-02 0. -1.
       -2    1    3    3    0  502  0.48136959233E+02  0.64777906732E+02  0.91350489278E+03  0.91706299303E+03  0.25500000920E-02 0.  1.
</event>
<event>
 5   0  0.1146468E-01  0.5902503E+03  0.7818609E-02  0.9925843E-01
       -2   -1    0    0    0  501  0.00000000000E+00  0.00000000000E+00  0.12086030873E+03  0.12086030876E+03  0.25500000920E-02 0.  1.
        2   -1    0    0  501    0  0.00000000000E+00  0.00000000000E+00 -0.72065728207E+03  0.72065728207E+03  0.25500000920E-02 0. -1.
    10030    2    1    2    0    0  0.00000000000E+00  0.00000000000E+00 -0.59979697333E+03  0.84151759083E+03  0.59025032525E+03 0.  0.
        4    1    3    3  502    0  0.21627587091E+03 -0.17972560474E+03 -0.17221545335E+03  0.32975190767E+03  0.12699999809E+01 0.  1.
       -4    1    3    3    0  502 -0.21627587091E+03  0.17972560474E+03 -0.42758151998E+03  0.51176568317E+03  0.12699999809E+01 0. -1.
</event>
<event>
 5   0  0.1146468E-01  0.6046925E+03  0.7818609E-02  0.9895718E-01
        2   -1    0    0  501    0  0.00000000000E+00  0.00000000000E+00  0.43092570455E+03  0.43092570456E+03  0.25500000920E-02 0.  1.
       -2   -1    0    0    0  501  0.00000000000E+00  0.00000000000E+00 -0.21213229280E+03  0.21213229281E+03  0.25500000920E-02 0. -1.
    10030    2    1    2    0    0  0.00000000000E+00  0.00000000000E+00  0.21879341175E+03  0.64305799737E+03  0.60469250943E+03 0.  0.
        4    1    3    3  502    0 -0.25643153728E+02  0.85306612102E+02 -0.19785803683E+03  0.21698895143E+03  0.12699999809E+01 0. -1.
       -4    1    3    3    0  502  0.25643153728E+02 -0.85306612102E+02  0.41665144859E+03  0.42606904595E+03  0.12699999809E+01 0.  1.
</event>
<event>
 5   0  0.1219020E-01  0.5944370E+03  0.7818609E-02  0.9917015E-01
       -2   -1    0    0    0  501  0.00000000000E+00  0.00000000000E+00  0.87460756916E+02  0.87460756953E+02  0.25500000920E-02 0.  1.
        2   -1    0    0  501    0  0.00000000000E+00  0.00000000000E+00 -0.10100398597E+04  0.10100398597E+04  0.25500000920E-02 0. -1.
    10030    2    1    2    0    0  0.00000000000E+00  0.00000000000E+00 -0.92257910281E+03  0.10975006167E+04  0.59443704686E+03 0.  0.
        2    1    3    3  502    0  0.22600264344E+03 -0.52430685059E+02 -0.80428490870E+03  0.83707848255E+03  0.25500000920E-02 0.  1.
       -2    1    3    3    0  502 -0.22600264344E+03  0.52430685059E+02 -0.11829419411E+03  0.26042213413E+03  0.25500000920E-02 0. -1.
</event>
<event>
 5   0  0.1166419E-01  0.6021560E+03  0.7818609E-02  0.9900943E-01
       -2   -1    0    0    0  501  0.00000000000E+00  0.00000000000E+00  0.13068414616E+03  0.13068414618E+03  0.25500000920E-02 0. -1.
        2   -1    0    0  501    0  0.00000000000E+00  0.00000000000E+00 -0.69364153424E+03  0.69364153425E+03  0.25500000920E-02 0.  1.
    10030    2    1    2    0    0  0.00000000000E+00  0.00000000000E+00 -0.56295738808E+03  0.82432568043E+03  0.60215596536E+03 0.  0.
        1    1    3    3  502    0 -0.26859225151E+03  0.11782371837E+03 -0.37456501276E+03  0.47573435339E+03  0.50400001928E-02 0.  1.
       -1    1    3    3    0  502  0.26859225151E+03 -0.11782371837E+03 -0.18839237532E+03  0.34859132704E+03  0.50400001928E-02 0. -1.
</event>
<event>
 5   0  0.1146468E-01  0.5966701E+03  0.7818609E-02  0.9912339E-01
        2   -1    0    0  501    0  0.00000000000E+00  0.00000000000E+00  0.69442951903E+03  0.69442951903E+03  0.25500000920E-02 0. -1.
       -2   -1    0    0    0  501  0.00000000000E+00  0.00000000000E+00 -0.12816824605E+03  0.12816824608E+03  0.25500000920E-02 0.  1.
    10030    2    1    2    0    0  0.00000000000E+00  0.00000000000E+00  0.56626127297E+03  0.82259776511E+03  0.59667013826E+03 0.  0.
        4    1    3    3  502    0  0.79641885202E+02 -0.11999560021E+03  0.64332567078E+03  0.65925056355E+03  0.12699999809E+01 0. -1.
       -4    1    3    3    0  502 -0.79641885202E+02  0.11999560021E+03 -0.77064397812E+02  0.16334720156E+03  0.12699999809E+01 0.  1.
</event>
<event>
 5   0  0.1175861E-01  0.6025667E+03  0.7818609E-02  0.9900095E-01
       -2   -1    0    0    0  501  0.00000000000E+00  0.00000000000E+00  0.84865284236E+02  0.84865284275E+02  0.25500000920E-02 0.  1.
        2   -1    0    0  501    0  0.00000000000E+00  0.00000000000E+00 -0.10695970526E+04  0.10695970526E+04  0.25500000920E-02 0. -1.
    10030    2    1    2    0    0  0.00000000000E+00  0.00000000000E+00 -0.98473176836E+03  0.11544623369E+04  0.60256670307E+03 0.  0.
        3    1    3    3  502    0 -0.20056760325E+03 -0.21137476586E+03 -0.63909232186E+03  0.70238569261E+03  0.10100000352E+00 0.  1.
       -3    1    3    3    0  502  0.20056760325E+03  0.21137476586E+03 -0.34563944650E+03  0.45207664427E+03  0.10100000352E+00 0. -1.
</event>
<event>
 5   0  0.4695625E-02  0.6179794E+03  0.7818609E-02  0.9868791E-01
        3   -1    0    0  501    0  0.00000000000E+00  0.00000000000E+00  0.16824837541E+03  0.16824840572E+03  0.10100000352E+00 0. -1.
       -3   -1    0    0    0  501  0.00000000000E+00  0.00000000000E+00 -0.56746229343E+03  0.56746230242E+03  0.10100000352E+00 0.  1.
    10030    2    1    2    0    0  0.00000000000E+00  0.00000000000E+00 -0.39921391803E+03  0.73571070814E+03  0.61797936352E+03 0.  0.
        5    1    3    3  502    0 -0.11236566187E+03 -0.16216857218E+02 -0.54168655072E+03  0.55347577875E+03  0.46999998093E+01 0.  1.
       -5    1    3    3    0  502  0.11236566187E+03  0.16216857218E+02  0.14247263270E+03  0.18223492940E+03  0.46999998093E+01 0. -1.
</event>
<event>
 5   0  0.7263385E-02  0.5983354E+03  0.7818609E-02  0.9908866E-01
        1   -1    0    0  501    0  0.00000000000E+00  0.00000000000E+00  0.55023938259E+03  0.55023938261E+03  0.50400001928E-02 0. -1.
       -1   -1    0    0    0  501  0.00000000000E+00  0.00000000000E+00 -0.16265886807E+03  0.16265886815E+03  0.50400001928E-02 0.  1.
    10030    2    1    2    0    0  0.00000000000E+00  0.00000000000E+00  0.38758051452E+03  0.71289825076E+03  0.59833540820E+03 0.  0.
        1    1    3    3  502    0 -0.22987695508E+03  0.11674879794E+03  0.12986537506E+02  0.25815178961E+03  0.50400001928E-02 0.  1.
       -1    1    3    3    0  502  0.22987695508E+03 -0.11674879794E+03  0.37459397701E+03  0.45474646116E+03  0.50400001928E-02 0. -1.
</event>
<event>
 5   0  0.7263385E-02  0.6045781E+03  0.7818609E-02  0.9895953E-01
        1   -1    0    0  501    0  0.00000000000E+00  0.00000000000E+00  0.20996060361E+03  0.20996060367E+03  0.50400001928E-02 0.  1.
       -1   -1    0    0    0  501  0.00000000000E+00  0.00000000000E+00 -0.43521821144E+03  0.43521821147E+03  0.50400001928E-02 0. -1.
    10030    2    1    2    0    0  0.00000000000E+00  0.00000000000E+00 -0.22525760783E+03  0.64517881513E+03  0.60457812863E+03 0.  0.
        1    1    3    3  502    0 -0.27883814278E+03  0.11633401522E+03 -0.12299535009E+03  0.32620878151E+03  0.50400001928E-02 0.  1.
       -1    1    3    3    0  502  0.27883814278E+03 -0.11633401522E+03 -0.10226225774E+03  0.31897003362E+03  0.50400001928E-02 0. -1.
</event>
<event>
 5   0  0.7266519E-02  0.6045245E+03  0.7818609E-02  0.9896063E-01
       -1   -1    0    0    0  501  0.00000000000E+00  0.00000000000E+00  0.39252809929E+03  0.39252809933E+03  0.50400001928E-02 0. -1.
        1   -1    0    0  501    0  0.00000000000E+00  0.00000000000E+00 -0.23275397165E+03  0.23275397171E+03  0.50400001928E-02 0.  1.
    10030    2    1    2    0    0  0.00000000000E+00  0.00000000000E+00  0.15977412764E+03  0.62528207103E+03  0.60452452100E+03 0.  0.
        4    1    3    3  502    0  0.16153150624E+03  0.81934053445E+02  0.33017790293E+03  0.37659617245E+03  0.12699999809E+01 0. -1.
       -4    1    3    3    0  502 -0.16153150624E+03 -0.81934053445E+02 -0.17040377529E+03  0.24868589858E+03  0.12699999809E+01 0.  1.
</event>
<event>
 5   0  0.7263385E-02  0.6227196E+03  0.7818609E-02  0.9859360E-01
       -1   -1    0    0    0  501  0.00000000000E+00  0.00000000000E+00  0.13360723042E+04  0.13360723042E+04  0.50400001928E-02 0. -1.
        1   -1    0    0  501    0  0.00000000000E+00  0.00000000000E+00 -0.72559650576E+02  0.72559650751E+02  0.50400001928E-02 0.  1.
    10030    2    1    2    0    0  0.00000000000E+00  0.00000000000E+00  0.12635126536E+04  0.14086319549E+04  0.62271964692E+03 0.  0.
        1    1    3    3  502    0  0.24524033509E+03 -0.10801094362E+03  0.99038988461E+03  0.10260025875E+04  0.50400001928E-02 0. -1.
       -1    1    3    3    0  502 -0.24524033509E+03  0.10801094362E+03  0.27312276898E+03  0.38262936748E+03  0.50400001928E-02 0.  1.
</event>
<event>
 5   0  0.1166419E-01  0.5525802E+03  0.7818609E-02  0.1000898E+00
        2   -1    0    0  501    0  0.00000000000E+00  0.00000000000E+00  0.42846774199E+03  0.42846774200E+03  0.25500000920E-02 0.  1.
       -2   -1    0    0    0  501  0.00000000000E+00  0.00000000000E+00 -0.17816092893E+03  0.17816092895E+03  0.25500000920E-02 0. -1.
    10030    2    1    2    0    0  0.00000000000E+00  0.00000000000E+00  0.25030681306E+03  0.60662867095E+03  0.55258016953E+03 0.  0.
        1    1    3    3  502    0  0.19249088531E+03  0.15099763014E+03  0.26609793224E+03  0.36147079385E+03  0.50400001928E-02 0. -1.
       -1    1    3    3    0  502 -0.19249088531E+03 -0.15099763014E+03 -0.15791119179E+02  0.24515787710E+03  0.50400001928E-02 0.  1.
</event>
<event>
 5   0  0.1146468E-01  0.6121243E+03  0.7818609E-02  0.9880566E-01
       -2   -1    0    0    0  501  0.00000000000E+00  0.00000000000E+00  0.20672867824E+03  0.20672867826E+03  0.25500000920E-02 0.  1.
        2   -1    0    0  501    0  0.00000000000E+00  0.00000000000E+00 -0.45312549713E+03  0.45312549714E+03  0.25500000920E-02 0. -1.
    10030    2    1    2    0    0  0.00000000000E+00  0.00000000000E+00 -0.24639681889E+03  0.65985417540E+03  0.61212428512E+03 0.  0.
        4    1    3    3  502    0 -0.14839483337E+03 -0.67495905941E+02  0.15602748962E+03  0.22566106068E+03  0.12699999809E+01 0.  1.
       -4    1    3    3    0  502  0.14839483337E+03  0.67495905941E+02 -0.40242430851E+03  0.43419311472E+03  0.12699999809E+01 0. -1.
</event>
<event>
 5   0  0.1219020E-01  0.5972711E+03  0.7818609E-02  0.9911084E-01
       -2   -1    0    0    0  501  0.00000000000E+00  0.00000000000E+00  0.10444759810E+03  0.10444759813E+03  0.25500000920E-02 0. -1.
        2   -1    0    0  501    0  0.00000000000E+00  0.00000000000E+00 -0.85385584253E+03  0.85385584253E+03  0.25500000920E-02 0.  1.
    10030    2    1    2    0    0  0.00000000000E+00  0.00000000000E+00 -0.74940824443E+03  0.95830344066E+03  0.59727110057E+03 0.  0.
        2    1    3    3  502    0 -0.24391348714E+03 -0.17228967029E+03 -0.37852538528E+03  0.48214000768E+03  0.25500000920E-02 0. -1.
       -2    1    3    3    0  502  0.24391348714E+03  0.17228967029E+03 -0.37088285915E+03  0.47616343299E+03  0.25500000920E-02 0.  1.
</event>
<event>
 5   0  0.7221069E-02  0.6015946E+03  0.7818609E-02  0.9902103E-01
       -1   -1    0    0    0  501  0.00000000000E+00  0.00000000000E+00  0.60509517651E+02  0.60509517861E+02  0.50400001928E-02 0. -1.
        1   -1    0    0  501    0  0.00000000000E+00  0.00000000000E+00 -0.14952856540E+04  0.14952856540E+04  0.50400001928E-02 0.  1.
    10030    2    1    2    0    0  0.00000000000E+00  0.00000000000E+00 -0.14347761364E+04  0.15557951719E+04  0.60159459387E+03 0.  0.
        5    1    3    3  502    0 -0.20990205955E+03 -0.21390532565E+03 -0.65183309521E+03  0.71744187009E+03  0.46999998093E+01 0. -1.
       -5    1    3    3    0  502  0.20990205955E+03  0.21390532565E+03 -0.78294304116E+03  0.83835330180E+03  0.46999998093E+01 0.  1.
</event>
<event>
 5   0  0.7424930E-02  0.5965706E+03  0.7818609E-02  0.9912547E-01
       -1   -1    0    0    0  501  0.00000000000E+00  0.00000000000E+00  0.51515048681E+02  0.51515048928E+02  0.50400001928E-02 0.  1.
        1   -1    0    0  501    0  0.00000000000E+00  0.00000000000E+00 -0.17271481961E+04  0.17271481962E+04  0.50400001928E-02 0. -1.
    10030    2    1    2    0    0  0.00000000000E+00  0.00000000000E+00 -0.16756331475E+04  0.17786632451E+04  0.59657061151E+03 0.  0.
        3    1    3    3  502    0  0.13560654277E+03 -0.13081794316E+02 -0.16289703540E+04  0.16346573623E+04  0.10100000352E+00 0. -1.
       -3    1    3    3    0  502 -0.13560654277E+03  0.13081794316E+02 -0.46662793515E+02  0.14400588281E+03  0.10100000352E+00 0.  1.
</event>
<event>
 5   0  0.1166419E-01  0.5912946E+03  0.7818609E-02  0.9923633E-01
        2   -1    0    0  501    0  0.00000000000E+00  0.00000000000E+00  0.27882113622E+04  0.27882113622E+04  0.25500000920E-02 0. -1.
       -2   -1    0    0    0  501  0.00000000000E+00  0.00000000000E+00 -0.31348891165E+02  0.31348891269E+02  0.25500000920E-02 0.  1.
    10030    2    1    2    0    0  0.00000000000E+00  0.00000000000E+00  0.27568624710E+04  0.28195602534E+04  0.59129462939E+03 0.  0.
        1    1    3    3  502    0  0.44384230392E+02 -0.17694935135E+03  0.26904793845E+03  0.32506587957E+03  0.50400001928E-02 0.  1.
       -1    1    3    3    0  502 -0.44384230392E+02  0.17694935135E+03  0.24878145325E+04  0.24944943738E+04  0.50400001928E-02 0. -1.
</event>
<event>
 5   0  0.7266519E-02  0.6016605E+03  0.7818609E-02  0.9901967E-01
        1   -1    0    0  501    0  0.00000000000E+00  0.00000000000E+00  0.46718298408E+03  0.46718298411E+03  0.50400001928E-02 0. -1.
       -1   -1    0    0    0  501  0.00000000000E+00  0.00000000000E+00 -0.19371175269E+03  0.19371175276E+03  0.50400001928E-02 0.  1.
    10030    2    1    2    0    0  0.00000000000E+00  0.00000000000E+00  0.27347123138E+03  0.66089473687E+03  0.60166048468E+03 0.  0.
        4    1    3    3  502    0  0.23254827416E+03  0.61313748381E+01  0.34625185583E+03  0.41714296607E+03  0.12699999809E+01 0. -1.
       -4    1    3    3    0  502 -0.23254827416E+03 -0.61313748381E+01 -0.72780624447E+02  0.24375177080E+03  0.12699999809E+01 0.  1.
</event>
<event>
 5   0  0.7424930E-02  0.6025444E+03  0.7818609E-02  0.9900141E-01
       -1   -1    0    0    0  501  0.00000000000E+00  0.00000000000E+00  0.21302402297E+03  0.21302402302E+03  0.50400001928E-02 0.  1.
        1   -1    0    0  501    0  0.00000000000E+00  0.00000000000E+00 -0.42607838337E+03  0.42607838340E+03  0.50400001928E-02 0. -1.
    10030    2    1    2    0    0  0.00000000000E+00  0.00000000000E+00 -0.21305436040E+03  0.63910240642E+03  0.60254437630E+03 0.  0.
        3    1    3    3  502    0 -0.28370600147E+02  0.28206033931E+03  0.16510170059E+01  0.28348838075E+03  0.10100000352E+00 0.  1.
       -3    1    3    3    0  502  0.28370600147E+02 -0.28206033931E+03 -0.21470537741E+03  0.35561402567E+03  0.10100000352E+00 0. -1.
</event>
<event>
 5   0  0.7263385E-02  0.5979602E+03  0.7818609E-02  0.9909647E-01
       -1   -1    0    0    0  501  0.00000000000E+00  0.00000000000E+00  0.25772727009E+03  0.25772727014E+03  0.50400001928E-02 0. -1.
        1   -1    0    0  501    0  0.00000000000E+00  0.00000000000E+00 -0.34683597613E+03  0.34683597616E+03  0.50400001928E-02 0.  1.
    10030    2    1    2    0    0  0.00000000000E+00  0.00000000000E+00 -0.89108706040E+02  0.60456324630E+03  0.59796016363E+03 0.  0.
        1    1    3    3  502    0 -0.27899764961E+03 -0.62992058657E+02  0.43478389816E+02  0.28930616715E+03  0.50400001928E-02 0. -1.
       -1    1    3    3    0  502  0.27899764961E+03  0.62992058657E+02 -0.13258709586E+03  0.31525707915E+03  0.50400001928E-02 0.  1.
</event>
<event>
 5   0  0.4695625E-02  0.6049719E+03  0.7818609E-02  0.9895144E-01
        3   -1    0    0  501    0  0.00000000000E+00  0.00000000000E+00  0.66522611859E+03  0.66522612626E+03  0.10100000352E+00 0.  1.
       -3   -1    0    0    0  501  0.00000000000E+00  0.00000000000E+00 -0.13754381297E+03  0.13754385005E+03  0.10100000352E+00 0. -1.
    10030    2    1    2    0    0  0.00000000000E+00  0.00000000000E+00  0.52768230562E+03  0.80276997631E+03  0.60497191605E+03 0.  0.
        1    1    3    3  502    0 -0.26944757679E+03  0.11429085644E+03  0.16249314122E+03  0.33476621316E+03  0.50400001928E-02 0. -1.
       -1    1    3    3    0  502  0.26944757679E+03 -0.11429085644E+03  0.36518916440E+03  0.46800376315E+03  0.50400001928E-02 0.  1.
</event>
<event>
 5   0  0.7221069E-02  0.6131971E+03  0.7818609E-02  0.9878398E-01
       -1   -1    0    0    0  501  0.00000000000E+00  0.00000000000E+00  0.21151588680E+03  0.21151588686E+03  0.50400001928E-02 0.  1.
        1   -1    0    0  501    0  0.00000000000E+00  0.00000000000E+00 -0.44442370267E+03  0.44442370269E+03  0.50400001928E-02 0. -1.
    10030    2    1    2    0    0  0.00000000000E+00  0.00000000000E+00 -0.23290781586E+03  0.65593958956E+03  0.61319710898E+03 0.  0.
        5    1    3    3  502    0  0.87018757691E+02  0.28696829300E+03 -0.18459263018E+03  0.35216415845E+03  0.46999998093E+01 0. -1.
       -5    1    3    3    0  502 -0.87018757691E+02 -0.28696829300E+03 -0.48315185685E+02  0.30377543111E+03  0.46999998093E+01 0.  1.
</event>
<event>
 5   0  0.7424930E-02  0.6009733E+03  0.7818609E-02  0.9903389E-01
       -1   -1    0    0    0  501  0.00000000000E+00  0.00000000000E+00  0.79516386752E+03  0.79516386753E+03  0.50400001928E-02 0. -1.
        1   -1    0    0  501    0  0.00000000000E+00  0.00000000000E+00 -0.11355173870E+03  0.11355173881E+03  0.50400001928E-02 0.  1.
    10030    2    1    2    0    0  0.00000000000E+00  0.00000000000E+00  0.68161212882E+03  0.90871560634E+03  0.60097334305E+03 0.  0.
        3    1    3    3  502    0 -0.20431356889E+03 -0.13879101120E+03  0.59956612754E+03  0.64844932779E+03  0.10100000352E+00 0. -1.
       -3    1    3    3    0  502  0.20431356889E+03  0.13879101120E+03  0.82046001283E+02  0.26026627855E+03  0.10100000352E+00 0.  1.
</event>
<event>
 5   0  0.1146468E-01  0.5793538E+03  0.7818609E-02  0.9949191E-01
       -2   -1    0    0    0  501  0.00000000000E+00  0.00000000000E+00  0.11553743502E+03  0.11553743505E+03  0.25500000920E-02 0. -1.
        2   -1    0    0  501    0  0.00000000000E+00  0.00000000000E+00 -0.72628150158E+03  0.72628150158E+03  0.25500000920E-02 0.  1.
    10030    2    1    2    0    0  0.00000000000E+00  0.00000000000E+00 -0.61074406656E+03  0.84181893663E+03  0.57935378417E+03 0.  0.
        4    1    3    3  502    0  0.22274844167E+03 -0.82748079234E+02 -0.64646534955E+02  0.24626185304E+03  0.12699999809E+01 0. -1.
       -4    1    3    3    0  502 -0.22274844167E+03  0.82748079234E+02 -0.54609753161E+03  0.59555708359E+03  0.12699999809E+01 0.  1.
</event>
<event>
 5   0  0.1166419E-01  0.5928755E+03  0.7818609E-02  0.9920298E-01
       -2   -1    0    0    0  501  0.00000000000E+00  0.00000000000E+00  0.10510811422E+03  0.10510811425E+03  0.25500000920E-02 0.  1.
        2   -1    0    0  501    0  0.00000000000E+00  0.00000000000E+00 -0.83604716934E+03  0.83604716934E+03  0.25500000920E-02 0. -1.
    10030    2    1    2    0    0  0.00000000000E+00  0.00000000000E+00 -0.73093905512E+03  0.94115528359E+03  0.59287550593E+03 0.  0.
        1    1    3    3  502    0 -0.29765224335E+02 -0.93696260406E+02 -0.80941536095E+03  0.81536383557E+03  0.50400001928E-02 0. -1.
       -1    1    3    3    0  502  0.29765224335E+02  0.93696260406E+02  0.78476305826E+02  0.12579144802E+03  0.50400001928E-02 0.  1.
</event>
<event>
 5   0  0.7266519E-02  0.5060587E+03  0.7818609E-02  0.1012210E+00
        1   -1    0    0  501    0  0.00000000000E+00  0.00000000000E+00  0.26039280472E+03  0.26039280477E+03  0.50400001928E-02 0.  1.
       -1   -1    0    0    0  501  0.00000000000E+00  0.00000000000E+00 -0.24587408524E+03  0.24587408530E+03  0.50400001928E-02 0. -1.
    10030    2    1    2    0    0  0.00000000000E+00  0.00000000000E+00  0.14518719476E+02  0.50626689006E+03  0.50605866336E+03 0.  0.
        4    1    3    3  502    0  0.18489950174E+02  0.24774548690E+03  0.55263739467E+02  0.25451011441E+03  0.12699999809E+01 0.  1.
       -4    1    3    3    0  502 -0.18489950174E+02 -0.24774548690E+03 -0.40745019991E+02  0.25175677566E+03  0.12699999809E+01 0. -1.
</event>
<event>
 5   0  0.1206238E-01  0.6039000E+03  0.7818609E-02  0.9897348E-01
        2   -1    0    0  501    0  0.00000000000E+00  0.00000000000E+00  0.94730793199E+03  0.94730793200E+03  0.25500000920E-02 0.  1.
       -2   -1    0    0    0  501  0.00000000000E+00  0.00000000000E+00 -0.96245156059E+02  0.96245156093E+02  0.25500000920E-02 0. -1.
    10030    2    1    2    0    0  0.00000000000E+00  0.00000000000E+00  0.85106277593E+03  0.10435530881E+04  0.60389999096E+03 0.  0.
        5    1    3    3  502    0  0.22094696651E+03 -0.13303002598E+03  0.69676583592E+03  0.74297999295E+03  0.46999998093E+01 0.  1.
       -5    1    3    3    0  502 -0.22094696651E+03  0.13303002598E+03  0.15429694001E+03  0.30057309513E+03  0.46999998093E+01 0. -1.
</event>
<event>
 5   0  0.7266519E-02  0.6022026E+03  0.7818609E-02  0.9900847E-01
        1   -1    0    0  501    0  0.00000000000E+00  0.00000000000E+00  0.38094772467E+03  0.38094772471E+03  0.50400001928E-02 0. -1.
       -1   -1    0    0    0  501  0.00000000000E+00  0.00000000000E+00 -0.23799061018E+03  0.23799061024E+03  0.50400001928E-02 0.  1.
    10030    2    1    2    0    0  0.00000000000E+00  0.00000000000E+00  0.14295711449E+03  0.61893833494E+03  0.60220256217E+03 0.  0.
        4    1    3    3  502    0 -0.11892522483E+03 -0.22829075685E+03  0.23202624511E+03  0.34655110746E+03  0.12699999809E+01 0. -1.
       -4    1    3    3    0  502  0.11892522483E+03  0.22829075685E+03 -0.89069130616E+02  0.27238722748E+03  0.12699999809E+01 0.  1.
</event>
<event>
 5   0  0.7263385E-02  0.3902556E+03  0.7818609E-02  0.1047207E+00
        1   -1    0    0  501    0  0.00000000000E+00  0.00000000000E+00  0.11858537721E+04  0.11858537721E+04  0.50400001928E-02 0.  1.
       -1   -1    0    0    0  501  0.00000000000E+00  0.00000000000E+00 -0.32107547865E+02  0.32107548260E+02  0.50400001928E-02 0. -1.
    10030    2    1    2    0    0  0.00000000000E+00  0.00000000000E+00  0.11537462243E+04  0.12179613204E+04  0.39025559315E+03 0.  0.
        1    1    3    3  502    0 -0.50563147214E+02  0.60557746715E+02  0.19885174364E+02  0.81359035935E+02  0.50400001928E-02 0. -1.
       -1    1    3    3    0  502  0.50563147214E+02 -0.60557746715E+02  0.11338610499E+04  0.11366022845E+04  0.50400001928E-02 0.  1.
</event>
<event>
 5   0  0.7263385E-02  0.5968143E+03  0.7818609E-02  0.9912038E-01
       -1   -1    0    0    0  501  0.00000000000E+00  0.00000000000E+00  0.11585523184E+03  0.11585523194E+03  0.50400001928E-02 0. -1.
        1   -1    0    0  501    0  0.00000000000E+00  0.00000000000E+00 -0.76860416081E+03  0.76860416083E+03  0.50400001928E-02 0.  1.
    10030    2    1    2    0    0  0.00000000000E+00  0.00000000000E+00 -0.65274892898E+03  0.88445939278E+03  0.59681425350E+03 0.  0.
        1    1    3    3  502    0  0.24155769709E+03 -0.17129334679E+03 -0.27181708756E+03  0.40196524824E+03  0.50400001928E-02 0. -1.
       -1    1    3    3    0  502 -0.24155769709E+03  0.17129334679E+03 -0.38093184142E+03  0.48249414453E+03  0.50400001928E-02 0.  1.
</event>
<event>
 5   0  0.7424930E-02  0.5917530E+03  0.7818609E-02  0.9922665E-01
        1   -1    0    0  501    0  0.00000000000E+00  0.00000000000E+00  0.26555652305E+03  0.26555652310E+03  0.50400001928E-02 0. -1.
       -1   -1    0    0    0  501  0.00000000000E+00  0.00000000000E+00 -0.32965827434E+03  0.32965827437E+03  0.50400001928E-02 0.  1.
    10030    2    1    2    0    0  0.00000000000E+00  0.00000000000E+00 -0.64101751282E+02  0.59521479748E+03  0.59175300643E+03 0.  0.
        3    1    3    3  502    0 -0.19766516585E+03  0.29771593426E+02 -0.25146693824E+03  0.32123744613E+03  0.10100000352E+00 0.  1.
       -3    1    3    3    0  502  0.19766516585E+03 -0.29771593426E+02  0.18736518696E+03  0.27397735135E+03  0.10100000352E+00 0. -1.
</event>
<event>
 5   0  0.1206238E-01  0.6088567E+03  0.7818609E-02  0.9887200E-01
        2   -1    0    0  501    0  0.00000000000E+00  0.00000000000E+00  0.59576917672E+03  0.59576917673E+03  0.25500000920E-02 0.  1.
       -2   -1    0    0    0  501  0.00000000000E+00  0.00000000000E+00 -0.15555790513E+03  0.15555790515E+03  0.25500000920E-02 0. -1.
    10030    2    1    2    0    0  0.00000000000E+00  0.00000000000E+00  0.44021127159E+03  0.75132708187E+03  0.60885665005E+03 0.  0.
        5    1    3    3  502    0  0.39529241375E+02  0.98528122209E+02 -0.13192782165E+03  0.16940304576E+03  0.46999998093E+01 0. -1.
       -5    1    3    3    0  502 -0.39529241375E+02 -0.98528122209E+02  0.57213909324E+03  0.58192403611E+03  0.46999998093E+01 0.  1.
</event>
<event>
 5   0  0.1166419E-01  0.6052239E+03  0.7818609E-02  0.9894627E-01
        2   -1    0    0  501    0  0.00000000000E+00  0.00000000000E+00  0.28589942113E+03  0.28589942115E+03  0.25500000920E-02 0. -1.
       -2   -1    0    0    0  501  0.00000000000E+00  0.00000000000E+00 -0.32030145401E+03  0.32030145402E+03  0.25500000920E-02 0.  1.
    10030    2    1    2    0    0  0.00000000000E+00  0.00000000000E+00 -0.34402032873E+02  0.60620087516E+03  0.60522392648E+03 0.  0.
        1    1    3    3  502    0 -0.17470558261E+03  0.87787753140E+02  0.21413775739E+03  0.28997191133E+03  0.50400001928E-02 0. -1.
       -1    1    3    3    0  502  0.17470558261E+03 -0.87787753140E+02 -0.24853979027E+03  0.31622896383E+03  0.50400001928E-02 0.  1.
</event>
<event>
 5   0  0.7266519E-02  0.5718870E+03  0.7818609E-02  0.9965512E-01
       -1   -1    0    0    0  501  0.00000000000E+00  0.00000000000E+00  0.55563747020E+02  0.55563747249E+02  0.50400001928E-02 0.  1.
        1   -1    0    0  501    0  0.00000000000E+00  0.00000000000E+00 -0.14715295448E+04  0.14715295448E+04  0.50400001928E-02 0. -1.
    10030    2    1    2    0    0  0.00000000000E+00  0.00000000000E+00 -0.14159657978E+04  0.15270932921E+04  0.57188703619E+03 0.  0.
        4    1    3    3  502    0  0.61651345217E+02 -0.21358546739E+03 -0.11882045363E+04  0.12088222670E+04  0.12699999809E+01 0. -1.
       -4    1    3    3    0  502 -0.61651345217E+02  0.21358546739E+03 -0.22776126147E+03  0.31827102503E+03  0.12699999809E+01 0.  1.
</event>
<event>
 5   0  0.7424930E-02  0.5442128E+03  0.7818609E-02  0.1002842E+00
       -1   -1    0    0    0  501  0.00000000000E+00  0.00000000000E+00  0.12279014319E+03  0.12279014329E+03  0.50400001928E-02 0.  1.
        1   -1    0    0  501    0  0.00000000000E+00  0.00000000000E+00 -0.60299541124E+03  0.60299541126E+03  0.50400001928E-02 0. -1.
    10030    2    1    2    0    0  0.00000000000E+00  0.00000000000E+00 -0.48020526805E+03  0.72578555455E+03  0.54421280005E+03 0.  0.
        3    1    3    3  502    0  0.21900115437E+01 -0.29226336097E+02 -0.60088424936E+03  0.60159859226E+03  0.10100000352E+00 0. -1.
       -3    1    3    3    0  502 -0.21900115437E+01  0.29226336097E+02  0.12067898131E+03  0.12418696230E+03  0.10100000352E+00 0.  1.
</event>
<event>
 5   0  0.1206238E-01  0.6016358E+03  0.7818609E-02  0.9902018E-01
        2   -1    0    0  501    0  0.00000000000E+00  0.00000000000E+00  0.20561479743E+04  0.20561479743E+04  0.25500000920E-02 0. -1.
       -2   -1    0    0    0  501  0.00000000000E+00  0.00000000000E+00 -0.44010157559E+02  0.44010157633E+02  0.25500000920E-02 0.  1.
    10030    2    1    2    0    0  0.00000000000E+00  0.00000000000E+00  0.20121378167E+04  0.21001581319E+04  0.60163575822E+03 0.  0.
        5    1    3    3  502    0 -0.18587419119E+03 -0.22170624636E+03  0.12932118922E+04  0.13251875198E+04  0.46999998093E+01 0. -1.
       -5    1    3    3    0  502  0.18587419119E+03  0.22170624636E+03  0.71892592454E+03  0.77497061208E+03  0.46999998093E+01 0.  1.
</event>
<event>
 5   0  0.7424930E-02  0.5956526E+03  0.7818609E-02  0.9914467E-01
        1   -1    0    0  501    0  0.00000000000E+00  0.00000000000E+00  0.39689566559E+03  0.39689566562E+03  0.50400001928E-02 0. -1.
       -1   -1    0    0    0  501  0.00000000000E+00  0.00000000000E+00 -0.22348571893E+03  0.22348571898E+03  0.50400001928E-02 0.  1.
    10030    2    1    2    0    0  0.00000000000E+00  0.00000000000E+00  0.17340994667E+03  0.62038138461E+03  0.59565262760E+03 0.  0.
        3    1    3    3  502    0 -0.18413162978E+03  0.14552007247E+02 -0.15662718523E+03  0.24217411785E+03  0.10100000352E+00 0.  1.
       -3    1    3    3    0  502  0.18413162978E+03 -0.14552007247E+02  0.33003713189E+03  0.37820726676E+03  0.10100000352E+00 0. -1.
</event>
<event>
 5   0  0.7263385E-02  0.5809074E+03  0.7818609E-02  0.9945828E-01
        1   -1    0    0  501    0  0.00000000000E+00  0.00000000000E+00  0.10654158975E+04  0.10654158975E+04  0.50400001928E-02 0. -1.
       -1   -1    0    0    0  501  0.00000000000E+00  0.00000000000E+00 -0.79183487749E+02  0.79183487909E+02  0.50400001928E-02 0.  1.
    10030    2    1    2    0    0  0.00000000000E+00  0.00000000000E+00  0.98623240971E+03  0.11445993854E+04  0.58090738251E+03 0.  0.
        1    1    3    3  502    0  0.12723710781E+03  0.19110278146E+03  0.84367388407E+03  0.87435414871E+03  0.50400001928E-02 0. -1.
       -1    1    3    3    0  502 -0.12723710781E+03 -0.19110278146E+03  0.14255852564E+03  0.27024523667E+03  0.50400001928E-02 0.  1.
</event>
<event>
 5   0  0.1146468E-01  0.6113741E+03  0.7818609E-02  0.9882085E-01
       -2   -1    0    0    0  501  0.00000000000E+00  0.00000000000E+00  0.34469679123E+03  0.34469679124E+03  0.25500000920E-02 0. -1.
        2   -1    0    0  501    0  0.00000000000E+00  0.00000000000E+00 -0.27109213085E+03  0.27109213086E+03  0.25500000920E-02 0.  1.
    10030    2    1    2    0    0  0.00000000000E+00  0.00000000000E+00  0.73604660383E+02  0.61578892210E+03  0.61137414940E+03 0.  0.
        4    1    3    3  502    0 -0.94585397124E+02 -0.54055988087E+02 -0.25087264463E+03  0.27350894669E+03  0.12699999809E+01 0.  1.
       -4    1    3    3    0  502  0.94585397124E+02  0.54055988087E+02  0.32447730501E+03  0.34227997541E+03  0.12699999809E+01 0. -1.
</event>
<event>
 5   0  0.1219020E-01  0.5796183E+03  0.7818609E-02  0.9948618E-01
        2   -1    0    0  501    0  0.00000000000E+00  0.00000000000E+00  0.24599624000E+03  0.24599624002E+03  0.25500000920E-02 0.  1.
       -2   -1    0    0    0  501  0.00000000000E+00  0.00000000000E+00 -0.34142536943E+03  0.34142536944E+03  0.25500000920E-02 0. -1.
    10030    2    1    2    0    0  0.00000000000E+00  0.00000000000E+00 -0.95429129430E+02  0.58742160946E+03  0.57961834729E+03 0.  0.
        2    1    3    3  502    0 -0.79097106451E+02  0.21952751863E+03 -0.22190246757E+03  0.32200836760E+03  0.25500000920E-02 0. -1.
       -2    1    3    3    0  502  0.79097106451E+02 -0.21952751863E+03  0.12647333814E+03  0.26541324186E+03  0.25500000920E-02 0.  1.
</event>
<event>
 5   0  0.7123340E-02  0.5980607E+03  0.7818609E-02  0.9909438E-01
       -1   -1    0    0    0  501  0.00000000000E+00  0.00000000000E+00  0.50382286985E+03  0.50382286987E+03  0.50400001928E-02 0.  1.
        1   -1    0    0  501    0  0.00000000000E+00  0.00000000000E+00 -0.17748134620E+03  0.17748134627E+03  0.50400001928E-02 0. -1.
    10030    2    1    2    0    0  0.00000000000E+00  0.00000000000E+00  0.32634152365E+03  0.68130421615E+03  0.59806073679E+03 0.  0.
        2    1    3    3  502    0 -0.25760463362E+03  0.69670435099E+02  0.94644660214E+01  0.26702751340E+03  0.25500000920E-02 0. -1.
       -2    1    3    3    0  502  0.25760463362E+03 -0.69670435099E+02  0.31687705762E+03  0.41427670275E+03  0.25500000920E-02 0.  1.
</event>
<event>
 5   0  0.1219020E-01  0.5897450E+03  0.7818609E-02  0.9926913E-01
       -2   -1    0    0    0  501  0.00000000000E+00  0.00000000000E+00  0.14253132213E+03  0.14253132216E+03  0.25500000920E-02 0. -1.
        2   -1    0    0  501    0  0.00000000000E+00  0.00000000000E+00 -0.61003990265E+03  0.61003990266E+03  0.25500000920E-02 0.  1.
    10030    2    1    2    0    0  0.00000000000E+00  0.00000000000E+00 -0.46750858052E+03  0.75257122481E+03  0.58974500893E+03 0.  0.
        2    1    3    3  502    0 -0.85625800151E+02 -0.25018094306E+03 -0.67237154654E+02  0.27284265959E+03  0.25500000920E-02 0. -1.
       -2    1    3    3    0  502  0.85625800151E+02  0.25018094306E+03 -0.40027142586E+03  0.47972856522E+03  0.25500000920E-02 0.  1.
</event>
<event>
 5   0  0.7123340E-02  0.5975491E+03  0.7818609E-02  0.9910504E-01
       -1   -1    0    0    0  501  0.00000000000E+00  0.00000000000E+00  0.22442339803E+03  0.22442339808E+03  0.50400001928E-02 0.  1.
        1   -1    0    0  501    0  0.00000000000E+00  0.00000000000E+00 -0.39775817809E+03  0.39775817812E+03  0.50400001928E-02 0. -1.
    10030    2    1    2    0    0  0.00000000000E+00  0.00000000000E+00 -0.17333478006E+03  0.62218157620E+03  0.59754913420E+03 0.  0.
        2    1    3    3  502    0  0.19155797894E+03  0.44326221527E+02 -0.32090071733E+03  0.37634630807E+03  0.25500000920E-02 0. -1.
       -2    1    3    3    0  502 -0.19155797894E+03 -0.44326221527E+02  0.14756593727E+03  0.24583526813E+03  0.25500000920E-02 0.  1.
</event>
<event>
 5   0  0.4695625E-02  0.5947317E+03  0.7818609E-02  0.9916397E-01
        3   -1    0    0  501    0  0.00000000000E+00  0.00000000000E+00  0.14889038755E+03  0.14889042181E+03  0.10100000352E+00 0. -1.
       -3   -1    0    0    0  501  0.00000000000E+00  0.00000000000E+00 -0.59390296295E+03  0.59390297153E+03  0.10100000352E+00 0.  1.
    10030    2    1    2    0    0  0.00000000000E+00  0.00000000000E+00 -0.44501257540E+03  0.74279339334E+03  0.59473173190E+03 0.  0.
        2    1    3    3  502    0 -0.59288485583E+02  0.25893045247E+03 -0.38944801191E+03  0.47141261940E+03  0.25500000920E-02 0.  1.
       -2    1    3    3    0  502  0.59288485583E+02 -0.25893045247E+03 -0.55564563483E+02  0.27138077394E+03  0.25500000920E-02 0. -1.
</event>
<event>
 5   0  0.7263385E-02  0.6081604E+03  0.7818609E-02  0.9888619E-01
        1   -1    0    0  501    0  0.00000000000E+00  0.00000000000E+00  0.80820783111E+03  0.80820783112E+03  0.50400001928E-02 0. -1.
       -1   -1    0    0    0  501  0.00000000000E+00  0.00000000000E+00 -0.11440715121E+03  0.11440715132E+03  0.50400001928E-02 0.  1.
    10030    2    1    2    0    0  0.00000000000E+00  0.00000000000E+00  0.69380067990E+03  0.92261498244E+03  0.60816035911E+03 0.  0.
        1    1    3    3  502    0  0.12338773970E+03 -0.27791147993E+03  0.35043563522E+03  0.46396601109E+03  0.50400001928E-02 0.  1.
       -1    1    3    3    0  502 -0.12338773970E+03  0.27791147993E+03  0.34336504468E+03  0.45864897135E+03  0.50400001928E-02 0. -1.
</event>
<event>
 5   0  0.1219020E-01  0.6154792E+03  0.7818609E-02  0.9873802E-01
       -2   -1    0    0    0  501  0.00000000000E+00  0.00000000000E+00  0.60795598995E+02  0.60795599049E+02  0.25500000920E-02 0.  1.
        2   -1    0    0  501    0  0.00000000000E+00  0.00000000000E+00 -0.15577387637E+04  0.15577387637E+04  0.25500000920E-02 0. -1.
    10030    2    1    2    0    0  0.00000000000E+00  0.00000000000E+00 -0.14969431647E+04  0.16185343627E+04  0.61547919952E+03 0.  0.
        2    1    3    3  502    0 -0.23783535445E+03 -0.17378331311E+03 -0.51418536858E+03  0.59258154629E+03  0.25500000920E-02 0.  1.
       -2    1    3    3    0  502  0.23783535445E+03  0.17378331311E+03 -0.98275779608E+03  0.10259528164E+04  0.25500000920E-02 0. -1.
</event>
<event>
 5   0  0.1146468E-01  0.6069186E+03  0.7818609E-02  0.9891155E-01
       -2   -1    0    0    0  501  0.00000000000E+00  0.00000000000E+00  0.13551854417E+03  0.13551854419E+03  0.25500000920E-02 0.  1.
        2   -1    0    0  501    0  0.00000000000E+00  0.00000000000E+00 -0.67951981132E+03  0.67951981133E+03  0.25500000920E-02 0. -1.
    10030    2    1    2    0    0  0.00000000000E+00  0.00000000000E+00 -0.54400126715E+03  0.81503835552E+03  0.60691856316E+03 0.  0.
        4    1    3    3  502    0  0.68140238890E+01 -0.55256451500E+02  0.12859756919E+03  0.14013798220E+03  0.12699999809E+01 0.  1.
       -4    1    3    3    0  502 -0.68140238890E+01  0.55256451500E+02 -0.67259883634E+03  0.67490037332E+03  0.12699999809E+01 0. -1.
</event>
<event>
 5   0  0.1166419E-01  0.6153791E+03  0.7818609E-02  0.9874003E-01
       -2   -1    0    0    0  501  0.00000000000E+00  0.00000000000E+00  0.62035187905E+03  0.62035187905E+03  0.25500000920E-02 0.  1.
        2   -1    0    0  501    0  0.00000000000E+00  0.00000000000E+00 -0.15261157009E+03  0.15261157011E+03  0.25500000920E-02 0. -1.
    10030    2    1    2    0    0  0.00000000000E+00  0.00000000000E+00  0.46774030896E+03  0.77296344916E+03  0.61537914907E+03 0.  0.
        1    1    3    3  502    0 -0.50292910761E+02  0.29018505650E+03  0.12197260446E+03  0.31876960356E+03  0.50400001928E-02 0. -1.
       -1    1    3    3    0  502  0.50292910761E+02 -0.29018505650E+03  0.34576770450E+03  0.45419384561E+03  0.50400001928E-02 0.  1.
</event>
<event>
 5   0  0.1166419E-01  0.5997221E+03  0.7818609E-02  0.9905983E-01
        2   -1    0    0  501    0  0.00000000000E+00  0.00000000000E+00  0.32797566192E+03  0.32797566193E+03  0.25500000920E-02 0. -1.
       -2   -1    0    0    0  501  0.00000000000E+00  0.00000000000E+00 -0.27415649190E+03  0.27415649191E+03  0.25500000920E-02 0.  1.
    10030    2    1    2    0    0  0.00000000000E+00  0.00000000000E+00  0.53819170025E+02  0.60213215384E+03  0.59972212534E+03 0.  0.
        1    1    3    3  502    0 -0.15441560193E+02  0.17591202011E+03  0.27023276956E+03  0.32281454485E+03  0.50400001928E-02 0. -1.
       -1    1    3    3    0  502  0.15441560193E+02 -0.17591202011E+03 -0.21641359953E+03  0.27931760898E+03  0.50400001928E-02 0.  1.
</event>
<event>
 5   0  0.7123340E-02  0.6073248E+03  0.7818609E-02  0.9890325E-01
        1   -1    0    0  501    0  0.00000000000E+00  0.00000000000E+00  0.23557514710E+03  0.23557514715E+03  0.50400001928E-02 0. -1.
       -1   -1    0    0    0  501  0.00000000000E+00  0.00000000000E+00 -0.39142866512E+03  0.39142866516E+03  0.50400001928E-02 0.  1.
    10030    2    1    2    0    0  0.00000000000E+00  0.00000000000E+00 -0.15585351802E+03  0.62700381231E+03  0.60732484024E+03 0.  0.
        2    1    3    3  502    0  0.27827568910E+03 -0.51177835460E+02  0.35892235609E+02  0.28521006744E+03  0.25500000920E-02 0. -1.
       -2    1    3    3    0  502 -0.27827568910E+03  0.51177835460E+02 -0.19174575363E+03  0.34179374487E+03  0.25500000920E-02 0.  1.
</event>
<event>
 5   0  0.4695625E-02  0.5937002E+03  0.7818609E-02  0.9918563E-01
       -4   -1    0    0    0  501  0.00000000000E+00  0.00000000000E+00  0.15856222061E+03  0.15856730654E+03  0.12699999809E+01 0. -1.
        4   -1    0    0  501    0  0.00000000000E+00  0.00000000000E+00 -0.55572913594E+03  0.55573058710E+03  0.12699999809E+01 0.  1.
    10030    2    1    2    0    0  0.00000000000E+00  0.00000000000E+00 -0.39716691533E+03  0.71429789364E+03  0.59370019557E+03 0.  0.
        4    1    3    3  502    0  0.16920285224E+03 -0.57261729246E+02 -0.48382870492E+03  0.51575220741E+03  0.12699999809E+01 0.  1.
       -4    1    3    3    0  502 -0.16920285224E+03  0.57261729246E+02  0.86661789591E+02  0.19854568623E+03  0.12699999809E+01 0. -1.
</event>
<event>
 5   0  0.1166419E-01  0.6011457E+03  0.7818609E-02  0.9903032E-01
       -2   -1    0    0    0  501  0.00000000000E+00  0.00000000000E+00  0.69239697583E+02  0.69239697630E+02  0.25500000920E-02 0.  1.
        2   -1    0    0  501    0  0.00000000000E+00  0.00000000000E+00 -0.13048009895E+04  0.13048009895E+04  0.25500000920E-02 0. -1.
    10030    2    1    2    0    0  0.00000000000E+00  0.00000000000E+00 -0.12355612919E+04  0.13740406872E+04  0.60114565940E+03 0.  0.
        1    1    3    3  502    0  0.24637536167E+03 -0.15712830704E+03 -0.45690378176E+03  0.54235706828E+03  0.50400001928E-02 0.  1.
       -1    1    3    3    0  502 -0.24637536167E+03  0.15712830704E+03 -0.77865751019E+03  0.83168361887E+03  0.50400001928E-02 0. -1.
</event>
<event>
 5   0  0.1206238E-01  0.5851757E+03  0.7818609E-02  0.9936648E-01
       -2   -1    0    0    0  501  0.00000000000E+00  0.00000000000E+00  0.14008648711E+03  0.14008648713E+03  0.25500000920E-02 0.  1.
        2   -1    0    0  501    0  0.00000000000E+00  0.00000000000E+00 -0.61110560875E+03  0.61110560875E+03  0.25500000920E-02 0. -1.
    10030    2    1    2    0    0  0.00000000000E+00  0.00000000000E+00 -0.47101912164E+03  0.75119209588E+03  0.58517565907E+03 0.  0.
        5    1    3    3  502    0 -0.85999921414E+02  0.27952445775E+03 -0.22593421372E+03  0.36959202899E+03  0.46999998093E+01 0.  1.
       -5    1    3    3    0  502  0.85999921414E+02 -0.27952445775E+03 -0.24508490792E+03  0.38160006690E+03  0.46999998093E+01 0. -1.
</event>
<event>
 5   0  0.1146468E-01  0.6272054E+03  0.7818609E-02  0.9850517E-01
       -2   -1    0    0    0  501  0.00000000000E+00  0.00000000000E+00  0.14153262597E+03  0.14153262600E+03  0.25500000920E-02 0. -1.
        2   -1    0    0  501    0  0.00000000000E+00  0.00000000000E+00 -0.69486922153E+03  0.69486922153E+03  0.25500000920E-02 0.  1.
    10030    2    1    2    0    0  0.00000000000E+00  0.00000000000E+00 -0.55333659555E+03  0.83640184753E+03  0.62720543889E+03 0.  0.
        4    1    3    3  502    0  0.71795473313E+02 -0.21789251934E+03  0.84509360105E+01  0.22957519725E+03  0.12699999809E+01 0. -1.
       -4    1    3    3    0  502 -0.71795473313E+02  0.21789251934E+03 -0.56178753156E+03  0.60682665028E+03  0.12699999809E+01 0.  1.
</event>
<event>
 5   0  0.7263385E-02  0.5936364E+03  0.7818609E-02  0.9918697E-01
       -1   -1    0    0    0  501  0.00000000000E+00  0.00000000000E+00  0.66956578727E+03  0.66956578729E+03  0.50400001928E-02 0. -1.
        1   -1    0    0  501    0  0.00000000000E+00  0.00000000000E+00 -0.13157935501E+03  0.13157935511E+03  0.50400001928E-02 0.  1.
    10030    2    1    2    0    0  0.00000000000E+00  0.00000000000E+00  0.53798643226E+03  0.80114514240E+03  0.59363636841E+03 0.  0.
        1    1    3    3  502    0  0.26581731115E+03 -0.32594113729E+02  0.96272192093E+02  0.28458663734E+03  0.50400001928E-02 0.  1.
       -1    1    3    3    0  502 -0.26581731115E+03  0.32594113729E+02  0.44171424017E+03  0.51655850506E+03  0.50400001928E-02 0. -1.
</event>
<event>
 5   0  0.1175861E-01  0.5927316E+03  0.7818609E-02  0.9920602E-01
       -2   -1    0    0    0  501  0.00000000000E+00  0.00000000000E+00  0.85746552997E+02  0.85746553035E+02  0.25500000920E-02 0. -1.
        2   -1    0    0  501    0  0.00000000000E+00  0.00000000000E+00 -0.10243289157E+04  0.10243289157E+04  0.25500000920E-02 0.  1.
    10030    2    1    2    0    0  0.00000000000E+00  0.00000000000E+00 -0.93858236266E+03  0.11100754687E+04  0.59273155366E+03 0.  0.
        3    1    3    3  502    0 -0.63095423690E+02 -0.26870714372E+03 -0.67141711489E+03  0.72593767911E+03  0.10100000352E+00 0.  1.
       -3    1    3    3    0  502  0.63095423690E+02  0.26870714372E+03 -0.26716524777E+03  0.38413778959E+03  0.10100000352E+00 0. -1.
</event>
<event>
 5   0  0.1166419E-01  0.5940460E+03  0.7818609E-02  0.9917836E-01
       -2   -1    0    0    0  501  0.00000000000E+00  0.00000000000E+00  0.30820820719E+03  0.30820820720E+03  0.25500000920E-02 0. -1.
        2   -1    0    0  501    0  0.00000000000E+00  0.00000000000E+00 -0.28624374580E+03  0.28624374581E+03  0.25500000920E-02 0.  1.
    10030    2    1    2    0    0  0.00000000000E+00  0.00000000000E+00  0.21964461391E+02  0.59445195302E+03  0.59404603095E+03 0.  0.
        1    1    3    3  502    0 -0.12442509415E+03 -0.10875590564E+02  0.28065253297E+03  0.30719004999E+03  0.50400001928E-02 0. -1.
       -1    1    3    3    0  502  0.12442509415E+03  0.10875590564E+02 -0.25868807158E+03  0.28726190302E+03  0.50400001928E-02 0.  1.
</event>
<event>
 5   0  0.7266519E-02  0.5386748E+03  0.7818609E-02  0.1004150E+00
       -1   -1    0    0    0  501  0.00000000000E+00  0.00000000000E+00  0.53063176517E+02  0.53063176756E+02  0.50400001928E-02 0. -1.
        1   -1    0    0  501    0  0.00000000000E+00  0.00000000000E+00 -0.13670994348E+04  0.13670994348E+04  0.50400001928E-02 0.  1.
    10030    2    1    2    0    0  0.00000000000E+00  0.00000000000E+00 -0.13140362583E+04  0.14201626115E+04  0.53867481396E+03 0.  0.
        4    1    3    3  502    0 -0.19506537338E+03 -0.17809916543E+03 -0.79580435965E+03  0.83849627570E+03  0.12699999809E+01 0. -1.
       -4    1    3    3    0  502  0.19506537338E+03  0.17809916543E+03 -0.51823189861E+03  0.58166633585E+03  0.12699999809E+01 0.  1.
</event>
<event>
 5   0  0.1175861E-01  0.6015495E+03  0.7818609E-02  0.9902197E-01
       -2   -1    0    0    0  501  0.00000000000E+00  0.00000000000E+00  0.72117292869E+02  0.72117292914E+02  0.25500000920E-02 0.  1.
        2   -1    0    0  501    0  0.00000000000E+00  0.00000000000E+00 -0.12544208584E+04  0.12544208584E+04  0.25500000920E-02 0. -1.
    10030    2    1    2    0    0  0.00000000000E+00  0.00000000000E+00 -0.11823035655E+04  0.13265381513E+04  0.60154945418E+03 0.  0.
        3    1    3    3  502    0 -0.25687548503E+03  0.23798550572E+02 -0.93216788595E+03  0.96720647414E+03  0.10100000352E+00 0. -1.
       -3    1    3    3    0  502  0.25687548503E+03 -0.23798550572E+02 -0.25013567956E+03  0.35933167715E+03  0.10100000352E+00 0.  1.
</event>
<event>
 5   0  0.1166419E-01  0.5968357E+03  0.7818609E-02  0.9911993E-01
       -2   -1    0    0    0  501  0.00000000000E+00  0.00000000000E+00  0.10100021659E+03  0.10100021662E+03  0.25500000920E-02 0.  1.
        2   -1    0    0  501    0  0.00000000000E+00  0.00000000000E+00 -0.88171319843E+03  0.88171319843E+03  0.25500000920E-02 0. -1.
    10030    2    1    2    0    0  0.00000000000E+00  0.00000000000E+00 -0.78071298184E+03  0.98271341505E+03  0.59683573629E+03 0.  0.
        1    1    3    3  502    0  0.26916216491E+03  0.84713068943E+02 -0.23047551217E+03  0.36433986442E+03  0.50400001928E-02 0.  1.
       -1    1    3    3    0  502 -0.26916216491E+03 -0.84713068943E+02 -0.55023746967E+03  0.61837355063E+03  0.50400001928E-02 0. -1.
</event>
<event>
 5   0  0.7123340E-02  0.6055693E+03  0.7818609E-02  0.9893918E-01
       -1   -1    0    0    0  501  0.00000000000E+00  0.00000000000E+00  0.16855884355E+03  0.16855884362E+03  0.50400001928E-02 0. -1.
        1   -1    0    0  501    0  0.00000000000E+00  0.00000000000E+00 -0.54389636443E+03  0.54389636445E+03  0.50400001928E-02 0.  1.
    10030    2    1    2    0    0  0.00000000000E+00  0.00000000000E+00 -0.37533752088E+03  0.71245520808E+03  0.60556929325E+03 0.  0.
        2    1    3    3  502    0  0.39212922000E+02 -0.26229065018E+03 -0.35955327499E+03  0.44678025470E+03  0.25500000920E-02 0.  1.
       -2    1    3    3    0  502 -0.39212922000E+02  0.26229065018E+03 -0.15784245889E+02  0.26567495337E+03  0.25500000920E-02 0. -1.
</event>
<event>
 5   0  0.1206238E-01  0.6052543E+03  0.7818609E-02  0.9894565E-01
        2   -1    0    0  501    0  0.00000000000E+00  0.00000000000E+00  0.60006673182E+03  0.60006673183E+03  0.25500000920E-02 0.  1.
       -2   -1    0    0    0  501  0.00000000000E+00  0.00000000000E+00 -0.15262167407E+03  0.15262167409E+03  0.25500000920E-02 0. -1.
    10030    2    1    2    0    0  0.00000000000E+00  0.00000000000E+00  0.44744505775E+03  0.75268840592E+03  0.60525429094E+03 0.  0.
        5    1    3    3  502    0  0.12348932936E+03 -0.25772297129E+03  0.10004713996E+03  0.30282381777E+03  0.46999998093E+01 0. -1.
       -5    1    3    3    0  502 -0.12348932936E+03  0.25772297129E+03  0.34739791779E+03  0.44986458815E+03  0.46999998093E+01 0.  1.
</event>
<event>
 5   0  0.7263385E-02  0.6006347E+03  0.7818609E-02  0.9904090E-01
        1   -1    0    0  501    0  0.00000000000E+00  0.00000000000E+00  0.34689243429E+03  0.34689243432E+03  0.50400001928E-02 0.  1.
       -1   -1    0    0    0  501  0.00000000000E+00  0.00000000000E+00 -0.25999561053E+03  0.25999561058E+03  0.50400001928E-02 0. -1.
    10030    2    1    2    0    0  0.00000000000E+00  0.00000000000E+00  0.86896823754E+02  0.60688804490E+03  0.60063469852E+03 0.  0.
        1    1    3    3  502    0  0.20063323344E+03 -0.13177508366E+03  0.22580494731E+03  0.32955461048E+03  0.50400001928E-02 0. -1.
       -1    1    3    3    0  502 -0.20063323344E+03  0.13177508366E+03 -0.13890812355E+03  0.27733343442E+03  0.50400001928E-02 0.  1.
</event>
<event>
 5   0  0.1166419E-01  0.6043226E+03  0.7818609E-02  0.9896478E-01
       -2   -1    0    0    0  501  0.00000000000E+00  0.00000000000E+00  0.23011459188E+03  0.23011459189E+03  0.25500000920E-02 0. -1.
        2   -1    0    0  501    0  0.00000000000E+00  0.00000000000E+00 -0.39676509240E+03  0.39676509240E+03  0.25500000920E-02 0.  1.
    10030    2    1    2    0    0  0.00000000000E+00  0.00000000000E+00 -0.16665050052E+03  0.62687968430E+03  0.60432255399E+03 0.  0.
        1    1    3    3  502    0 -0.12493645763E+02  0.27556216284E+03 -0.21126102373E+03  0.34745045250E+03  0.50400001928E-02 0. -1.
       -1    1    3    3    0  502  0.12493645763E+02 -0.27556216284E+03  0.44610523209E+02  0.27942923179E+03  0.50400001928E-02 0.  1.
</event>
<event>
 5   0  0.1219020E-01  0.6153889E+03  0.7818609E-02  0.9873984E-01
       -2   -1    0    0    0  501  0.00000000000E+00  0.00000000000E+00  0.73329480085E+02  0.73329480129E+02  0.25500000920E-02 0. -1.
        2   -1    0    0  501    0  0.00000000000E+00  0.00000000000E+00 -0.12911023583E+04  0.12911023583E+04  0.25500000920E-02 0.  1.
    10030    2    1    2    0    0  0.00000000000E+00  0.00000000000E+00 -0.12177728782E+04  0.13644318384E+04  0.61538886796E+03 0.  0.
        2    1    3    3  502    0  0.27724885289E+03  0.89211638960E+02 -0.82893838463E+03  0.87861509689E+03  0.25500000920E-02 0.  1.
       -2    1    3    3    0  502 -0.27724885289E+03 -0.89211638960E+02 -0.38883449359E+03  0.48581674155E+03  0.25500000920E-02 0. -1.
</event>
<event>
 5   0  0.7221069E-02  0.6124328E+03  0.7818609E-02  0.9879943E-01
       -1   -1    0    0    0  501  0.00000000000E+00  0.00000000000E+00  0.37859514154E+03  0.37859514158E+03  0.50400001928E-02 0. -1.
        1   -1    0    0  501    0  0.00000000000E+00  0.00000000000E+00 -0.24767480747E+03  0.24767480752E+03  0.50400001928E-02 0.  1.
    10030    2    1    2    0    0  0.00000000000E+00  0.00000000000E+00  0.13092033407E+03  0.62626994910E+03  0.61243278429E+03 0.  0.
        5    1    3    3  502    0 -0.26030177630E+03  0.13241697574E+03  0.15948942185E+03  0.33279158025E+03  0.46999998093E+01 0.  1.
       -5    1    3    3    0  502  0.26030177630E+03 -0.13241697574E+03 -0.28569087780E+02  0.29347836885E+03  0.46999998093E+01 0. -1.
</event>
<event>
 5   0  0.7424930E-02  0.5882381E+03  0.7818609E-02  0.9930113E-01
        1   -1    0    0  501    0  0.00000000000E+00  0.00000000000E+00  0.62880304450E+03  0.62880304452E+03  0.50400001928E-02 0. -1.
       -1   -1    0    0    0  501  0.00000000000E+00  0.00000000000E+00 -0.13757253383E+03  0.13757253392E+03  0.50400001928E-02 0.  1.
    10030    2    1    2    0    0  0.00000000000E+00  0.00000000000E+00  0.49123051067E+03  0.76637557844E+03  0.58823814277E+03 0.  0.
        3    1    3    3  502    0  0.14555812809E+03  0.52172451926E+02 -0.80345139073E+02  0.17425408164E+03  0.10100000352E+00 0.  1.
       -3    1    3    3    0  502 -0.14555812809E+03 -0.52172451926E+02  0.57157564974E+03  0.59212149680E+03  0.10100000352E+00 0. -1.
</event>
<event>
 5   0  0.1175861E-01  0.6008279E+03  0.7818609E-02  0.9903690E-01
        2   -1    0    0  501    0  0.00000000000E+00  0.00000000000E+00  0.28255757226E+03  0.28255757227E+03  0.25500000920E-02 0.  1.
       -2   -1    0    0    0  501  0.00000000000E+00  0.00000000000E+00 -0.31939879329E+03  0.31939879330E+03  0.25500000920E-02 0. -1.
    10030    2    1    2    0    0  0.00000000000E+00  0.00000000000E+00 -0.36841221026E+02  0.60195636557E+03  0.60082792086E+03 0.  0.
        3    1    3    3  502    0 -0.42415637151E+02  0.95765124980E+02 -0.30051379612E+03  0.31824298468E+03  0.10100000352E+00 0. -1.
       -3    1    3    3    0  502  0.42415637151E+02 -0.95765124980E+02  0.26367257509E+03  0.28371338089E+03  0.10100000352E+00 0.  1.
</event>
<event>
 5   0  0.1206238E-01  0.5890331E+03  0.7818609E-02  0.9928424E-01
       -2   -1    0    0    0  501  0.00000000000E+00  0.00000000000E+00  0.59872187932E+02  0.59872187986E+02  0.25500000920E-02 0. -1.
        2   -1    0    0  501    0  0.00000000000E+00  0.00000000000E+00 -0.14487528330E+04  0.14487528330E+04  0.25500000920E-02 0.  1.
    10030    2    1    2    0    0  0.00000000000E+00  0.00000000000E+00 -0.13888806450E+04  0.15086250210E+04  0.58903311256E+03 0.  0.
        5    1    3    3  502    0 -0.44398358091E+02 -0.27626141160E+03 -0.92954476382E+03  0.97075596299E+03  0.46999998093E+01 0.  1.
       -5    1    3    3    0  502  0.44398358091E+02  0.27626141160E+03 -0.45933588121E+03  0.53786905796E+03  0.46999998093E+01 0. -1.
</event>
<event>
 5   0  0.7221069E-02  0.5981156E+03  0.7818609E-02  0.9909323E-01
       -1   -1    0    0    0  501  0.00000000000E+00  0.00000000000E+00  0.78929586543E+02  0.78929586704E+02  0.50400001928E-02 0. -1.
        1   -1    0    0  501    0  0.00000000000E+00  0.00000000000E+00 -0.11331057538E+04  0.11331057538E+04  0.50400001928E-02 0.  1.
    10030    2    1    2    0    0  0.00000000000E+00  0.00000000000E+00 -0.10541761673E+04  0.12120353405E+04  0.59811560342E+03 0.  0.
        5    1    3    3  502    0 -0.25885798617E+03 -0.64663399429E+02 -0.25352345315E+03  0.36808293023E+03  0.46999998093E+01 0. -1.
       -5    1    3    3    0  502  0.25885798617E+03  0.64663399429E+02 -0.80065271414E+03  0.84395241032E+03  0.46999998093E+01 0.  1.
</event>
<event>
 5   0  0.1166419E-01  0.6176695E+03  0.7818609E-02  0.9869411E-01
        2   -1    0    0  501    0  0.00000000000E+00  0.00000000000E+00  0.97573633170E+03  0.97573633170E+03  0.25500000920E-02 0. -1.
       -2   -1    0    0    0  501  0.00000000000E+00  0.00000000000E+00 -0.97750677757E+02  0.97750677791E+02  0.25500000920E-02 0.  1.
    10030    2    1    2    0    0  0.00000000000E+00  0.00000000000E+00  0.87798565394E+03  0.10734870095E+04  0.61766945126E+03 0.  0.
        1    1    3    3  502    0  0.27625970493E+02  0.10320905197E+02 -0.95297917405E+02  0.99756746223E+02  0.50400001928E-02 0.  1.
       -1    1    3    3    0  502 -0.27625970493E+02 -0.10320905197E+02  0.97328357135E+03  0.97373026327E+03  0.50400001928E-02 0. -1.
</event>
<event>
 5   0  0.7266519E-02  0.5963539E+03  0.7818609E-02  0.9913000E-01
        1   -1    0    0  501    0  0.00000000000E+00  0.00000000000E+00  0.17449038700E+03  0.17449038707E+03  0.50400001928E-02 0.  1.
       -1   -1    0    0    0  501  0.00000000000E+00  0.00000000000E+00 -0.50953799088E+03  0.50953799090E+03  0.50400001928E-02 0. -1.
    10030    2    1    2    0    0  0.00000000000E+00  0.00000000000E+00 -0.33504760388E+03  0.68402837798E+03  0.59635385889E+03 0.  0.
        4    1    3    3  502    0 -0.60441669336E+02 -0.53471012178E+01 -0.50237846110E+03  0.50603114327E+03  0.12699999809E+01 0. -1.
       -4    1    3    3    0  502  0.60441669336E+02  0.53471012178E+01  0.16733085722E+03  0.17799723470E+03  0.12699999809E+01 0.  1.
</event>
<event>
 5   0  0.1175861E-01  0.6084435E+03  0.7818609E-02  0.9888042E-01
       -2   -1    0    0    0  501  0.00000000000E+00  0.00000000000E+00  0.23519077472E+03  0.23519077474E+03  0.25500000920E-02 0. -1.
        2   -1    0    0  501    0  0.00000000000E+00  0.00000000000E+00 -0.39351403757E+03  0.39351403758E+03  0.25500000920E-02 0.  1.
    10030    2    1    2    0    0  0.00000000000E+00  0.00000000000E+00 -0.15832326285E+03  0.62870481231E+03  0.60844349406E+03 0.  0.
        3    1    3    3  502    0  0.16715712130E+03 -0.12139710459E+03 -0.30991888690E+03  0.37246273218E+03  0.10100000352E+00 0.  1.
       -3    1    3    3    0  502 -0.16715712130E+03  0.12139710459E+03  0.15159562405E+03  0.25624208014E+03  0.10100000352E+00 0. -1.
</event>
<event>
 5   0  0.4695625E-02  0.6030979E+03  0.7818609E-02  0.9899000E-01
       -3   -1    0    0    0  501  0.00000000000E+00  0.00000000000E+00  0.20405953840E+04  0.20405953865E+04  0.10100000352E+00 0. -1.
        3   -1    0    0  501    0  0.00000000000E+00  0.00000000000E+00 -0.44561336227E+02  0.44561450687E+02  0.10100000352E+00 0.  1.
    10030    2    1    2    0    0  0.00000000000E+00  0.00000000000E+00  0.19960340478E+04  0.20851568372E+04  0.60309793218E+03 0.  0.
        5    1    3    3  502    0  0.29109794287E+03 -0.45156577190E+02  0.12202765983E+04  0.12553382792E+04  0.46999998093E+01 0.  1.
       -5    1    3    3    0  502 -0.29109794287E+03  0.45156577190E+02  0.77575744951E+03  0.82981855804E+03  0.46999998093E+01 0. -1.
</event>
<event>
 5   0  0.1146468E-01  0.5207674E+03  0.7818609E-02  0.1008496E+00
        2   -1    0    0  501    0  0.00000000000E+00  0.00000000000E+00  0.18034281567E+03  0.18034281569E+03  0.25500000920E-02 0.  1.
       -2   -1    0    0    0  501  0.00000000000E+00  0.00000000000E+00 -0.37594876657E+03  0.37594876658E+03  0.25500000920E-02 0. -1.
    10030    2    1    2    0    0  0.00000000000E+00  0.00000000000E+00 -0.19560595090E+03  0.55629158227E+03  0.52076735350E+03 0.  0.
        4    1    3    3  502    0  0.32313107697E+02 -0.22125605019E+03  0.44713379865E+02  0.22803349735E+03  0.12699999809E+01 0.  1.
       -4    1    3    3    0  502 -0.32313107697E+02  0.22125605019E+03 -0.24031933076E+03  0.32825808492E+03  0.12699999809E+01 0. -1.
</event>
<event>
 5   0  0.1219020E-01  0.6114638E+03  0.7818609E-02  0.9881904E-01
       -2   -1    0    0    0  501  0.00000000000E+00  0.00000000000E+00  0.52802988358E+02  0.52802988419E+02  0.25500000920E-02 0.  1.
        2   -1    0    0  501    0  0.00000000000E+00  0.00000000000E+00 -0.17702026485E+04  0.17702026485E+04  0.25500000920E-02 0. -1.
    10030    2    1    2    0    0  0.00000000000E+00  0.00000000000E+00 -0.17173996601E+04  0.18230056369E+04  0.61146378436E+03 0.  0.
        2    1    3    3  502    0 -0.25454584985E+03  0.14429653005E+03 -0.11229669952E+04  0.11604610940E+04  0.25500000920E-02 0. -1.
       -2    1    3    3    0  502  0.25454584985E+03 -0.14429653005E+03 -0.59443266489E+03  0.66254454292E+03  0.25500000920E-02 0.  1.
</event>
<event>
 5   0  0.1146468E-01  0.5984594E+03  0.7818609E-02  0.9908608E-01
       -2   -1    0    0    0  501  0.00000000000E+00  0.00000000000E+00  0.11523550855E+03  0.11523550857E+03  0.25500000920E-02 0. -1.
        2   -1    0    0  501    0  0.00000000000E+00  0.00000000000E+00 -0.77700357254E+03  0.77700357254E+03  0.25500000920E-02 0.  1.
    10030    2    1    2    0    0  0.00000000000E+00  0.00000000000E+00 -0.66176806399E+03  0.89223908112E+03  0.59845936149E+03 0.  0.
        4    1    3    3  502    0  0.89320583139E+02  0.19452113480E+03 -0.64262034969E+03  0.67733238900E+03  0.12699999809E+01 0.  1.
       -4    1    3    3    0  502 -0.89320583139E+02 -0.19452113480E+03 -0.19147714306E+02  0.21490669212E+03  0.12699999809E+01 0. -1.
</event>
<event>
 5   0  0.1166419E-01  0.6474786E+03  0.7818609E-02  0.9811522E-01
       -2   -1    0    0    0  501  0.00000000000E+00  0.00000000000E+00  0.70693784022E+02  0.70693784068E+02  0.25500000920E-02 0.  1.
        2   -1    0    0  501    0  0.00000000000E+00  0.00000000000E+00 -0.14825507859E+04  0.14825507859E+04  0.25500000920E-02 0. -1.
    10030    2    1    2    0    0  0.00000000000E+00  0.00000000000E+00 -0.14118570019E+04  0.15532445700E+04  0.64747857138E+03 0.  0.
        1    1    3    3  502    0 -0.25197946255E+02 -0.21407087312E+03 -0.12853831202E+04  0.13033307489E+04  0.50400001928E-02 0. -1.
       -1    1    3    3    0  502  0.25197946255E+02  0.21407087312E+03 -0.12647388170E+03  0.24991382113E+03  0.50400001928E-02 0.  1.
</event>
<event>
 5   0  0.7221069E-02  0.5968809E+03  0.7818609E-02  0.9911898E-01
        1   -1    0    0  501    0  0.00000000000E+00  0.00000000000E+00  0.13655554989E+04  0.13655554989E+04  0.50400001928E-02 0. -1.
       -1   -1    0    0    0  501  0.00000000000E+00  0.00000000000E+00 -0.65223779775E+02  0.65223779970E+02  0.50400001928E-02 0.  1.
    10030    2    1    2    0    0  0.00000000000E+00  0.00000000000E+00  0.13003317192E+04  0.14307792789E+04  0.59688086342E+03 0.  0.
        5    1    3    3  502    0 -0.21006127008E+03 -0.16714855122E+02  0.14370657284E+03  0.25510545397E+03  0.46999998093E+01 0.  1.
       -5    1    3    3    0  502  0.21006127008E+03  0.16714855122E+02  0.11566251463E+04  0.11756738249E+04  0.46999998093E+01 0. -1.
</event>
<event>
 5   0  0.7263385E-02  0.5780384E+03  0.7818609E-02  0.9952047E-01
        1   -1    0    0  501    0  0.00000000000E+00  0.00000000000E+00  0.73188661086E+03  0.73188661088E+03  0.50400001928E-02 0. -1.
       -1   -1    0    0    0  501  0.00000000000E+00  0.00000000000E+00 -0.11413256013E+03  0.11413256024E+03  0.50400001928E-02 0.  1.
    10030    2    1    2    0    0  0.00000000000E+00  0.00000000000E+00  0.61775405073E+03  0.84601917112E+03  0.57803838168E+03 0.  0.
        1    1    3    3  502    0 -0.16825873544E+03  0.22221667238E+03  0.19702052585E+03  0.34133317912E+03  0.50400001928E-02 0.  1.
       -1    1    3    3    0  502  0.16825873544E+03 -0.22221667238E+03  0.42073352488E+03  0.50468599200E+03  0.50400001928E-02 0. -1.
</event>
<event>
 5   0  0.1166419E-01  0.6002474E+03  0.7818609E-02  0.9904893E-01
        2   -1    0    0  501    0  0.00000000000E+00  0.00000000000E+00  0.10988573837E+04  0.10988573837E+04  0.25500000920E-02 0. -1.
       -2   -1    0    0    0  501  0.00000000000E+00  0.00000000000E+00 -0.81970826524E+02  0.81970826564E+02  0.25500000920E-02 0.  1.
    10030    2    1    2    0    0  0.00000000000E+00  0.00000000000E+00  0.10168865572E+04  0.11808282103E+04  0.60024744230E+03 0.  0.
        1    1    3    3  502    0  0.98642630467E+02  0.28340725339E+03  0.51812242895E+03  0.59874943943E+03  0.50400001928E-02 0.  1.
       -1    1    3    3    0  502 -0.98642630467E+02 -0.28340725339E+03  0.49876412822E+03  0.58207877082E+03  0.50400001928E-02 0. -1.
</event>
<event>
 5   0  0.7123340E-02  0.5852660E+03  0.7818609E-02  0.9936455E-01
        1   -1    0    0  501    0  0.00000000000E+00  0.00000000000E+00  0.14078205304E+04  0.14078205304E+04  0.50400001928E-02 0.  1.
       -1   -1    0    0    0  501  0.00000000000E+00  0.00000000000E+00 -0.60827404086E+02  0.60827404295E+02  0.50400001928E-02 0. -1.
    10030    2    1    2    0    0  0.00000000000E+00  0.00000000000E+00  0.13469931263E+04  0.14686479347E+04  0.58526598549E+03 0.  0.
        2    1    3    3  502    0 -0.20164678641E+03  0.10045372616E+02  0.14193834963E+03  0.24679714562E+03  0.25500000920E-02 0. -1.
       -2    1    3    3    0  502  0.20164678641E+03 -0.10045372616E+02  0.12050547767E+04  0.12218507891E+04  0.25500000920E-02 0.  1.
</event>
<event>
 5   0  0.7424930E-02  0.6048407E+03  0.7818609E-02  0.9895414E-01
       -1   -1    0    0    0  501  0.00000000000E+00  0.00000000000E+00  0.10133013236E+03  0.10133013249E+03  0.50400001928E-02 0. -1.
        1   -1    0    0  501    0  0.00000000000E+00  0.00000000000E+00 -0.90257509883E+03  0.90257509885E+03  0.50400001928E-02 0.  1.
    10030    2    1    2    0    0  0.00000000000E+00  0.00000000000E+00 -0.80124496647E+03  0.10039052313E+04  0.60484065439E+03 0.  0.
        3    1    3    3  502    0  0.31768549267E+02 -0.31590178841E+02  0.95791507020E+02  0.10575066496E+03  0.10100000352E+00 0. -1.
       -3    1    3    3    0  502 -0.31768549267E+02  0.31590178841E+02 -0.89703647349E+03  0.89815456637E+03  0.10100000352E+00 0.  1.
</event>
<event>
 5   0  0.7266519E-02  0.6007028E+03  0.7818609E-02  0.9903949E-01
        1   -1    0    0  501    0  0.00000000000E+00  0.00000000000E+00  0.27519373168E+03  0.27519373173E+03  0.50400001928E-02 0.  1.
       -1   -1    0    0    0  501  0.00000000000E+00  0.00000000000E+00 -0.32780892008E+03  0.32780892012E+03  0.50400001928E-02 0. -1.
    10030    2    1    2    0    0  0.00000000000E+00  0.00000000000E+00 -0.52615188399E+02  0.60300265184E+03  0.60070278847E+03 0.  0.
        4    1    3    3  502    0  0.22282511688E+03 -0.17388582825E+02 -0.22771462300E+03  0.31907516035E+03  0.12699999809E+01 0. -1.
       -4    1    3    3    0  502 -0.22282511688E+03  0.17388582825E+02  0.17509943461E+03  0.28392749149E+03  0.12699999809E+01 0.  1.
</event>
<event>
 5   0  0.1166419E-01  0.5902170E+03  0.7818609E-02  0.9925913E-01
       -2   -1    0    0    0  501  0.00000000000E+00  0.00000000000E+00  0.17256026819E+03  0.17256026821E+03  0.25500000920E-02 0. -1.
        2   -1    0    0  501    0  0.00000000000E+00  0.00000000000E+00 -0.50468756772E+03  0.50468756773E+03  0.25500000920E-02 0.  1.
    10030    2    1    2    0    0  0.00000000000E+00  0.00000000000E+00 -0.33212729953E+03  0.67724783593E+03  0.59021698399E+03 0.  0.
        1    1    3    3  502    0 -0.94761544009E+02  0.45654586063E+02 -0.48244723238E+03  0.49378074437E+03  0.50400001928E-02 0.  1.
       -1    1    3    3    0  502  0.94761544009E+02 -0.45654586063E+02  0.15031993285E+03  0.18346709157E+03  0.50400001928E-02 0. -1.
</event>
<event>
 5   0  0.7123340E-02  0.6084496E+03  0.7818609E-02  0.9888029E-01
        1   -1    0    0  501    0  0.00000000000E+00  0.00000000000E+00  0.50229210114E+03  0.50229210117E+03  0.50400001928E-02 0.  1.
       -1   -1    0    0    0  501  0.00000000000E+00  0.00000000000E+00 -0.18426074241E+03  0.18426074248E+03  0.50400001928E-02 0. -1.
    10030    2    1    2    0    0  0.00000000000E+00  0.00000000000E+00  0.31803135873E+03  0.68655284365E+03  0.60844955583E+03 0.  0.
        2    1    3    3  502    0  0.11824192912E+03 -0.23394087051E+03 -0.15217933921E+02  0.26256631585E+03  0.25500000920E-02 0. -1.
       -2    1    3    3    0  502 -0.11824192912E+03  0.23394087051E+03  0.33324929265E+03  0.42398652780E+03  0.25500000920E-02 0.  1.
</event>
<event>
 5   0  0.7424930E-02  0.5205476E+03  0.7818609E-02  0.1008551E+00
       -1   -1    0    0    0  501  0.00000000000E+00  0.00000000000E+00  0.13846626413E+04  0.13846626413E+04  0.50400001928E-02 0.  1.
        1   -1    0    0  501    0  0.00000000000E+00  0.00000000000E+00 -0.48923438795E+02  0.48923439055E+02  0.50400001928E-02 0. -1.
    10030    2    1    2    0    0  0.00000000000E+00  0.00000000000E+00  0.13357392025E+04  0.14335860804E+04  0.52054762770E+03 0.  0.
        3    1    3    3  502    0  0.25175890884E+03  0.48601195653E+02  0.54477418797E+03  0.60209928623E+03  0.10100000352E+00 0. -1.
       -3    1    3    3    0  502 -0.25175890884E+03 -0.48601195653E+02  0.79096501452E+03  0.83148679412E+03  0.10100000352E+00 0.  1.
</event>
<event>
 5   0  0.7221069E-02  0.6121084E+03  0.7818609E-02  0.9880599E-01
        1   -1    0    0  501    0  0.00000000000E+00  0.00000000000E+00  0.72020422059E+03  0.72020422061E+03  0.50400001928E-02 0. -1.
       -1   -1    0    0    0  501  0.00000000000E+00  0.00000000000E+00 -0.13005917802E+03  0.13005917812E+03  0.50400001928E-02 0.  1.
    10030    2    1    2    0    0  0.00000000000E+00  0.00000000000E+00  0.59014504257E+03  0.85026339873E+03  0.61210838578E+03 0.  0.
        5    1    3    3  502    0 -0.28730155219E+02  0.13348931328E+03  0.67549163661E+03  0.68917041412E+03  0.46999998093E+01 0. -1.
       -5    1    3    3    0  502  0.28730155219E+02 -0.13348931328E+03 -0.85346594036E+02  0.16109298461E+03  0.46999998093E+01 0.  1.
</event>
<event>
 5   0  0.1166419E-01  0.5851959E+03  0.7818609E-02  0.9936605E-01
       -2   -1    0    0    0  501  0.00000000000E+00  0.00000000000E+00  0.69676901328E+02  0.69676901375E+02  0.25500000920E-02 0.  1.
        2   -1    0    0  501    0  0.00000000000E+00  0.00000000000E+00 -0.12287220885E+04  0.12287220885E+04  0.25500000920E-02 0. -1.
    10030    2    1    2    0    0  0.00000000000E+00  0.00000000000E+00 -0.11590451871E+04  0.12983989899E+04  0.58519585696E+03 0.  0.
        1    1    3    3  502    0 -0.11328548808E+03  0.84018736481E+02 -0.10724228131E+02  0.14144878573E+03  0.50400001928E-02 0.  1.
       -1    1    3    3    0  502  0.11328548808E+03 -0.84018736481E+02 -0.11483209590E+04  0.11569502041E+04  0.50400001928E-02 0. -1.
</event>
<event>
 5   0  0.4695625E-02  0.6015821E+03  0.7818609E-02  0.9902129E-01
       -3   -1    0    0    0  501  0.00000000000E+00  0.00000000000E+00  0.44504799822E+03  0.44504800968E+03  0.10100000352E+00 0. -1.
        3   -1    0    0  501    0  0.00000000000E+00  0.00000000000E+00 -0.20329324669E+03  0.20329327178E+03  0.10100000352E+00 0.  1.
    10030    2    1    2    0    0  0.00000000000E+00  0.00000000000E+00  0.24175475153E+03  0.64834128146E+03  0.60158212852E+03 0.  0.
        4    1    3    3  502    0 -0.71875199623E+02 -0.27684840746E+03  0.20570191963E+02  0.28676790394E+03  0.12699999809E+01 0. -1.
       -4    1    3    3    0  502  0.71875199623E+02  0.27684840746E+03  0.22118455957E+03  0.36157337751E+03  0.12699999809E+01 0.  1.
</event>
<event>
 5   0  0.7221069E-02  0.5977259E+03  0.7818609E-02  0.9910135E-01
       -1   -1    0    0    0  501  0.00000000000E+00  0.00000000000E+00  0.57017054407E+02  0.57017054629E+02  0.50400001928E-02 0.  1.
        1   -1    0    0  501    0  0.00000000000E+00  0.00000000000E+00 -0.15665321957E+04  0.15665321957E+04  0.50400001928E-02 0. -1.
    10030    2    1    2    0    0  0.00000000000E+00  0.00000000000E+00 -0.15095151413E+04  0.16235492504E+04  0.59772586232E+03 0.  0.
        5    1    3    3  502    0 -0.14422153072E+03  0.29471943823E+02 -0.14611212333E+04  0.14685250402E+04  0.46999998093E+01 0. -1.
       -5    1    3    3    0  502  0.14422153072E+03 -0.29471943823E+02 -0.48393908031E+02  0.15502421014E+03  0.46999998093E+01 0.  1.
</event>
<event>
 5   0  0.4695625E-02  0.4017297E+03  0.7818609E-02  0.1043182E+00
       -3   -1    0    0    0  501  0.00000000000E+00  0.00000000000E+00  0.56182718729E+02  0.56182809513E+02  0.10100000352E+00 0.  1.
        3   -1    0    0  501    0  0.00000000000E+00  0.00000000000E+00 -0.71813270204E+03  0.71813270915E+03  0.10100000352E+00 0. -1.
    10030    2    1    2    0    0  0.00000000000E+00  0.00000000000E+00 -0.66194998332E+03  0.77431551866E+03  0.40172968776E+03 0.  0.
        3    1    3    3  502    0  0.36430446628E+02  0.68540467159E+02  0.26107408870E+02  0.81893712083E+02  0.10100000352E+00 0.  1.
       -3    1    3    3    0  502 -0.36430446628E+02 -0.68540467159E+02 -0.68805739219E+03  0.69242180658E+03  0.10100000352E+00 0. -1.
</event>
<event>
 5   0  0.1219020E-01  0.5789635E+03  0.7818609E-02  0.9950037E-01
        2   -1    0    0  501    0  0.00000000000E+00  0.00000000000E+00  0.22701853202E+03  0.22701853203E+03  0.25500000920E-02 0.  1.
       -2   -1    0    0    0  501  0.00000000000E+00  0.00000000000E+00 -0.36913152053E+03  0.36913152054E+03  0.25500000920E-02 0. -1.
    10030    2    1    2    0    0  0.00000000000E+00  0.00000000000E+00 -0.14211298852E+03  0.59615005257E+03  0.57896354261E+03 0.  0.
        2    1    3    3  502    0 -0.16931973313E+03 -0.14096494268E+03  0.12229248461E+03  0.25198360837E+03  0.25500000920E-02 0.  1.
       -2    1    3    3    0  502  0.16931973313E+03  0.14096494268E+03 -0.26440547312E+03  0.34416644420E+03  0.25500000920E-02 0. -1.
</event>
<event>
 5   0  0.7123340E-02  0.6025638E+03  0.7818609E-02  0.9900101E-01
       -1   -1    0    0    0  501  0.00000000000E+00  0.00000000000E+00  0.13450527579E+03  0.13450527588E+03  0.50400001928E-02 0.  1.
        1   -1    0    0  501    0  0.00000000000E+00  0.00000000000E+00 -0.67484917530E+03  0.67484917532E+03  0.50400001928E-02 0. -1.
    10030    2    1    2    0    0  0.00000000000E+00  0.00000000000E+00 -0.54034389951E+03  0.80935445120E+03  0.60256377085E+03 0.  0.
        2    1    3    3  502    0  0.93313895837E+02 -0.80779446434E+02 -0.63933515229E+03  0.65113918564E+03  0.25500000920E-02 0. -1.
       -2    1    3    3    0  502 -0.93313895837E+02  0.80779446434E+02  0.98991252779E+02  0.15821526556E+03  0.25500000920E-02 0.  1.
</event>
<event>
 5   0  0.1206238E-01  0.6115641E+03  0.7818609E-02  0.9881700E-01
       -2   -1    0    0    0  501  0.00000000000E+00  0.00000000000E+00  0.76357952793E+02  0.76357952835E+02  0.25500000920E-02 0. -1.
        2   -1    0    0  501    0  0.00000000000E+00  0.00000000000E+00 -0.12245309224E+04  0.12245309224E+04  0.25500000920E-02 0.  1.
    10030    2    1    2    0    0  0.00000000000E+00  0.00000000000E+00 -0.11481729696E+04  0.13008888752E+04  0.61156414020E+03 0.  0.
        5    1    3    3  502    0 -0.51946914867E+02 -0.22156127221E+03 -0.10084248822E+04  0.10337943278E+04  0.46999998093E+01 0.  1.
       -5    1    3    3    0  502  0.51946914867E+02  0.22156127221E+03 -0.13974808745E+03  0.26709454740E+03  0.46999998093E+01 0. -1.
</event>
<event>
 5   0  0.1146468E-01  0.6085560E+03  0.7818609E-02  0.9887812E-01
       -2   -1    0    0    0  501  0.00000000000E+00  0.00000000000E+00  0.33221513602E+03  0.33221513603E+03  0.25500000920E-02 0.  1.
        2   -1    0    0  501    0  0.00000000000E+00  0.00000000000E+00 -0.27869015907E+03  0.27869015909E+03  0.25500000920E-02 0. -1.
    10030    2    1    2    0    0  0.00000000000E+00  0.00000000000E+00  0.53524976944E+02  0.61090529511E+03  0.60855595999E+03 0.  0.
        4    1    3    3  502    0 -0.52060646296E+02  0.21215419213E+03  0.23939086509E+03  0.32408226011E+03  0.12699999809E+01 0.  1.
       -4    1    3    3    0  502  0.52060646296E+02 -0.21215419213E+03 -0.18586588815E+03  0.28682303500E+03  0.12699999809E+01 0. -1.
</event>
<event>
 5   0  0.1146468E-01  0.6064114E+03  0.7818609E-02  0.9892193E-01
        2   -1    0    0  501    0  0.00000000000E+00  0.00000000000E+00  0.56741694464E+03  0.56741694464E+03  0.25500000920E-02 0. -1.
       -2   -1    0    0    0  501  0.00000000000E+00  0.00000000000E+00 -0.16202143357E+03  0.16202143359E+03  0.25500000920E-02 0.  1.
    10030    2    1    2    0    0  0.00000000000E+00  0.00000000000E+00  0.40539551106E+03  0.72943837824E+03  0.60641143397E+03 0.  0.
        4    1    3    3  502    0  0.14053004060E+03  0.21193117018E+03  0.40133125547E+03  0.47511251585E+03  0.12699999809E+01 0.  1.
       -4    1    3    3    0  502 -0.14053004060E+03 -0.21193117018E+03  0.40642555963E+01  0.25432586238E+03  0.12699999809E+01 0. -1.
</event>
<event>
 5   0  0.7221069E-02  0.6196902E+03  0.7818609E-02  0.9865377E-01
       -1   -1    0    0    0  501  0.00000000000E+00  0.00000000000E+00  0.42614677375E+02  0.42614677673E+02  0.50400001928E-02 0. -1.
        1   -1    0    0  501    0  0.00000000000E+00  0.00000000000E+00 -0.22528381492E+04  0.22528381492E+04  0.50400001928E-02 0.  1.
    10030    2    1    2    0    0  0.00000000000E+00  0.00000000000E+00 -0.22102234718E+04  0.22954528269E+04  0.61969015243E+03 0.  0.
        5    1    3    3  502    0 -0.11131183906E+02  0.16264398101E+03 -0.12924865982E+03  0.20809678969E+03  0.46999998093E+01 0. -1.
       -5    1    3    3    0  502  0.11131183906E+02 -0.16264398101E+03 -0.20809748120E+04  0.20873560372E+04  0.46999998093E+01 0.  1.
</event>
<event>
 5   0  0.7221069E-02  0.6033263E+03  0.7818609E-02  0.9898529E-01
       -1   -1    0    0    0  501  0.00000000000E+00  0.00000000000E+00  0.27198584019E+03  0.27198584024E+03  0.50400001928E-02 0. -1.
        1   -1    0    0  501    0  0.00000000000E+00  0.00000000000E+00 -0.33457866641E+03  0.33457866645E+03  0.50400001928E-02 0.  1.
    10030    2    1    2    0    0  0.00000000000E+00  0.00000000000E+00 -0.62592826220E+02  0.60656450669E+03  0.60332631211E+03 0.  0.
        5    1    3    3  502    0 -0.17674453495E+03 -0.67087262244E+02 -0.26758816848E+03  0.32766575851E+03  0.46999998093E+01 0.  1.
       -5    1    3    3    0  502  0.17674453495E+03  0.67087262244E+02  0.20499534226E+03  0.27889874818E+03  0.46999998093E+01 0. -1.
</event>
<event>
 5   0  0.7221069E-02  0.5924895E+03  0.7818609E-02  0.9921112E-01
       -1   -1    0    0    0  501  0.00000000000E+00  0.00000000000E+00  0.12140800779E+03  0.12140800789E+03  0.50400001928E-02 0.  1.
        1   -1    0    0  501    0  0.00000000000E+00  0.00000000000E+00 -0.72285962997E+03  0.72285962999E+03  0.50400001928E-02 0. -1.
    10030    2    1    2    0    0  0.00000000000E+00  0.00000000000E+00 -0.60145162219E+03  0.84426763788E+03  0.59248948560E+03 0.  0.
        5    1    3    3  502    0  0.96789496750E+01  0.26896504003E+03 -0.12445210319E+03  0.29655739885E+03  0.46999998093E+01 0.  1.
       -5    1    3    3    0  502 -0.96789496750E+01 -0.26896504003E+03 -0.47699951900E+03  0.54771023904E+03  0.46999998093E+01 0. -1.
</event>
<event>
 5   0  0.1166419E-01  0.5986378E+03  0.7818609E-02  0.9908236E-01
        2   -1    0    0  501    0  0.00000000000E+00  0.00000000000E+00  0.12798238026E+04  0.12798238026E+04  0.25500000920E-02 0. -1.
       -2   -1    0    0    0  501  0.00000000000E+00  0.00000000000E+00 -0.70003221608E+02  0.70003221655E+02  0.25500000920E-02 0.  1.
    10030    2    1    2    0    0  0.00000000000E+00  0.00000000000E+00  0.12098205810E+04  0.13498270243E+04  0.59863775125E+03 0.  0.
        1    1    3    3  502    0  0.80079717788E+02  0.20971357251E+02  0.12534995551E+04  0.12562299526E+04  0.50400001928E-02 0. -1.
       -1    1    3    3    0  502 -0.80079717788E+02 -0.20971357251E+02 -0.43678974113E+02  0.93597071701E+02  0.50400001928E-02 0.  1.
</event>
<event>
 5   0  0.1206238E-01  0.5943667E+03  0.7818609E-02  0.9917163E-01
       -2   -1    0    0    0  501  0.00000000000E+00  0.00000000000E+00  0.14379609685E+03  0.14379609687E+03  0.25500000920E-02 0.  1.
        2   -1    0    0  501    0  0.00000000000E+00  0.00000000000E+00 -0.61418868597E+03  0.61418868598E+03  0.25500000920E-02 0. -1.
    10030    2    1    2    0    0  0.00000000000E+00  0.00000000000E+00 -0.47039258912E+03  0.75798478285E+03  0.59436667398E+03 0.  0.
        5    1    3    3  502    0  0.82683320283E+02  0.57144836930E+02 -0.59180516822E+03  0.60029785188E+03  0.46999998093E+01 0. -1.
       -5    1    3    3    0  502 -0.82683320283E+02 -0.57144836930E+02  0.12141257909E+03  0.15768693098E+03  0.46999998093E+01 0.  1.
</event>
<event>
 5   0  0.7424930E-02  0.5836163E+03  0.7818609E-02  0.9939992E-01
        1   -1    0    0  501    0  0.00000000000E+00  0.00000000000E+00  0.10617875677E+04  0.10617875677E+04  0.50400001928E-02 0. -1.
       -1   -1    0    0    0  501  0.00000000000E+00  0.00000000000E+00 -0.80196835093E+02  0.80196835251E+02  0.50400001928E-02 0.  1.
    10030    2    1    2    0    0  0.00000000000E+00  0.00000000000E+00  0.98159073262E+03  0.11419844030E+04  0.58361632112E+03 0.  0.
        3    1    3    3  502    0 -0.36083944086E+02  0.23011966220E+02 -0.74022457012E+02  0.85504011328E+02  0.10100000352E+00 0.  1.
       -3    1    3    3    0  502  0.36083944086E+02 -0.23011966220E+02  0.10556131896E+04  0.10564803916E+04  0.10100000352E+00 0. -1.
</event>
<event>
 5   0  0.1146468E-01  0.5997406E+03  0.7818609E-02  0.9905944E-01
        2   -1    0    0  501    0  0.00000000000E+00  0.00000000000E+00  0.91717491148E+03  0.91717491148E+03  0.25500000920E-02 0.  1.
       -2   -1    0    0    0  501  0.00000000000E+00  0.00000000000E+00 -0.98042582088E+02  0.98042582121E+02  0.25500000920E-02 0. -1.
    10030    2    1    2    0    0  0.00000000000E+00  0.00000000000E+00  0.81913232939E+03  0.10152174936E+04  0.59974059915E+03 0.  0.
        4    1    3    3  502    0  0.11776957029E+03  0.24575439313E+02 -0.55394823298E+02  0.13245309831E+03  0.12699999809E+01 0. -1.
       -4    1    3    3    0  502 -0.11776957029E+03 -0.24575439313E+02  0.87452715269E+03  0.88276439529E+03  0.12699999809E+01 0.  1.
</event>
<event>
 5   0  0.1166419E-01  0.5807685E+03  0.7818609E-02  0.9946129E-01
        2   -1    0    0  501    0  0.00000000000E+00  0.00000000000E+00  0.16864243263E+04  0.16864243263E+04  0.25500000920E-02 0.  1.
       -2   -1    0    0    0  501  0.00000000000E+00  0.00000000000E+00 -0.50001067837E+02  0.50001067902E+02  0.25500000920E-02 0. -1.
    10030    2    1    2    0    0  0.00000000000E+00  0.00000000000E+00  0.16364232584E+04  0.17364253942E+04  0.58076851567E+03 0.  0.
        1    1    3    3  502    0  0.20035561439E+03  0.21011753148E+03  0.80149292746E+03  0.85245683882E+03  0.50400001928E-02 0. -1.
       -1    1    3    3    0  502 -0.20035561439E+03 -0.21011753148E+03  0.83493033098E+03  0.88396855536E+03  0.50400001928E-02 0.  1.
</event>
<event>
 5   0  0.4695625E-02  0.6085762E+03  0.7818609E-02  0.9887771E-01
       -3   -1    0    0    0  501  0.00000000000E+00  0.00000000000E+00  0.60821579483E+03  0.60821580322E+03  0.10100000352E+00 0.  1.
        3   -1    0    0  501    0  0.00000000000E+00  0.00000000000E+00 -0.15223420334E+03  0.15223423684E+03  0.10100000352E+00 0. -1.
    10030    2    1    2    0    0  0.00000000000E+00  0.00000000000E+00  0.45598159149E+03  0.76045004006E+03  0.60857624966E+03 0.  0.
        5    1    3    3  502    0 -0.13044857259E+03  0.16461919147E+03  0.50304318181E+03  0.54515212653E+03  0.46999998093E+01 0.  1.
       -5    1    3    3    0  502  0.13044857259E+03 -0.16461919147E+03 -0.47061590322E+02  0.21529791353E+03  0.46999998093E+01 0. -1.
</event>
<event>
 5   0  0.7263385E-02  0.4894048E+03  0.7818609E-02  0.1016582E+00
        1   -1    0    0  501    0  0.00000000000E+00  0.00000000000E+00  0.22872345708E+03  0.22872345714E+03  0.50400001928E-02 0. -1.
       -1   -1    0    0    0  501  0.00000000000E+00  0.00000000000E+00 -0.26179764780E+03  0.26179764785E+03  0.50400001928E-02 0.  1.
    10030    2    1    2    0    0  0.00000000000E+00  0.00000000000E+00 -0.33074190722E+02  0.49052110499E+03  0.48940479396E+03 0.  0.
        1    1    3    3  502    0  0.11741928441E+03  0.21077718929E+03 -0.57433980433E+02  0.24801809211E+03  0.50400001928E-02 0.  1.
       -1    1    3    3    0  502 -0.11741928441E+03 -0.21077718929E+03  0.24359789711E+02  0.24250301288E+03  0.50400001928E-02 0. -1.
</event>
<event>
 5   0  0.1175861E-01  0.6048323E+03  0.7818609E-02  0.9895431E-01
       -2   -1    0    0    0  501  0.00000000000E+00  0.00000000000E+00  0.13847403662E+04  0.13847403662E+04  0.25500000920E-02 0. -1.
        2   -1    0    0  501    0  0.00000000000E+00  0.00000000000E+00 -0.66045248645E+02  0.66045248694E+02  0.25500000920E-02 0.  1.
    10030    2    1    2    0    0  0.00000000000E+00  0.00000000000E+00  0.13186951176E+04  0.14507856149E+04  0.60483228033E+03 0.  0.
        3    1    3    3  502    0 -0.13871382126E+02 -0.11964862837E+03  0.13247202585E+04  0.13301849431E+04  0.10100000352E+00 0. -1.
       -3    1    3    3    0  502  0.13871382126E+02  0.11964862837E+03 -0.60251408965E+01  0.12060067179E+03  0.10100000352E+00 0.  1.
</event>
<event>
 5   0  0.7424930E-02  0.6230854E+03  0.7818609E-02  0.9858636E-01
        1   -1    0    0  501    0  0.00000000000E+00  0.00000000000E+00  0.52627627996E+03  0.52627627998E+03  0.50400001928E-02 0. -1.
       -1   -1    0    0    0  501  0.00000000000E+00  0.00000000000E+00 -0.18442566564E+03  0.18442566571E+03  0.50400001928E-02 0.  1.
    10030    2    1    2    0    0  0.00000000000E+00  0.00000000000E+00  0.34185061432E+03  0.71070194569E+03  0.62308539792E+03 0.  0.
        3    1    3    3  502    0 -0.13987809032E+03 -0.27138521970E+03  0.24163461095E+03  0.38936244430E+03  0.10100000352E+00 0. -1.
       -3    1    3    3    0  502  0.13987809032E+03  0.27138521970E+03  0.10021600336E+03  0.32133950139E+03  0.10100000352E+00 0.  1.
</event>
<event>
 5   0  0.7221069E-02  0.5981277E+03  0.7818609E-02  0.9909298E-01
        1   -1    0    0  501    0  0.00000000000E+00  0.00000000000E+00  0.16232666148E+04  0.16232666148E+04  0.50400001928E-02 0. -1.
       -1   -1    0    0    0  501  0.00000000000E+00  0.00000000000E+00 -0.55098279581E+02  0.55098279812E+02  0.50400001928E-02 0.  1.
    10030    2    1    2    0    0  0.00000000000E+00  0.00000000000E+00  0.15681683352E+04  0.16783648946E+04  0.59812773878E+03 0.  0.
        5    1    3    3  502    0 -0.12243895874E+03  0.90278900997E+02  0.15064697108E+04  0.15141382560E+04  0.46999998093E+01 0. -1.
       -5    1    3    3    0  502  0.12243895874E+03 -0.90278900997E+02  0.61698624362E+02  0.16422663861E+03  0.46999998093E+01 0.  1.
</event>
<event>
 5   0  0.4695625E-02  0.5983672E+03  0.7818609E-02  0.9908799E-01
        3   -1    0    0  501    0  0.00000000000E+00  0.00000000000E+00  0.34495586116E+03  0.34495587595E+03  0.10100000352E+00 0. -1.
       -3   -1    0    0    0  501  0.00000000000E+00  0.00000000000E+00 -0.25948484897E+03  0.25948486862E+03  0.10100000352E+00 0.  1.
    10030    2    1    2    0    0  0.00000000000E+00  0.00000000000E+00  0.85471012191E+02  0.60444074457E+03  0.59836721148E+03 0.  0.
        3    1    3    3  502    0 -0.16989836639E+03  0.84310689143E+02  0.27646485764E+03  0.33527089781E+03  0.10100000352E+00 0. -1.
       -3    1    3    3    0  502  0.16989836639E+03 -0.84310689143E+02 -0.19099384545E+03  0.26916984676E+03  0.10100000352E+00 0.  1.
</event>
<event>
 5   0  0.7263385E-02  0.5905032E+03  0.7818609E-02  0.9925307E-01
        1   -1    0    0  501    0  0.00000000000E+00  0.00000000000E+00  0.69167147262E+03  0.69167147264E+03  0.50400001928E-02 0.  1.
       -1   -1    0    0    0  501  0.00000000000E+00  0.00000000000E+00 -0.12603310395E+03  0.12603310405E+03  0.50400001928E-02 0. -1.
    10030    2    1    2    0    0  0.00000000000E+00  0.00000000000E+00  0.56563836867E+03  0.81770457669E+03  0.59050318426E+03 0.  0.
        1    1    3    3  502    0 -0.56472410868E+02 -0.25141584600E+03  0.48240922494E+03  0.54691655775E+03  0.50400001928E-02 0. -1.
       -1    1    3    3    0  502  0.56472410868E+02  0.25141584600E+03  0.83229143735E+02  0.27078801894E+03  0.50400001928E-02 0.  1.
</event>
<event>
 5   0  0.7263385E-02  0.5993314E+03  0.7818609E-02  0.9906794E-01
       -1   -1    0    0    0  501  0.00000000000E+00  0.00000000000E+00  0.10230384176E+03  0.10230384189E+03  0.50400001928E-02 0.  1.
        1   -1    0    0  501    0  0.00000000000E+00  0.00000000000E+00 -0.87777290718E+03  0.87777290720E+03  0.50400001928E-02 0. -1.
    10030    2    1    2    0    0  0.00000000000E+00  0.00000000000E+00 -0.77546906542E+03  0.98007674909E+03  0.59933142974E+03 0.  0.
        1    1    3    3  502    0 -0.53612984448E+02  0.17933327310E+03 -0.50475849949E+01  0.18724383323E+03  0.50400001928E-02 0.  1.
       -1    1    3    3    0  502  0.53612984448E+02 -0.17933327310E+03 -0.77042148042E+03  0.79283291586E+03  0.50400001928E-02 0. -1.
</event>
<event>
 5   0  0.4695625E-02  0.4258049E+03  0.7818609E-02  0.1035193E+00
        3   -1    0    0  501    0  0.00000000000E+00  0.00000000000E+00  0.64108132541E+03  0.64108133337E+03  0.10100000352E+00 0.  1.
       -3   -1    0    0    0  501  0.00000000000E+00  0.00000000000E+00 -0.70704638159E+02  0.70704710297E+02  0.10100000352E+00 0. -1.
    10030    2    1    2    0    0  0.00000000000E+00  0.00000000000E+00  0.57037668725E+03  0.71178604367E+03  0.42580489264E+03 0.  0.
        3    1    3    3  502    0 -0.11835767195E+03  0.17133090313E+03  0.21109510012E+03  0.29651976051E+03  0.10100000352E+00 0. -1.
       -3    1    3    3    0  502  0.11835767195E+03 -0.17133090313E+03  0.35928158713E+03  0.41526628316E+03  0.10100000352E+00 0.  1.
</event>
<event>
 5   0  0.1175861E-01  0.5825673E+03  0.7818609E-02  0.9942248E-01
       -2   -1    0    0    0  501  0.00000000000E+00  0.00000000000E+00  0.64182954585E+02  0.64182954636E+02  0.25500000920E-02 0.  1.
        2   -1    0    0  501    0  0.00000000000E+00  0.00000000000E+00 -0.13219424612E+04  0.13219424612E+04  0.25500000920E-02 0. -1.
    10030    2    1    2    0    0  0.00000000000E+00  0.00000000000E+00 -0.12577595066E+04  0.13861254158E+04  0.58256732826E+03 0.  0.
        3    1    3    3  502    0  0.11161962215E+03  0.22108748087E+03 -0.99368415753E+03  0.10240834094E+04  0.10100000352E+00 0. -1.
       -3    1    3    3    0  502 -0.11161962215E+03 -0.22108748087E+03 -0.26407534910E+03  0.36204200647E+03  0.10100000352E+00 0.  1.
</event>
<event>
 5   0  0.4695625E-02  0.5993597E+03  0.7818609E-02  0.9906735E-01
        3   -1    0    0  501    0  0.00000000000E+00  0.00000000000E+00  0.14764021521E+04  0.14764021556E+04  0.10100000352E+00 0.  1.
       -3   -1    0    0    0  501  0.00000000000E+00  0.00000000000E+00 -0.60828913733E+02  0.60828997583E+02  0.10100000352E+00 0. -1.
    10030    2    1    2    0    0  0.00000000000E+00  0.00000000000E+00  0.14155732384E+04  0.15372311532E+04  0.59935967916E+03 0.  0.
        5    1    3    3  502    0  0.22811382184E+03  0.19305714834E+03  0.65165710210E+03  0.71692820209E+03  0.46999998093E+01 0. -1.
       -5    1    3    3    0  502 -0.22811382184E+03 -0.19305714834E+03  0.76391613628E+03  0.82030295106E+03  0.46999998093E+01 0.  1.
</event>
<event>
 5   0  0.7263385E-02  0.6003309E+03  0.7818609E-02  0.9904720E-01
        1   -1    0    0  501    0  0.00000000000E+00  0.00000000000E+00  0.40165470629E+03  0.40165470632E+03  0.50400001928E-02 0.  1.
       -1   -1    0    0    0  501  0.00000000000E+00  0.00000000000E+00 -0.22432030698E+03  0.22432030703E+03  0.50400001928E-02 0. -1.
    10030    2    1    2    0    0  0.00000000000E+00  0.00000000000E+00  0.17733439931E+03  0.62597501335E+03  0.60033093220E+03 0.  0.
        1    1    3    3  502    0  0.12336349988E+03  0.23380941437E+03  0.23691609254E+03  0.35498539446E+03  0.50400001928E-02 0. -1.
       -1    1    3    3    0  502 -0.12336349988E+03 -0.23380941437E+03 -0.59581693233E+02  0.27098961889E+03  0.50400001928E-02 0.  1.
</event>
<event>
 5   0  0.7123340E-02  0.4659435E+03  0.7818609E-02  0.1023071E+00
        1   -1    0    0  501    0  0.00000000000E+00  0.00000000000E+00  0.16441842783E+04  0.16441842783E+04  0.50400001928E-02 0.  1.
       -1   -1    0    0    0  501  0.00000000000E+00  0.00000000000E+00 -0.33010802258E+02  0.33010802643E+02  0.50400001928E-02 0. -1.
    10030    2    1    2    0    0  0.00000000000E+00  0.00000000000E+00  0.16111734760E+04  0.16771950809E+04  0.46594352626E+03 0.  0.
        2    1    3    3  502    0  0.20736982229E+03  0.86110943779E+02  0.10291805641E+04  0.10533897528E+04  0.25500000920E-02 0.  1.
       -2    1    3    3    0  502 -0.20736982229E+03 -0.86110943779E+02  0.58199291193E+03  0.62380532811E+03  0.25500000920E-02 0. -1.
</event>
<event>
 5   0  0.7221069E-02  0.6183029E+03  0.7818609E-02  0.9868144E-01
       -1   -1    0    0    0  501  0.00000000000E+00  0.00000000000E+00  0.22299155172E+03  0.22299155178E+03  0.50400001928E-02 0.  1.
        1   -1    0    0  501    0  0.00000000000E+00  0.00000000000E+00 -0.42860194110E+03  0.42860194113E+03  0.50400001928E-02 0. -1.
    10030    2    1    2    0    0  0.00000000000E+00  0.00000000000E+00 -0.20561038938E+03  0.65159349291E+03  0.61830287706E+03 0.  0.
        5    1    3    3  502    0 -0.20520909826E+03 -0.19637378908E+03  0.25742281073E+02  0.28523357811E+03  0.46999998093E+01 0.  1.
       -5    1    3    3    0  502  0.20520909826E+03  0.19637378908E+03 -0.23135267046E+03  0.36635991480E+03  0.46999998093E+01 0. -1.
</event>
<event>
 5   0  0.1166419E-01  0.6132020E+03  0.7818609E-02  0.9878388E-01
        2   -1    0    0  501    0  0.00000000000E+00  0.00000000000E+00  0.46457643517E+03  0.46457643518E+03  0.25500000920E-02 0.  1.
       -2   -1    0    0    0  501  0.00000000000E+00  0.00000000000E+00 -0.20234385766E+03  0.20234385768E+03  0.25500000920E-02 0. -1.
    10030    2    1    2    0    0  0.00000000000E+00  0.00000000000E+00  0.26223257751E+03  0.66692029286E+03  0.61320204853E+03 0.  0.
        1    1    3    3  502    0  0.26205583910E+03 -0.99945663084E+02 -0.35963513424E+01  0.28049123363E+03  0.50400001928E-02 0. -1.
       -1    1    3    3    0  502 -0.26205583910E+03  0.99945663084E+02  0.26582892885E+03  0.38642905923E+03  0.50400001928E-02 0.  1.
</event>
<event>
 5   0  0.1175861E-01  0.6028082E+03  0.7818609E-02  0.9899597E-01
        2   -1    0    0  501    0  0.00000000000E+00  0.00000000000E+00  0.17008395995E+04  0.17008395995E+04  0.25500000920E-02 0.  1.
       -2   -1    0    0    0  501  0.00000000000E+00  0.00000000000E+00 -0.53411520924E+02  0.53411520985E+02  0.25500000920E-02 0. -1.
    10030    2    1    2    0    0  0.00000000000E+00  0.00000000000E+00  0.16474280786E+04  0.17542511205E+04  0.60280819474E+03 0.  0.
        3    1    3    3  502    0 -0.15451302224E+03 -0.96635316296E+02  0.15223381362E+04  0.15332077711E+04  0.10100000352E+00 0.  1.
       -3    1    3    3    0  502  0.15451302224E+03  0.96635316296E+02  0.12508994236E+03  0.22104334932E+03  0.10100000352E+00 0. -1.
</event>
<event>
 5   0  0.7266519E-02  0.5967117E+03  0.7818609E-02  0.9912252E-01
       -1   -1    0    0    0  501  0.00000000000E+00  0.00000000000E+00  0.19293408945E+03  0.19293408952E+03  0.50400001928E-02 0.  1.
        1   -1    0    0  501    0  0.00000000000E+00  0.00000000000E+00 -0.46138141332E+03  0.46138141334E+03  0.50400001928E-02 0. -1.
    10030    2    1    2    0    0  0.00000000000E+00  0.00000000000E+00 -0.26844732386E+03  0.65431550286E+03  0.59671166537E+03 0.  0.
        4    1    3    3  502    0 -0.85810555767E+02 -0.79593595679E+02 -0.43515422648E+03  0.45062113319E+03  0.12699999809E+01 0. -1.
       -4    1    3    3    0  502  0.85810555767E+02  0.79593595679E+02  0.16670690262E+03  0.20369436967E+03  0.12699999809E+01 0.  1.
</event>
<event>
 5   0  0.7123340E-02  0.5944009E+03  0.7818609E-02  0.9917091E-01
        1   -1    0    0  501    0  0.00000000000E+00  0.00000000000E+00  0.22618615860E+03  0.22618615866E+03  0.50400001928E-02 0.  1.
       -1   -1    0    0    0  501  0.00000000000E+00  0.00000000000E+00 -0.39051061153E+03  0.39051061156E+03  0.50400001928E-02 0. -1.
    10030    2    1    2    0    0  0.00000000000E+00  0.00000000000E+00 -0.16432445292E+03  0.61669677022E+03  0.59440085849E+03 0.  0.
        2    1    3    3  502    0 -0.15033321171E+03 -0.21599450876E+03 -0.22545279525E+03  0.34652945798E+03  0.25500000920E-02 0. -1.
       -2    1    3    3    0  502  0.15033321171E+03  0.21599450876E+03  0.61128342325E+02  0.27016731224E+03  0.25500000920E-02 0.  1.
</event>
<event>
 5   0  0.7266519E-02  0.6027760E+03  0.7818609E-02  0.9899663E-01
        1   -1    0    0  501    0  0.00000000000E+00  0.00000000000E+00  0.46708441433E+03  0.46708441436E+03  0.50400001928E-02 0. -1.
       -1   -1    0    0    0  501  0.00000000000E+00  0.00000000000E+00 -0.19447173589E+03  0.19447173596E+03  0.50400001928E-02 0.  1.
    10030    2    1    2    0    0  0.00000000000E+00  0.00000000000E+00  0.27261267844E+03  0.66155615031E+03  0.60277596798E+03 0.  0.
        4    1    3    3  502    0  0.26302903492E+03 -0.39996300619E+02  0.29170902223E+03  0.39481608861E+03  0.12699999809E+01 0. -1.
       -4    1    3    3    0  502 -0.26302903492E+03  0.39996300619E+02 -0.19096343788E+02  0.26674006171E+03  0.12699999809E+01 0.  1.
</event>
<event>
 5   0  0.7263385E-02  0.5950662E+03  0.7818609E-02  0.9915695E-01
        1   -1    0    0  501    0  0.00000000000E+00  0.00000000000E+00  0.12906162286E+04  0.12906162286E+04  0.50400001928E-02 0.  1.
       -1   -1    0    0    0  501  0.00000000000E+00  0.00000000000E+00 -0.68591998192E+02  0.68591998377E+02  0.50400001928E-02 0. -1.
    10030    2    1    2    0    0  0.00000000000E+00  0.00000000000E+00  0.12220242304E+04  0.13592082270E+04  0.59506620187E+03 0.  0.
        1    1    3    3  502    0 -0.42719809018E+02  0.33025304005E+02 -0.57306722922E+02  0.78738258202E+02  0.50400001928E-02 0. -1.
       -1    1    3    3    0  502  0.42719809018E+02 -0.33025304005E+02  0.12793309533E+04  0.12804699688E+04  0.50400001928E-02 0.  1.
</event>
<event>
 5   0  0.4695625E-02  0.5958963E+03  0.7818609E-02  0.9913957E-01
       -3   -1    0    0    0  501  0.00000000000E+00  0.00000000000E+00  0.16481720655E+03  0.16481723749E+03  0.10100000352E+00 0.  1.
        3   -1    0    0  501    0  0.00000000000E+00  0.00000000000E+00 -0.53861532561E+03  0.53861533508E+03  0.10100000352E+00 0. -1.
    10030    2    1    2    0    0  0.00000000000E+00  0.00000000000E+00 -0.37379811906E+03  0.70343257257E+03  0.59589625804E+03 0.  0.
        2    1    3    3  502    0 -0.52170888288E+02 -0.18330421516E+03 -0.45725012436E+03  0.49537855536E+03  0.25500000920E-02 0. -1.
       -2    1    3    3    0  502  0.52170888288E+02  0.18330421516E+03  0.83452005300E+02  0.20805401721E+03  0.25500000920E-02 0.  1.
</event>
<event>
 5   0  0.7266519E-02  0.6102045E+03  0.7818609E-02  0.9884458E-01
       -1   -1    0    0    0  501  0.00000000000E+00  0.00000000000E+00  0.78388434224E+02  0.78388434386E+02  0.50400001928E-02 0.  1.
        1   -1    0    0  501    0  0.00000000000E+00  0.00000000000E+00 -0.11875143763E+04  0.11875143763E+04  0.50400001928E-02 0. -1.
    10030    2    1    2    0    0  0.00000000000E+00  0.00000000000E+00 -0.11091259421E+04  0.12659028107E+04  0.61020453189E+03 0.  0.
        4    1    3    3  502    0 -0.16268539948E+03  0.79973583428E+02 -0.10636684965E+04  0.10790063005E+04  0.12699999809E+01 0. -1.
       -4    1    3    3    0  502  0.16268539948E+03 -0.79973583428E+02 -0.45457445572E+02  0.18689651016E+03  0.12699999809E+01 0.  1.
</event>
<event>
 5   0  0.1146468E-01  0.6082935E+03  0.7818609E-02  0.9888348E-01
        2   -1    0    0  501    0  0.00000000000E+00  0.00000000000E+00  0.35454109527E+03  0.35454109528E+03  0.25500000920E-02 0. -1.
       -2   -1    0    0    0  501  0.00000000000E+00  0.00000000000E+00 -0.26091543136E+03  0.26091543137E+03  0.25500000920E-02 0.  1.
    10030    2    1    2    0    0  0.00000000000E+00  0.00000000000E+00  0.93625663910E+02  0.61545652665E+03  0.60829349105E+03 0.  0.
        4    1    3    3  502    0 -0.80062461951E+02  0.20155237085E+03  0.26256143746E+03  0.34054878850E+03  0.12699999809E+01 0. -1.
       -4    1    3    3    0  502  0.80062461951E+02 -0.20155237085E+03 -0.16893577355E+03  0.27490773815E+03  0.12699999809E+01 0.  1.
</event>
<event>
 5   0  0.4695625E-02  0.5875895E+03  0.7818609E-02  0.9931494E-01
       -3   -1    0    0    0  501  0.00000000000E+00  0.00000000000E+00  0.26901879614E+03  0.26901881510E+03  0.10100000352E+00 0. -1.
        3   -1    0    0  501    0  0.00000000000E+00  0.00000000000E+00 -0.32085247510E+03  0.32085249100E+03  0.10100000352E+00 0.  1.
    10030    2    1    2    0    0  0.00000000000E+00  0.00000000000E+00 -0.51833678959E+02  0.58987130610E+03  0.58758950594E+03 0.  0.
        1    1    3    3  502    0  0.20373483600E+03 -0.11306300524E+03 -0.20556492357E+03  0.31072184407E+03  0.50400001928E-02 0.  1.
       -1    1    3    3    0  502 -0.20373483600E+03  0.11306300524E+03  0.15373124461E+03  0.27914946203E+03  0.50400001928E-02 0. -1.
</event>
<event>
 5   0  0.1146468E-01  0.6045510E+03  0.7818609E-02  0.9896009E-01
       -2   -1    0    0    0  501  0.00000000000E+00  0.00000000000E+00  0.21620342326E+03  0.21620342328E+03  0.25500000920E-02 0.  1.
        2   -1    0    0  501    0  0.00000000000E+00  0.00000000000E+00 -0.42261353078E+03  0.42261353079E+03  0.25500000920E-02 0. -1.
    10030    2    1    2    0    0  0.00000000000E+00  0.00000000000E+00 -0.20641010752E+03  0.63881695407E+03  0.60455104691E+03 0.  0.
        4    1    3    3  502    0 -0.38032596617E+02 -0.26368692520E+03  0.47687974506E+02  0.27065296735E+03  0.12699999809E+01 0.  1.
       -4    1    3    3    0  502  0.38032596617E+02  0.26368692520E+03 -0.25409808203E+03  0.36816398672E+03  0.12699999809E+01 0. -1.
</event>
<event>
 5   0  0.7263385E-02  0.6038207E+03  0.7818609E-02  0.9897511E-01
        1   -1    0    0  501    0  0.00000000000E+00  0.00000000000E+00  0.25111550511E+03  0.25111550516E+03  0.50400001928E-02 0. -1.
       -1   -1    0    0    0  501  0.00000000000E+00  0.00000000000E+00 -0.36297981060E+03  0.36297981064E+03  0.50400001928E-02 0.  1.
    10030    2    1    2    0    0  0.00000000000E+00  0.00000000000E+00 -0.11186430549E+03  0.61409531580E+03  0.60382069693E+03 0.  0.
        1    1    3    3  502    0  0.19844333419E+03 -0.12014158413E+03 -0.25244559952E+03  0.34284477225E+03  0.50400001928E-02 0.  1.
       -1    1    3    3    0  502 -0.19844333419E+03  0.12014158413E+03  0.14058129402E+03  0.27125054355E+03  0.50400001928E-02 0. -1.
</event>
<event>
 5   0  0.7266519E-02  0.5984500E+03  0.7818609E-02  0.9908627E-01
       -1   -1    0    0    0  501  0.00000000000E+00  0.00000000000E+00  0.18176060351E+03  0.18176060358E+03  0.50400001928E-02 0.  1.
        1   -1    0    0  501    0  0.00000000000E+00  0.00000000000E+00 -0.49260182747E+03  0.49260182750E+03  0.50400001928E-02 0. -1.
    10030    2    1    2    0    0  0.00000000000E+00  0.00000000000E+00 -0.31084122396E+03  0.67436243108E+03  0.59845001624E+03 0.  0.
        4    1    3    3  502    0  0.27378467417E+03 -0.11044360071E+03 -0.10046834170E+03  0.31185146678E+03  0.12699999809E+01 0.  1.
       -4    1    3    3    0  502 -0.27378467417E+03  0.11044360071E+03 -0.21037288226E+03  0.36251096430E+03  0.12699999809E+01 0. -1.
</event>
<event>
 5   0  0.1146468E-01  0.5635314E+03  0.7818609E-02  0.9984096E-01
        2   -1    0    0  501    0  0.00000000000E+00  0.00000000000E+00  0.12476072304E+04  0.12476072304E+04  0.25500000920E-02 0. -1.
       -2   -1    0    0    0  501  0.00000000000E+00  0.00000000000E+00 -0.63635328493E+02  0.63635328544E+02  0.25500000920E-02 0.  1.
    10030    2    1    2    0    0  0.00000000000E+00  0.00000000000E+00  0.11839719019E+04  0.13112425590E+04  0.56353135130E+03 0.  0.
        4    1    3    3  502    0 -0.51862772443E+02  0.26311452524E+03  0.39086258264E+03  0.47401916835E+03  0.12699999809E+01 0.  1.
       -4    1    3    3    0  502  0.51862772443E+02 -0.26311452524E+03  0.79310931930E+03  0.83722339063E+03  0.12699999809E+01 0. -1.
</event>
<event>
 5   0  0.1146468E-01  0.5961308E+03  0.7818609E-02  0.9913466E-01
       -2   -1    0    0    0  501  0.00000000000E+00  0.00000000000E+00  0.13199950798E+03  0.13199950801E+03  0.25500000920E-02 0. -1.
        2   -1    0    0  501    0  0.00000000000E+00  0.00000000000E+00 -0.67305550443E+03  0.67305550444E+03  0.25500000920E-02 0.  1.
    10030    2    1    2    0    0  0.00000000000E+00  0.00000000000E+00 -0.54105599645E+03  0.80505501245E+03  0.59613084283E+03 0.  0.
        4    1    3    3  502    0 -0.84430779852E+02 -0.81091206664E+02  0.99650350314E+02  0.15374051386E+03  0.12699999809E+01 0. -1.
       -4    1    3    3    0  502  0.84430779852E+02  0.81091206664E+02 -0.64070634676E+03  0.65131449859E+03  0.12699999809E+01 0.  1.
</event>
<event>
 5   0  0.1206238E-01  0.5994004E+03  0.7818609E-02  0.9906651E-01
        2   -1    0    0  501    0  0.00000000000E+00  0.00000000000E+00  0.26433171082E+04  0.26433171082E+04  0.25500000920E-02 0. -1.
       -2   -1    0    0    0  501  0.00000000000E+00  0.00000000000E+00 -0.33980114957E+02  0.33980115053E+02  0.25500000920E-02 0.  1.
    10030    2    1    2    0    0  0.00000000000E+00  0.00000000000E+00  0.26093369933E+04  0.26772972233E+04  0.59940043155E+03 0.  0.
        5    1    3    3  502    0 -0.13977014553E+03 -0.13164394525E+03  0.23323060096E+04  0.23402006825E+04  0.46999998093E+01 0. -1.
       -5    1    3    3    0  502  0.13977014553E+03  0.13164394525E+03  0.27703098367E+03  0.33709654079E+03  0.46999998093E+01 0.  1.
</event>
<event>
 5   0  0.1166419E-01  0.5885115E+03  0.7818609E-02  0.9929532E-01
       -2   -1    0    0    0  501  0.00000000000E+00  0.00000000000E+00  0.51831080682E+03  0.51831080682E+03  0.25500000920E-02 0. -1.
        2   -1    0    0  501    0  0.00000000000E+00  0.00000000000E+00 -0.16705505897E+03  0.16705505899E+03  0.25500000920E-02 0.  1.
    10030    2    1    2    0    0  0.00000000000E+00  0.00000000000E+00  0.35125574784E+03  0.68536586582E+03  0.58851148641E+03 0.  0.
        1    1    3    3  502    0 -0.23704882493E+03  0.23937385720E+02 -0.25480800054E+02  0.23961305272E+03  0.50400001928E-02 0.  1.
       -1    1    3    3    0  502  0.23704882493E+03 -0.23937385720E+02  0.37673654790E+03  0.44575281310E+03  0.50400001928E-02 0. -1.
</event>
<event>
 5   0  0.7221069E-02  0.5873802E+03  0.7818609E-02  0.9931940E-01
        1   -1    0    0  501    0  0.00000000000E+00  0.00000000000E+00  0.67338134239E+03  0.67338134241E+03  0.50400001928E-02 0.  1.
       -1   -1    0    0    0  501  0.00000000000E+00  0.00000000000E+00 -0.12809067988E+03  0.12809067998E+03  0.50400001928E-02 0. -1.
    10030    2    1    2    0    0  0.00000000000E+00  0.00000000000E+00  0.54529066251E+03  0.80147202239E+03  0.58738019719E+03 0.  0.
        5    1    3    3  502    0 -0.16036872714E+03  0.15664792233E+03  0.53144872861E+03  0.57681586434E+03  0.46999998093E+01 0.  1.
       -5    1    3    3    0  502  0.16036872714E+03 -0.15664792233E+03  0.13841933904E+02  0.22465615805E+03  0.46999998093E+01 0. -1.
</event>
<event>
 5   0  0.1206238E-01  0.5924882E+03  0.7818609E-02  0.9921114E-01
        2   -1    0    0  501    0  0.00000000000E+00  0.00000000000E+00  0.32980459542E+03  0.32980459543E+03  0.25500000920E-02 0.  1.
       -2   -1    0    0    0  501  0.00000000000E+00  0.00000000000E+00 -0.26609865722E+03  0.26609865724E+03  0.25500000920E-02 0. -1.
    10030    2    1    2    0    0  0.00000000000E+00  0.00000000000E+00  0.63705938198E+02  0.59590325267E+03  0.59248817708E+03 0.  0.
        5    1    3    3  502    0 -0.78061174687E+02 -0.99769756219E+02 -0.23744193821E+03  0.26916224711E+03  0.46999998093E+01 0. -1.
       -5    1    3    3    0  502  0.78061174687E+02  0.99769756219E+02  0.30114787641E+03  0.32674100556E+03  0.46999998093E+01 0.  1.
</event>
<event>
 5   0  0.4695625E-02  0.6008563E+03  0.7818609E-02  0.9903631E-01
        4   -1    0    0  501    0  0.00000000000E+00  0.00000000000E+00  0.13892354893E+03  0.13892935380E+03  0.12699999809E+01 0.  1.
       -4   -1    0    0    0  501  0.00000000000E+00  0.00000000000E+00 -0.64966882823E+03  0.64967006955E+03  0.12699999809E+01 0. -1.
    10030    2    1    2    0    0  0.00000000000E+00  0.00000000000E+00 -0.51074527930E+03  0.78859942335E+03  0.60085631410E+03 0.  0.
        3    1    3    3  502    0  0.23918829639E+03  0.11416476850E+03 -0.44104008370E+03  0.51454931846E+03  0.10100000352E+00 0. -1.
       -3    1    3    3    0  502 -0.23918829639E+03 -0.11416476850E+03 -0.69705195594E+02  0.27405010489E+03  0.10100000352E+00 0.  1.
</event>
<event>
 5   0  0.1206238E-01  0.5996740E+03  0.7818609E-02  0.9906083E-01
        2   -1    0    0  501    0  0.00000000000E+00  0.00000000000E+00  0.35969055007E+03  0.35969055008E+03  0.25500000920E-02 0. -1.
       -2   -1    0    0    0  501  0.00000000000E+00  0.00000000000E+00 -0.24994327955E+03  0.24994327956E+03  0.25500000920E-02 0.  1.
    10030    2    1    2    0    0  0.00000000000E+00  0.00000000000E+00  0.10974727052E+03  0.60963382964E+03  0.59967403050E+03 0.  0.
        5    1    3    3  502    0 -0.46155581778E+02 -0.47862314278E+02 -0.24231536965E+03  0.25131646827E+03  0.46999998093E+01 0.  1.
       -5    1    3    3    0  502  0.46155581778E+02  0.47862314278E+02  0.35206264017E+03  0.35831736137E+03  0.46999998093E+01 0. -1.
</event>
<event>
 5   0  0.7424930E-02  0.5990414E+03  0.7818609E-02  0.9907397E-01
       -1   -1    0    0    0  501  0.00000000000E+00  0.00000000000E+00  0.32593727548E+03  0.32593727552E+03  0.50400001928E-02 0. -1.
        1   -1    0    0  501    0  0.00000000000E+00  0.00000000000E+00 -0.27524514688E+03  0.27524514693E+03  0.50400001928E-02 0.  1.
    10030    2    1    2    0    0  0.00000000000E+00  0.00000000000E+00  0.50692128598E+02  0.60118242244E+03  0.59904141188E+03 0.  0.
        3    1    3    3  502    0 -0.50140003811E+02  0.26405919777E+03  0.15799776535E+03  0.31177649681E+03  0.10100000352E+00 0. -1.
       -3    1    3    3    0  502  0.50140003811E+02 -0.26405919777E+03 -0.10730563675E+03  0.28940592563E+03  0.10100000352E+00 0.  1.
</event>
<event>
 5   0  0.7123340E-02  0.6070456E+03  0.7818609E-02  0.9890896E-01
       -1   -1    0    0    0  501  0.00000000000E+00  0.00000000000E+00  0.20945206847E+03  0.20945206853E+03  0.50400001928E-02 0. -1.
        1   -1    0    0  501    0  0.00000000000E+00  0.00000000000E+00 -0.43984328733E+03  0.43984328736E+03  0.50400001928E-02 0.  1.
    10030    2    1    2    0    0  0.00000000000E+00  0.00000000000E+00 -0.23039121886E+03  0.64929535589E+03  0.60704558763E+03 0.  0.
        2    1    3    3  502    0  0.13195937284E+03  0.82879329757E+01 -0.40742156829E+03  0.42833900152E+03  0.25500000920E-02 0.  1.
       -2    1    3    3    0  502 -0.13195937284E+03 -0.82879329757E+01  0.17703034943E+03  0.22095635437E+03  0.25500000920E-02 0. -1.
</event>
<event>
 5   0  0.7424930E-02  0.6032954E+03  0.7818609E-02  0.9898593E-01
        1   -1    0    0  501    0  0.00000000000E+00  0.00000000000E+00  0.10299913800E+04  0.10299913800E+04  0.50400001928E-02 0. -1.
       -1   -1    0    0    0  501  0.00000000000E+00  0.00000000000E+00 -0.88341854074E+02  0.88341854218E+02  0.50400001928E-02 0.  1.
    10030    2    1    2    0    0  0.00000000000E+00  0.00000000000E+00  0.94164952595E+03  0.11183332342E+04  0.60329544430E+03 0.  0.
        3    1    3    3  502    0 -0.10039004102E+03  0.17856748810E+03  0.60376812067E+02  0.21356469226E+03  0.10100000352E+00 0.  1.
       -3    1    3    3    0  502  0.10039004102E+03 -0.17856748810E+03  0.88127271388E+03  0.90476854199E+03  0.10100000352E+00 0. -1.
</event>
<event>
 5   0  0.7424930E-02  0.5639585E+03  0.7818609E-02  0.9983137E-01
       -1   -1    0    0    0  501  0.00000000000E+00  0.00000000000E+00  0.23861711342E+03  0.23861711347E+03  0.50400001928E-02 0. -1.
        1   -1    0    0  501    0  0.00000000000E+00  0.00000000000E+00 -0.33322128657E+03  0.33322128661E+03  0.50400001928E-02 0.  1.
    10030    2    1    2    0    0  0.00000000000E+00  0.00000000000E+00 -0.94604173151E+02  0.57183840008E+03  0.56395851463E+03 0.  0.
        3    1    3    3  502    0  0.92468401595E+01  0.85922307521E+02  0.22485866880E+03  0.24089329198E+03  0.10100000352E+00 0. -1.
       -3    1    3    3    0  502 -0.92468401595E+01 -0.85922307521E+02 -0.31946284195E+03  0.33094510810E+03  0.10100000352E+00 0.  1.
</event>
<event>
 5   0  0.1219020E-01  0.6041787E+03  0.7818609E-02  0.9896774E-01
        2   -1    0    0  501    0  0.00000000000E+00  0.00000000000E+00  0.22542710608E+03  0.22542710609E+03  0.25500000920E-02 0.  1.
       -2   -1    0    0    0  501  0.00000000000E+00  0.00000000000E+00 -0.40482258673E+03  0.40482258674E+03  0.25500000920E-02 0. -1.
    10030    2    1    2    0    0  0.00000000000E+00  0.00000000000E+00 -0.17939548065E+03  0.63024969283E+03  0.60417872922E+03 0.  0.
        2    1    3    3  502    0  0.72731889585E+02 -0.10588157586E+02  0.21595789249E+03  0.22812244120E+03  0.25500000920E-02 0.  1.
       -2    1    3    3    0  502 -0.72731889585E+02  0.10588157586E+02 -0.39535337314E+03  0.40212725163E+03  0.25500000920E-02 0. -1.
</event>
<event>
 5   0  0.7221069E-02  0.6102733E+03  0.7818609E-02  0.9884318E-01
        1   -1    0    0  501    0  0.00000000000E+00  0.00000000000E+00  0.53659639637E+03  0.53659639639E+03  0.50400001928E-02 0. -1.
       -1   -1    0    0    0  501  0.00000000000E+00  0.00000000000E+00 -0.17351660277E+03  0.17351660284E+03  0.50400001928E-02 0.  1.
    10030    2    1    2    0    0  0.00000000000E+00  0.00000000000E+00  0.36307979360E+03  0.71011299923E+03  0.61027332824E+03 0.  0.
        5    1    3    3  502    0  0.76139325462E+02 -0.14995072492E+03  0.47775252376E+03  0.50650960578E+03  0.46999998093E+01 0. -1.
       -5    1    3    3    0  502 -0.76139325462E+02  0.14995072492E+03 -0.11467273016E+03  0.20360339346E+03  0.46999998093E+01 0.  1.
</event>
<event>
 5   0  0.7123340E-02  0.6037293E+03  0.7818609E-02  0.9897699E-01
        1   -1    0    0  501    0  0.00000000000E+00  0.00000000000E+00  0.90927408359E+03  0.90927408361E+03  0.50400001928E-02 0.  1.
       -1   -1    0    0    0  501  0.00000000000E+00  0.00000000000E+00 -0.10021429382E+03  0.10021429395E+03  0.50400001928E-02 0. -1.
    10030    2    1    2    0    0  0.00000000000E+00  0.00000000000E+00  0.80905978977E+03  0.10094883776E+04  0.60372927790E+03 0.  0.
        2    1    3    3  502    0 -0.14447654942E+03  0.20293934940E+03  0.68959221908E+03  0.73320889348E+03  0.25500000920E-02 0.  1.
       -2    1    3    3    0  502  0.14447654942E+03 -0.20293934940E+03  0.11946757070E+03  0.27627948407E+03  0.25500000920E-02 0. -1.
</event>
<event>
 5   0  0.7424930E-02  0.6022072E+03  0.7818609E-02  0.9900837E-01
       -1   -1    0    0    0  501  0.00000000000E+00  0.00000000000E+00  0.65041007339E+02  0.65041007535E+02  0.50400001928E-02 0.  1.
        1   -1    0    0  501    0  0.00000000000E+00  0.00000000000E+00 -0.13939417483E+04  0.13939417483E+04  0.50400001928E-02 0. -1.
    10030    2    1    2    0    0  0.00000000000E+00  0.00000000000E+00 -0.13289007409E+04  0.14589827558E+04  0.60220719235E+03 0.  0.
        3    1    3    3  502    0 -0.20238078289E+03 -0.63869685691E+00 -0.12045876539E+04  0.12214703498E+04  0.10100000352E+00 0. -1.
       -3    1    3    3    0  502  0.20238078289E+03  0.63869685691E+00 -0.12431308702E+03  0.23751240604E+03  0.10100000352E+00 0.  1.
</event>
<event>
 5   0  0.1166419E-01  0.5993817E+03  0.7818609E-02  0.9906690E-01
       -2   -1    0    0    0  501  0.00000000000E+00  0.00000000000E+00  0.13481377098E+03  0.13481377101E+03  0.25500000920E-02 0.  1.
        2   -1    0    0  501    0  0.00000000000E+00  0.00000000000E+00 -0.66621228965E+03  0.66621228966E+03  0.25500000920E-02 0. -1.
    10030    2    1    2    0    0  0.00000000000E+00  0.00000000000E+00 -0.53139851867E+03  0.80102606066E+03  0.59938165155E+03 0.  0.
        1    1    3    3  502    0  0.16635411488E+03 -0.31243214946E+02 -0.59621629059E+03  0.61977713350E+03  0.50400001928E-02 0. -1.
       -1    1    3    3    0  502 -0.16635411488E+03  0.31243214946E+02  0.64817771922E+02  0.18124892717E+03  0.50400001928E-02 0.  1.
</event>
<event>
 5   0  0.1219020E-01  0.6195951E+03  0.7818609E-02  0.9865566E-01
        2   -1    0    0  501    0  0.00000000000E+00  0.00000000000E+00  0.39995407601E+03  0.39995407602E+03  0.25500000920E-02 0. -1.
       -2   -1    0    0    0  501  0.00000000000E+00  0.00000000000E+00 -0.23996382029E+03  0.23996382031E+03  0.25500000920E-02 0.  1.
    10030    2    1    2    0    0  0.00000000000E+00  0.00000000000E+00  0.15999025571E+03  0.63991789632E+03  0.61959505494E+03 0.  0.
        2    1    3    3  502    0  0.18639338282E+03  0.95397589379E+02  0.31580699245E+03  0.37891588738E+03  0.25500000920E-02 0. -1.
       -2    1    3    3    0  502 -0.18639338282E+03 -0.95397589379E+02 -0.15581673674E+03  0.26100200894E+03  0.25500000920E-02 0.  1.
</event>
<event>
 5   0  0.7424930E-02  0.5981191E+03  0.7818609E-02  0.9909316E-01
       -1   -1    0    0    0  501  0.00000000000E+00  0.00000000000E+00  0.21927204291E+03  0.21927204297E+03  0.50400001928E-02 0. -1.
        1   -1    0    0  501    0  0.00000000000E+00  0.00000000000E+00 -0.40787971356E+03  0.40787971359E+03  0.50400001928E-02 0.  1.
    10030    2    1    2    0    0  0.00000000000E+00  0.00000000000E+00 -0.18860767065E+03  0.62715175655E+03  0.59811911215E+03 0.  0.
        3    1    3    3  502    0 -0.72227296772E+02 -0.18732040184E+03  0.13811016718E+03  0.24368041329E+03  0.10100000352E+00 0. -1.
       -3    1    3    3    0  502  0.72227296772E+02  0.18732040184E+03 -0.32671783783E+03  0.38347134326E+03  0.10100000352E+00 0.  1.
</event>
<event>
 5   0  0.1166419E-01  0.6017680E+03  0.7818609E-02  0.9901745E-01
        2   -1    0    0  501    0  0.00000000000E+00  0.00000000000E+00  0.57882954857E+03  0.57882954857E+03  0.25500000920E-02 0.  1.
       -2   -1    0    0    0  501  0.00000000000E+00  0.00000000000E+00 -0.15640388384E+03  0.15640388386E+03  0.25500000920E-02 0. -1.
    10030    2    1    2    0    0  0.00000000000E+00  0.00000000000E+00  0.42242566473E+03  0.73523343243E+03  0.60176802669E+03 0.  0.
        1    1    3    3  502    0 -0.16497542375E+02 -0.16509175418E+03 -0.95462807523E+02  0.19141735514E+03  0.50400001928E-02 0. -1.
       -1    1    3    3    0  502  0.16497542375E+02  0.16509175418E+03  0.51788847225E+03  0.54381607729E+03  0.50400001928E-02 0.  1.
</event>
<event>
 5   0  0.7263385E-02  0.6026414E+03  0.7818609E-02  0.9899941E-01
       -1   -1    0    0    0  501  0.00000000000E+00  0.00000000000E+00  0.48331865729E+03  0.48331865732E+03  0.50400001928E-02 0.  1.
        1   -1    0    0  501    0  0.00000000000E+00  0.00000000000E+00 -0.18785569935E+03  0.18785569942E+03  0.50400001928E-02 0. -1.
    10030    2    1    2    0    0  0.00000000000E+00  0.00000000000E+00  0.29546295794E+03  0.67117435673E+03  0.60264140052E+03 0.  0.
        1    1    3    3  502    0 -0.24543475966E+03 -0.14427426551E+03  0.37811793843E+02  0.28719856671E+03  0.50400001928E-02 0. -1.
       -1    1    3    3    0  502  0.24543475966E+03  0.14427426551E+03  0.25765116410E+03  0.38397579003E+03  0.50400001928E-02 0.  1.
</event>
<event>
 5   0  0.7424930E-02  0.6001569E+03  0.7818609E-02  0.9905081E-01
       -1   -1    0    0    0  501  0.00000000000E+00  0.00000000000E+00  0.18848362137E+03  0.18848362143E+03  0.50400001928E-02 0.  1.
        1   -1    0    0  501    0  0.00000000000E+00  0.00000000000E+00 -0.47774485005E+03  0.47774485007E+03  0.50400001928E-02 0. -1.
    10030    2    1    2    0    0  0.00000000000E+00  0.00000000000E+00 -0.28926122868E+03  0.66622847151E+03  0.60015691100E+03 0.  0.
        3    1    3    3  502    0  0.21589143752E+03  0.19958218240E+03 -0.77979789909E+02  0.30417596579E+03  0.10100000352E+00 0. -1.
       -3    1    3    3    0  502 -0.21589143752E+03 -0.19958218240E+03 -0.21128143877E+03  0.36205250572E+03  0.10100000352E+00 0.  1.
</event>
<event>
 5   0  0.1146468E-01  0.6058452E+03  0.7818609E-02  0.9893353E-01
        2   -1    0    0  501    0  0.00000000000E+00  0.00000000000E+00  0.96777577934E+03  0.96777577935E+03  0.25500000920E-02 0. -1.
       -2   -1    0    0    0  501  0.00000000000E+00  0.00000000000E+00 -0.94817519649E+02  0.94817519683E+02  0.25500000920E-02 0.  1.
    10030    2    1    2    0    0  0.00000000000E+00  0.00000000000E+00  0.87295825969E+03  0.10625932990E+04  0.60584519143E+03 0.  0.
        4    1    3    3  502    0 -0.42497587416E+02  0.89123437768E+02  0.93875540326E+03  0.94393450628E+03  0.12699999809E+01 0. -1.
       -4    1    3    3    0  502  0.42497587416E+02 -0.89123437768E+02 -0.65797143565E+02  0.11865879275E+03  0.12699999809E+01 0.  1.
</event>
<event>
 5   0  0.4695625E-02  0.5873225E+03  0.7818609E-02  0.9932063E-01
        4   -1    0    0  501    0  0.00000000000E+00  0.00000000000E+00  0.34740039562E+03  0.34740271699E+03  0.12699999809E+01 0. -1.
       -4   -1    0    0    0  501  0.00000000000E+00  0.00000000000E+00 -0.24823021364E+03  0.24823346242E+03  0.12699999809E+01 0.  1.
    10030    2    1    2    0    0  0.00000000000E+00  0.00000000000E+00  0.99170181979E+02  0.59563617941E+03  0.58732251211E+03 0.  0.
        2    1    3    3  502    0 -0.69157619216E+02 -0.16402123352E+02 -0.23937818995E+03  0.24970727618E+03  0.25500000920E-02 0.  1.
       -2    1    3    3    0  502  0.69157619216E+02  0.16402123352E+02  0.33854837193E+03  0.34592890323E+03  0.25500000920E-02 0. -1.
</event>
<event>
 5   0  0.4695625E-02  0.5887433E+03  0.7818609E-02  0.9929039E-01
        3   -1    0    0  501    0  0.00000000000E+00  0.00000000000E+00  0.94357446527E+03  0.94357447068E+03  0.10100000352E+00 0.  1.
       -3   -1    0    0    0  501  0.00000000000E+00  0.00000000000E+00 -0.91836553093E+02  0.91836608632E+02  0.10100000352E+00 0. -1.
    10030    2    1    2    0    0  0.00000000000E+00  0.00000000000E+00  0.85173791218E+03  0.10354110793E+04  0.58874326503E+03 0.  0.
        4    1    3    3  502    0  0.21707084131E+03 -0.19880464246E+03  0.42030498583E+03  0.51312857066E+03  0.12699999809E+01 0. -1.
       -4    1    3    3    0  502 -0.21707084131E+03  0.19880464246E+03  0.43143292635E+03  0.52228250866E+03  0.12699999809E+01 0.  1.
</event>
<event>
 5   0  0.1166419E-01  0.5975882E+03  0.7818609E-02  0.9910422E-01
        2   -1    0    0  501    0  0.00000000000E+00  0.00000000000E+00  0.46728632056E+03  0.46728632056E+03  0.25500000920E-02 0.  1.
       -2   -1    0    0    0  501  0.00000000000E+00  0.00000000000E+00 -0.19105611553E+03  0.19105611555E+03  0.25500000920E-02 0. -1.
    10030    2    1    2    0    0  0.00000000000E+00  0.00000000000E+00  0.27623020503E+03  0.65834243611E+03  0.59758818346E+03 0.  0.
        1    1    3    3  502    0 -0.28872832522E+03 -0.76839166677E+02  0.13470066637E+03  0.32773857397E+03  0.50400001928E-02 0.  1.
       -1    1    3    3    0  502  0.28872832522E+03  0.76839166677E+02  0.14152953866E+03  0.33060386214E+03  0.50400001928E-02 0. -1.
</event>
<event>
 5   0  0.1206238E-01  0.5955682E+03  0.7818609E-02  0.9914644E-01
        2   -1    0    0  501    0  0.00000000000E+00  0.00000000000E+00  0.17154959527E+03  0.17154959529E+03  0.25500000920E-02 0. -1.
       -2   -1    0    0    0  501  0.00000000000E+00  0.00000000000E+00 -0.51690808449E+03  0.51690808450E+03  0.25500000920E-02 0.  1.
    10030    2    1    2    0    0  0.00000000000E+00  0.00000000000E+00 -0.34535848922E+03  0.68845767979E+03  0.59556820834E+03 0.  0.
        5    1    3    3  502    0 -0.15328036788E+03 -0.23458213221E+03 -0.56335607797E+02  0.28586612012E+03  0.46999998093E+01 0. -1.
       -5    1    3    3    0  502  0.15328036788E+03  0.23458213221E+03 -0.28902288142E+03  0.40259155967E+03  0.46999998093E+01 0.  1.
</event>
<event>
 5   0  0.1146468E-01  0.5659217E+03  0.7818609E-02  0.9978744E-01
        2   -1    0    0  501    0  0.00000000000E+00  0.00000000000E+00  0.11344070204E+04  0.11344070204E+04  0.25500000920E-02 0. -1.
       -2   -1    0    0    0  501  0.00000000000E+00  0.00000000000E+00 -0.70580353479E+02  0.70580353525E+02  0.25500000920E-02 0.  1.
    10030    2    1    2    0    0  0.00000000000E+00  0.00000000000E+00  0.10638266669E+04  0.12049873739E+04  0.56592172080E+03 0.  0.
        4    1    3    3  502    0 -0.60107051746E+02 -0.66711903214E+02 -0.39431246022E+02  0.98080435168E+02  0.12699999809E+01 0.  1.
       -4    1    3    3    0  502  0.60107051746E+02  0.66711903214E+02  0.11032579129E+04  0.11069069387E+04  0.12699999809E+01 0. -1.
</event>
<event>
 5   0  0.7424930E-02  0.6004632E+03  0.7818609E-02  0.9904445E-01
       -1   -1    0    0    0  501  0.00000000000E+00  0.00000000000E+00  0.14069581524E+03  0.14069581533E+03  0.50400001928E-02 0. -1.
        1   -1    0    0  501    0  0.00000000000E+00  0.00000000000E+00 -0.64066602228E+03  0.64066602230E+03  0.50400001928E-02 0.  1.
    10030    2    1    2    0    0  0.00000000000E+00  0.00000000000E+00 -0.49997020704E+03  0.78136183763E+03  0.60046324898E+03 0.  0.
        3    1    3    3  502    0 -0.18071444725E+03 -0.21446274937E+02 -0.56071609097E+03  0.58950843847E+03  0.10100000352E+00 0.  1.
       -3    1    3    3    0  502  0.18071444725E+03  0.21446274937E+02  0.60745883928E+02  0.19185339916E+03  0.10100000352E+00 0. -1.
</event>
<event>
 5   0  0.7424930E-02  0.6051804E+03  0.7818609E-02  0.9894716E-01
        1   -1    0    0  501    0  0.00000000000E+00  0.00000000000E+00  0.18827482656E+03  0.18827482663E+03  0.50400001928E-02 0.  1.
       -1   -1    0    0    0  501  0.00000000000E+00  0.00000000000E+00 -0.48631474557E+03  0.48631474560E+03  0.50400001928E-02 0. -1.
    10030    2    1    2    0    0  0.00000000000E+00  0.00000000000E+00 -0.29803991901E+03  0.67458957223E+03  0.60518038438E+03 0.  0.
        3    1    3    3  502    0  0.28806966913E+02 -0.21688914425E+03  0.83974804177E+02  0.23435554223E+03  0.10100000352E+00 0.  1.
       -3    1    3    3    0  502 -0.28806966913E+02  0.21688914425E+03 -0.38201472318E+03  0.44023403000E+03  0.10100000352E+00 0. -1.
</event>
<event>
 5   0  0.1175861E-01  0.6080067E+03  0.7818609E-02  0.9888933E-01
       -2   -1    0    0    0  501  0.00000000000E+00  0.00000000000E+00  0.18992948554E+03  0.18992948556E+03  0.25500000920E-02 0. -1.
        2   -1    0    0  501    0  0.00000000000E+00  0.00000000000E+00 -0.48659129661E+03  0.48659129661E+03  0.25500000920E-02 0.  1.
    10030    2    1    2    0    0  0.00000000000E+00  0.00000000000E+00 -0.29666181106E+03  0.67652078218E+03  0.60800669287E+03 0.  0.
        3    1    3    3  502    0  0.22621707969E+03 -0.19905467245E+03 -0.10353101303E+03  0.31861514501E+03  0.10100000352E+00 0.  1.
       -3    1    3    3    0  502 -0.22621707969E+03  0.19905467245E+03 -0.19313079803E+03  0.35790563717E+03  0.10100000352E+00 0. -1.
</event>
<event>
 5   0  0.1146468E-01  0.4263692E+03  0.7818609E-02  0.1035013E+00
       -2   -1    0    0    0  501  0.00000000000E+00  0.00000000000E+00  0.60830072195E+02  0.60830072249E+02  0.25500000920E-02 0.  1.
        2   -1    0    0  501    0  0.00000000000E+00  0.00000000000E+00 -0.74712525954E+03  0.74712525954E+03  0.25500000920E-02 0. -1.
    10030    2    1    2    0    0  0.00000000000E+00  0.00000000000E+00 -0.68629518734E+03  0.80795533179E+03  0.42636924608E+03 0.  0.
        4    1    3    3  502    0  0.53731686509E+02  0.14765911763E+03 -0.61615272811E+03  0.63587428507E+03  0.12699999809E+01 0. -1.
       -4    1    3    3    0  502 -0.53731686509E+02 -0.14765911763E+03 -0.70142459227E+02  0.17208104672E+03  0.12699999809E+01 0.  1.
</event>
<event>
 5   0  0.7123340E-02  0.6154701E+03  0.7818609E-02  0.9873820E-01
        1   -1    0    0  501    0  0.00000000000E+00  0.00000000000E+00  0.30821845252E+03  0.30821845256E+03  0.50400001928E-02 0. -1.
       -1   -1    0    0    0  501  0.00000000000E+00  0.00000000000E+00 -0.30725241599E+03  0.30725241603E+03  0.50400001928E-02 0.  1.
    10030    2    1    2    0    0  0.00000000000E+00  0.00000000000E+00  0.96603652827E+00  0.61547086860E+03  0.61547011045E+03 0.  0.
        2    1    3    3  502    0  0.28992789989E+03  0.80690883539E+02 -0.63795038407E+02  0.30763454414E+03  0.25500000920E-02 0.  1.
       -2    1    3    3    0  502 -0.28992789989E+03 -0.80690883539E+02  0.64761074935E+02  0.30783632445E+03  0.25500000920E-02 0. -1.
</event>
<event>
 5   0  0.7263385E-02  0.6021240E+03  0.7818609E-02  0.9901009E-01
       -1   -1    0    0    0  501  0.00000000000E+00  0.00000000000E+00  0.18256900731E+03  0.18256900738E+03  0.50400001928E-02 0. -1.
        1   -1    0    0  501    0  0.00000000000E+00  0.00000000000E+00 -0.49646059356E+03  0.49646059359E+03  0.50400001928E-02 0.  1.
    10030    2    1    2    0    0  0.00000000000E+00  0.00000000000E+00 -0.31389158625E+03  0.67902960097E+03  0.60212396654E+03 0.  0.
        1    1    3    3  502    0  0.22277560924E+03  0.10560405586E+03 -0.35180764057E+03  0.42959260314E+03  0.50400001928E-02 0.  1.
       -1    1    3    3    0  502 -0.22277560924E+03 -0.10560405586E+03  0.37916054325E+02  0.24943699783E+03  0.50400001928E-02 0. -1.
</event>
<event>
 5   0  0.7123340E-02  0.6189208E+03  0.7818609E-02  0.9866911E-01
       -1   -1    0    0    0  501  0.00000000000E+00  0.00000000000E+00  0.62169412546E+02  0.62169412750E+02  0.50400001928E-02 0.  1.
        1   -1    0    0  501    0  0.00000000000E+00  0.00000000000E+00 -0.15403993863E+04  0.15403993863E+04  0.50400001928E-02 0. -1.
    10030    2    1    2    0    0  0.00000000000E+00  0.00000000000E+00 -0.14782299738E+04  0.16025687991E+04  0.61892075455E+03 0.  0.
        2    1    3    3  502    0  0.75497540476E+02  0.81181238790E+02  0.89873801407E+01  0.11122520019E+03  0.25500000920E-02 0.  1.
       -2    1    3    3    0  502 -0.75497540476E+02 -0.81181238790E+02 -0.14872173539E+04  0.14913435989E+04  0.25500000920E-02 0. -1.
</event>
<event>
 5   0  0.4695625E-02  0.6153726E+03  0.7818609E-02  0.9874016E-01
       -3   -1    0    0    0  501  0.00000000000E+00  0.00000000000E+00  0.21675848065E+03  0.21675850418E+03  0.10100000352E+00 0. -1.
        3   -1    0    0  501    0  0.00000000000E+00  0.00000000000E+00 -0.43675733163E+03  0.43675734330E+03  0.10100000352E+00 0.  1.
    10030    2    1    2    0    0  0.00000000000E+00  0.00000000000E+00 -0.21999885097E+03  0.65351584749E+03  0.61537262572E+03 0.  0.
        1    1    3    3  502    0  0.95244736828E+02 -0.17951840217E+03  0.13534518479E+03  0.24416538592E+03  0.50400001928E-02 0. -1.
       -1    1    3    3    0  502 -0.95244736828E+02  0.17951840217E+03 -0.35534403576E+03  0.40935046157E+03  0.50400001928E-02 0.  1.
</event>
<event>
 5   0  0.1146468E-01  0.6076014E+03  0.7818609E-02  0.9889760E-01
        2   -1    0    0  501    0  0.00000000000E+00  0.00000000000E+00  0.17685847132E+04  0.17685847132E+04  0.25500000920E-02 0.  1.
       -2   -1    0    0    0  501  0.00000000000E+00  0.00000000000E+00 -0.52185725733E+02  0.52185725795E+02  0.25500000920E-02 0. -1.
    10030    2    1    2    0    0  0.00000000000E+00  0.00000000000E+00  0.17163989874E+04  0.18207704390E+04  0.60760143790E+03 0.  0.
        4    1    3    3  502    0  0.12891198994E+03  0.26137191604E+03  0.60112085402E+03  0.66804301784E+03  0.12699999809E+01 0. -1.
       -4    1    3    3    0  502 -0.12891198994E+03 -0.26137191604E+03  0.11152781334E+04  0.11527274211E+04  0.12699999809E+01 0.  1.
</event>
<event>
 5   0  0.1146468E-01  0.6199456E+03  0.7818609E-02  0.9864868E-01
        2   -1    0    0  501    0  0.00000000000E+00  0.00000000000E+00  0.25324317945E+03  0.25324317947E+03  0.25500000920E-02 0.  1.
       -2   -1    0    0    0  501  0.00000000000E+00  0.00000000000E+00 -0.37941052076E+03  0.37941052077E+03  0.25500000920E-02 0. -1.
    10030    2    1    2    0    0  0.00000000000E+00  0.00000000000E+00 -0.12616734131E+03  0.63265370024E+03  0.61994556730E+03 0.  0.
        4    1    3    3  502    0  0.19057130997E+03  0.24104403241E+03 -0.10468528925E+03  0.32462327771E+03  0.12699999809E+01 0.  1.
       -4    1    3    3    0  502 -0.19057130997E+03 -0.24104403241E+03 -0.21482052060E+02  0.30803042253E+03  0.12699999809E+01 0. -1.
</event>
<event>
 5   0  0.1206238E-01  0.6028934E+03  0.7818609E-02  0.9899421E-01
        2   -1    0    0  501    0  0.00000000000E+00  0.00000000000E+00  0.19003969191E+04  0.19003969191E+04  0.25500000920E-02 0.  1.
       -2   -1    0    0    0  501  0.00000000000E+00  0.00000000000E+00 -0.47816378524E+02  0.47816378592E+02  0.25500000920E-02 0. -1.
    10030    2    1    2    0    0  0.00000000000E+00  0.00000000000E+00  0.18525805406E+04  0.19482132977E+04  0.60289335210E+03 0.  0.
        5    1    3    3  502    0 -0.99615008611E+02 -0.19356859987E+03  0.15999198680E+04  0.16146695100E+04  0.46999998093E+01 0.  1.
       -5    1    3    3    0  502  0.99615008611E+02  0.19356859987E+03  0.25266067266E+03  0.33354378769E+03  0.46999998093E+01 0. -1.
</event>
<event>
 5   0  0.4695625E-02  0.6049512E+03  0.7818609E-02  0.9895187E-01
        3   -1    0    0  501    0  0.00000000000E+00  0.00000000000E+00  0.17347519492E+03  0.17347522432E+03  0.10100000352E+00 0. -1.
       -3   -1    0    0    0  501  0.00000000000E+00  0.00000000000E+00 -0.52740377935E+03  0.52740378902E+03  0.10100000352E+00 0.  1.
    10030    2    1    2    0    0  0.00000000000E+00  0.00000000000E+00 -0.35392858443E+03  0.70087901334E+03  0.60495119511E+03 0.  0.
        3    1    3    3  502    0  0.91958129686E+02  0.65814886273E+02 -0.50199168252E+03  0.51457123549E+03  0.10100000352E+00 0.  1.
       -3    1    3    3    0  502 -0.91958129686E+02 -0.65814886273E+02  0.14806309809E+03  0.18630777785E+03  0.10100000352E+00 0. -1.
</event>
<event>
 5   0  0.7424930E-02  0.6307836E+03  0.7818609E-02  0.9843521E-01
       -1   -1    0    0    0  501  0.00000000000E+00  0.00000000000E+00  0.35114938400E+03  0.35114938404E+03  0.50400001928E-02 0.  1.
        1   -1    0    0  501    0  0.00000000000E+00  0.00000000000E+00 -0.28327537633E+03  0.28327537638E+03  0.50400001928E-02 0. -1.
    10030    2    1    2    0    0  0.00000000000E+00  0.00000000000E+00  0.67874007669E+02  0.63442476042E+03  0.63078355695E+03 0.  0.
        3    1    3    3  502    0  0.41682664064E+02 -0.30953057802E+03  0.78068996336E+02  0.32193384662E+03  0.10100000352E+00 0. -1.
       -3    1    3    3    0  502 -0.41682664064E+02  0.30953057802E+03 -0.10194988667E+02  0.31249091380E+03  0.10100000352E+00 0.  1.
</event>
<event>
 5   0  0.7123340E-02  0.5946653E+03  0.7818609E-02  0.9916536E-01
       -1   -1    0    0    0  501  0.00000000000E+00  0.00000000000E+00  0.16777297915E+03  0.16777297923E+03  0.50400001928E-02 0. -1.
        1   -1    0    0  501    0  0.00000000000E+00  0.00000000000E+00 -0.52694241881E+03  0.52694241884E+03  0.50400001928E-02 0.  1.
    10030    2    1    2    0    0  0.00000000000E+00  0.00000000000E+00 -0.35916943966E+03  0.69471539806E+03  0.59466528225E+03 0.  0.
        2    1    3    3  502    0 -0.15054797719E+03  0.11437343033E+03  0.88503515150E+02  0.20875547227E+03  0.25500000920E-02 0. -1.
       -2    1    3    3    0  502  0.15054797719E+03 -0.11437343033E+03 -0.44767295481E+03  0.48595992579E+03  0.25500000920E-02 0.  1.
</event>
<event>
 5   0  0.1166419E-01  0.5843368E+03  0.7818609E-02  0.9938446E-01
        2   -1    0    0  501    0  0.00000000000E+00  0.00000000000E+00  0.19784452400E+04  0.19784452400E+04  0.25500000920E-02 0. -1.
       -2   -1    0    0    0  501  0.00000000000E+00  0.00000000000E+00 -0.43146192522E+02  0.43146192597E+02  0.25500000920E-02 0.  1.
    10030    2    1    2    0    0  0.00000000000E+00  0.00000000000E+00  0.19352990475E+04  0.20215914326E+04  0.58433681828E+03 0.  0.
        1    1    3    3  502    0 -0.90917419411E+02 -0.27449701094E+03  0.11122851058E+04  0.11492574746E+04  0.50400001928E-02 0. -1.
       -1    1    3    3    0  502  0.90917419411E+02  0.27449701094E+03  0.82301394169E+03  0.87233395807E+03  0.50400001928E-02 0.  1.
</event>
<event>
 5   0  0.7123340E-02  0.6049209E+03  0.7818609E-02  0.9895249E-01
        1   -1    0    0  501    0  0.00000000000E+00  0.00000000000E+00  0.69587231856E+03  0.69587231858E+03  0.50400001928E-02 0. -1.
       -1   -1    0    0    0  501  0.00000000000E+00  0.00000000000E+00 -0.13146424557E+03  0.13146424567E+03  0.50400001928E-02 0.  1.
    10030    2    1    2    0    0  0.00000000000E+00  0.00000000000E+00  0.56440807299E+03  0.82733656424E+03  0.60492091853E+03 0.  0.
        2    1    3    3  502    0 -0.15449468866E+03  0.22091614409E+03  0.94628823218E+02  0.28570468273E+03  0.25500000920E-02 0.  1.
       -2    1    3    3    0  502  0.15449468866E+03 -0.22091614409E+03  0.46977924977E+03  0.54163188151E+03  0.25500000920E-02 0. -1.
</event>
<event>
 5   0  0.1166419E-01  0.5998164E+03  0.7818609E-02  0.9905787E-01
        2   -1    0    0  501    0  0.00000000000E+00  0.00000000000E+00  0.45923682103E+03  0.45923682103E+03  0.25500000920E-02 0.  1.
       -2   -1    0    0    0  501  0.00000000000E+00  0.00000000000E+00 -0.19585739037E+03  0.19585739039E+03  0.25500000920E-02 0. -1.
    10030    2    1    2    0    0  0.00000000000E+00  0.00000000000E+00  0.26337943065E+03  0.65509421142E+03  0.59981638969E+03 0.  0.
        1    1    3    3  502    0  0.10522495472E+03 -0.65697153586E+02  0.42990386266E+03  0.44744355872E+03  0.50400001928E-02 0.  1.
       -1    1    3    3    0  502 -0.10522495472E+03  0.65697153586E+02 -0.16652443201E+03  0.20765065270E+03  0.50400001928E-02 0. -1.
</event>
<event>
 5   0  0.4695625E-02  0.5975601E+03  0.7818609E-02  0.9910481E-01
       -3   -1    0    0    0  501  0.00000000000E+00  0.00000000000E+00  0.12326094873E+03  0.12326099011E+03  0.10100000352E+00 0. -1.
        3   -1    0    0  501    0  0.00000000000E+00  0.00000000000E+00 -0.72423173977E+03  0.72423174682E+03  0.10100000352E+00 0.  1.
    10030    2    1    2    0    0  0.00000000000E+00  0.00000000000E+00 -0.60097079104E+03  0.84749273693E+03  0.59756007853E+03 0.  0.
        4    1    3    3  502    0  0.16467973924E+03  0.20732023052E+02  0.51855191370E+02  0.17389596622E+03  0.12699999809E+01 0. -1.
       -4    1    3    3    0  502 -0.16467973924E+03 -0.20732023052E+02 -0.65282598241E+03  0.67359677071E+03  0.12699999809E+01 0.  1.
</event>
<event>
 5   0  0.1219020E-01  0.5860375E+03  0.7818609E-02  0.9934805E-01
       -2   -1    0    0    0  501  0.00000000000E+00  0.00000000000E+00  0.25415465908E+03  0.25415465909E+03  0.25500000920E-02 0. -1.
        2   -1    0    0  501    0  0.00000000000E+00  0.00000000000E+00 -0.33782571985E+03  0.33782571985E+03  0.25500000920E-02 0.  1.
    10030    2    1    2    0    0  0.00000000000E+00  0.00000000000E+00 -0.83671060766E+02  0.59198037895E+03  0.58603747546E+03 0.  0.
        2    1    3    3  502    0 -0.10755853901E+02 -0.11452219201E+03  0.23039500398E+03  0.25751287098E+03  0.25500000920E-02 0. -1.
       -2    1    3    3    0  502  0.10755853901E+02  0.11452219201E+03 -0.31406606474E+03  0.33446750797E+03  0.25500000920E-02 0.  1.
</event>
<event>
 5   0  0.7266519E-02  0.5925712E+03  0.7818609E-02  0.9920939E-01
        1   -1    0    0  501    0  0.00000000000E+00  0.00000000000E+00  0.37994250952E+03  0.37994250955E+03  0.50400001928E-02 0.  1.
       -1   -1    0    0    0  501  0.00000000000E+00  0.00000000000E+00 -0.23104854813E+03  0.23104854818E+03  0.50400001928E-02 0. -1.
    10030    2    1    2    0    0  0.00000000000E+00  0.00000000000E+00  0.14889396139E+03  0.61099105773E+03  0.59257122854E+03 0.  0.
        4    1    3    3  502    0 -0.26711082288E+03  0.11474403752E+03  0.15493043896E+02  0.29112889440E+03  0.12699999809E+01 0.  1.
       -4    1    3    3    0  502  0.26711082288E+03 -0.11474403752E+03  0.13340091750E+03  0.31986216334E+03  0.12699999809E+01 0. -1.
</event>
<event>
 5   0  0.1146468E-01  0.5906524E+03  0.7818609E-02  0.9924991E-01
        2   -1    0    0  501    0  0.00000000000E+00  0.00000000000E+00  0.13944655758E+03  0.13944655760E+03  0.25500000920E-02 0.  1.
       -2   -1    0    0    0  501  0.00000000000E+00  0.00000000000E+00 -0.62545505244E+03  0.62545505245E+03  0.25500000920E-02 0. -1.
    10030    2    1    2    0    0  0.00000000000E+00  0.00000000000E+00 -0.48600849487E+03  0.76490161005E+03  0.59065236474E+03 0.  0.
        4    1    3    3  502    0  0.16802790489E+03  0.10994005789E+03 -0.52344450767E+03  0.56063888436E+03  0.12699999809E+01 0. -1.
       -4    1    3    3    0  502 -0.16802790489E+03 -0.10994005789E+03  0.37436012800E+02  0.20426272569E+03  0.12699999809E+01 0.  1.
</event>
<event>
 5   0  0.7424930E-02  0.5985572E+03  0.7818609E-02  0.9908404E-01
        1   -1    0    0  501    0  0.00000000000E+00  0.00000000000E+00  0.25724742752E+03  0.25724742756E+03  0.50400001928E-02 0.  1.
       -1   -1    0    0    0  501  0.00000000000E+00  0.00000000000E+00 -0.34817711841E+03  0.34817711845E+03  0.50400001928E-02 0. -1.
    10030    2    1    2    0    0  0.00000000000E+00  0.00000000000E+00 -0.90929690896E+02  0.60542454601E+03  0.59855715870E+03 0.  0.
        3    1    3    3  502    0  0.40523647881E+02 -0.14316700206E+03 -0.30811447534E+03  0.34216004535E+03  0.10100000352E+00 0. -1.
       -3    1    3    3    0  502 -0.40523647881E+02  0.14316700206E+03  0.21718478445E+03  0.26326450067E+03  0.10100000352E+00 0.  1.
</event>
<event>
 5   0  0.1206238E-01  0.6335995E+03  0.7818609E-02  0.9838050E-01
       -2   -1    0    0    0  501  0.00000000000E+00  0.00000000000E+00  0.34827837777E+03  0.34827837778E+03  0.25500000920E-02 0.  1.
        2   -1    0    0  501    0  0.00000000000E+00  0.00000000000E+00 -0.28816626343E+03  0.28816626344E+03  0.25500000920E-02 0. -1.
    10030    2    1    2    0    0  0.00000000000E+00  0.00000000000E+00  0.60112114342E+02  0.63644464122E+03  0.63359949104E+03 0.  0.
        5    1    3    3  502    0  0.25088420465E+03  0.66516063332E+02 -0.15234325160E+03  0.30099472940E+03  0.46999998093E+01 0. -1.
       -5    1    3    3    0  502 -0.25088420465E+03 -0.66516063332E+02  0.21245536594E+03  0.33544991182E+03  0.46999998093E+01 0.  1.
</event>
<event>
 5   0  0.1206238E-01  0.5393378E+03  0.7818609E-02  0.1003992E+00
       -2   -1    0    0    0  501  0.00000000000E+00  0.00000000000E+00  0.16623362552E+03  0.16623362554E+03  0.25500000920E-02 0. -1.
        2   -1    0    0  501    0  0.00000000000E+00  0.00000000000E+00 -0.43746458112E+03  0.43746458112E+03  0.25500000920E-02 0.  1.
    10030    2    1    2    0    0  0.00000000000E+00  0.00000000000E+00 -0.27123095559E+03  0.60369820667E+03  0.53933782870E+03 0.  0.
        5    1    3    3  502    0  0.12357261440E+03 -0.15058073019E+03  0.73056647123E+02  0.20809639839E+03  0.46999998093E+01 0. -1.
       -5    1    3    3    0  502 -0.12357261440E+03  0.15058073019E+03 -0.34428760271E+03  0.39560180828E+03  0.46999998093E+01 0.  1.
</event>
<event>
 5   0  0.1166419E-01  0.6056505E+03  0.7818609E-02  0.9893752E-01
       -2   -1    0    0    0  501  0.00000000000E+00  0.00000000000E+00  0.57263868056E+02  0.57263868113E+02  0.25500000920E-02 0. -1.
        2   -1    0    0  501    0  0.00000000000E+00  0.00000000000E+00 -0.16014135955E+04  0.16014135955E+04  0.25500000920E-02 0.  1.
    10030    2    1    2    0    0  0.00000000000E+00  0.00000000000E+00 -0.15441497275E+04  0.16586774636E+04  0.60565051601E+03 0.  0.
        1    1    3    3  502    0  0.88309957904E+01  0.11985559647E+03 -0.15333061054E+04  0.15380087657E+04  0.50400001928E-02 0.  1.
       -1    1    3    3    0  502 -0.88309957904E+01 -0.11985559647E+03 -0.10843622040E+02  0.12066869791E+03  0.50400001928E-02 0. -1.
</event>
<event>
 5   0  0.7123340E-02  0.5944466E+03  0.7818609E-02  0.9916995E-01
       -1   -1    0    0    0  501  0.00000000000E+00  0.00000000000E+00  0.26104427514E+03  0.26104427519E+03  0.50400001928E-02 0.  1.
        1   -1    0    0  501    0  0.00000000000E+00  0.00000000000E+00 -0.33841649992E+03  0.33841649996E+03  0.50400001928E-02 0. -1.
    10030    2    1    2    0    0  0.00000000000E+00  0.00000000000E+00 -0.77372224784E+02  0.59946077515E+03  0.59444659960E+03 0.  0.
        2    1    3    3  502    0  0.20986857921E+03  0.21016295839E+03 -0.50113079404E+02  0.30120526282E+03  0.25500000920E-02 0. -1.
       -2    1    3    3    0  502 -0.20986857921E+03 -0.21016295839E+03 -0.27259145380E+02  0.29825551232E+03  0.25500000920E-02 0.  1.
</event>
<event>
 5   0  0.7424930E-02  0.5973722E+03  0.7818609E-02  0.9910873E-01
        1   -1    0    0  501    0  0.00000000000E+00  0.00000000000E+00  0.30323278054E+03  0.30323278058E+03  0.50400001928E-02 0. -1.
       -1   -1    0    0    0  501  0.00000000000E+00  0.00000000000E+00 -0.29420761961E+03  0.29420761966E+03  0.50400001928E-02 0.  1.
    10030    2    1    2    0    0  0.00000000000E+00  0.00000000000E+00  0.90251609271E+01  0.59744040024E+03  0.59737222760E+03 0.  0.
        3    1    3    3  502    0  0.34539277112E+02  0.23067985243E+02  0.30033053189E+03  0.30318893812E+03  0.10100000352E+00 0. -1.
       -3    1    3    3    0  502 -0.34539277112E+02 -0.23067985243E+02 -0.29130537097E+03  0.29425146212E+03  0.10100000352E+00 0.  1.
</event>
<event>
 5   0  0.7263385E-02  0.5249379E+03  0.7818609E-02  0.1007467E+00
       -1   -1    0    0    0  501  0.00000000000E+00  0.00000000000E+00  0.57417255409E+02  0.57417255631E+02  0.50400001928E-02 0. -1.
        1   -1    0    0  501    0  0.00000000000E+00  0.00000000000E+00 -0.11998127265E+04  0.11998127265E+04  0.50400001928E-02 0.  1.
    10030    2    1    2    0    0  0.00000000000E+00  0.00000000000E+00 -0.11423954711E+04  0.12572299821E+04  0.52493791597E+03 0.  0.
        1    1    3    3  502    0 -0.23219190659E+03 -0.88012445158E+02 -0.36754210838E+03  0.44356112707E+03  0.50400001928E-02 0. -1.
       -1    1    3    3    0  502  0.23219190659E+03  0.88012445158E+02 -0.77485336268E+03  0.81366885505E+03  0.50400001928E-02 0.  1.
</event>
<event>
 5   0  0.1146468E-01  0.5942357E+03  0.7818609E-02  0.9917438E-01
       -2   -1    0    0    0  501  0.00000000000E+00  0.00000000000E+00  0.19695165057E+03  0.19695165058E+03  0.25500000920E-02 0. -1.
        2   -1    0    0  501    0  0.00000000000E+00  0.00000000000E+00 -0.44822689329E+03  0.44822689330E+03  0.25500000920E-02 0.  1.
    10030    2    1    2    0    0  0.00000000000E+00  0.00000000000E+00 -0.25127524272E+03  0.64517854388E+03  0.59423573258E+03 0.  0.
        4    1    3    3  502    0  0.27989035433E+03  0.72204036091E+02 -0.51003137156E+02  0.29352166219E+03  0.12699999809E+01 0. -1.
       -4    1    3    3    0  502 -0.27989035433E+03 -0.72204036091E+02 -0.20027210557E+03  0.35165688169E+03  0.12699999809E+01 0.  1.
</event>
<event>
 5   0  0.7221069E-02  0.5892396E+03  0.7818609E-02  0.9927985E-01
        1   -1    0    0  501    0  0.00000000000E+00  0.00000000000E+00  0.19960300703E+03  0.19960300709E+03  0.50400001928E-02 0. -1.
       -1   -1    0    0    0  501  0.00000000000E+00  0.00000000000E+00 -0.43486726108E+03  0.43486726111E+03  0.50400001928E-02 0.  1.
    10030    2    1    2    0    0  0.00000000000E+00  0.00000000000E+00 -0.23526425405E+03  0.63447026820E+03  0.58923955400E+03 0.  0.
        5    1    3    3  502    0  0.21341729978E+03  0.28107856467E+02  0.98905928710E+02  0.23694190886E+03  0.46999998093E+01 0. -1.
       -5    1    3    3    0  502 -0.21341729978E+03 -0.28107856467E+02 -0.33417018276E+03  0.39752835935E+03  0.46999998093E+01 0.  1.
</event>
<event>
 5   0  0.7266519E-02  0.5886435E+03  0.7818609E-02  0.9929251E-01
       -1   -1    0    0    0  501  0.00000000000E+00  0.00000000000E+00  0.16664943730E+03  0.16664943738E+03  0.50400001928E-02 0. -1.
        1   -1    0    0  501    0  0.00000000000E+00  0.00000000000E+00 -0.51980545328E+03  0.51980545331E+03  0.50400001928E-02 0.  1.
    10030    2    1    2    0    0  0.00000000000E+00  0.00000000000E+00 -0.35315601598E+03  0.68645489069E+03  0.58864347896E+03 0.  0.
        4    1    3    3  502    0  0.99996199071E+02  0.19493146425E+02 -0.49858387645E+03  0.50888772568E+03  0.12699999809E+01 0.  1.
       -4    1    3    3    0  502 -0.99996199071E+02 -0.19493146425E+02  0.14542786048E+03  0.17756716501E+03  0.12699999809E+01 0. -1.
</event>
<event>
 5   0  0.7123340E-02  0.5839642E+03  0.7818609E-02  0.9939245E-01
        1   -1    0    0  501    0  0.00000000000E+00  0.00000000000E+00  0.11734531319E+04  0.11734531319E+04  0.50400001928E-02 0.  1.
       -1   -1    0    0    0  501  0.00000000000E+00  0.00000000000E+00 -0.72651864146E+02  0.72651864320E+02  0.50400001928E-02 0. -1.
    10030    2    1    2    0    0  0.00000000000E+00  0.00000000000E+00  0.11008012678E+04  0.12461049963E+04  0.58396423739E+03 0.  0.
        2    1    3    3  502    0 -0.19841716492E+02 -0.14148194847E+03  0.70264443295E+01  0.14303917779E+03  0.25500000920E-02 0. -1.
       -2    1    3    3    0  502  0.19841716492E+02  0.14148194847E+03  0.10937748235E+04  0.11030658185E+04  0.25500000920E-02 0.  1.
</event>
<event>
 5   0  0.1175861E-01  0.5975293E+03  0.7818609E-02  0.9910545E-01
       -2   -1    0    0    0  501  0.00000000000E+00  0.00000000000E+00  0.19890725702E+03  0.19890725703E+03  0.25500000920E-02 0.  1.
        2   -1    0    0  501    0  0.00000000000E+00  0.00000000000E+00 -0.44875349313E+03  0.44875349314E+03  0.25500000920E-02 0. -1.
    10030    2    1    2    0    0  0.00000000000E+00  0.00000000000E+00 -0.24984623612E+03  0.64766075017E+03  0.59752933452E+03 0.  0.
        3    1    3    3  502    0 -0.31885187648E+01  0.10996528632E+03 -0.42600056481E+03  0.43997616103E+03  0.10100000352E+00 0. -1.
       -3    1    3    3    0  502  0.31885187648E+01 -0.10996528632E+03  0.17615432870E+03  0.20768458914E+03  0.10100000352E+00 0.  1.
</event>
<event>
 5   0  0.1146468E-01  0.6016283E+03  0.7818609E-02  0.9902034E-01
       -2   -1    0    0    0  501  0.00000000000E+00  0.00000000000E+00  0.21029242814E+03  0.21029242815E+03  0.25500000920E-02 0.  1.
        2   -1    0    0  501    0  0.00000000000E+00  0.00000000000E+00 -0.43030155530E+03  0.43030155530E+03  0.25500000920E-02 0. -1.
    10030    2    1    2    0    0  0.00000000000E+00  0.00000000000E+00 -0.22000912716E+03  0.64059398346E+03  0.60162832015E+03 0.  0.
        4    1    3    3  502    0 -0.12600925334E+03 -0.67405634785E+02 -0.39184759380E+03  0.41709471490E+03  0.12699999809E+01 0. -1.
       -4    1    3    3    0  502  0.12600925334E+03  0.67405634785E+02  0.17183846664E+03  0.22349926856E+03  0.12699999809E+01 0.  1.
</event>
<event>
 5   0  0.1166419E-01  0.5776767E+03  0.7818609E-02  0.9952834E-01
       -2   -1    0    0    0  501  0.00000000000E+00  0.00000000000E+00  0.64833221045E+02  0.64833221095E+02  0.25500000920E-02 0. -1.
        2   -1    0    0  501    0  0.00000000000E+00  0.00000000000E+00 -0.12868032428E+04  0.12868032428E+04  0.25500000920E-02 0.  1.
    10030    2    1    2    0    0  0.00000000000E+00  0.00000000000E+00 -0.12219700217E+04  0.13516364639E+04  0.57767672314E+03 0.  0.
        1    1    3    3  502    0 -0.13158233900E+03  0.25500491413E+03 -0.53387227404E+03  0.60610314566E+03  0.50400001928E-02 0. -1.
       -1    1    3    3    0  502  0.13158233900E+03 -0.25500491413E+03 -0.68809774768E+03  0.74553331820E+03  0.50400001928E-02 0.  1.
</event>
<event>
 5   0  0.1175861E-01  0.5986437E+03  0.7818609E-02  0.9908224E-01
        2   -1    0    0  501    0  0.00000000000E+00  0.00000000000E+00  0.22870631810E+03  0.22870631812E+03  0.25500000920E-02 0.  1.
       -2   -1    0    0    0  501  0.00000000000E+00  0.00000000000E+00 -0.39174064561E+03  0.39174064561E+03  0.25500000920E-02 0. -1.
    10030    2    1    2    0    0  0.00000000000E+00  0.00000000000E+00 -0.16303432750E+03  0.62044696373E+03  0.59864366936E+03 0.  0.
        3    1    3    3  502    0 -0.99143536393E+01 -0.21543768810E+03 -0.29663849914E+03  0.36675073447E+03  0.10100000352E+00 0. -1.
       -3    1    3    3    0  502  0.99143536393E+01  0.21543768810E+03  0.13360417164E+03  0.25369622926E+03  0.10100000352E+00 0.  1.
</event>
<event>
 5   0  0.7221069E-02  0.6017431E+03  0.7818609E-02  0.9901796E-01
       -1   -1    0    0    0  501  0.00000000000E+00  0.00000000000E+00  0.10926131023E+03  0.10926131035E+03  0.50400001928E-02 0. -1.
        1   -1    0    0  501    0  0.00000000000E+00  0.00000000000E+00 -0.82850647891E+03  0.82850647892E+03  0.50400001928E-02 0.  1.
    10030    2    1    2    0    0  0.00000000000E+00  0.00000000000E+00 -0.71924516867E+03  0.93776778927E+03  0.60174314615E+03 0.  0.
        5    1    3    3  502    0 -0.28905534844E+03 -0.83143007150E+02 -0.35029035097E+03  0.46172629780E+03  0.46999998093E+01 0.  1.
       -5    1    3    3    0  502  0.28905534844E+03  0.83143007150E+02 -0.36895481770E+03  0.47604149147E+03  0.46999998093E+01 0. -1.
</event>
<event>
 5   0  0.7266519E-02  0.6199842E+03  0.7818609E-02  0.9864791E-01
       -1   -1    0    0    0  501  0.00000000000E+00  0.00000000000E+00  0.13709988090E+03  0.13709988100E+03  0.50400001928E-02 0. -1.
        1   -1    0    0  501    0  0.00000000000E+00  0.00000000000E+00 -0.70091320216E+03  0.70091320218E+03  0.50400001928E-02 0.  1.
    10030    2    1    2    0    0  0.00000000000E+00  0.00000000000E+00 -0.56381332126E+03  0.83801308318E+03  0.61998424685E+03 0.  0.
        4    1    3    3  502    0 -0.21918607070E+03  0.19544873223E+03 -0.14775221061E+03  0.32874772875E+03  0.12699999809E+01 0. -1.
       -4    1    3    3    0  502  0.21918607070E+03 -0.19544873223E+03 -0.41606111065E+03  0.50926535442E+03  0.12699999809E+01 0.  1.
</event>
<event>
 5   0  0.7221069E-02  0.5969114E+03  0.7818609E-02  0.9911835E-01
        1   -1    0    0  501    0  0.00000000000E+00  0.00000000000E+00  0.95256483796E+03  0.95256483797E+03  0.50400001928E-02 0.  1.
       -1   -1    0    0    0  501  0.00000000000E+00  0.00000000000E+00 -0.93511540645E+02  0.93511540781E+02  0.50400001928E-02 0. -1.
    10030    2    1    2    0    0  0.00000000000E+00  0.00000000000E+00  0.85905329731E+03  0.10460763788E+04  0.59691140260E+03 0.  0.
        5    1    3    3  502    0  0.81094823480E+01 -0.47534602778E+02 -0.86573781787E+02  0.99208930325E+02  0.46999998093E+01 0. -1.
       -5    1    3    3    0  502 -0.81094823480E+01  0.47534602778E+02  0.94562707910E+03  0.94686744843E+03  0.46999998093E+01 0.  1.
</event>
<event>
 5   0  0.7263385E-02  0.5910508E+03  0.7818609E-02  0.9924149E-01
        1   -1    0    0  501    0  0.00000000000E+00  0.00000000000E+00  0.51697414345E+03  0.51697414347E+03  0.50400001928E-02 0.  1.
       -1   -1    0    0    0  501  0.00000000000E+00  0.00000000000E+00 -0.16893545851E+03  0.16893545858E+03  0.50400001928E-02 0. -1.
    10030    2    1    2    0    0  0.00000000000E+00  0.00000000000E+00  0.34803868494E+03  0.68590960206E+03  0.59105080659E+03 0.  0.
        1    1    3    3  502    0  0.19264623800E+02 -0.78312167111E+02  0.50395705933E+03  0.51036912027E+03  0.50400001928E-02 0.  1.
       -1    1    3    3    0  502 -0.19264623800E+02  0.78312167111E+02 -0.15591837439E+03  0.17554048179E+03  0.50400001928E-02 0. -1.
</event>
<event>
 5   0  0.1146468E-01  0.5981543E+03  0.7818609E-02  0.9909243E-01
        2   -1    0    0  501    0  0.00000000000E+00  0.00000000000E+00  0.21163712219E+04  0.21163712219E+04  0.25500000920E-02 0.  1.
       -2   -1    0    0    0  501  0.00000000000E+00  0.00000000000E+00 -0.42264393677E+02  0.42264393754E+02  0.25500000920E-02 0. -1.
    10030    2    1    2    0    0  0.00000000000E+00  0.00000000000E+00  0.20741068282E+04  0.21586356156E+04  0.59815431645E+03 0.  0.
        4    1    3    3  502    0 -0.65966394786E+02  0.36139527042E+01  0.20896989540E+04  0.20907433982E+04  0.12699999809E+01 0.  1.
       -4    1    3    3    0  502  0.65966394786E+02 -0.36139527042E+01 -0.15592125829E+02  0.67892217397E+02  0.12699999809E+01 0. -1.
</event>
<event>
 5   0  0.1166419E-01  0.6155544E+03  0.7818609E-02  0.9873651E-01
       -2   -1    0    0    0  501  0.00000000000E+00  0.00000000000E+00  0.12355030509E+03  0.12355030511E+03  0.25500000920E-02 0.  1.
        2   -1    0    0  501    0  0.00000000000E+00  0.00000000000E+00 -0.76670646726E+03  0.76670646726E+03  0.25500000920E-02 0. -1.
    10030    2    1    2    0    0  0.00000000000E+00  0.00000000000E+00 -0.64315616217E+03  0.89025677238E+03  0.61555444262E+03 0.  0.
        1    1    3    3  502    0  0.22444895805E+03 -0.20527945166E+03 -0.38956545049E+03  0.49424510952E+03  0.50400001928E-02 0.  1.
       -1    1    3    3    0  502 -0.22444895805E+03  0.20527945166E+03 -0.25359071168E+03  0.39601166286E+03  0.50400001928E-02 0. -1.
</event>
<event>
 5   0  0.1219020E-01  0.5997425E+03  0.7818609E-02  0.9905940E-01
        2   -1    0    0  501    0  0.00000000000E+00  0.00000000000E+00  0.14432492827E+04  0.14432492827E+04  0.25500000920E-02 0. -1.
       -2   -1    0    0    0  501  0.00000000000E+00  0.00000000000E+00 -0.62305784122E+02  0.62305784174E+02  0.25500000920E-02 0.  1.
    10030    2    1    2    0    0  0.00000000000E+00  0.00000000000E+00  0.13809434986E+04  0.15055550669E+04  0.59974253903E+03 0.  0.
        2    1    3    3  502    0  0.23035608435E+03 -0.19191826526E+03  0.70332901569E+03  0.76457063143E+03  0.25500000920E-02 0.  1.
       -2    1    3    3    0  502 -0.23035608435E+03  0.19191826526E+03  0.67761448286E+03  0.74098443542E+03  0.25500000920E-02 0. -1.
</event>
<event>
 5   0  0.7424930E-02  0.6117694E+03  0.7818609E-02  0.9881285E-01
       -1   -1    0    0    0  501  0.00000000000E+00  0.00000000000E+00  0.59695124480E+02  0.59695124693E+02  0.50400001928E-02 0. -1.
        1   -1    0    0  501    0  0.00000000000E+00  0.00000000000E+00 -0.15673885146E+04  0.15673885146E+04  0.50400001928E-02 0.  1.
    10030    2    1    2    0    0  0.00000000000E+00  0.00000000000E+00 -0.15076933901E+04  0.16270836393E+04  0.61176940972E+03 0.  0.
        3    1    3    3  502    0  0.17807488633E+03 -0.18036487351E+03 -0.12092838593E+04  0.12355604458E+04  0.10100000352E+00 0.  1.
       -3    1    3    3    0  502 -0.17807488633E+03  0.18036487351E+03 -0.29840953082E+03  0.39152319347E+03  0.10100000352E+00 0. -1.
</event>
<event>
 5   0  0.1175861E-01  0.6013476E+03  0.7818609E-02  0.9902614E-01
       -2   -1    0    0    0  501  0.00000000000E+00  0.00000000000E+00  0.16318050758E+03  0.16318050760E+03  0.25500000920E-02 0.  1.
        2   -1    0    0  501    0  0.00000000000E+00  0.00000000000E+00 -0.55401673917E+03  0.55401673918E+03  0.25500000920E-02 0. -1.
    10030    2    1    2    0    0  0.00000000000E+00  0.00000000000E+00 -0.39083623160E+03  0.71719724678E+03  0.60134759570E+03 0.  0.
        3    1    3    3  502    0  0.70585527354E+02 -0.21071272840E+02 -0.54308820446E+03  0.54806124040E+03  0.10100000352E+00 0. -1.
       -3    1    3    3    0  502 -0.70585527354E+02  0.21071272840E+02  0.15225197286E+03  0.16913600637E+03  0.10100000352E+00 0.  1.
</event>
<event>
 5   0  0.1206238E-01  0.5766523E+03  0.7818609E-02  0.9955065E-01
        2   -1    0    0  501    0  0.00000000000E+00  0.00000000000E+00  0.21319392552E+03  0.21319392554E+03  0.25500000920E-02 0.  1.
       -2   -1    0    0    0  501  0.00000000000E+00  0.00000000000E+00 -0.38993595723E+03  0.38993595724E+03  0.25500000920E-02 0. -1.
    10030    2    1    2    0    0  0.00000000000E+00  0.00000000000E+00 -0.17674203171E+03  0.60312988277E+03  0.57665233002E+03 0.  0.
        5    1    3    3  502    0 -0.96173255677E+02 -0.13673717076E+02  0.19552075612E+03  0.21837289603E+03  0.46999998093E+01 0.  1.
       -5    1    3    3    0  502  0.96173255677E+02  0.13673717076E+02 -0.37226278783E+03  0.38475698674E+03  0.46999998093E+01 0. -1.
</event>
<event>
 5   0  0.1166419E-01  0.6042651E+03  0.7818609E-02  0.9896597E-01
        2   -1    0    0  501    0  0.00000000000E+00  0.00000000000E+00  0.47309476521E+03  0.47309476522E+03  0.25500000920E-02 0. -1.
       -2   -1    0    0    0  501  0.00000000000E+00  0.00000000000E+00 -0.19295093311E+03  0.19295093312E+03  0.25500000920E-02 0.  1.
    10030    2    1    2    0    0  0.00000000000E+00  0.00000000000E+00  0.28014383210E+03  0.66604569834E+03  0.60426509548E+03 0.  0.
        1    1    3    3  502    0 -0.18591981610E+03 -0.45397577153E+02 -0.11761908285E+03  0.22463607614E+03  0.50400001928E-02 0.  1.
       -1    1    3    3    0  502  0.18591981610E+03  0.45397577153E+02  0.39776291496E+03  0.44140962220E+03  0.50400001928E-02 0. -1.
</event>
<event>
 5   0  0.7424930E-02  0.5873498E+03  0.7818609E-02  0.9932004E-01
        1   -1    0    0  501    0  0.00000000000E+00  0.00000000000E+00  0.46664640896E+03  0.46664640899E+03  0.50400001928E-02 0. -1.
       -1   -1    0    0    0  501  0.00000000000E+00  0.00000000000E+00 -0.18481862363E+03  0.18481862370E+03  0.50400001928E-02 0.  1.
    10030    2    1    2    0    0  0.00000000000E+00  0.00000000000E+00  0.28182778533E+03  0.65146503268E+03  0.58734980057E+03 0.  0.
        3    1    3    3  502    0 -0.11162106607E+03 -0.13418793578E+03  0.40287131398E+03  0.43905691013E+03  0.10100000352E+00 0. -1.
       -3    1    3    3    0  502  0.11162106607E+03  0.13418793578E+03 -0.12104352865E+03  0.21240812256E+03  0.10100000352E+00 0.  1.
</event>
<event>
 5   0  0.7266519E-02  0.5980954E+03  0.7818609E-02  0.9909365E-01
       -1   -1    0    0    0  501  0.00000000000E+00  0.00000000000E+00  0.56411441144E+02  0.56411441369E+02  0.50400001928E-02 0.  1.
        1   -1    0    0  501    0  0.00000000000E+00  0.00000000000E+00 -0.15853082383E+04  0.15853082383E+04  0.50400001928E-02 0. -1.
    10030    2    1    2    0    0  0.00000000000E+00  0.00000000000E+00 -0.15288967971E+04  0.16417196797E+04  0.59809538560E+03 0.  0.
        4    1    3    3  502    0  0.18863607513E+03  0.59392853995E+02 -0.14872566694E+03  0.24745103931E+03  0.12699999809E+01 0.  1.
       -4    1    3    3    0  502 -0.18863607513E+03 -0.59392853995E+02 -0.13801711302E+04  0.13942686403E+04  0.12699999809E+01 0. -1.
</event>
<event>
 5   0  0.7424930E-02  0.5852904E+03  0.7818609E-02  0.9936403E-01
        1   -1    0    0  501    0  0.00000000000E+00  0.00000000000E+00  0.27664229160E+03  0.27664229164E+03  0.50400001928E-02 0.  1.
       -1   -1    0    0    0  501  0.00000000000E+00  0.00000000000E+00 -0.30957377600E+03  0.30957377604E+03  0.50400001928E-02 0. -1.
    10030    2    1    2    0    0  0.00000000000E+00  0.00000000000E+00 -0.32931484402E+02  0.58621606768E+03  0.58529035132E+03 0.  0.
        3    1    3    3  502    0  0.49656098324E+01 -0.17885826370E+03 -0.24840543576E+03  0.30613756138E+03  0.10100000352E+00 0. -1.
       -3    1    3    3    0  502 -0.49656098324E+01  0.17885826370E+03  0.21547395136E+03  0.28007850630E+03  0.10100000352E+00 0.  1.
</event>
<event>
 5   0  0.1146468E-01  0.5283134E+03  0.7818609E-02  0.1006642E+00
       -2   -1    0    0    0  501  0.00000000000E+00  0.00000000000E+00  0.79408608890E+02  0.79408608931E+02  0.25500000920E-02 0.  1.
        2   -1    0    0  501    0  0.00000000000E+00  0.00000000000E+00 -0.87873058377E+03  0.87873058377E+03  0.25500000920E-02 0. -1.
    10030    2    1    2    0    0  0.00000000000E+00  0.00000000000E+00 -0.79932197488E+03  0.95813919270E+03  0.52831344207E+03 0.  0.
        4    1    3    3  502    0  0.13598823140E+03  0.46193460214E+00 -0.81036459404E+03  0.82169665974E+03  0.12699999809E+01 0. -1.
       -4    1    3    3    0  502 -0.13598823140E+03 -0.46193460214E+00  0.11042619158E+02  0.13644253296E+03  0.12699999809E+01 0.  1.
</event>
<event>
 5   0  0.1206238E-01  0.6022797E+03  0.7818609E-02  0.9900688E-01
       -2   -1    0    0    0  501  0.00000000000E+00  0.00000000000E+00  0.68413173511E+02  0.68413173559E+02  0.25500000920E-02 0.  1.
        2   -1    0    0  501    0  0.00000000000E+00  0.00000000000E+00 -0.13255518580E+04  0.13255518580E+04  0.25500000920E-02 0. -1.
    10030    2    1    2    0    0  0.00000000000E+00  0.00000000000E+00 -0.12571386845E+04  0.13939650316E+04  0.60227970013E+03 0.  0.
        5    1    3    3  502    0  0.20689420219E+03 -0.14340621538E+03 -0.10109323215E+04  0.10418141879E+04  0.46999998093E+01 0. -1.
       -5    1    3    3    0  502 -0.20689420219E+03  0.14340621538E+03 -0.24620636305E+03  0.35215084369E+03  0.46999998093E+01 0.  1.
</event>
<event>
 5   0  0.1219020E-01  0.6012559E+03  0.7818609E-02  0.9902804E-01
        2   -1    0    0  501    0  0.00000000000E+00  0.00000000000E+00  0.50495761366E+03  0.50495761367E+03  0.25500000920E-02 0.  1.
       -2   -1    0    0    0  501  0.00000000000E+00  0.00000000000E+00 -0.17897967861E+03  0.17897967863E+03  0.25500000920E-02 0. -1.
    10030    2    1    2    0    0  0.00000000000E+00  0.00000000000E+00  0.32597793505E+03  0.68393729230E+03  0.60125585707E+03 0.  0.
        2    1    3    3  502    0  0.18680590157E+03 -0.90634627743E+02 -0.84315359530E+02  0.22409855079E+03  0.25500000920E-02 0. -1.
       -2    1    3    3    0  502 -0.18680590157E+03  0.90634627743E+02  0.41029329458E+03  0.45983874151E+03  0.25500000920E-02 0.  1.
</event>
<event>
 5   0  0.1175861E-01  0.5972430E+03  0.7818609E-02  0.9911142E-01
        2   -1    0    0  501    0  0.00000000000E+00  0.00000000000E+00  0.31610366530E+03  0.31610366531E+03  0.25500000920E-02 0. -1.
       -2   -1    0    0    0  501  0.00000000000E+00  0.00000000000E+00 -0.28210622782E+03  0.28210622783E+03  0.25500000920E-02 0.  1.
    10030    2    1    2    0    0  0.00000000000E+00  0.00000000000E+00  0.33997437486E+02  0.59820989314E+03  0.59724304140E+03 0.  0.
        3    1    3    3  502    0 -0.52731440243E+02 -0.18494730567E+03  0.24581698879E+03  0.31210913610E+03  0.10100000352E+00 0. -1.
       -3    1    3    3    0  502  0.52731440243E+02  0.18494730567E+03 -0.21181955130E+03  0.28610075704E+03  0.10100000352E+00 0.  1.
</event>
<event>
 5   0  0.1219020E-01  0.6268454E+03  0.7818609E-02  0.9851224E-01
        2   -1    0    0  501    0  0.00000000000E+00  0.00000000000E+00  0.26678540728E+04  0.26678540728E+04  0.25500000920E-02 0. -1.
       -2   -1    0    0    0  501  0.00000000000E+00  0.00000000000E+00 -0.36821276713E+02  0.36821276801E+02  0.25500000920E-02 0.  1.
    10030    2    1    2    0    0  0.00000000000E+00  0.00000000000E+00  0.26310327961E+04  0.27046753496E+04  0.62684541369E+03 0.  0.
        2    1    3    3  502    0  0.12792536738E+03 -0.89345942893E+02  0.24883498487E+04  0.24932373667E+04  0.25500000920E-02 0. -1.
       -2    1    3    3    0  502 -0.12792536738E+03  0.89345942893E+02  0.14268294734E+03  0.21143798287E+03  0.25500000920E-02 0.  1.
</event>
<event>
 5   0  0.1175861E-01  0.5944376E+03  0.7818609E-02  0.9917014E-01
       -2   -1    0    0    0  501  0.00000000000E+00  0.00000000000E+00  0.13862402413E+03  0.13862402416E+03  0.25500000920E-02 0.  1.
        2   -1    0    0  501    0  0.00000000000E+00  0.00000000000E+00 -0.63725624929E+03  0.63725624930E+03  0.25500000920E-02 0. -1.
    10030    2    1    2    0    0  0.00000000000E+00  0.00000000000E+00 -0.49863222516E+03  0.77588027346E+03  0.59443763573E+03 0.  0.
        3    1    3    3  502    0  0.17567288834E+03 -0.93984308523E+01 -0.56199997636E+03  0.58889156713E+03  0.10100000352E+00 0. -1.
       -3    1    3    3    0  502 -0.17567288834E+03  0.93984308523E+01  0.63367751200E+02  0.18698870633E+03  0.10100000352E+00 0.  1.
</event>
<event>
 5   0  0.1175861E-01  0.5962411E+03  0.7818609E-02  0.9913235E-01
       -2   -1    0    0    0  501  0.00000000000E+00  0.00000000000E+00  0.14785839185E+03  0.14785839187E+03  0.25500000920E-02 0. -1.
        2   -1    0    0  501    0  0.00000000000E+00  0.00000000000E+00 -0.60108776106E+03  0.60108776106E+03  0.25500000920E-02 0.  1.
    10030    2    1    2    0    0  0.00000000000E+00  0.00000000000E+00 -0.45322936921E+03  0.74894615293E+03  0.59624112478E+03 0.  0.
        3    1    3    3  502    0 -0.74673424635E+02  0.28856820460E+03 -0.23327687639E+03  0.37850474279E+03  0.10100000352E+00 0.  1.
       -3    1    3    3    0  502  0.74673424635E+02 -0.28856820460E+03 -0.21995249282E+03  0.37044141015E+03  0.10100000352E+00 0. -1.
</event>
<event>
 5   0  0.1146468E-01  0.6035948E+03  0.7818609E-02  0.9897976E-01
       -2   -1    0    0    0  501  0.00000000000E+00  0.00000000000E+00  0.45864751011E+02  0.45864751082E+02  0.25500000920E-02 0. -1.
        2   -1    0    0  501    0  0.00000000000E+00  0.00000000000E+00 -0.19858754091E+04  0.19858754091E+04  0.25500000920E-02 0.  1.
    10030    2    1    2    0    0  0.00000000000E+00  0.00000000000E+00 -0.19400106581E+04  0.20317401602E+04  0.60359483514E+03 0.  0.
        4    1    3    3  502    0 -0.19869719980E+03  0.14571745387E+03 -0.15565699095E+04  0.15759522993E+04  0.12699999809E+01 0.  1.
       -4    1    3    3    0  502  0.19869719980E+03 -0.14571745387E+03 -0.38344074864E+03  0.45578786095E+03  0.12699999809E+01 0. -1.
</event>
<event>
 5   0  0.7424930E-02  0.5911790E+03  0.7818609E-02  0.9923878E-01
        1   -1    0    0  501    0  0.00000000000E+00  0.00000000000E+00  0.65559810851E+03  0.65559810853E+03  0.50400001928E-02 0.  1.
       -1   -1    0    0    0  501  0.00000000000E+00  0.00000000000E+00 -0.13327242281E+03  0.13327242290E+03  0.50400001928E-02 0. -1.
    10030    2    1    2    0    0  0.00000000000E+00  0.00000000000E+00  0.52232568570E+03  0.78887053143E+03  0.59117898594E+03 0.  0.
        3    1    3    3  502    0 -0.29149078771E+02 -0.12755108446E+03  0.61485290800E+03  0.62861996199E+03  0.10100000352E+00 0.  1.
       -3    1    3    3    0  502  0.29149078771E+02  0.12755108446E+03 -0.92527222294E+02  0.16025056944E+03  0.10100000352E+00 0. -1.
</event>
<event>
 5   0  0.7123340E-02  0.5970550E+03  0.7818609E-02  0.9911535E-01
       -1   -1    0    0    0  501  0.00000000000E+00  0.00000000000E+00  0.83836022117E+02  0.83836022269E+02  0.50400001928E-02 0.  1.
        1   -1    0    0  501    0  0.00000000000E+00  0.00000000000E+00 -0.10630115793E+04  0.10630115793E+04  0.50400001928E-02 0. -1.
    10030    2    1    2    0    0  0.00000000000E+00  0.00000000000E+00 -0.97917555716E+03  0.11468476016E+04  0.59705498027E+03 0.  0.
        2    1    3    3  502    0 -0.62786427640E+02 -0.17578565647E+03 -0.42085736406E+02  0.19134769853E+03  0.25500000920E-02 0.  1.
       -2    1    3    3    0  502  0.62786427640E+02  0.17578565647E+03 -0.93708982076E+03  0.95549990303E+03  0.25500000920E-02 0. -1.
</event>
<event>
 5   0  0.7123340E-02  0.6180576E+03  0.7818609E-02  0.9868635E-01
        1   -1    0    0  501    0  0.00000000000E+00  0.00000000000E+00  0.15014362460E+03  0.15014362468E+03  0.50400001928E-02 0.  1.
       -1   -1    0    0    0  501  0.00000000000E+00  0.00000000000E+00 -0.63604971858E+03  0.63604971860E+03  0.50400001928E-02 0. -1.
    10030    2    1    2    0    0  0.00000000000E+00  0.00000000000E+00 -0.48590609398E+03  0.78619334328E+03  0.61805763554E+03 0.  0.
        2    1    3    3  502    0 -0.32313712286E+02 -0.12041368617E+03 -0.60263917148E+03  0.61540035979E+03  0.25500000920E-02 0. -1.
       -2    1    3    3    0  502  0.32313712286E+02  0.12041368617E+03  0.11673307750E+03  0.17079298349E+03  0.25500000920E-02 0.  1.
</event>
<event>
 5   0  0.7424930E-02  0.5970908E+03  0.7818609E-02  0.9911460E-01
       -1   -1    0    0    0  501  0.00000000000E+00  0.00000000000E+00  0.51977599057E+03  0.51977599059E+03  0.50400001928E-02 0. -1.
        1   -1    0    0  501    0  0.00000000000E+00  0.00000000000E+00 -0.17147646828E+03  0.17147646835E+03  0.50400001928E-02 0.  1.
    10030    2    1    2    0    0  0.00000000000E+00  0.00000000000E+00  0.34829952229E+03  0.69125245894E+03  0.59709078436E+03 0.  0.
        3    1    3    3  502    0  0.68650982931E+02  0.25448200075E+03  0.11843190302E+02  0.26384525298E+03  0.10100000352E+00 0.  1.
       -3    1    3    3    0  502 -0.68650982931E+02 -0.25448200075E+03  0.33645633199E+03  0.42740720595E+03  0.10100000352E+00 0. -1.
</event>
<event>
 5   0  0.1166419E-01  0.5983024E+03  0.7818609E-02  0.9908934E-01
        2   -1    0    0  501    0  0.00000000000E+00  0.00000000000E+00  0.12513472282E+04  0.12513472283E+04  0.25500000920E-02 0.  1.
       -2   -1    0    0    0  501  0.00000000000E+00  0.00000000000E+00 -0.71516082412E+02  0.71516082458E+02  0.25500000920E-02 0. -1.
    10030    2    1    2    0    0  0.00000000000E+00  0.00000000000E+00  0.11798311458E+04  0.13228633107E+04  0.59830243701E+03 0.  0.
        1    1    3    3  502    0 -0.14376548681E+03 -0.23738886065E+03  0.34301726552E+03  0.44122877380E+03  0.50400001928E-02 0.  1.
       -1    1    3    3    0  502  0.14376548681E+03  0.23738886065E+03  0.83681388031E+03  0.88163453691E+03  0.50400001928E-02 0. -1.
</event>
<event>
 5   0  0.7424930E-02  0.6066604E+03  0.7818609E-02  0.9891683E-01
       -1   -1    0    0    0  501  0.00000000000E+00  0.00000000000E+00  0.24136270429E+03  0.24136270434E+03  0.50400001928E-02 0. -1.
        1   -1    0    0  501    0  0.00000000000E+00  0.00000000000E+00 -0.38120720824E+03  0.38120720827E+03  0.50400001928E-02 0.  1.
    10030    2    1    2    0    0  0.00000000000E+00  0.00000000000E+00 -0.13984450395E+03  0.62256991261E+03  0.60666037517E+03 0.  0.
        3    1    3    3  502    0  0.17313651548E+03  0.14206693794E+03  0.14001516008E+03  0.26412785370E+03  0.10100000352E+00 0. -1.
       -3    1    3    3    0  502 -0.17313651548E+03 -0.14206693794E+03 -0.27985966402E+03  0.35844205891E+03  0.10100000352E+00 0.  1.
</event>
<event>
 5   0  0.1175861E-01  0.5916535E+03  0.7818609E-02  0.9922875E-01
       -2   -1    0    0    0  501  0.00000000000E+00  0.00000000000E+00  0.86073460597E+02  0.86073460635E+02  0.25500000920E-02 0.  1.
        2   -1    0    0  501    0  0.00000000000E+00  0.00000000000E+00 -0.10167298898E+04  0.10167298898E+04  0.25500000920E-02 0. -1.
    10030    2    1    2    0    0  0.00000000000E+00  0.00000000000E+00 -0.93065642920E+03  0.11028033504E+04  0.59165348011E+03 0.  0.
        3    1    3    3  502    0 -0.46284939324E+02  0.16684984680E+03 -0.91240946543E+03  0.92869381918E+03  0.10100000352E+00 0. -1.
       -3    1    3    3    0  502  0.46284939324E+02 -0.16684984680E+03 -0.18246963776E+02  0.17410953126E+03  0.10100000352E+00 0.  1.
</event>
<event>
 5   0  0.7263385E-02  0.5984926E+03  0.7818609E-02  0.9908538E-01
        1   -1    0    0  501    0  0.00000000000E+00  0.00000000000E+00  0.12410088185E+04  0.12410088185E+04  0.50400001928E-02 0.  1.
       -1   -1    0    0    0  501  0.00000000000E+00  0.00000000000E+00 -0.72157703847E+02  0.72157704023E+02  0.50400001928E-02 0. -1.
    10030    2    1    2    0    0  0.00000000000E+00  0.00000000000E+00  0.11688511146E+04  0.13131665225E+04  0.59849259617E+03 0.  0.
        1    1    3    3  502    0 -0.17065292840E+03 -0.21273420491E+03  0.85466889646E+03  0.89712718525E+03  0.50400001928E-02 0.  1.
       -1    1    3    3    0  502  0.17065292840E+03  0.21273420491E+03  0.31418221818E+03  0.41603933727E+03  0.50400001928E-02 0. -1.
</event>
<event>
 5   0  0.1146468E-01  0.5676304E+03  0.7818609E-02  0.9974936E-01
       -2   -1    0    0    0  501  0.00000000000E+00  0.00000000000E+00  0.51275418403E+02  0.51275418467E+02  0.25500000920E-02 0.  1.
        2   -1    0    0  501    0  0.00000000000E+00  0.00000000000E+00 -0.15709487762E+04  0.15709487762E+04  0.25500000920E-02 0. -1.
    10030    2    1    2    0    0  0.00000000000E+00  0.00000000000E+00 -0.15196733578E+04  0.16222241947E+04  0.56763035804E+03 0.  0.
        4    1    3    3  502    0 -0.47505907958E+02 -0.43573497213E+02  0.30068268627E+02  0.71141932982E+02  0.12699999809E+01 0.  1.
       -4    1    3    3    0  502  0.47505907958E+02  0.43573497213E+02 -0.15497416264E+04  0.15510822617E+04  0.12699999809E+01 0. -1.
</event>
<event>
 5   0  0.1146468E-01  0.6006896E+03  0.7818609E-02  0.9903976E-01
       -2   -1    0    0    0  501  0.00000000000E+00  0.00000000000E+00  0.10149996506E+03  0.10149996510E+03  0.25500000920E-02 0.  1.
        2   -1    0    0  501    0  0.00000000000E+00  0.00000000000E+00 -0.88873923118E+03  0.88873923118E+03  0.25500000920E-02 0. -1.
    10030    2    1    2    0    0  0.00000000000E+00  0.00000000000E+00 -0.78723926611E+03  0.99023919628E+03  0.60068960681E+03 0.  0.
        4    1    3    3  502    0  0.24240961797E+03 -0.15543337926E+03 -0.53430792701E+03  0.60696666468E+03  0.12699999809E+01 0. -1.
       -4    1    3    3    0  502 -0.24240961797E+03  0.15543337926E+03 -0.25293133911E+03  0.38327253159E+03  0.12699999809E+01 0.  1.
</event>
<event>
 5   0  0.7221069E-02  0.5773034E+03  0.7818609E-02  0.9953646E-01
        1   -1    0    0  501    0  0.00000000000E+00  0.00000000000E+00  0.99366803707E+02  0.99366803835E+02  0.50400001928E-02 0.  1.
       -1   -1    0    0    0  501  0.00000000000E+00  0.00000000000E+00 -0.83850752927E+03  0.83850752928E+03  0.50400001928E-02 0. -1.
    10030    2    1    2    0    0  0.00000000000E+00  0.00000000000E+00 -0.73914072556E+03  0.93787433312E+03  0.57730343195E+03 0.  0.
        5    1    3    3  502    0  0.21471348617E+03 -0.11894658901E+02 -0.56847117551E+02  0.22247932224E+03  0.46999998093E+01 0.  1.
       -5    1    3    3    0  502 -0.21471348617E+03  0.11894658901E+02 -0.68229360801E+03  0.71539501087E+03  0.46999998093E+01 0. -1.
</event>
<event>
 5   0  0.7424930E-02  0.6047230E+03  0.7818609E-02  0.9895656E-01
        1   -1    0    0  501    0  0.00000000000E+00  0.00000000000E+00  0.11427406444E+04  0.11427406444E+04  0.50400001928E-02 0. -1.
       -1   -1    0    0    0  501  0.00000000000E+00  0.00000000000E+00 -0.80002820317E+02  0.80002820475E+02  0.50400001928E-02 0.  1.
    10030    2    1    2    0    0  0.00000000000E+00  0.00000000000E+00  0.10627378241E+04  0.12227434649E+04  0.60472299294E+03 0.  0.
        3    1    3    3  502    0 -0.11075518663E+03  0.20965730148E+03  0.91072542180E+03  0.94108644637E+03  0.10100000352E+00 0. -1.
       -3    1    3    3    0  502  0.11075518663E+03 -0.20965730148E+03  0.15201240228E+03  0.28165701852E+03  0.10100000352E+00 0.  1.
</event>
<event>
 5   0  0.7123340E-02  0.4102911E+03  0.7818609E-02  0.1040273E+00
       -1   -1    0    0    0  501  0.00000000000E+00  0.00000000000E+00  0.13979836858E+03  0.13979836867E+03  0.50400001928E-02 0.  1.
        1   -1    0    0  501    0  0.00000000000E+00  0.00000000000E+00 -0.30103849557E+03  0.30103849562E+03  0.50400001928E-02 0. -1.
    10030    2    1    2    0    0  0.00000000000E+00  0.00000000000E+00 -0.16124012699E+03  0.44083686429E+03  0.41029107029E+03 0.  0.
        2    1    3    3  502    0 -0.97788164907E+01  0.32329476346E+02  0.13679032193E+03  0.14089858933E+03  0.25500000920E-02 0.  1.
       -2    1    3    3    0  502  0.97788164907E+01 -0.32329476346E+02 -0.29803044893E+03  0.29993827496E+03  0.25500000920E-02 0. -1.
</event>
<event>
 5   0  0.1146468E-01  0.6002352E+03  0.7818609E-02  0.9904918E-01
        2   -1    0    0  501    0  0.00000000000E+00  0.00000000000E+00  0.85437647730E+03  0.85437647731E+03  0.25500000920E-02 0.  1.
       -2   -1    0    0    0  501  0.00000000000E+00  0.00000000000E+00 -0.10542257731E+03  0.10542257735E+03  0.25500000920E-02 0. -1.
    10030    2    1    2    0    0  0.00000000000E+00  0.00000000000E+00  0.74895389999E+03  0.95979905465E+03  0.60023518808E+03 0.  0.
        4    1    3    3  502    0 -0.78413458076E+02  0.27760404398E+03  0.24207231366E+03  0.37658105844E+03  0.12699999809E+01 0. -1.
       -4    1    3    3    0  502  0.78413458076E+02 -0.27760404398E+03  0.50688158633E+03  0.58321799621E+03  0.12699999809E+01 0.  1.
</event>
<event>
 5   0  0.7424930E-02  0.6046491E+03  0.7818609E-02  0.9895807E-01
        1   -1    0    0  501    0  0.00000000000E+00  0.00000000000E+00  0.46396032369E+03  0.46396032372E+03  0.50400001928E-02 0. -1.
       -1   -1    0    0    0  501  0.00000000000E+00  0.00000000000E+00 -0.19699989504E+03  0.19699989510E+03  0.50400001928E-02 0.  1.
    10030    2    1    2    0    0  0.00000000000E+00  0.00000000000E+00  0.26696042866E+03  0.66096021882E+03  0.60464910518E+03 0.  0.
        3    1    3    3  502    0  0.23839810917E+03  0.16350809667E+03  0.36742395778E+02  0.29140790995E+03  0.10100000352E+00 0. -1.
       -3    1    3    3    0  502 -0.23839810917E+03 -0.16350809667E+03  0.23021803288E+03  0.36955230888E+03  0.10100000352E+00 0.  1.
</event>
<event>
 5   0  0.1219020E-01  0.5904116E+03  0.7818609E-02  0.9925501E-01
        2   -1    0    0  501    0  0.00000000000E+00  0.00000000000E+00  0.84267207471E+03  0.84267207472E+03  0.25500000920E-02 0. -1.
       -2   -1    0    0    0  501  0.00000000000E+00  0.00000000000E+00 -0.10341680390E+03  0.10341680393E+03  0.25500000920E-02 0.  1.
    10030    2    1    2    0    0  0.00000000000E+00  0.00000000000E+00  0.73925527081E+03  0.94608887865E+03  0.59041156059E+03 0.  0.
        2    1    3    3  502    0  0.23024092210E+03  0.12127845635E+03  0.59297516107E+03  0.64756380986E+03  0.25500000920E-02 0. -1.
       -2    1    3    3    0  502 -0.23024092210E+03 -0.12127845635E+03  0.14628010974E+03  0.29852506879E+03  0.25500000920E-02 0.  1.
</event>
<event>
 5   0  0.1146468E-01  0.5823646E+03  0.7818609E-02  0.9942685E-01
        2   -1    0    0  501    0  0.00000000000E+00  0.00000000000E+00  0.13347052631E+03  0.13347052633E+03  0.25500000920E-02 0. -1.
       -2   -1    0    0    0  501  0.00000000000E+00  0.00000000000E+00 -0.63524988811E+03  0.63524988811E+03  0.25500000920E-02 0.  1.
    10030    2    1    2    0    0  0.00000000000E+00  0.00000000000E+00 -0.50177936180E+03  0.76872041444E+03  0.58236461744E+03 0.  0.
        4    1    3    3  502    0  0.21445328020E+03  0.25615004308E+02  0.68962103939E+01  0.21609143540E+03  0.12699999809E+01 0. -1.
       -4    1    3    3    0  502 -0.21445328020E+03 -0.25615004308E+02 -0.50867557220E+03  0.55262897905E+03  0.12699999809E+01 0.  1.
</event>
<event>
 5   0  0.7221069E-02  0.6072657E+03  0.7818609E-02  0.9890446E-01
        1   -1    0    0  501    0  0.00000000000E+00  0.00000000000E+00  0.48299160895E+03  0.48299160897E+03  0.50400001928E-02 0.  1.
       -1   -1    0    0    0  501  0.00000000000E+00  0.00000000000E+00 -0.19087887416E+03  0.19087887422E+03  0.50400001928E-02 0. -1.
    10030    2    1    2    0    0  0.00000000000E+00  0.00000000000E+00  0.29211273479E+03  0.67387048320E+03  0.60726565711E+03 0.  0.
        5    1    3    3  502    0  0.10473391491E+03  0.18976033538E+03 -0.89845568716E+02  0.23467529489E+03  0.46999998093E+01 0.  1.
       -5    1    3    3    0  502 -0.10473391491E+03 -0.18976033538E+03  0.38195830350E+03  0.43919518830E+03  0.46999998093E+01 0. -1.
</event>
<event>
 5   0  0.4695625E-02  0.5965784E+03  0.7818609E-02  0.9912530E-01
       -4   -1    0    0    0  501  0.00000000000E+00  0.00000000000E+00  0.76696359106E+02  0.76706873226E+02  0.12699999809E+01 0. -1.
        4   -1    0    0  501    0  0.00000000000E+00  0.00000000000E+00 -0.11600227149E+04  0.11600234101E+04  0.12699999809E+01 0.  1.
    10030    2    1    2    0    0  0.00000000000E+00  0.00000000000E+00 -0.10833263558E+04  0.12367302833E+04  0.59657841106E+03 0.  0.
        1    1    3    3  502    0  0.25048753991E+03  0.15406033795E+03 -0.64527064366E+03  0.70912114548E+03  0.50400001928E-02 0. -1.
       -1    1    3    3    0  502 -0.25048753991E+03 -0.15406033795E+03 -0.43805571215E+03  0.52760913786E+03  0.50400001928E-02 0.  1.
</event>
<event>
 5   0  0.1219020E-01  0.5247065E+03  0.7818609E-02  0.1007524E+00
       -2   -1    0    0    0  501  0.00000000000E+00  0.00000000000E+00  0.85911050436E+02  0.85911050474E+02  0.25500000920E-02 0. -1.
        2   -1    0    0  501    0  0.00000000000E+00  0.00000000000E+00 -0.80116860569E+03  0.80116860569E+03  0.25500000920E-02 0.  1.
    10030    2    1    2    0    0  0.00000000000E+00  0.00000000000E+00 -0.71525755525E+03  0.88707965617E+03  0.52470653326E+03 0.  0.
        2    1    3    3  502    0  0.15091560009E+03  0.71418522988E+02 -0.15499999679E+02  0.16767937790E+03  0.25500000920E-02 0. -1.
       -2    1    3    3    0  502 -0.15091560009E+03 -0.71418522988E+02 -0.69975755558E+03  0.71940027827E+03  0.25500000920E-02 0.  1.
</event>
<event>
 5   0  0.1175861E-01  0.6007202E+03  0.7818609E-02  0.9903913E-01
        2   -1    0    0  501    0  0.00000000000E+00  0.00000000000E+00  0.10869942884E+04  0.10869942884E+04  0.25500000920E-02 0. -1.
       -2   -1    0    0    0  501  0.00000000000E+00  0.00000000000E+00 -0.82996005492E+02  0.82996005531E+02  0.25500000920E-02 0.  1.
    10030    2    1    2    0    0  0.00000000000E+00  0.00000000000E+00  0.10039982829E+04  0.11699902940E+04  0.60072018097E+03 0.  0.
        3    1    3    3  502    0  0.21998659756E+02  0.36956331055E+02 -0.76967806064E+02  0.88168956030E+02  0.10100000352E+00 0.  1.
       -3    1    3    3    0  502 -0.21998659756E+02 -0.36956331055E+02  0.10809660890E+04  0.10818213379E+04  0.10100000352E+00 0. -1.
</event>
<event>
 5   0  0.1206238E-01  0.5980334E+03  0.7818609E-02  0.9909494E-01
       -2   -1    0    0    0  501  0.00000000000E+00  0.00000000000E+00  0.29099723177E+03  0.29099723178E+03  0.25500000920E-02 0.  1.
        2   -1    0    0  501    0  0.00000000000E+00  0.00000000000E+00 -0.30725721907E+03  0.30725721908E+03  0.25500000920E-02 0. -1.
    10030    2    1    2    0    0  0.00000000000E+00  0.00000000000E+00 -0.16259987299E+02  0.59825445086E+03  0.59803344454E+03 0.  0.
        5    1    3    3  502    0 -0.28999849466E+03  0.72271419803E+02 -0.16295434781E+02  0.29934915436E+03  0.46999998093E+01 0.  1.
       -5    1    3    3    0  502  0.28999849466E+03 -0.72271419803E+02  0.35447481257E-01  0.29890529650E+03  0.46999998093E+01 0. -1.
</event>
<event>
 5   0  0.7123340E-02  0.5889872E+03  0.7818609E-02  0.9928521E-01
        1   -1    0    0  501    0  0.00000000000E+00  0.00000000000E+00  0.69252757499E+03  0.69252757501E+03  0.50400001928E-02 0. -1.
       -1   -1    0    0    0  501  0.00000000000E+00  0.00000000000E+00 -0.12523182019E+03  0.12523182029E+03  0.50400001928E-02 0.  1.
    10030    2    1    2    0    0  0.00000000000E+00  0.00000000000E+00  0.56729575480E+03  0.81775939530E+03  0.58898722838E+03 0.  0.
        2    1    3    3  502    0 -0.17308197045E+02  0.22819854933E+03  0.54098225609E+03  0.58739761066E+03  0.25500000920E-02 0. -1.
       -2    1    3    3    0  502  0.17308197045E+02 -0.22819854933E+03  0.26313498711E+02  0.23036178464E+03  0.25500000920E-02 0.  1.
</event>
<event>
 5   0  0.1219020E-01  0.5940107E+03  0.7818609E-02  0.9917910E-01
       -2   -1    0    0    0  501  0.00000000000E+00  0.00000000000E+00  0.22850948578E+03  0.22850948579E+03  0.25500000920E-02 0.  1.
        2   -1    0    0  501    0  0.00000000000E+00  0.00000000000E+00 -0.38603291910E+03  0.38603291910E+03  0.25500000920E-02 0. -1.
    10030    2    1    2    0    0  0.00000000000E+00  0.00000000000E+00 -0.15752343332E+03  0.61454240489E+03  0.59401071991E+03 0.  0.
        2    1    3    3  502    0 -0.22746444317E+03  0.19097671870E+03 -0.78825842718E+02  0.30728763965E+03  0.25500000920E-02 0. -1.
       -2    1    3    3    0  502  0.22746444317E+03 -0.19097671870E+03 -0.78697590601E+02  0.30725476525E+03  0.25500000920E-02 0.  1.
</event>
<event>
 5   0  0.4695625E-02  0.6001926E+03  0.7818609E-02  0.9905007E-01
        4   -1    0    0  501    0  0.00000000000E+00  0.00000000000E+00  0.17221722034E+03  0.17222190302E+03  0.12699999809E+01 0.  1.
       -4   -1    0    0    0  501  0.00000000000E+00  0.00000000000E+00 -0.52291874920E+03  0.52292029141E+03  0.12699999809E+01 0. -1.
    10030    2    1    2    0    0  0.00000000000E+00  0.00000000000E+00 -0.35070152886E+03  0.69514219443E+03  0.60019255921E+03 0.  0.
        5    1    3    3  502    0 -0.12549819893E+03  0.27252532564E+03 -0.17074177659E+03  0.34524584765E+03  0.46999998093E+01 0.  1.
       -5    1    3    3    0  502  0.12549819893E+03 -0.27252532564E+03 -0.17995975227E+03  0.34989634678E+03  0.46999998093E+01 0. -1.
</event>
<event>
 5   0  0.1206238E-01  0.6114268E+03  0.7818609E-02  0.9881979E-01
       -2   -1    0    0    0  501  0.00000000000E+00  0.00000000000E+00  0.55342100698E+02  0.55342100757E+02  0.25500000920E-02 0. -1.
        2   -1    0    0  501    0  0.00000000000E+00  0.00000000000E+00 -0.16887810514E+04  0.16887810514E+04  0.25500000920E-02 0.  1.
    10030    2    1    2    0    0  0.00000000000E+00  0.00000000000E+00 -0.16334389507E+04  0.17441231522E+04  0.61142682656E+03 0.  0.
        5    1    3    3  502    0  0.17011732334E+03  0.16912858822E+03 -0.13571562652E+04  0.13782015822E+04  0.46999998093E+01 0.  1.
       -5    1    3    3    0  502 -0.17011732334E+03 -0.16912858822E+03 -0.27628268558E+03  0.36592157002E+03  0.46999998093E+01 0. -1.
</event>
<event>
 5   0  0.7266519E-02  0.6009871E+03  0.7818609E-02  0.9903360E-01
       -1   -1    0    0    0  501  0.00000000000E+00  0.00000000000E+00  0.48632674567E+03  0.48632674570E+03  0.50400001928E-02 0.  1.
        1   -1    0    0  501    0  0.00000000000E+00  0.00000000000E+00 -0.18567020428E+03  0.18567020435E+03  0.50400001928E-02 0. -1.
    10030    2    1    2    0    0  0.00000000000E+00  0.00000000000E+00  0.30065654140E+03  0.67199695005E+03  0.60098714212E+03 0.  0.
        4    1    3    3  502    0 -0.11080063898E+02  0.17016693881E+03  0.42697900246E+03  0.45977411445E+03  0.12699999809E+01 0.  1.
       -4    1    3    3    0  502  0.11080063898E+02 -0.17016693881E+03 -0.12632246106E+03  0.21222283560E+03  0.12699999809E+01 0. -1.
</event>
<event>
 5   0  0.7123340E-02  0.6054825E+03  0.7818609E-02  0.9894096E-01
       -1   -1    0    0    0  501  0.00000000000E+00  0.00000000000E+00  0.25700011003E+03  0.25700011008E+03  0.50400001928E-02 0. -1.
        1   -1    0    0  501    0  0.00000000000E+00  0.00000000000E+00 -0.35662344288E+03  0.35662344291E+03  0.50400001928E-02 0.  1.
    10030    2    1    2    0    0  0.00000000000E+00  0.00000000000E+00 -0.99623332844E+02  0.61362355300E+03  0.60548249879E+03 0.  0.
        2    1    3    3  502    0 -0.48286679409E+02 -0.27260488042E+03 -0.17396284255E+03  0.32696803335E+03  0.25500000920E-02 0.  1.
       -2    1    3    3    0  502  0.48286679409E+02  0.27260488042E+03  0.74339509703E+02  0.28665551965E+03  0.25500000920E-02 0. -1.
</event>
<event>
 5   0  0.7263385E-02  0.5988310E+03  0.7818609E-02  0.9907834E-01
       -1   -1    0    0    0  501  0.00000000000E+00  0.00000000000E+00  0.94376251184E+02  0.94376251319E+02  0.50400001928E-02 0. -1.
        1   -1    0    0  501    0  0.00000000000E+00  0.00000000000E+00 -0.94991726363E+03  0.94991726365E+03  0.50400001928E-02 0.  1.
    10030    2    1    2    0    0  0.00000000000E+00  0.00000000000E+00 -0.85554101245E+03  0.10442935150E+04  0.59883096231E+03 0.  0.
        1    1    3    3  502    0 -0.16947872636E+03 -0.22091366666E+02  0.95112781565E+00  0.17091510126E+03  0.50400001928E-02 0. -1.
       -1    1    3    3    0  502  0.16947872636E+03  0.22091366666E+02 -0.85649214027E+03  0.87337841371E+03  0.50400001928E-02 0.  1.
</event>
<event>
 5   0  0.1206238E-01  0.5808197E+03  0.7818609E-02  0.9946018E-01
        2   -1    0    0  501    0  0.00000000000E+00  0.00000000000E+00  0.25138578658E+04  0.25138578658E+04  0.25500000920E-02 0. -1.
       -2   -1    0    0    0  501  0.00000000000E+00  0.00000000000E+00 -0.33549184369E+02  0.33549184466E+02  0.25500000920E-02 0.  1.
    10030    2    1    2    0    0  0.00000000000E+00  0.00000000000E+00  0.24803086814E+04  0.25474070503E+04  0.58081970057E+03 0.  0.
        5    1    3    3  502    0 -0.62233347179E+01  0.67979959148E+02  0.24779976473E+04  0.24789422008E+04  0.46999998093E+01 0. -1.
       -5    1    3    3    0  502  0.62233347179E+01 -0.67979959148E+02  0.23110341409E+01  0.68464849506E+02  0.46999998093E+01 0.  1.
</event>
<event>
 5   0  0.7221069E-02  0.5912032E+03  0.7818609E-02  0.9923827E-01
        1   -1    0    0  501    0  0.00000000000E+00  0.00000000000E+00  0.15156592384E+04  0.15156592384E+04  0.50400001928E-02 0.  1.
       -1   -1    0    0    0  501  0.00000000000E+00  0.00000000000E+00 -0.57651676222E+02  0.57651676442E+02  0.50400001928E-02 0. -1.
    10030    2    1    2    0    0  0.00000000000E+00  0.00000000000E+00  0.14580075622E+04  0.15733109148E+04  0.59120316594E+03 0.  0.
        5    1    3    3  502    0  0.16234094296E+03 -0.77592449818E+02  0.13530146614E+04  0.13649344064E+04  0.46999998093E+01 0. -1.
       -5    1    3    3    0  502 -0.16234094296E+03  0.77592449818E+02  0.10499290078E+03  0.20837650838E+03  0.46999998093E+01 0.  1.
</event>
<event>
 5   0  0.7424930E-02  0.5860834E+03  0.7818609E-02  0.9934707E-01
        1   -1    0    0  501    0  0.00000000000E+00  0.00000000000E+00  0.64719232583E+03  0.64719232585E+03  0.50400001928E-02 0.  1.
       -1   -1    0    0    0  501  0.00000000000E+00  0.00000000000E+00 -0.13268611369E+03  0.13268611379E+03  0.50400001928E-02 0. -1.
    10030    2    1    2    0    0  0.00000000000E+00  0.00000000000E+00  0.51450621214E+03  0.77987843964E+03  0.58608338851E+03 0.  0.
        3    1    3    3  502    0 -0.11064805949E+03  0.16676214384E+03 -0.27585547424E+02  0.20202370731E+03  0.10100000352E+00 0.  1.
       -3    1    3    3    0  502  0.11064805949E+03 -0.16676214384E+03  0.54209175956E+03  0.57785473233E+03  0.10100000352E+00 0. -1.
</event>
<event>
 5   0  0.1166419E-01  0.5910666E+03  0.7818609E-02  0.9924115E-01
       -2   -1    0    0    0  501  0.00000000000E+00  0.00000000000E+00  0.52894865350E+02  0.52894865412E+02  0.25500000920E-02 0. -1.
        2   -1    0    0  501    0  0.00000000000E+00  0.00000000000E+00 -0.16511986420E+04  0.16511986420E+04  0.25500000920E-02 0.  1.
    10030    2    1    2    0    0  0.00000000000E+00  0.00000000000E+00 -0.15983037767E+04  0.17040935074E+04  0.59106659486E+03 0.  0.
        1    1    3    3  502    0 -0.12071537421E+03 -0.11492417944E+03 -0.15027666450E+04  0.15119812690E+04  0.50400001928E-02 0.  1.
       -1    1    3    3    0  502  0.12071537421E+03  0.11492417944E+03 -0.95537131704E+02  0.19211223842E+03  0.50400001928E-02 0. -1.
</event>
<event>
 5   0  0.7263385E-02  0.6222308E+03  0.7818609E-02  0.9860328E-01
        1   -1    0    0  501    0  0.00000000000E+00  0.00000000000E+00  0.28083010582E+03  0.28083010586E+03  0.50400001928E-02 0. -1.
       -1   -1    0    0    0  501  0.00000000000E+00  0.00000000000E+00 -0.34466673858E+03  0.34466673862E+03  0.50400001928E-02 0.  1.
    10030    2    1    2    0    0  0.00000000000E+00  0.00000000000E+00 -0.63836632762E+02  0.62549684448E+03  0.62223081471E+03 0.  0.
        1    1    3    3  502    0 -0.30926840371E+03 -0.30530059733E+02 -0.46615818211E+02  0.31424841226E+03  0.50400001928E-02 0.  1.
       -1    1    3    3    0  502  0.30926840371E+03  0.30530059733E+02 -0.17220814551E+02  0.31124843222E+03  0.50400001928E-02 0. -1.
</event>
<event>
 5   0  0.1175861E-01  0.4842090E+03  0.7818609E-02  0.1017985E+00
       -2   -1    0    0    0  501  0.00000000000E+00  0.00000000000E+00  0.27387348067E+03  0.27387348069E+03  0.25500000920E-02 0. -1.
        2   -1    0    0  501    0  0.00000000000E+00  0.00000000000E+00 -0.21402070225E+03  0.21402070227E+03  0.25500000920E-02 0.  1.
    10030    2    1    2    0    0  0.00000000000E+00  0.00000000000E+00  0.59852778424E+02  0.48789418295E+03  0.48420902374E+03 0.  0.
        3    1    3    3  502    0 -0.20886491094E+03 -0.19358133813E+02  0.15174021148E+03  0.25889069189E+03  0.10100000352E+00 0. -1.
       -3    1    3    3    0  502  0.20886491094E+03  0.19358133813E+02 -0.91887433057E+02  0.22900349107E+03  0.10100000352E+00 0.  1.
</event>
<event>
 5   0  0.7263385E-02  0.5499527E+03  0.7818609E-02  0.1001505E+00
        1   -1    0    0  501    0  0.00000000000E+00  0.00000000000E+00  0.13018128349E+04  0.13018128350E+04  0.50400001928E-02 0.  1.
       -1   -1    0    0    0  501  0.00000000000E+00  0.00000000000E+00 -0.58082080251E+02  0.58082080470E+02  0.50400001928E-02 0. -1.
    10030    2    1    2    0    0  0.00000000000E+00  0.00000000000E+00  0.12437307547E+04  0.13598949154E+04  0.54995271690E+03 0.  0.
        1    1    3    3  502    0  0.94497881613E+02  0.22581254873E+03  0.93160952345E+03  0.96323281766E+03  0.50400001928E-02 0.  1.
       -1    1    3    3    0  502 -0.94497881613E+02 -0.22581254873E+03  0.31212123124E+03  0.39666209777E+03  0.50400001928E-02 0. -1.
</event>
<event>
 5   0  0.7266519E-02  0.5443738E+03  0.7818609E-02  0.1002805E+00
       -1   -1    0    0    0  501  0.00000000000E+00  0.00000000000E+00  0.14268371308E+03  0.14268371316E+03  0.50400001928E-02 0. -1.
        1   -1    0    0  501    0  0.00000000000E+00  0.00000000000E+00 -0.51923027508E+03  0.51923027510E+03  0.50400001928E-02 0.  1.
    10030    2    1    2    0    0  0.00000000000E+00  0.00000000000E+00 -0.37654656200E+03  0.66191398827E+03  0.54437378198E+03 0.  0.
        4    1    3    3  502    0 -0.76798549950E+02  0.22703472697E+03 -0.34512817168E+03  0.42018787740E+03  0.12699999809E+01 0.  1.
       -4    1    3    3    0  502  0.76798549950E+02 -0.22703472697E+03 -0.31418390326E+02  0.24172611087E+03  0.12699999809E+01 0. -1.
</event>
<event>
 5   0  0.1166419E-01  0.5922589E+03  0.7818609E-02  0.9921598E-01
       -2   -1    0    0    0  501  0.00000000000E+00  0.00000000000E+00  0.16477531361E+03  0.16477531363E+03  0.25500000920E-02 0.  1.
        2   -1    0    0  501    0  0.00000000000E+00  0.00000000000E+00 -0.53219533706E+03  0.53219533706E+03  0.25500000920E-02 0. -1.
    10030    2    1    2    0    0  0.00000000000E+00  0.00000000000E+00 -0.36742002344E+03  0.69697065070E+03  0.59225890817E+03 0.  0.
        1    1    3    3  502    0 -0.11462456222E+02  0.29325493915E+03 -0.23023169999E+03  0.37301003063E+03  0.50400001928E-02 0. -1.
       -1    1    3    3    0  502  0.11462456222E+02 -0.29325493915E+03 -0.13718832345E+03  0.32396062007E+03  0.50400001928E-02 0.  1.
</event>
<event>
 5   0  0.7263385E-02  0.5947986E+03  0.7818609E-02  0.9916256E-01
       -1   -1    0    0    0  501  0.00000000000E+00  0.00000000000E+00  0.39172954946E+03  0.39172954950E+03  0.50400001928E-02 0. -1.
        1   -1    0    0  501    0  0.00000000000E+00  0.00000000000E+00 -0.22578419571E+03  0.22578419577E+03  0.50400001928E-02 0.  1.
    10030    2    1    2    0    0  0.00000000000E+00  0.00000000000E+00  0.16594535375E+03  0.61751374526E+03  0.59479859209E+03 0.  0.
        1    1    3    3  502    0 -0.86469150141E+02  0.12218689811E+00 -0.21244548458E+03  0.22936872672E+03  0.50400001928E-02 0.  1.
       -1    1    3    3    0  502  0.86469150141E+02 -0.12218689811E+00  0.37839083833E+03  0.38814501854E+03  0.50400001928E-02 0. -1.
</event>
<event>
 5   0  0.7263385E-02  0.5856711E+03  0.7818609E-02  0.9935588E-01
       -1   -1    0    0    0  501  0.00000000000E+00  0.00000000000E+00  0.44392601496E+03  0.44392601499E+03  0.50400001928E-02 0.  1.
        1   -1    0    0  501    0  0.00000000000E+00  0.00000000000E+00 -0.19316880209E+03  0.19316880215E+03  0.50400001928E-02 0. -1.
    10030    2    1    2    0    0  0.00000000000E+00  0.00000000000E+00  0.25075721287E+03  0.63709481715E+03  0.58567109048E+03 0.  0.
        1    1    3    3  502    0  0.29090182447E+03 -0.20550843452E+02  0.15429141962E+03  0.32992734176E+03  0.50400001928E-02 0.  1.
       -1    1    3    3    0  502 -0.29090182447E+03  0.20550843452E+02  0.96465793250E+02  0.30716747539E+03  0.50400001928E-02 0. -1.
</event>
<event>
 5   0  0.1175861E-01  0.5961020E+03  0.7818609E-02  0.9913526E-01
       -2   -1    0    0    0  501  0.00000000000E+00  0.00000000000E+00  0.11733361351E+03  0.11733361353E+03  0.25500000920E-02 0. -1.
        2   -1    0    0  501    0  0.00000000000E+00  0.00000000000E+00 -0.75710952708E+03  0.75710952709E+03  0.25500000920E-02 0.  1.
    10030    2    1    2    0    0  0.00000000000E+00  0.00000000000E+00 -0.63977591357E+03  0.87444314062E+03  0.59610199344E+03 0.  0.
        3    1    3    3  502    0  0.18309238702E+03 -0.18626809937E+03 -0.53051332136E+03  0.59132311080E+03  0.10100000352E+00 0.  1.
       -3    1    3    3    0  502 -0.18309238702E+03  0.18626809937E+03 -0.10926259222E+03  0.28312002982E+03  0.10100000352E+00 0. -1.
</event>
<event>
 5   0  0.1206238E-01  0.6005070E+03  0.7818609E-02  0.9904355E-01
       -2   -1    0    0    0  501  0.00000000000E+00  0.00000000000E+00  0.94481530762E+02  0.94481530797E+02  0.25500000920E-02 0. -1.
        2   -1    0    0  501    0  0.00000000000E+00  0.00000000000E+00 -0.95417750223E+03  0.95417750223E+03  0.25500000920E-02 0.  1.
    10030    2    1    2    0    0  0.00000000000E+00  0.00000000000E+00 -0.85969597147E+03  0.10486590330E+04  0.60050695600E+03 0.  0.
        5    1    3    3  502    0 -0.15619636382E+03  0.24475990882E+03 -0.29656428321E+03  0.41506286404E+03  0.46999998093E+01 0.  1.
       -5    1    3    3    0  502  0.15619636382E+03 -0.24475990882E+03 -0.56313168826E+03  0.63359616899E+03  0.46999998093E+01 0. -1.
</event>
<event>
 5   0  0.1219020E-01  0.6071347E+03  0.7818609E-02  0.9890713E-01
       -2   -1    0    0    0  501  0.00000000000E+00  0.00000000000E+00  0.30356888609E+03  0.30356888610E+03  0.25500000920E-02 0. -1.
        2   -1    0    0  501    0  0.00000000000E+00  0.00000000000E+00 -0.30356577574E+03  0.30356577575E+03  0.25500000920E-02 0.  1.
    10030    2    1    2    0    0  0.00000000000E+00  0.00000000000E+00  0.31103510648E-02  0.60713466185E+03  0.60713466184E+03 0.  0.
        2    1    3    3  502    0  0.14425137519E+03  0.59740428656E+02  0.26033930952E+03  0.30356866464E+03  0.25500000920E-02 0. -1.
       -2    1    3    3    0  502 -0.14425137519E+03 -0.59740428656E+02 -0.26033619917E+03  0.30356599722E+03  0.25500000920E-02 0.  1.
</event>
<event>
 5   0  0.1219020E-01  0.5916876E+03  0.7818609E-02  0.9922803E-01
       -2   -1    0    0    0  501  0.00000000000E+00  0.00000000000E+00  0.20252435885E+03  0.20252435887E+03  0.25500000920E-02 0. -1.
        2   -1    0    0  501    0  0.00000000000E+00  0.00000000000E+00 -0.43216309138E+03  0.43216309138E+03  0.25500000920E-02 0.  1.
    10030    2    1    2    0    0  0.00000000000E+00  0.00000000000E+00 -0.22963873252E+03  0.63468745026E+03  0.59168759666E+03 0.  0.
        2    1    3    3  502    0 -0.12547145852E+03  0.21516631126E+03 -0.28605754549E+03  0.37930007612E+03  0.25500000920E-02 0.  1.
       -2    1    3    3    0  502  0.12547145852E+03 -0.21516631126E+03  0.56418812970E+02  0.25538737414E+03  0.25500000920E-02 0. -1.
</event>
<event>
 5   0  0.1175861E-01  0.6000444E+03  0.7818609E-02  0.9905314E-01
        2   -1    0    0  501    0  0.00000000000E+00  0.00000000000E+00  0.30884162620E+03  0.30884162621E+03  0.25500000920E-02 0.  1.
       -2   -1    0    0    0  501  0.00000000000E+00  0.00000000000E+00 -0.29145459993E+03  0.29145459994E+03  0.25500000920E-02 0. -1.
    10030    2    1    2    0    0  0.00000000000E+00  0.00000000000E+00  0.17387026268E+02  0.60029622615E+03  0.60004437373E+03 0.  0.
        3    1    3    3  502    0  0.99953486964E+02 -0.17248529102E+02 -0.27378131769E+03  0.29196649025E+03  0.10100000352E+00 0. -1.
       -3    1    3    3    0  502 -0.99953486964E+02  0.17248529102E+02  0.29116834396E+03  0.30832973590E+03  0.10100000352E+00 0.  1.
</event>
<event>
 5   0  0.7123340E-02  0.5840772E+03  0.7818609E-02  0.9939003E-01
        1   -1    0    0  501    0  0.00000000000E+00  0.00000000000E+00  0.11637380121E+04  0.11637380122E+04  0.50400001928E-02 0.  1.
       -1   -1    0    0    0  501  0.00000000000E+00  0.00000000000E+00 -0.73286719955E+02  0.73286720128E+02  0.50400001928E-02 0. -1.
    10030    2    1    2    0    0  0.00000000000E+00  0.00000000000E+00  0.10904512922E+04  0.12370247323E+04  0.58407719322E+03 0.  0.
        2    1    3    3  502    0  0.15728621354E+03  0.17200062159E+03  0.91790238051E+03  0.94703112248E+03  0.25500000920E-02 0.  1.
       -2    1    3    3    0  502 -0.15728621354E+03 -0.17200062159E+03  0.17254891168E+03  0.28999360980E+03  0.25500000920E-02 0. -1.
</event>
<event>
 5   0  0.1166419E-01  0.6190844E+03  0.7818609E-02  0.9866584E-01
        2   -1    0    0  501    0  0.00000000000E+00  0.00000000000E+00  0.85669377452E+03  0.85669377453E+03  0.25500000920E-02 0.  1.
       -2   -1    0    0    0  501  0.00000000000E+00  0.00000000000E+00 -0.11184436579E+03  0.11184436582E+03  0.25500000920E-02 0. -1.
    10030    2    1    2    0    0  0.00000000000E+00  0.00000000000E+00  0.74484940873E+03  0.96853814034E+03  0.61908439458E+03 0.  0.
        1    1    3    3  502    0  0.11433633183E+01 -0.29980724538E+03  0.49290585999E+03  0.57692449983E+03  0.50400001928E-02 0.  1.
       -1    1    3    3    0  502 -0.11433633183E+01  0.29980724538E+03  0.25194354874E+03  0.39161364052E+03  0.50400001928E-02 0. -1.
</event>
<event>
 5   0  0.7263385E-02  0.6036515E+03  0.7818609E-02  0.9897859E-01
        1   -1    0    0  501    0  0.00000000000E+00  0.00000000000E+00  0.32348125340E+03  0.32348125344E+03  0.50400001928E-02 0.  1.
       -1   -1    0    0    0  501  0.00000000000E+00  0.00000000000E+00 -0.28161996511E+03  0.28161996516E+03  0.50400001928E-02 0. -1.
    10030    2    1    2    0    0  0.00000000000E+00  0.00000000000E+00  0.41861288290E+02  0.60510121860E+03  0.60365148661E+03 0.  0.
        1    1    3    3  502    0  0.12974669672E+03  0.75712009305E+02  0.28334603179E+03  0.32070467321E+03  0.50400001928E-02 0.  1.
       -1    1    3    3    0  502 -0.12974669672E+03 -0.75712009305E+02 -0.24148474350E+03  0.28439654539E+03  0.50400001928E-02 0. -1.
</event>
<event>
 5   0  0.7424930E-02  0.6001771E+03  0.7818609E-02  0.9905039E-01
        1   -1    0    0  501    0  0.00000000000E+00  0.00000000000E+00  0.66120162785E+03  0.66120162787E+03  0.50400001928E-02 0.  1.
       -1   -1    0    0    0  501  0.00000000000E+00  0.00000000000E+00 -0.13619616248E+03  0.13619616258E+03  0.50400001928E-02 0. -1.
    10030    2    1    2    0    0  0.00000000000E+00  0.00000000000E+00  0.52500546536E+03  0.79739779044E+03  0.60017705516E+03 0.  0.
        3    1    3    3  502    0  0.59975425992E+02  0.79098496929E+02 -0.11375154275E+03  0.15097366531E+03  0.10100000352E+00 0. -1.
       -3    1    3    3    0  502 -0.59975425992E+02 -0.79098496929E+02  0.63875700811E+03  0.64642412513E+03  0.10100000352E+00 0.  1.
</event>
<event>
 5   0  0.7266519E-02  0.5750813E+03  0.7818609E-02  0.9958497E-01
        1   -1    0    0  501    0  0.00000000000E+00  0.00000000000E+00  0.71305814980E+03  0.71305814982E+03  0.50400001928E-02 0. -1.
       -1   -1    0    0    0  501  0.00000000000E+00  0.00000000000E+00 -0.11595074671E+03  0.11595074682E+03  0.50400001928E-02 0.  1.
    10030    2    1    2    0    0  0.00000000000E+00  0.00000000000E+00  0.59710740309E+03  0.82900889664E+03  0.57508129850E+03 0.  0.
        4    1    3    3  502    0 -0.20963732751E+03  0.18554309549E+03  0.39312605491E+03  0.48262175388E+03  0.12699999809E+01 0. -1.
       -4    1    3    3    0  502  0.20963732751E+03 -0.18554309549E+03  0.20398134818E+03  0.34638714276E+03  0.12699999809E+01 0.  1.
</event>
<event>
 5   0  0.1146468E-01  0.5761767E+03  0.7818609E-02  0.9956103E-01
       -2   -1    0    0    0  501  0.00000000000E+00  0.00000000000E+00  0.37395521288E+03  0.37395521289E+03  0.25500000920E-02 0. -1.
        2   -1    0    0  501    0  0.00000000000E+00  0.00000000000E+00 -0.22193805210E+03  0.22193805212E+03  0.25500000920E-02 0.  1.
    10030    2    1    2    0    0  0.00000000000E+00  0.00000000000E+00  0.15201716078E+03  0.59589326501E+03  0.57617667960E+03 0.  0.
        4    1    3    3  502    0 -0.44306747577E+01  0.34230640510E+02  0.37180609811E+03  0.37340695644E+03  0.12699999809E+01 0. -1.
       -4    1    3    3    0  502  0.44306747577E+01 -0.34230640510E+02 -0.21978893733E+03  0.22248630857E+03  0.12699999809E+01 0.  1.
</event>
<event>
 5   0  0.7424930E-02  0.5986266E+03  0.7818609E-02  0.9908260E-01
       -1   -1    0    0    0  501  0.00000000000E+00  0.00000000000E+00  0.26266606710E+03  0.26266606715E+03  0.50400001928E-02 0. -1.
        1   -1    0    0  501    0  0.00000000000E+00  0.00000000000E+00 -0.34107354808E+03  0.34107354812E+03  0.50400001928E-02 0.  1.
    10030    2    1    2    0    0  0.00000000000E+00  0.00000000000E+00 -0.78407480983E+02  0.60373961527E+03  0.59862658642E+03 0.  0.
        3    1    3    3  502    0 -0.49530168927E+02  0.17182543589E+03  0.20286973523E+03  0.27043179866E+03  0.10100000352E+00 0. -1.
       -3    1    3    3    0  502  0.49530168927E+02 -0.17182543589E+03 -0.28127721621E+03  0.33330781661E+03  0.10100000352E+00 0.  1.
</event>
<event>
 5   0  0.1206238E-01  0.5744013E+03  0.7818609E-02  0.9959986E-01
       -2   -1    0    0    0  501  0.00000000000E+00  0.00000000000E+00  0.10281926623E+03  0.10281926626E+03  0.25500000920E-02 0. -1.
        2   -1    0    0  501    0  0.00000000000E+00  0.00000000000E+00 -0.80222522986E+03  0.80222522987E+03  0.25500000920E-02 0.  1.
    10030    2    1    2    0    0  0.00000000000E+00  0.00000000000E+00 -0.69940596363E+03  0.90504449613E+03  0.57440128656E+03 0.  0.
        5    1    3    3  502    0  0.78664266696E+01 -0.19160734672E+03 -0.68648601160E+03  0.71278355067E+03  0.46999998093E+01 0.  1.
       -5    1    3    3    0  502 -0.78664266696E+01  0.19160734672E+03 -0.12919952030E+02  0.19226094545E+03  0.46999998093E+01 0. -1.
</event>
<event>
 5   0  0.7424930E-02  0.6337011E+03  0.7818609E-02  0.9837853E-01
       -1   -1    0    0    0  501  0.00000000000E+00  0.00000000000E+00  0.34614232061E+03  0.34614232064E+03  0.50400001928E-02 0.  1.
        1   -1    0    0  501    0  0.00000000000E+00  0.00000000000E+00 -0.29003753390E+03  0.29003753395E+03  0.50400001928E-02 0. -1.
    10030    2    1    2    0    0  0.00000000000E+00  0.00000000000E+00  0.56104786705E+02  0.63617985459E+03  0.63370108119E+03 0.  0.
        3    1    3    3  502    0  0.11030681244E+02  0.81882838717E+02 -0.27903262303E+03  0.29100805851E+03  0.10100000352E+00 0. -1.
       -3    1    3    3    0  502 -0.11030681244E+02 -0.81882838717E+02  0.33513740973E+03  0.34517179608E+03  0.10100000352E+00 0.  1.
</event>
<event>
 5   0  0.1166419E-01  0.6074672E+03  0.7818609E-02  0.9890034E-01
       -2   -1    0    0    0  501  0.00000000000E+00  0.00000000000E+00  0.13553773526E+03  0.13553773528E+03  0.25500000920E-02 0.  1.
        2   -1    0    0  501    0  0.00000000000E+00  0.00000000000E+00 -0.68065258239E+03  0.68065258240E+03  0.25500000920E-02 0. -1.
    10030    2    1    2    0    0  0.00000000000E+00  0.00000000000E+00 -0.54511484713E+03  0.81619031768E+03  0.60746723213E+03 0.  0.
        1    1    3    3  502    0  0.15381330071E+03  0.14891240710E+03  0.16926398939E+02  0.21475553420E+03  0.50400001928E-02 0.  1.
       -1    1    3    3    0  502 -0.15381330071E+03 -0.14891240710E+03 -0.56204124607E+03  0.60143478348E+03  0.50400001928E-02 0. -1.
</event>
<event>
 5   0  0.7424930E-02  0.6056203E+03  0.7818609E-02  0.9893814E-01
        1   -1    0    0  501    0  0.00000000000E+00  0.00000000000E+00  0.84736722733E+03  0.84736722735E+03  0.50400001928E-02 0.  1.
       -1   -1    0    0    0  501  0.00000000000E+00  0.00000000000E+00 -0.10821044493E+03  0.10821044505E+03  0.50400001928E-02 0. -1.
    10030    2    1    2    0    0  0.00000000000E+00  0.00000000000E+00  0.73915678240E+03  0.95557767239E+03  0.60562029276E+03 0.  0.
        3    1    3    3  502    0  0.21018121404E+03 -0.58906025066E+02  0.38425738610E+02  0.22163621120E+03  0.10100000352E+00 0. -1.
       -3    1    3    3    0  502 -0.21018121404E+03  0.58906025066E+02  0.70073104379E+03  0.73394146119E+03  0.10100000352E+00 0.  1.
</event>
<event>
 5   0  0.1206238E-01  0.5968697E+03  0.7818609E-02  0.9911922E-01
       -2   -1    0    0    0  501  0.00000000000E+00  0.00000000000E+00  0.12697374858E+03  0.12697374861E+03  0.25500000920E-02 0.  1.
        2   -1    0    0  501    0  0.00000000000E+00  0.00000000000E+00 -0.70143134385E+03  0.70143134386E+03  0.25500000920E-02 0. -1.
    10030    2    1    2    0    0  0.00000000000E+00  0.00000000000E+00 -0.57445759527E+03  0.82840509246E+03  0.59686972486E+03 0.  0.
        5    1    3    3  502    0  0.23955759427E+03 -0.17339767790E+03 -0.34251389520E+03  0.45254000274E+03  0.46999998093E+01 0. -1.
       -5    1    3    3    0  502 -0.23955759427E+03  0.17339767790E+03 -0.23194370007E+03  0.37586508973E+03  0.46999998093E+01 0.  1.
</event>
<event>
 5   0  0.1175861E-01  0.5879712E+03  0.7818609E-02  0.9930681E-01
        2   -1    0    0  501    0  0.00000000000E+00  0.00000000000E+00  0.66540015293E+03  0.66540015293E+03  0.25500000920E-02 0.  1.
       -2   -1    0    0    0  501  0.00000000000E+00  0.00000000000E+00 -0.12988805048E+03  0.12988805050E+03  0.25500000920E-02 0. -1.
    10030    2    1    2    0    0  0.00000000000E+00  0.00000000000E+00  0.53551210245E+03  0.79528820343E+03  0.58797118522E+03 0.  0.
        3    1    3    3  502    0 -0.59038965863E+02  0.14661745092E+03  0.60303989539E+03  0.62340949788E+03  0.10100000352E+00 0.  1.
       -3    1    3    3    0  502  0.59038965863E+02 -0.14661745092E+03 -0.67527792946E+02  0.17187870556E+03  0.10100000352E+00 0. -1.
</event>
<event>
 5   0  0.4695625E-02  0.6058310E+03  0.7818609E-02  0.9893382E-01
        3   -1    0    0  501    0  0.00000000000E+00  0.00000000000E+00  0.99579449990E+02  0.99579501210E+02  0.10100000352E+00 0.  1.
       -3   -1    0    0    0  501  0.00000000000E+00  0.00000000000E+00 -0.92145286016E+03  0.92145286570E+03  0.10100000352E+00 0. -1.
    10030    2    1    2    0    0  0.00000000000E+00  0.00000000000E+00 -0.82187341017E+03  0.10210323669E+04  0.60583099287E+03 0.  0.
        3    1    3    3  502    0  0.14680124553E+03 -0.25887052329E+03 -0.31570020810E+03  0.43385618021E+03  0.10100000352E+00 0. -1.
       -3    1    3    3    0  502 -0.14680124553E+03  0.25887052329E+03 -0.50617320207E+03  0.58717618669E+03  0.10100000352E+00 0.  1.
</event>
<event>
 5   0  0.1175861E-01  0.6300757E+03  0.7818609E-02  0.9844901E-01
       -2   -1    0    0    0  501  0.00000000000E+00  0.00000000000E+00  0.23126925292E+03  0.23126925293E+03  0.25500000920E-02 0.  1.
        2   -1    0    0  501    0  0.00000000000E+00  0.00000000000E+00 -0.42914845179E+03  0.42914845180E+03  0.25500000920E-02 0. -1.
    10030    2    1    2    0    0  0.00000000000E+00  0.00000000000E+00 -0.19787919887E+03  0.66041770474E+03  0.63007568385E+03 0.  0.
        3    1    3    3  502    0 -0.27399700432E+03 -0.15061477797E+03 -0.13939437975E+03  0.34233021051E+03  0.10100000352E+00 0. -1.
       -3    1    3    3    0  502  0.27399700432E+03  0.15061477797E+03 -0.58484819124E+02  0.31808749423E+03  0.10100000352E+00 0.  1.
</event>
<event>
 5   0  0.7266519E-02  0.5950275E+03  0.7818609E-02  0.9915776E-01
       -1   -1    0    0    0  501  0.00000000000E+00  0.00000000000E+00  0.79228576329E+02  0.79228576490E+02  0.50400001928E-02 0.  1.
        1   -1    0    0  501    0  0.00000000000E+00  0.00000000000E+00 -0.11172033610E+04  0.11172033610E+04  0.50400001928E-02 0. -1.
    10030    2    1    2    0    0  0.00000000000E+00  0.00000000000E+00 -0.10379747847E+04  0.11964319375E+04  0.59502750143E+03 0.  0.
        4    1    3    3  502    0 -0.21576186372E+03  0.17149372315E+03 -0.74423742532E+03  0.79363356599E+03  0.12699999809E+01 0. -1.
       -4    1    3    3    0  502  0.21576186372E+03 -0.17149372315E+03 -0.29373735935E+03  0.40279837152E+03  0.12699999809E+01 0.  1.
</event>
<event>
 5   0  0.7266519E-02  0.5960580E+03  0.7818609E-02  0.9913618E-01
        1   -1    0    0  501    0  0.00000000000E+00  0.00000000000E+00  0.45198273674E+03  0.45198273677E+03  0.50400001928E-02 0.  1.
       -1   -1    0    0    0  501  0.00000000000E+00  0.00000000000E+00 -0.19651474780E+03  0.19651474786E+03  0.50400001928E-02 0. -1.
    10030    2    1    2    0    0  0.00000000000E+00  0.00000000000E+00  0.25546798894E+03  0.64849748463E+03  0.59605796211E+03 0.  0.
        4    1    3    3  502    0  0.29504229671E+03  0.42042842291E+02  0.12615616041E+03  0.32362717306E+03  0.12699999809E+01 0. -1.
       -4    1    3    3    0  502 -0.29504229671E+03 -0.42042842291E+02  0.12931182853E+03  0.32487031156E+03  0.12699999809E+01 0.  1.
</event>
<event>
 5   0  0.7263385E-02  0.5996099E+03  0.7818609E-02  0.9906216E-01
       -1   -1    0    0    0  501  0.00000000000E+00  0.00000000000E+00  0.59975240188E+02  0.59975240400E+02  0.50400001928E-02 0.  1.
        1   -1    0    0  501    0  0.00000000000E+00  0.00000000000E+00 -0.14986683819E+04  0.14986683819E+04  0.50400001928E-02 0. -1.
    10030    2    1    2    0    0  0.00000000000E+00  0.00000000000E+00 -0.14386931417E+04  0.15586436223E+04  0.59960986095E+03 0.  0.
        1    1    3    3  502    0 -0.27321464811E+03 -0.76374669918E+02 -0.46727343188E+03  0.54664777902E+03  0.50400001928E-02 0. -1.
       -1    1    3    3    0  502  0.27321464811E+03  0.76374669918E+02 -0.97141970982E+03  0.10119958433E+04  0.50400001928E-02 0.  1.
</event>
<event>
 5   0  0.7221069E-02  0.5778859E+03  0.7818609E-02  0.9952379E-01
        1   -1    0    0  501    0  0.00000000000E+00  0.00000000000E+00  0.41707797235E+03  0.41707797238E+03  0.50400001928E-02 0. -1.
       -1   -1    0    0    0  501  0.00000000000E+00  0.00000000000E+00 -0.20017364956E+03  0.20017364962E+03  0.50400001928E-02 0.  1.
    10030    2    1    2    0    0  0.00000000000E+00  0.00000000000E+00  0.21690432279E+03  0.61725162201E+03  0.57788587076E+03 0.  0.
        5    1    3    3  502    0  0.83980847615E+02  0.18766857121E+03  0.32524020438E+03  0.38480586785E+03  0.46999998093E+01 0. -1.
       -5    1    3    3    0  502 -0.83980847615E+02 -0.18766857121E+03 -0.10833588159E+03  0.23244575416E+03  0.46999998093E+01 0.  1.
</event>
<event>
 5   0  0.7424930E-02  0.6274055E+03  0.7818609E-02  0.9850125E-01
        1   -1    0    0  501    0  0.00000000000E+00  0.00000000000E+00  0.48295628684E+03  0.48295628686E+03  0.50400001928E-02 0. -1.
       -1   -1    0    0    0  501  0.00000000000E+00  0.00000000000E+00 -0.20376465430E+03  0.20376465436E+03  0.50400001928E-02 0.  1.
    10030    2    1    2    0    0  0.00000000000E+00  0.00000000000E+00  0.27919163254E+03  0.68672094122E+03  0.62740551754E+03 0.  0.
        3    1    3    3  502    0 -0.90637823099E+02  0.12899859594E+03 -0.15725196017E+03  0.22267474466E+03  0.10100000352E+00 0.  1.
       -3    1    3    3    0  502  0.90637823099E+02 -0.12899859594E+03  0.43644359271E+03  0.46404619657E+03  0.10100000352E+00 0. -1.
</event>
<event>
 5   0  0.7123340E-02  0.6273112E+03  0.7818609E-02  0.9850310E-01
        1   -1    0    0  501    0  0.00000000000E+00  0.00000000000E+00  0.12492804622E+03  0.12492804632E+03  0.50400001928E-02 0. -1.
       -1   -1    0    0    0  501  0.00000000000E+00  0.00000000000E+00 -0.78749201071E+03  0.78749201073E+03  0.50400001928E-02 0.  1.
    10030    2    1    2    0    0  0.00000000000E+00  0.00000000000E+00 -0.66256396449E+03  0.91242005705E+03  0.62731120942E+03 0.  0.
        2    1    3    3  502    0 -0.24497154745E+02 -0.23008718869E+03 -0.23287663865E+02  0.23255653138E+03  0.25500000920E-02 0. -1.
       -2    1    3    3    0  502  0.24497154745E+02  0.23008718869E+03 -0.63927630063E+03  0.67986352567E+03  0.25500000920E-02 0.  1.
</event>
<event>
 5   0  0.7123340E-02  0.6184806E+03  0.7818609E-02  0.9867790E-01
        1   -1    0    0  501    0  0.00000000000E+00  0.00000000000E+00  0.24220366295E+03  0.24220366300E+03  0.50400001928E-02 0. -1.
       -1   -1    0    0    0  501  0.00000000000E+00  0.00000000000E+00 -0.39483118105E+03  0.39483118109E+03  0.50400001928E-02 0.  1.
    10030    2    1    2    0    0  0.00000000000E+00  0.00000000000E+00 -0.15262751811E+03  0.63703484409E+03  0.61848058441E+03 0.  0.
        2    1    3    3  502    0  0.12873370145E+02 -0.75268576949E+02 -0.38496753913E+03  0.39246794586E+03  0.25500000920E-02 0.  1.
       -2    1    3    3    0  502 -0.12873370145E+02  0.75268576949E+02  0.23234002102E+03  0.24456689823E+03  0.25500000920E-02 0. -1.
</event>
<event>
 5   0  0.1219020E-01  0.5753334E+03  0.7818609E-02  0.9957946E-01
        2   -1    0    0  501    0  0.00000000000E+00  0.00000000000E+00  0.16569316239E+04  0.16569316239E+04  0.25500000920E-02 0. -1.
       -2   -1    0    0    0  501  0.00000000000E+00  0.00000000000E+00 -0.49942994293E+02  0.49942994358E+02  0.25500000920E-02 0.  1.
    10030    2    1    2    0    0  0.00000000000E+00  0.00000000000E+00  0.16069886296E+04  0.17068746183E+04  0.57533338751E+03 0.  0.
        2    1    3    3  502    0 -0.40208702260E+02 -0.65804749705E+02  0.16256936743E+04  0.16275217134E+04  0.25500000920E-02 0. -1.
       -2    1    3    3    0  502  0.40208702260E+02  0.65804749705E+02 -0.18705044643E+02  0.79352904942E+02  0.25500000920E-02 0.  1.
</event>
<event>
 5   0  0.7221069E-02  0.5935553E+03  0.7818609E-02  0.9918868E-01
        1   -1    0    0  501    0  0.00000000000E+00  0.00000000000E+00  0.74960106066E+03  0.74960106068E+03  0.50400001928E-02 0.  1.
       -1   -1    0    0    0  501  0.00000000000E+00  0.00000000000E+00 -0.11749845744E+03  0.11749845754E+03  0.50400001928E-02 0. -1.
    10030    2    1    2    0    0  0.00000000000E+00  0.00000000000E+00  0.63210260322E+03  0.86709951822E+03  0.59355528260E+03 0.  0.
        5    1    3    3  502    0  0.13460732039E+02 -0.34621671131E+02  0.74613676417E+03  0.74707564026E+03  0.46999998093E+01 0.  1.
       -5    1    3    3    0  502 -0.13460732039E+02  0.34621671131E+02 -0.11403416095E+03  0.12002387796E+03  0.46999998093E+01 0. -1.
</event>
<event>
 5   0  0.7263385E-02  0.6041192E+03  0.7818609E-02  0.9896897E-01
        1   -1    0    0  501    0  0.00000000000E+00  0.00000000000E+00  0.42643806399E+03  0.42643806402E+03  0.50400001928E-02 0. -1.
       -1   -1    0    0    0  501  0.00000000000E+00  0.00000000000E+00 -0.21395840158E+03  0.21395840164E+03  0.50400001928E-02 0.  1.
    10030    2    1    2    0    0  0.00000000000E+00  0.00000000000E+00  0.21247966240E+03  0.64039646566E+03  0.60411921530E+03 0.  0.
        1    1    3    3  502    0 -0.20331285871E+02 -0.32197935451E+02 -0.21140377168E+03  0.21480601235E+03  0.50400001928E-02 0.  1.
       -1    1    3    3    0  502  0.20331285871E+02  0.32197935451E+02  0.42388343409E+03  0.42559045331E+03  0.50400001928E-02 0. -1.
</event>
<event>
 5   0  0.1219020E-01  0.5690713E+03  0.7818609E-02  0.9971736E-01
        2   -1    0    0  501    0  0.00000000000E+00  0.00000000000E+00  0.30984351283E+03  0.30984351284E+03  0.25500000920E-02 0. -1.
       -2   -1    0    0    0  501  0.00000000000E+00  0.00000000000E+00 -0.26129495801E+03  0.26129495802E+03  0.25500000920E-02 0.  1.
    10030    2    1    2    0    0  0.00000000000E+00  0.00000000000E+00  0.48548554826E+02  0.57113847086E+03  0.56907134062E+03 0.  0.
        2    1    3    3  502    0  0.13541391757E+03 -0.75320730116E+02 -0.21523542611E+03  0.26521016216E+03  0.25500000920E-02 0.  1.
       -2    1    3    3    0  502 -0.13541391757E+03  0.75320730116E+02  0.26378398093E+03  0.30592830869E+03  0.25500000920E-02 0. -1.
</event>
<event>
 5   0  0.7123340E-02  0.5911866E+03  0.7818609E-02  0.9923862E-01
       -1   -1    0    0    0  501  0.00000000000E+00  0.00000000000E+00  0.40747369723E+03  0.40747369726E+03  0.50400001928E-02 0. -1.
        1   -1    0    0  501    0  0.00000000000E+00  0.00000000000E+00 -0.21443196623E+03  0.21443196629E+03  0.50400001928E-02 0.  1.
    10030    2    1    2    0    0  0.00000000000E+00  0.00000000000E+00  0.19304173100E+03  0.62190566355E+03  0.59118655639E+03 0.  0.
        2    1    3    3  502    0 -0.18717844739E+03  0.68228499610E+02  0.32623542320E+03  0.38225704792E+03  0.25500000920E-02 0.  1.
       -2    1    3    3    0  502  0.18717844739E+03 -0.68228499610E+02 -0.13319369220E+03  0.23964861563E+03  0.25500000920E-02 0. -1.
</event>
<event>
 5   0  0.7221069E-02  0.6010966E+03  0.7818609E-02  0.9903134E-01
        1   -1    0    0  501    0  0.00000000000E+00  0.00000000000E+00  0.12148867392E+04  0.12148867392E+04  0.50400001928E-02 0. -1.
       -1   -1    0    0    0  501  0.00000000000E+00  0.00000000000E+00 -0.74352012705E+02  0.74352012876E+02  0.50400001928E-02 0.  1.
    10030    2    1    2    0    0  0.00000000000E+00  0.00000000000E+00  0.11405347265E+04  0.12892387521E+04  0.60109657921E+03 0.  0.
        5    1    3    3  502    0  0.58937576583E+02  0.13496120124E+03  0.11321056774E+04  0.11416538523E+04  0.46999998093E+01 0. -1.
       -5    1    3    3    0  502 -0.58937576583E+02 -0.13496120124E+03  0.84290491231E+01  0.14758489977E+03  0.46999998093E+01 0.  1.
</event>
<event>
 5   0  0.1166419E-01  0.5780012E+03  0.7818609E-02  0.9952128E-01
        2   -1    0    0  501    0  0.00000000000E+00  0.00000000000E+00  0.13217283797E+04  0.13217283797E+04  0.25500000920E-02 0.  1.
       -2   -1    0    0    0  501  0.00000000000E+00  0.00000000000E+00 -0.63191008276E+02  0.63191008328E+02  0.25500000920E-02 0. -1.
    10030    2    1    2    0    0  0.00000000000E+00  0.00000000000E+00  0.12585373714E+04  0.13849193880E+04  0.57800120767E+03 0.  0.
        1    1    3    3  502    0 -0.11339124771E+03  0.14643406991E+03  0.97686709813E+02  0.20938769110E+03  0.50400001928E-02 0. -1.
       -1    1    3    3    0  502  0.11339124771E+03 -0.14643406991E+03  0.11608506616E+04  0.11755316969E+04  0.50400001928E-02 0.  1.
</event>
<event>
 5   0  0.1219020E-01  0.5953793E+03  0.7818609E-02  0.9915039E-01
       -2   -1    0    0    0  501  0.00000000000E+00  0.00000000000E+00  0.57110056708E+02  0.57110056765E+02  0.25500000920E-02 0. -1.
        2   -1    0    0  501    0  0.00000000000E+00  0.00000000000E+00 -0.15517252597E+04  0.15517252597E+04  0.25500000920E-02 0.  1.
    10030    2    1    2    0    0  0.00000000000E+00  0.00000000000E+00 -0.14946152030E+04  0.16088353165E+04  0.59537926609E+03 0.  0.
        2    1    3    3  502    0  0.26248887572E+03 -0.29120733645E+02 -0.37610434128E+03  0.45956816963E+03  0.25500000920E-02 0. -1.
       -2    1    3    3    0  502 -0.26248887572E+03  0.29120733645E+02 -0.11185108617E+04  0.11492671468E+04  0.25500000920E-02 0.  1.
</event>
<event>
 5   0  0.1146468E-01  0.6014205E+03  0.7818609E-02  0.9902463E-01
        2   -1    0    0  501    0  0.00000000000E+00  0.00000000000E+00  0.15234787794E+04  0.15234787794E+04  0.25500000920E-02 0.  1.
       -2   -1    0    0    0  501  0.00000000000E+00  0.00000000000E+00 -0.59355366815E+02  0.59355366870E+02  0.25500000920E-02 0. -1.
    10030    2    1    2    0    0  0.00000000000E+00  0.00000000000E+00  0.14641234126E+04  0.15828341463E+04  0.60142045802E+03 0.  0.
        4    1    3    3  502    0  0.29588189450E+02 -0.29483891411E+03  0.59735994621E+03  0.66681778955E+03  0.12699999809E+01 0. -1.
       -4    1    3    3    0  502 -0.29588189450E+02  0.29483891411E+03  0.86676346639E+03  0.91601635673E+03  0.12699999809E+01 0.  1.
</event>
<event>
 5   0  0.1206238E-01  0.5988020E+03  0.7818609E-02  0.9907895E-01
        2   -1    0    0  501    0  0.00000000000E+00  0.00000000000E+00  0.67936556191E+03  0.67936556191E+03  0.25500000920E-02 0.  1.
       -2   -1    0    0    0  501  0.00000000000E+00  0.00000000000E+00 -0.13194803872E+03  0.13194803875E+03  0.25500000920E-02 0. -1.
    10030    2    1    2    0    0  0.00000000000E+00  0.00000000000E+00  0.54741752318E+03  0.81131360066E+03  0.59880198223E+03 0.  0.
        5    1    3    3  502    0  0.23623505069E+02 -0.35026810547E+02 -0.12783848298E+03  0.13472087877E+03  0.46999998093E+01 0. -1.
       -5    1    3    3    0  502 -0.23623505069E+02  0.35026810547E+02  0.67525600616E+03  0.67659272188E+03  0.46999998093E+01 0.  1.
</event>
<event>
 5   0  0.1146468E-01  0.6321223E+03  0.7818609E-02  0.9840916E-01
        2   -1    0    0  501    0  0.00000000000E+00  0.00000000000E+00  0.16775899654E+03  0.16775899656E+03  0.25500000920E-02 0.  1.
       -2   -1    0    0    0  501  0.00000000000E+00  0.00000000000E+00 -0.59546525151E+03  0.59546525151E+03  0.25500000920E-02 0. -1.
    10030    2    1    2    0    0  0.00000000000E+00  0.00000000000E+00 -0.42770625497E+03  0.76322424807E+03  0.63212230803E+03 0.  0.
        4    1    3    3  502    0 -0.12664736249E+03  0.20717130468E+03 -0.45813468207E+03  0.51850603056E+03  0.12699999809E+01 0. -1.
       -4    1    3    3    0  502  0.12664736249E+03 -0.20717130468E+03  0.30428427103E+02  0.24471821751E+03  0.12699999809E+01 0.  1.
</event>
<event>
 5   0  0.1166419E-01  0.6045843E+03  0.7818609E-02  0.9895940E-01
        2   -1    0    0  501    0  0.00000000000E+00  0.00000000000E+00  0.10311674632E+04  0.10311674632E+04  0.25500000920E-02 0. -1.
       -2   -1    0    0    0  501  0.00000000000E+00  0.00000000000E+00 -0.88618530129E+02  0.88618530166E+02  0.25500000920E-02 0.  1.
    10030    2    1    2    0    0  0.00000000000E+00  0.00000000000E+00  0.94254893303E+03  0.11197859933E+04  0.60458430322E+03 0.  0.
        1    1    3    3  502    0 -0.15937494700E+03 -0.22762007907E+02 -0.26105798204E+01  0.16101334692E+03  0.50400001928E-02 0.  1.
       -1    1    3    3    0  502  0.15937494700E+03  0.22762007907E+02  0.94515951285E+03  0.95877264641E+03  0.50400001928E-02 0. -1.
</event>
<event>
 5   0  0.7123340E-02  0.6357396E+03  0.7818609E-02  0.9833912E-01
       -1   -1    0    0    0  501  0.00000000000E+00  0.00000000000E+00  0.99548265925E+02  0.99548266053E+02  0.50400001928E-02 0.  1.
        1   -1    0    0  501    0  0.00000000000E+00  0.00000000000E+00 -0.10149971979E+04  0.10149971979E+04  0.50400001928E-02 0. -1.
    10030    2    1    2    0    0  0.00000000000E+00  0.00000000000E+00 -0.91544893194E+03  0.11145454639E+04  0.63573960406E+03 0.  0.
        2    1    3    3  502    0  0.29596564609E+02 -0.91359470207E+02  0.73507371680E+02  0.12093735209E+03  0.25500000920E-02 0.  1.
       -2    1    3    3    0  502 -0.29596564609E+02  0.91359470207E+02 -0.98895630362E+03  0.99360811183E+03  0.25500000920E-02 0. -1.
</event>
<event>
 5   0  0.1219020E-01  0.4634963E+03  0.7818609E-02  0.1023772E+00
        2   -1    0    0  501    0  0.00000000000E+00  0.00000000000E+00  0.63672295833E+03  0.63672295834E+03  0.25500000920E-02 0.  1.
       -2   -1    0    0    0  501  0.00000000000E+00  0.00000000000E+00 -0.84349400396E+02  0.84349400435E+02  0.25500000920E-02 0. -1.
    10030    2    1    2    0    0  0.00000000000E+00  0.00000000000E+00  0.55237355794E+03  0.72107235877E+03  0.46349627731E+03 0.  0.
        2    1    3    3  502    0  0.15408057518E+03 -0.11588249682E+02  0.74825958411E+01  0.15469680160E+03  0.25500000920E-02 0. -1.
       -2    1    3    3    0  502 -0.15408057518E+03  0.11588249682E+02  0.54489096210E+03  0.56637555717E+03  0.25500000920E-02 0.  1.
</event>
<event>
 5   0  0.1175861E-01  0.5998061E+03  0.7818609E-02  0.9905808E-01
       -2   -1    0    0    0  501  0.00000000000E+00  0.00000000000E+00  0.20353368970E+03  0.20353368972E+03  0.25500000920E-02 0.  1.
        2   -1    0    0  501    0  0.00000000000E+00  0.00000000000E+00 -0.44190146703E+03  0.44190146704E+03  0.25500000920E-02 0. -1.
    10030    2    1    2    0    0  0.00000000000E+00  0.00000000000E+00 -0.23836777733E+03  0.64543515676E+03  0.59980608892E+03 0.  0.
        3    1    3    3  502    0 -0.80550850747E+02 -0.27601259711E+03 -0.21093722659E+03  0.35660330492E+03  0.10100000352E+00 0. -1.
       -3    1    3    3    0  502  0.80550850747E+02  0.27601259711E+03 -0.27430550739E+02  0.28883185183E+03  0.10100000352E+00 0.  1.
</event>
<event>
 5   0  0.4695625E-02  0.6025875E+03  0.7818609E-02  0.9900052E-01
       -4   -1    0    0    0  501  0.00000000000E+00  0.00000000000E+00  0.90024733608E+03  0.90024823189E+03  0.12699999809E+01 0. -1.
        4   -1    0    0  501    0  0.00000000000E+00  0.00000000000E+00 -0.10083169738E+03  0.10083969505E+03  0.12699999809E+01 0.  1.
    10030    2    1    2    0    0  0.00000000000E+00  0.00000000000E+00  0.79941563870E+03  0.10010879269E+04  0.60258748250E+03 0.  0.
        2    1    3    3  502    0 -0.24460058576E+03  0.58867180885E+02  0.12429434106E+03  0.28061339021E+03  0.25500000920E-02 0.  1.
       -2    1    3    3    0  502  0.24460058576E+03 -0.58867180885E+02  0.67512129763E+03  0.72047453672E+03  0.25500000920E-02 0. -1.
</event>
<event>
 5   0  0.1166419E-01  0.5954691E+03  0.7818609E-02  0.9914851E-01
        2   -1    0    0  501    0  0.00000000000E+00  0.00000000000E+00  0.27625990157E+03  0.27625990158E+03  0.25500000920E-02 0. -1.
       -2   -1    0    0    0  501  0.00000000000E+00  0.00000000000E+00 -0.32087844644E+03  0.32087844645E+03  0.25500000920E-02 0.  1.
    10030    2    1    2    0    0  0.00000000000E+00  0.00000000000E+00 -0.44618544872E+02  0.59713834803E+03  0.59546905221E+03 0.  0.
        1    1    3    3  502    0  0.18116493577E+03 -0.19300414688E+03 -0.15897967987E+03  0.30878127097E+03  0.50400001928E-02 0.  1.
       -1    1    3    3    0  502 -0.18116493577E+03  0.19300414688E+03  0.11436113500E+03  0.28835707706E+03  0.50400001928E-02 0. -1.
</event>
<event>
 5   0  0.7263385E-02  0.6034715E+03  0.7818609E-02  0.9898230E-01
        1   -1    0    0  501    0  0.00000000000E+00  0.00000000000E+00  0.59079817445E+02  0.59079817660E+02  0.50400001928E-02 0. -1.
       -1   -1    0    0    0  501  0.00000000000E+00  0.00000000000E+00 -0.15410415750E+04  0.15410415750E+04  0.50400001928E-02 0.  1.
    10030    2    1    2    0    0  0.00000000000E+00  0.00000000000E+00 -0.14819617576E+04  0.16001213927E+04  0.60347147441E+03 0.  0.
        1    1    3    3  502    0 -0.10438195304E+03  0.27729892809E+03 -0.58972365217E+03  0.65997293399E+03  0.50400001928E-02 0. -1.
       -1    1    3    3    0  502  0.10438195304E+03 -0.27729892809E+03 -0.89223810542E+03  0.94014845872E+03  0.50400001928E-02 0.  1.
</event>
<event>
 5   0  0.1219020E-01  0.6041906E+03  0.7818609E-02  0.9896750E-01
       -2   -1    0    0    0  501  0.00000000000E+00  0.00000000000E+00  0.56089160763E+03  0.56089160764E+03  0.25500000920E-02 0. -1.
        2   -1    0    0  501    0  0.00000000000E+00  0.00000000000E+00 -0.16270804464E+03  0.16270804466E+03  0.25500000920E-02 0.  1.
    10030    2    1    2    0    0  0.00000000000E+00  0.00000000000E+00  0.39818356299E+03  0.72359965230E+03  0.60419062139E+03 0.  0.
        2    1    3    3  502    0  0.32965689046E+02  0.20474081582E+03  0.46217927461E+03  0.50657202864E+03  0.25500000920E-02 0. -1.
       -2    1    3    3    0  502 -0.32965689046E+02 -0.20474081582E+03 -0.63995711626E+02  0.21702762365E+03  0.25500000920E-02 0.  1.
</event>
<event>
 5   0  0.7424930E-02  0.6143171E+03  0.7818609E-02  0.9876140E-01
       -1   -1    0    0    0  501  0.00000000000E+00  0.00000000000E+00  0.94918270251E+02  0.94918270385E+02  0.50400001928E-02 0. -1.
        1   -1    0    0  501    0  0.00000000000E+00  0.00000000000E+00 -0.99397486777E+03  0.99397486778E+03  0.50400001928E-02 0.  1.
    10030    2    1    2    0    0  0.00000000000E+00  0.00000000000E+00 -0.89905659752E+03  0.10888931382E+04  0.61431710118E+03 0.  0.
        3    1    3    3  502    0 -0.27277488807E+00 -0.12426926784E+03  0.48369978688E+02  0.13335137935E+03  0.10100000352E+00 0. -1.
       -3    1    3    3    0  502  0.27277488807E+00  0.12426926784E+03 -0.94742657621E+03  0.95554175881E+03  0.10100000352E+00 0.  1.
</event>
<event>
 5   0  0.1206238E-01  0.5699669E+03  0.7818609E-02  0.9969752E-01
       -2   -1    0    0    0  501  0.00000000000E+00  0.00000000000E+00  0.23789060505E+03  0.23789060506E+03  0.25500000920E-02 0.  1.
        2   -1    0    0  501    0  0.00000000000E+00  0.00000000000E+00 -0.34139881122E+03  0.34139881123E+03  0.25500000920E-02 0. -1.
    10030    2    1    2    0    0  0.00000000000E+00  0.00000000000E+00 -0.10350820617E+03  0.57928941629E+03  0.56996691051E+03 0.  0.
        5    1    3    3  502    0 -0.25570446139E+03  0.56366857703E+02 -0.16598225891E+03  0.31005514750E+03  0.46999998093E+01 0. -1.
       -5    1    3    3    0  502  0.25570446139E+03 -0.56366857703E+02  0.62474052740E+02  0.26923426878E+03  0.46999998093E+01 0.  1.
</event>
<event>
 5   0  0.7123340E-02  0.6276078E+03  0.7818609E-02  0.9849728E-01
       -1   -1    0    0    0  501  0.00000000000E+00  0.00000000000E+00  0.11245193321E+03  0.11245193333E+03  0.50400001928E-02 0. -1.
        1   -1    0    0  501    0  0.00000000000E+00  0.00000000000E+00 -0.87568884086E+03  0.87568884088E+03  0.50400001928E-02 0.  1.
    10030    2    1    2    0    0  0.00000000000E+00  0.00000000000E+00 -0.76323690765E+03  0.98814077420E+03  0.62760784926E+03 0.  0.
        2    1    3    3  502    0 -0.25837068822E+03 -0.96532131666E+02 -0.61725635087E+03  0.67607637710E+03  0.25500000920E-02 0.  1.
       -2    1    3    3    0  502  0.25837068822E+03  0.96532131666E+02 -0.14598055678E+03  0.31206439710E+03  0.25500000920E-02 0. -1.
</event>
<event>
 5   0  0.1146468E-01  0.5922774E+03  0.7818609E-02  0.9921559E-01
        2   -1    0    0  501    0  0.00000000000E+00  0.00000000000E+00  0.11397605484E+04  0.11397605484E+04  0.25500000920E-02 0. -1.
       -2   -1    0    0    0  501  0.00000000000E+00  0.00000000000E+00 -0.76944352938E+02  0.76944352980E+02  0.25500000920E-02 0.  1.
    10030    2    1    2    0    0  0.00000000000E+00  0.00000000000E+00  0.10628161955E+04  0.12167049014E+04  0.59227742800E+03 0.  0.
        4    1    3    3  502    0  0.16965334812E+03  0.14104116541E+03  0.12560727358E+03  0.25387727142E+03  0.12699999809E+01 0.  1.
       -4    1    3    3    0  502 -0.16965334812E+03 -0.14104116541E+03  0.93720892190E+03  0.96282762998E+03  0.12699999809E+01 0. -1.
</event>
<event>
 5   0  0.7263385E-02  0.6022234E+03  0.7818609E-02  0.9900804E-01
        1   -1    0    0  501    0  0.00000000000E+00  0.00000000000E+00  0.42662164423E+03  0.42662164426E+03  0.50400001928E-02 0.  1.
       -1   -1    0    0    0  501  0.00000000000E+00  0.00000000000E+00 -0.21252613052E+03  0.21252613058E+03  0.50400001928E-02 0. -1.
    10030    2    1    2    0    0  0.00000000000E+00  0.00000000000E+00  0.21409551371E+03  0.63914777484E+03  0.60222337143E+03 0.  0.
        1    1    3    3  502    0 -0.28987162179E+02  0.14062945164E+03  0.38794787831E+03  0.41366708178E+03  0.50400001928E-02 0.  1.
       -1    1    3    3    0  502  0.28987162179E+02 -0.14062945164E+03 -0.17385236460E+03  0.22548069306E+03  0.50400001928E-02 0. -1.
</event>
<event>
 5   0  0.1166419E-01  0.5341987E+03  0.7818609E-02  0.1005219E+00
        2   -1    0    0  501    0  0.00000000000E+00  0.00000000000E+00  0.59672648757E+03  0.59672648758E+03  0.25500000920E-02 0. -1.
       -2   -1    0    0    0  501  0.00000000000E+00  0.00000000000E+00 -0.11955571399E+03  0.11955571401E+03  0.25500000920E-02 0.  1.
    10030    2    1    2    0    0  0.00000000000E+00  0.00000000000E+00  0.47717077358E+03  0.71628220159E+03  0.53419869445E+03 0.  0.
        1    1    3    3  502    0 -0.66843487673E+02  0.13783355833E+02  0.58483735583E+03  0.58880622071E+03  0.50400001928E-02 0. -1.
       -1    1    3    3    0  502  0.66843487673E+02 -0.13783355833E+02 -0.10766658225E+03  0.12747598088E+03  0.50400001928E-02 0.  1.
</event>
<event>
 5   0  0.7266519E-02  0.6012749E+03  0.7818609E-02  0.9902765E-01
        1   -1    0    0  501    0  0.00000000000E+00  0.00000000000E+00  0.17636599058E+04  0.17636599058E+04  0.50400001928E-02 0.  1.
       -1   -1    0    0    0  501  0.00000000000E+00  0.00000000000E+00 -0.51247335457E+02  0.51247335705E+02  0.50400001928E-02 0. -1.
    10030    2    1    2    0    0  0.00000000000E+00  0.00000000000E+00  0.17124125704E+04  0.18149072415E+04  0.60127488242E+03 0.  0.
        4    1    3    3  502    0 -0.14884323919E+03 -0.25946672199E+03  0.76545390665E+03  0.82182637204E+03  0.12699999809E+01 0. -1.
       -4    1    3    3    0  502  0.14884323919E+03  0.25946672199E+03  0.94695866372E+03  0.99308086950E+03  0.12699999809E+01 0.  1.
</event>
<event>
 5   0  0.4695625E-02  0.6069122E+03  0.7818609E-02  0.9891168E-01
        3   -1    0    0  501    0  0.00000000000E+00  0.00000000000E+00  0.23946775067E+03  0.23946777197E+03  0.10100000352E+00 0. -1.
       -3   -1    0    0    0  501  0.00000000000E+00  0.00000000000E+00 -0.38454273128E+03  0.38454274455E+03  0.10100000352E+00 0.  1.
    10030    2    1    2    0    0  0.00000000000E+00  0.00000000000E+00 -0.14507498061E+03  0.62401051652E+03  0.60691216393E+03 0.  0.
        4    1    3    3  502    0 -0.21539664368E+03  0.18210023933E+01  0.14722453408E+03  0.26091321640E+03  0.12699999809E+01 0. -1.
       -4    1    3    3    0  502  0.21539664368E+03 -0.18210023933E+01 -0.29229951469E+03  0.36309730011E+03  0.12699999809E+01 0.  1.
</event>
<event>
 5   0  0.1175861E-01  0.5861644E+03  0.7818609E-02  0.9934534E-01
       -2   -1    0    0    0  501  0.00000000000E+00  0.00000000000E+00  0.62177337502E+02  0.62177337554E+02  0.25500000920E-02 0. -1.
        2   -1    0    0  501    0  0.00000000000E+00  0.00000000000E+00 -0.13814869391E+04  0.13814869391E+04  0.25500000920E-02 0.  1.
    10030    2    1    2    0    0  0.00000000000E+00  0.00000000000E+00 -0.13193096015E+04  0.14436642766E+04  0.58616441278E+03 0.  0.
        3    1    3    3  502    0 -0.14971705164E+02  0.91501602291E+02  0.25104344874E+02  0.96056928484E+02  0.10100000352E+00 0. -1.
       -3    1    3    3    0  502  0.14971705164E+02 -0.91501602291E+02 -0.13444139464E+04  0.13476073481E+04  0.10100000352E+00 0.  1.
</event>
<event>
 5   0  0.7424930E-02  0.6417150E+03  0.7818609E-02  0.9822451E-01
        1   -1    0    0  501    0  0.00000000000E+00  0.00000000000E+00  0.76222004582E+03  0.76222004584E+03  0.50400001928E-02 0. -1.
       -1   -1    0    0    0  501  0.00000000000E+00  0.00000000000E+00 -0.13506536043E+03  0.13506536052E+03  0.50400001928E-02 0.  1.
    10030    2    1    2    0    0  0.00000000000E+00  0.00000000000E+00  0.62715468539E+03  0.89728540636E+03  0.64171496871E+03 0.  0.
        3    1    3    3  502    0  0.88535087989E+02 -0.10298274161E+03 -0.92895187059E+02  0.16454006459E+03  0.10100000352E+00 0.  1.
       -3    1    3    3    0  502 -0.88535087989E+02  0.10298274161E+03  0.72004987245E+03  0.73274534178E+03  0.10100000352E+00 0. -1.
</event>
<event>
 5   0  0.1166419E-01  0.5888234E+03  0.7818609E-02  0.9928869E-01
        2   -1    0    0  501    0  0.00000000000E+00  0.00000000000E+00  0.11285614460E+04  0.11285614460E+04  0.25500000920E-02 0. -1.
       -2   -1    0    0    0  501  0.00000000000E+00  0.00000000000E+00 -0.76804199159E+02  0.76804199202E+02  0.25500000920E-02 0.  1.
    10030    2    1    2    0    0  0.00000000000E+00  0.00000000000E+00  0.10517572468E+04  0.12053656452E+04  0.58882343053E+03 0.  0.
        1    1    3    3  502    0  0.69730881509E+02 -0.18540070088E+03  0.79999390530E+02  0.21362518165E+03  0.50400001928E-02 0.  1.
       -1    1    3    3    0  502 -0.69730881509E+02  0.18540070088E+03  0.97175785626E+03  0.99174046351E+03  0.50400001928E-02 0. -1.
</event>
<event>
 5   0  0.7266519E-02  0.5901994E+03  0.7818609E-02  0.9925950E-01
        1   -1    0    0  501    0  0.00000000000E+00  0.00000000000E+00  0.72410498889E+03  0.72410498891E+03  0.50400001928E-02 0.  1.
       -1   -1    0    0    0  501  0.00000000000E+00  0.00000000000E+00 -0.12026409333E+03  0.12026409343E+03  0.50400001928E-02 0. -1.
    10030    2    1    2    0    0  0.00000000000E+00  0.00000000000E+00  0.60384089557E+03  0.84436908234E+03  0.59019939009E+03 0.  0.
        4    1    3    3  502    0 -0.93579687433E+02  0.22380274869E+03  0.54232674192E+03  0.59410835386E+03  0.12699999809E+01 0.  1.
       -4    1    3    3    0  502  0.93579687433E+02 -0.22380274869E+03  0.61514153648E+02  0.25026072849E+03  0.12699999809E+01 0. -1.
</event>
<event>
 5   0  0.1175861E-01  0.5795697E+03  0.7818609E-02  0.9948723E-01
        2   -1    0    0  501    0  0.00000000000E+00  0.00000000000E+00  0.86751964378E+03  0.86751964379E+03  0.25500000920E-02 0.  1.
       -2   -1    0    0    0  501  0.00000000000E+00  0.00000000000E+00 -0.96799274968E+02  0.96799275001E+02  0.25500000920E-02 0. -1.
    10030    2    1    2    0    0  0.00000000000E+00  0.00000000000E+00  0.77072036881E+03  0.96431891879E+03  0.57956974578E+03 0.  0.
        3    1    3    3  502    0 -0.52304382812E+02 -0.22594258858E+03  0.96263802166E+02  0.25110263161E+03  0.10100000352E+00 0. -1.
       -3    1    3    3    0  502  0.52304382812E+02  0.22594258858E+03  0.67445656665E+03  0.71321628717E+03  0.10100000352E+00 0.  1.
</event>
<event>
 5   0  0.7266519E-02  0.5752694E+03  0.7818609E-02  0.9958086E-01
        1   -1    0    0  501    0  0.00000000000E+00  0.00000000000E+00  0.54945366479E+03  0.54945366481E+03  0.50400001928E-02 0.  1.
       -1   -1    0    0    0  501  0.00000000000E+00  0.00000000000E+00 -0.15057449475E+03  0.15057449483E+03  0.50400001928E-02 0. -1.
    10030    2    1    2    0    0  0.00000000000E+00  0.00000000000E+00  0.39887917004E+03  0.70002815964E+03  0.57526935604E+03 0.  0.
        4    1    3    3  502    0  0.18742906772E+03  0.95163623302E+01 -0.65804294370E+02  0.19887693339E+03  0.12699999809E+01 0. -1.
       -4    1    3    3    0  502 -0.18742906772E+03 -0.95163623302E+01  0.46468346441E+03  0.50115122625E+03  0.12699999809E+01 0.  1.
</event>
<event>
 5   0  0.7221069E-02  0.6141376E+03  0.7818609E-02  0.9876502E-01
       -1   -1    0    0    0  501  0.00000000000E+00  0.00000000000E+00  0.87494645668E+02  0.87494645813E+02  0.50400001928E-02 0.  1.
        1   -1    0    0  501    0  0.00000000000E+00  0.00000000000E+00 -0.10776800714E+04  0.10776800714E+04  0.50400001928E-02 0. -1.
    10030    2    1    2    0    0  0.00000000000E+00  0.00000000000E+00 -0.99018542574E+03  0.11651747172E+04  0.61413756141E+03 0.  0.
        5    1    3    3  502    0  0.14287873124E+03  0.25297360140E+03 -0.30670802623E+03  0.42249482624E+03  0.46999998093E+01 0.  1.
       -5    1    3    3    0  502 -0.14287873124E+03 -0.25297360140E+03 -0.68347739951E+03  0.74267989099E+03  0.46999998093E+01 0. -1.
</event>
<event>
 5   0  0.7266519E-02  0.5994000E+03  0.7818609E-02  0.9906652E-01
       -1   -1    0    0    0  501  0.00000000000E+00  0.00000000000E+00  0.48362626351E+03  0.48362626354E+03  0.50400001928E-02 0.  1.
        1   -1    0    0  501    0  0.00000000000E+00  0.00000000000E+00 -0.18572212115E+03  0.18572212122E+03  0.50400001928E-02 0. -1.
    10030    2    1    2    0    0  0.00000000000E+00  0.00000000000E+00  0.29790414236E+03  0.66934838476E+03  0.59940001847E+03 0.  0.
        4    1    3    3  502    0 -0.19745544261E+03 -0.75022501597E+02 -0.88464853620E+02  0.22900801468E+03  0.12699999809E+01 0. -1.
       -4    1    3    3    0  502  0.19745544261E+03  0.75022501597E+02  0.38636899598E+03  0.44034037007E+03  0.12699999809E+01 0.  1.
</event>
<event>
 5   0  0.7424930E-02  0.5851653E+03  0.7818609E-02  0.9936670E-01
       -1   -1    0    0    0  501  0.00000000000E+00  0.00000000000E+00  0.35652093805E+02  0.35652094161E+02  0.50400001928E-02 0.  1.
        1   -1    0    0  501    0  0.00000000000E+00  0.00000000000E+00 -0.24011102864E+04  0.24011102864E+04  0.50400001928E-02 0. -1.
    10030    2    1    2    0    0  0.00000000000E+00  0.00000000000E+00 -0.23654581926E+04  0.24367623805E+04  0.58516530863E+03 0.  0.
        3    1    3    3  502    0  0.16076617730E+02  0.29084367146E+03 -0.10682241142E+04  0.11072268364E+04  0.10100000352E+00 0.  1.
       -3    1    3    3    0  502 -0.16076617730E+02 -0.29084367146E+03 -0.12972340784E+04  0.13295355442E+04  0.10100000352E+00 0. -1.
</event>
<event>
 5   0  0.1219020E-01  0.6423307E+03  0.7818609E-02  0.9821277E-01
       -2   -1    0    0    0  501  0.00000000000E+00  0.00000000000E+00  0.86340005818E+02  0.86340005856E+02  0.25500000920E-02 0.  1.
        2   -1    0    0  501    0  0.00000000000E+00  0.00000000000E+00 -0.11946626913E+04  0.11946626913E+04  0.25500000920E-02 0. -1.
    10030    2    1    2    0    0  0.00000000000E+00  0.00000000000E+00 -0.11083226855E+04  0.12810026972E+04  0.64233070531E+03 0.  0.
        2    1    3    3  502    0  0.19709760906E+02 -0.30324717179E+03 -0.34690851657E+03  0.46118634059E+03  0.25500000920E-02 0.  1.
       -2    1    3    3    0  502 -0.19709760906E+02  0.30324717179E+03 -0.76141416892E+03  0.81981635658E+03  0.25500000920E-02 0. -1.
</event>
<event>
 5   0  0.1146468E-01  0.5955552E+03  0.7818609E-02  0.9914671E-01
       -2   -1    0    0    0  501  0.00000000000E+00  0.00000000000E+00  0.11006499594E+03  0.11006499597E+03  0.25500000920E-02 0. -1.
        2   -1    0    0  501    0  0.00000000000E+00  0.00000000000E+00 -0.80562861696E+03  0.80562861696E+03  0.25500000920E-02 0.  1.
    10030    2    1    2    0    0  0.00000000000E+00  0.00000000000E+00 -0.69556362102E+03  0.91569361293E+03  0.59555523831E+03 0.  0.
        4    1    3    3  502    0  0.21532164548E+03 -0.34476990292E+01 -0.66398816746E+03  0.69803810574E+03  0.12699999809E+01 0.  1.
       -4    1    3    3    0  502 -0.21532164548E+03  0.34476990292E+01 -0.31575453564E+02  0.21765550719E+03  0.12699999809E+01 0. -1.
</event>
<event>
 5   0  0.1206238E-01  0.6031365E+03  0.7818609E-02  0.9898920E-01
        2   -1    0    0  501    0  0.00000000000E+00  0.00000000000E+00  0.54097519899E+03  0.54097519900E+03  0.25500000920E-02 0. -1.
       -2   -1    0    0    0  501  0.00000000000E+00  0.00000000000E+00 -0.16811015393E+03  0.16811015395E+03  0.25500000920E-02 0.  1.
    10030    2    1    2    0    0  0.00000000000E+00  0.00000000000E+00  0.37286504507E+03  0.70908535295E+03  0.60313654833E+03 0.  0.
        5    1    3    3  502    0  0.45026005966E+02  0.26610567222E+03  0.28342934966E+02  0.27141293624E+03  0.46999998093E+01 0.  1.
       -5    1    3    3    0  502 -0.45026005966E+02 -0.26610567222E+03  0.34452211010E+03  0.43767241671E+03  0.46999998093E+01 0. -1.
</event>
<event>
 5   0  0.4695625E-02  0.5912390E+03  0.7818609E-02  0.9923751E-01
       -4   -1    0    0    0  501  0.00000000000E+00  0.00000000000E+00  0.11347792988E+03  0.11348503633E+03  0.12699999809E+01 0.  1.
        4   -1    0    0  501    0  0.00000000000E+00  0.00000000000E+00 -0.77008168425E+03  0.77008273147E+03  0.12699999809E+01 0. -1.
    10030    2    1    2    0    0  0.00000000000E+00  0.00000000000E+00 -0.65660375436E+03  0.88356776780E+03  0.59123896189E+03 0.  0.
        2    1    3    3  502    0 -0.18869117256E+03  0.11115638107E+03 -0.62505444872E+03  0.66230896380E+03  0.25500000920E-02 0. -1.
       -2    1    3    3    0  502  0.18869117256E+03 -0.11115638107E+03 -0.31549305642E+02  0.22125880400E+03  0.25500000920E-02 0.  1.
</event>
<event>
 5   0  0.7123340E-02  0.5987887E+03  0.7818609E-02  0.9907922E-01
       -1   -1    0    0    0  501  0.00000000000E+00  0.00000000000E+00  0.32967176935E+03  0.32967176939E+03  0.50400001928E-02 0. -1.
        1   -1    0    0  501    0  0.00000000000E+00  0.00000000000E+00 -0.27189764780E+03  0.27189764785E+03  0.50400001928E-02 0.  1.
    10030    2    1    2    0    0  0.00000000000E+00  0.00000000000E+00  0.57774121548E+02  0.60156941724E+03  0.59878870617E+03 0.  0.
        2    1    3    3  502    0  0.29408409829E+03  0.56118830239E+02  0.30376740016E+02  0.30092777591E+03  0.25500000920E-02 0.  1.
       -2    1    3    3    0  502 -0.29408409829E+03 -0.56118830239E+02  0.27397381533E+02  0.30064164132E+03  0.25500000920E-02 0. -1.
</event>
<event>
 5   0  0.7263385E-02  0.5486405E+03  0.7818609E-02  0.1001809E+00
       -1   -1    0    0    0  501  0.00000000000E+00  0.00000000000E+00  0.12474918449E+03  0.12474918459E+03  0.50400001928E-02 0.  1.
        1   -1    0    0  501    0  0.00000000000E+00  0.00000000000E+00 -0.60322326718E+03  0.60322326721E+03  0.50400001928E-02 0. -1.
    10030    2    1    2    0    0  0.00000000000E+00  0.00000000000E+00 -0.47847408270E+03  0.72797245180E+03  0.54864054057E+03 0.  0.
        1    1    3    3  502    0 -0.69542189672E+02 -0.23549773106E+03 -0.76966634665E+02  0.25733083833E+03  0.50400001928E-02 0.  1.
       -1    1    3    3    0  502  0.69542189672E+02  0.23549773106E+03 -0.40150744803E+03  0.47064161347E+03  0.50400001928E-02 0. -1.
</event>
<event>
 5   0  0.1175861E-01  0.6121051E+03  0.7818609E-02  0.9880605E-01
        2   -1    0    0  501    0  0.00000000000E+00  0.00000000000E+00  0.50959168941E+03  0.50959168942E+03  0.25500000920E-02 0. -1.
       -2   -1    0    0    0  501  0.00000000000E+00  0.00000000000E+00 -0.18381021596E+03  0.18381021598E+03  0.25500000920E-02 0.  1.
    10030    2    1    2    0    0  0.00000000000E+00  0.00000000000E+00  0.32578147345E+03  0.69340190540E+03  0.61210508409E+03 0.  0.
        3    1    3    3  502    0  0.27825519215E+03 -0.10490823227E+03  0.80916401518E+02  0.30818689685E+03  0.10100000352E+00 0.  1.
       -3    1    3    3    0  502 -0.27825519215E+03  0.10490823227E+03  0.24486507193E+03  0.38521500854E+03  0.10100000352E+00 0. -1.
</event>
<event>
 5   0  0.1166419E-01  0.6226132E+03  0.7818609E-02  0.9859570E-01
       -2   -1    0    0    0  501  0.00000000000E+00  0.00000000000E+00  0.57821952863E+02  0.57821952919E+02  0.25500000920E-02 0. -1.
        2   -1    0    0  501    0  0.00000000000E+00  0.00000000000E+00 -0.16760383547E+04  0.16760383547E+04  0.25500000920E-02 0.  1.
    10030    2    1    2    0    0  0.00000000000E+00  0.00000000000E+00 -0.16182164018E+04  0.17338603076E+04  0.62261323723E+03 0.  0.
        1    1    3    3  502    0 -0.11955513777E+03  0.27697421521E+03 -0.59513638748E+03  0.66722969552E+03  0.50400001928E-02 0. -1.
       -1    1    3    3    0  502  0.11955513777E+03 -0.27697421521E+03 -0.10230800144E+04  0.10666306121E+04  0.50400001928E-02 0.  1.
</event>
<event>
 5   0  0.4695625E-02  0.6023003E+03  0.7818609E-02  0.9900645E-01
       -3   -1    0    0    0  501  0.00000000000E+00  0.00000000000E+00  0.88004247069E+03  0.88004247649E+03  0.10100000352E+00 0.  1.
        3   -1    0    0  501    0  0.00000000000E+00  0.00000000000E+00 -0.10305341026E+03  0.10305345976E+03  0.10100000352E+00 0. -1.
    10030    2    1    2    0    0  0.00000000000E+00  0.00000000000E+00  0.77698906043E+03  0.98309593624E+03  0.60230027381E+03 0.  0.
        4    1    3    3  502    0  0.19779165522E+03  0.21036212909E+03  0.24888324838E+03  0.38120630695E+03  0.12699999809E+01 0. -1.
       -4    1    3    3    0  502 -0.19779165522E+03 -0.21036212909E+03  0.52810581205E+03  0.60188962930E+03  0.12699999809E+01 0.  1.
</event>
<event>
 5   0  0.1206238E-01  0.5858042E+03  0.7818609E-02  0.9935303E-01
       -2   -1    0    0    0  501  0.00000000000E+00  0.00000000000E+00  0.30588837963E+02  0.30588838069E+02  0.25500000920E-02 0. -1.
        2   -1    0    0  501    0  0.00000000000E+00  0.00000000000E+00 -0.28046714709E+04  0.28046714709E+04  0.25500000920E-02 0.  1.
    10030    2    1    2    0    0  0.00000000000E+00  0.00000000000E+00 -0.27740826329E+04  0.28352603089E+04  0.58580420386E+03 0.  0.
        5    1    3    3  502    0  0.20706253531E+03  0.16519308494E+03 -0.19916646432E+04  0.20092072540E+04  0.46999998093E+01 0.  1.
       -5    1    3    3    0  502 -0.20706253531E+03 -0.16519308494E+03 -0.78241798973E+03  0.82605305489E+03  0.46999998093E+01 0. -1.
</event>
<event>
 5   0  0.7424930E-02  0.6407189E+03  0.7818609E-02  0.9824352E-01
        1   -1    0    0  501    0  0.00000000000E+00  0.00000000000E+00  0.22721473254E+04  0.22721473254E+04  0.50400001928E-02 0. -1.
       -1   -1    0    0    0  501  0.00000000000E+00  0.00000000000E+00 -0.45168804604E+02  0.45168804885E+02  0.50400001928E-02 0.  1.
    10030    2    1    2    0    0  0.00000000000E+00  0.00000000000E+00  0.22269785207E+04  0.23173161302E+04  0.64071890530E+03 0.  0.
        3    1    3    3  502    0 -0.14380395027E+02  0.22086931092E+03  0.27583921154E+03  0.35366273354E+03  0.10100000352E+00 0.  1.
       -3    1    3    3    0  502  0.14380395027E+02 -0.22086931092E+03  0.19511393092E+04  0.19636533967E+04  0.10100000352E+00 0. -1.
</event>
<event>
 5   0  0.4695625E-02  0.6023786E+03  0.7818609E-02  0.9900483E-01
        3   -1    0    0  501    0  0.00000000000E+00  0.00000000000E+00  0.55895590153E+03  0.55895591066E+03  0.10100000352E+00 0.  1.
       -3   -1    0    0    0  501  0.00000000000E+00  0.00000000000E+00 -0.16229364552E+03  0.16229367695E+03  0.10100000352E+00 0. -1.
    10030    2    1    2    0    0  0.00000000000E+00  0.00000000000E+00  0.39666225601E+03  0.72124958761E+03  0.60237863697E+03 0.  0.
        1    1    3    3  502    0  0.52588650103E+02 -0.27965290205E+02 -0.15517180182E+03  0.16621044396E+03  0.50400001928E-02 0. -1.
       -1    1    3    3    0  502 -0.52588650103E+02  0.27965290205E+02  0.55183405783E+03  0.55503914365E+03  0.50400001928E-02 0.  1.
</event>
<event>
 5   0  0.1219020E-01  0.6018159E+03  0.7818609E-02  0.9901646E-01
       -2   -1    0    0    0  501  0.00000000000E+00  0.00000000000E+00  0.18650428315E+03  0.18650428317E+03  0.25500000920E-02 0. -1.
        2   -1    0    0  501    0  0.00000000000E+00  0.00000000000E+00 -0.48548805414E+03  0.48548805415E+03  0.25500000920E-02 0.  1.
    10030    2    1    2    0    0  0.00000000000E+00  0.00000000000E+00 -0.29898377099E+03  0.67199233732E+03  0.60181592377E+03 0.  0.
        2    1    3    3  502    0  0.10151346423E+03  0.25982115037E+03 -0.23490290778E+02  0.27993536283E+03  0.25500000920E-02 0. -1.
       -2    1    3    3    0  502 -0.10151346423E+03 -0.25982115037E+03 -0.27549348021E+03  0.39205697448E+03  0.25500000920E-02 0.  1.
</event>
<event>
 5   0  0.7263385E-02  0.5916668E+03  0.7818609E-02  0.9922847E-01
        1   -1    0    0  501    0  0.00000000000E+00  0.00000000000E+00  0.47513164395E+03  0.47513164398E+03  0.50400001928E-02 0. -1.
       -1   -1    0    0    0  501  0.00000000000E+00  0.00000000000E+00 -0.18419610085E+03  0.18419610092E+03  0.50400001928E-02 0.  1.
    10030    2    1    2    0    0  0.00000000000E+00  0.00000000000E+00  0.29093554310E+03  0.65932774490E+03  0.59166678540E+03 0.  0.
        1    1    3    3  502    0 -0.10298186510E+03  0.21072969372E+02  0.45361921218E+03  0.46563904933E+03  0.50400001928E-02 0. -1.
       -1    1    3    3    0  502  0.10298186510E+03 -0.21072969372E+02 -0.16268366908E+03  0.19368869556E+03  0.50400001928E-02 0.  1.
</event>
<event>
 5   0  0.1175861E-01  0.6147300E+03  0.7818609E-02  0.9875309E-01
        2   -1    0    0  501    0  0.00000000000E+00  0.00000000000E+00  0.10757790938E+03  0.10757790941E+03  0.25500000920E-02 0. -1.
       -2   -1    0    0    0  501  0.00000000000E+00  0.00000000000E+00 -0.87818442592E+03  0.87818442592E+03  0.25500000920E-02 0.  1.
    10030    2    1    2    0    0  0.00000000000E+00  0.00000000000E+00 -0.77060651654E+03  0.98576233533E+03  0.61473000448E+03 0.  0.
        3    1    3    3  502    0 -0.65259203425E+02 -0.26334239951E+03 -0.15367069140E+03  0.31180550766E+03  0.10100000352E+00 0.  1.
       -3    1    3    3    0  502  0.65259203425E+02  0.26334239951E+03 -0.61693582515E+03  0.67395682767E+03  0.10100000352E+00 0. -1.
</event>
<event>
 5   0  0.1219020E-01  0.6367197E+03  0.7818609E-02  0.9832023E-01
       -2   -1    0    0    0  501  0.00000000000E+00  0.00000000000E+00  0.35548153724E+03  0.35548153725E+03  0.25500000920E-02 0. -1.
        2   -1    0    0  501    0  0.00000000000E+00  0.00000000000E+00 -0.28511462844E+03  0.28511462846E+03  0.25500000920E-02 0.  1.
    10030    2    1    2    0    0  0.00000000000E+00  0.00000000000E+00  0.70366908795E+02  0.64059616570E+03  0.63671967589E+03 0.  0.
        2    1    3    3  502    0 -0.11373536428E+03 -0.12691106782E+03 -0.23536044796E+03  0.29057992480E+03  0.25500000920E-02 0.  1.
       -2    1    3    3    0  502  0.11373536428E+03  0.12691106782E+03  0.30572735676E+03  0.35001624091E+03  0.25500000920E-02 0. -1.
</event>
<event>
 5   0  0.7263385E-02  0.6049791E+03  0.7818609E-02  0.9895129E-01
        1   -1    0    0  501    0  0.00000000000E+00  0.00000000000E+00  0.82532545631E+03  0.82532545633E+03  0.50400001928E-02 0. -1.
       -1   -1    0    0    0  501  0.00000000000E+00  0.00000000000E+00 -0.11086527206E+03  0.11086527218E+03  0.50400001928E-02 0.  1.
    10030    2    1    2    0    0  0.00000000000E+00  0.00000000000E+00  0.71446018425E+03  0.93619072850E+03  0.60497911142E+03 0.  0.
        1    1    3    3  502    0  0.37647113623E+02  0.79965503979E+02 -0.90437777605E+02  0.12645465050E+03  0.50400001928E-02 0.  1.
       -1    1    3    3    0  502 -0.37647113623E+02 -0.79965503979E+02  0.80489796185E+03  0.80973607800E+03  0.50400001928E-02 0. -1.
</event>
<event>
 5   0  0.1206238E-01  0.5893757E+03  0.7818609E-02  0.9927696E-01
        2   -1    0    0  501    0  0.00000000000E+00  0.00000000000E+00  0.26725198066E+03  0.26725198067E+03  0.25500000920E-02 0.  1.
       -2   -1    0    0    0  501  0.00000000000E+00  0.00000000000E+00 -0.32494030671E+03  0.32494030672E+03  0.25500000920E-02 0. -1.
    10030    2    1    2    0    0  0.00000000000E+00  0.00000000000E+00 -0.57688326051E+02  0.59219228739E+03  0.58937573948E+03 0.  0.
        5    1    3    3  502    0  0.68670052598E+02  0.24057998238E+03  0.12754199845E+03  0.28086180839E+03  0.46999998093E+01 0.  1.
       -5    1    3    3    0  502 -0.68670052598E+02 -0.24057998238E+03 -0.18523032450E+03  0.31133047900E+03  0.46999998093E+01 0. -1.
</event>
<event>
 5   0  0.1219020E-01  0.6058256E+03  0.7818609E-02  0.9893393E-01
       -2   -1    0    0    0  501  0.00000000000E+00  0.00000000000E+00  0.21396949106E+03  0.21396949108E+03  0.25500000920E-02 0. -1.
        2   -1    0    0  501    0  0.00000000000E+00  0.00000000000E+00 -0.42882823697E+03  0.42882823698E+03  0.25500000920E-02 0.  1.
    10030    2    1    2    0    0  0.00000000000E+00  0.00000000000E+00 -0.21485874591E+03  0.64279772806E+03  0.60582558423E+03 0.  0.
        2    1    3    3  502    0 -0.10378867975E+03  0.15521217703E+03  0.14565020045E+03  0.23680559715E+03  0.25500000920E-02 0. -1.
       -2    1    3    3    0  502  0.10378867975E+03 -0.15521217703E+03 -0.36050894636E+03  0.40599213091E+03  0.25500000920E-02 0.  1.
</event>
<event>
 5   0  0.1206238E-01  0.6265363E+03  0.7818609E-02  0.9851831E-01
       -2   -1    0    0    0  501  0.00000000000E+00  0.00000000000E+00  0.32250967158E+03  0.32250967159E+03  0.25500000920E-02 0.  1.
        2   -1    0    0  501    0  0.00000000000E+00  0.00000000000E+00 -0.30429145454E+03  0.30429145455E+03  0.25500000920E-02 0. -1.
    10030    2    1    2    0    0  0.00000000000E+00  0.00000000000E+00  0.18218217047E+02  0.62680112614E+03  0.62653631044E+03 0.  0.
        5    1    3    3  502    0 -0.38735135709E+02  0.49732610521E+02 -0.29784479864E+03  0.30447882909E+03  0.46999998093E+01 0. -1.
       -5    1    3    3    0  502  0.38735135709E+02 -0.49732610521E+02  0.31606301569E+03  0.32232229705E+03  0.46999998093E+01 0.  1.
</event>
<event>
 5   0  0.7263385E-02  0.5972028E+03  0.7818609E-02  0.9911226E-01
       -1   -1    0    0    0  501  0.00000000000E+00  0.00000000000E+00  0.30107628871E+03  0.30107628875E+03  0.50400001928E-02 0.  1.
        1   -1    0    0  501    0  0.00000000000E+00  0.00000000000E+00 -0.29614683217E+03  0.29614683221E+03  0.50400001928E-02 0. -1.
    10030    2    1    2    0    0  0.00000000000E+00  0.00000000000E+00  0.49294565375E+01  0.59722312096E+03  0.59720277684E+03 0.  0.
        1    1    3    3  502    0 -0.19000857493E+03 -0.20217448396E+03  0.11285421520E+03  0.29952271103E+03  0.50400001928E-02 0.  1.
       -1    1    3    3    0  502  0.19000857493E+03  0.20217448396E+03 -0.10792475866E+03  0.29770040992E+03  0.50400001928E-02 0. -1.
</event>
<event>
 5   0  0.1146468E-01  0.5985806E+03  0.7818609E-02  0.9908355E-01
       -2   -1    0    0    0  501  0.00000000000E+00  0.00000000000E+00  0.72509937643E+02  0.72509937688E+02  0.25500000920E-02 0. -1.
        2   -1    0    0  501    0  0.00000000000E+00  0.00000000000E+00 -0.12353436631E+04  0.12353436631E+04  0.25500000920E-02 0.  1.
    10030    2    1    2    0    0  0.00000000000E+00  0.00000000000E+00 -0.11628337255E+04  0.13078536008E+04  0.59858062785E+03 0.  0.
        4    1    3    3  502    0  0.23843018760E+01  0.14592223235E+03 -0.10511062636E+02  0.14632524774E+03  0.12699999809E+01 0. -1.
       -4    1    3    3    0  502 -0.23843018760E+01 -0.14592223235E+03 -0.11523226628E+04  0.11615283530E+04  0.12699999809E+01 0.  1.
</event>
<event>
 5   0  0.1175861E-01  0.6202880E+03  0.7818609E-02  0.9864186E-01
       -2   -1    0    0    0  501  0.00000000000E+00  0.00000000000E+00  0.15557556931E+03  0.15557556934E+03  0.25500000920E-02 0.  1.
        2   -1    0    0  501    0  0.00000000000E+00  0.00000000000E+00 -0.61828030120E+03  0.61828030121E+03  0.25500000920E-02 0. -1.
    10030    2    1    2    0    0  0.00000000000E+00  0.00000000000E+00 -0.46270473189E+03  0.77385587054E+03  0.62028802944E+03 0.  0.
        3    1    3    3  502    0 -0.13781625094E+03  0.18037459792E+03 -0.49500422041E+03  0.54457093480E+03  0.10100000352E+00 0. -1.
       -3    1    3    3    0  502  0.13781625094E+03 -0.18037459792E+03  0.32299488525E+02  0.22928493574E+03  0.10100000352E+00 0.  1.
</event>
<event>
 5   0  0.1206238E-01  0.5971409E+03  0.7818609E-02  0.9911356E-01
       -2   -1    0    0    0  501  0.00000000000E+00  0.00000000000E+00  0.90357580866E+02  0.90357580902E+02  0.25500000920E-02 0.  1.
        2   -1    0    0  501    0  0.00000000000E+00  0.00000000000E+00 -0.98657274407E+03  0.98657274407E+03  0.25500000920E-02 0. -1.
    10030    2    1    2    0    0  0.00000000000E+00  0.00000000000E+00 -0.89621516320E+03  0.10769303250E+04  0.59714094324E+03 0.  0.
        5    1    3    3  502    0  0.23061943263E+03 -0.18665006420E+03 -0.50788592376E+03  0.58821235172E+03  0.46999998093E+01 0. -1.
       -5    1    3    3    0  502 -0.23061943263E+03  0.18665006420E+03 -0.38832923945E+03  0.48871797325E+03  0.46999998093E+01 0.  1.
</event>
<event>
 5   0  0.1175861E-01  0.5910391E+03  0.7818609E-02  0.9924173E-01
       -2   -1    0    0    0  501  0.00000000000E+00  0.00000000000E+00  0.80527876366E+02  0.80527876407E+02  0.25500000920E-02 0. -1.
        2   -1    0    0  501    0  0.00000000000E+00  0.00000000000E+00 -0.10844916325E+04  0.10844916325E+04  0.25500000920E-02 0.  1.
    10030    2    1    2    0    0  0.00000000000E+00  0.00000000000E+00 -0.10039637561E+04  0.11650195089E+04  0.59103911250E+03 0.  0.
        3    1    3    3  502    0  0.86565945320E+02 -0.18741630123E+03 -0.91878903581E+03  0.94169625431E+03  0.10100000352E+00 0.  1.
       -3    1    3    3    0  502 -0.86565945320E+02  0.18741630123E+03 -0.85174720308E+02  0.22332325458E+03  0.10100000352E+00 0. -1.
</event>
<event>
 5   0  0.7424930E-02  0.5934878E+03  0.7818609E-02  0.9919010E-01
        1   -1    0    0  501    0  0.00000000000E+00  0.00000000000E+00  0.10480205255E+04  0.10480205255E+04  0.50400001928E-02 0. -1.
       -1   -1    0    0    0  501  0.00000000000E+00  0.00000000000E+00 -0.84022149169E+02  0.84022149320E+02  0.50400001928E-02 0.  1.
    10030    2    1    2    0    0  0.00000000000E+00  0.00000000000E+00  0.96399837636E+03  0.11320426749E+04  0.59348778259E+03 0.  0.
        3    1    3    3  502    0  0.34280623659E+02 -0.23880333181E+03  0.15242163775E+03  0.28536740931E+03  0.10100000352E+00 0.  1.
       -3    1    3    3    0  502 -0.34280623659E+02  0.23880333181E+03  0.81157673861E+03  0.84667526555E+03  0.10100000352E+00 0. -1.
</event>
<event>
 5   0  0.7424930E-02  0.5930357E+03  0.7818609E-02  0.9919961E-01
        1   -1    0    0  501    0  0.00000000000E+00  0.00000000000E+00  0.48369188521E+03  0.48369188524E+03  0.50400001928E-02 0.  1.
       -1   -1    0    0    0  501  0.00000000000E+00  0.00000000000E+00 -0.18177446690E+03  0.18177446697E+03  0.50400001928E-02 0. -1.
    10030    2    1    2    0    0  0.00000000000E+00  0.00000000000E+00  0.30191741831E+03  0.66546635221E+03  0.59303569745E+03 0.  0.
        3    1    3    3  502    0 -0.27209083050E+03 -0.10356589392E+03  0.87844103974E+02  0.30409852224E+03  0.10100000352E+00 0. -1.
       -3    1    3    3    0  502  0.27209083050E+03  0.10356589392E+03  0.21407331434E+03  0.36136782997E+03  0.10100000352E+00 0.  1.
</event>
<event>
 5   0  0.1146468E-01  0.5954648E+03  0.7818609E-02  0.9914860E-01
       -2   -1    0    0    0  501  0.00000000000E+00  0.00000000000E+00  0.20466314468E+03  0.20466314470E+03  0.25500000920E-02 0. -1.
        2   -1    0    0  501    0  0.00000000000E+00  0.00000000000E+00 -0.43312423768E+03  0.43312423769E+03  0.25500000920E-02 0.  1.
    10030    2    1    2    0    0  0.00000000000E+00  0.00000000000E+00 -0.22846109300E+03  0.63778738238E+03  0.59546475472E+03 0.  0.
        4    1    3    3  502    0  0.18607767614E+03 -0.68567016752E+02  0.12362676548E+03  0.23369109394E+03  0.12699999809E+01 0. -1.
       -4    1    3    3    0  502 -0.18607767614E+03  0.68567016752E+02 -0.35208785848E+03  0.40409628844E+03  0.12699999809E+01 0.  1.
</event>
<event>
 5   0  0.7221069E-02  0.5836171E+03  0.7818609E-02  0.9939991E-01
       -1   -1    0    0    0  501  0.00000000000E+00  0.00000000000E+00  0.18666695904E+03  0.18666695911E+03  0.50400001928E-02 0. -1.
        1   -1    0    0  501    0  0.00000000000E+00  0.00000000000E+00 -0.45617189273E+03  0.45617189276E+03  0.50400001928E-02 0.  1.
    10030    2    1    2    0    0  0.00000000000E+00  0.00000000000E+00 -0.26950493370E+03  0.64283885187E+03  0.58361706639E+03 0.  0.
        5    1    3    3  502    0 -0.57514807064E+02  0.18266184935E+03 -0.37721889486E+03  0.42307149381E+03  0.46999998093E+01 0.  1.
       -5    1    3    3    0  502  0.57514807064E+02 -0.18266184935E+03  0.10771396116E+03  0.21976735806E+03  0.46999998093E+01 0. -1.
</event>
<event>
 5   0  0.4695625E-02  0.5358333E+03  0.7818609E-02  0.1004827E+00
       -3   -1    0    0    0  501  0.00000000000E+00  0.00000000000E+00  0.42942362039E+02  0.42942480814E+02  0.10100000352E+00 0.  1.
        3   -1    0    0  501    0  0.00000000000E+00  0.00000000000E+00 -0.16715251725E+04  0.16715251755E+04  0.10100000352E+00 0. -1.
    10030    2    1    2    0    0  0.00000000000E+00  0.00000000000E+00 -0.16285828105E+04  0.17144676564E+04  0.53583334554E+03 0.  0.
        4    1    3    3  502    0  0.11824747885E+03 -0.23021362181E+03 -0.10358977951E+04  0.10677390284E+04  0.12699999809E+01 0.  1.
       -4    1    3    3    0  502 -0.11824747885E+03  0.23021362181E+03 -0.59268501533E+03  0.64672862796E+03  0.12699999809E+01 0. -1.
</event>
<event>
 5   0  0.7424930E-02  0.6000803E+03  0.7818609E-02  0.9905240E-01
       -1   -1    0    0    0  501  0.00000000000E+00  0.00000000000E+00  0.10854846370E+03  0.10854846382E+03  0.50400001928E-02 0.  1.
        1   -1    0    0  501    0  0.00000000000E+00  0.00000000000E+00 -0.82934461724E+03  0.82934461726E+03  0.50400001928E-02 0. -1.
    10030    2    1    2    0    0  0.00000000000E+00  0.00000000000E+00 -0.72079615354E+03  0.93789308107E+03  0.60008027510E+03 0.  0.
        3    1    3    3  502    0 -0.53330305358E+02 -0.34880833861E+02  0.97849808271E+02  0.11677066935E+03  0.10100000352E+00 0.  1.
       -3    1    3    3    0  502  0.53330305358E+02  0.34880833861E+02 -0.81864596181E+03  0.82112241172E+03  0.10100000352E+00 0. -1.
</event>
<event>
 5   0  0.7221069E-02  0.5420975E+03  0.7818609E-02  0.1003340E+00
       -1   -1    0    0    0  501  0.00000000000E+00  0.00000000000E+00  0.24020790107E+03  0.24020790113E+03  0.50400001928E-02 0.  1.
        1   -1    0    0  501    0  0.00000000000E+00  0.00000000000E+00 -0.30584928130E+03  0.30584928134E+03  0.50400001928E-02 0. -1.
    10030    2    1    2    0    0  0.00000000000E+00  0.00000000000E+00 -0.65641380223E+02  0.54605718246E+03  0.54209745962E+03 0.  0.
        5    1    3    3  502    0  0.25260234502E+03 -0.93507631714E+02 -0.62933905104E+02  0.27664849233E+03  0.46999998093E+01 0.  1.
       -5    1    3    3    0  502 -0.25260234502E+03  0.93507631714E+02 -0.27074751188E+01  0.26940869013E+03  0.46999998093E+01 0. -1.
</event>
<event>
 5   0  0.7424930E-02  0.6027940E+03  0.7818609E-02  0.9899626E-01
       -1   -1    0    0    0  501  0.00000000000E+00  0.00000000000E+00  0.85959934492E+02  0.85959934640E+02  0.50400001928E-02 0.  1.
        1   -1    0    0  501    0  0.00000000000E+00  0.00000000000E+00 -0.10567732230E+04  0.10567732230E+04  0.50400001928E-02 0. -1.
    10030    2    1    2    0    0  0.00000000000E+00  0.00000000000E+00 -0.97081328854E+03  0.11427331577E+04  0.60279401827E+03 0.  0.
        3    1    3    3  502    0 -0.18422404888E+03  0.19806849364E+03 -0.73740664515E+03  0.78545413544E+03  0.10100000352E+00 0.  1.
       -3    1    3    3    0  502  0.18422404888E+03 -0.19806849364E+03 -0.23340664338E+03  0.35727902224E+03  0.10100000352E+00 0. -1.
</event>
<event>
 5   0  0.1166419E-01  0.6008198E+03  0.7818609E-02  0.9903707E-01
        2   -1    0    0  501    0  0.00000000000E+00  0.00000000000E+00  0.13511268082E+04  0.13511268082E+04  0.25500000920E-02 0.  1.
       -2   -1    0    0    0  501  0.00000000000E+00  0.00000000000E+00 -0.66793222375E+02  0.66793222424E+02  0.25500000920E-02 0. -1.
    10030    2    1    2    0    0  0.00000000000E+00  0.00000000000E+00  0.12843335858E+04  0.14179200306E+04  0.60081981789E+03 0.  0.
        1    1    3    3  502    0 -0.13265465829E+03 -0.24833412574E+03  0.88944692101E+03  0.93294315030E+03  0.50400001928E-02 0.  1.
       -1    1    3    3    0  502  0.13265465829E+03  0.24833412574E+03  0.39488666480E+03  0.48497688031E+03  0.50400001928E-02 0. -1.
</event>
<event>
 5   0  0.7123340E-02  0.6555082E+03  0.7818609E-02  0.9796498E-01
       -1   -1    0    0    0  501  0.00000000000E+00  0.00000000000E+00  0.18650553797E+03  0.18650553804E+03  0.50400001928E-02 0. -1.
        1   -1    0    0  501    0  0.00000000000E+00  0.00000000000E+00 -0.57597618802E+03  0.57597618804E+03  0.50400001928E-02 0.  1.
    10030    2    1    2    0    0  0.00000000000E+00  0.00000000000E+00 -0.38947065005E+03  0.76248172608E+03  0.65550819625E+03 0.  0.
        2    1    3    3  502    0 -0.27936402271E+03 -0.17714333877E+02 -0.39304056544E+03  0.48253387538E+03  0.25500000920E-02 0.  1.
       -2    1    3    3    0  502  0.27936402271E+03  0.17714333877E+02  0.35699153831E+01  0.27994785070E+03  0.25500000920E-02 0. -1.
</event>
<event>
 5   0  0.7424930E-02  0.6007329E+03  0.7818609E-02  0.9903887E-01
        1   -1    0    0  501    0  0.00000000000E+00  0.00000000000E+00  0.32592263078E+03  0.32592263082E+03  0.50400001928E-02 0.  1.
       -1   -1    0    0    0  501  0.00000000000E+00  0.00000000000E+00 -0.27681420441E+03  0.27681420446E+03  0.50400001928E-02 0. -1.
    10030    2    1    2    0    0  0.00000000000E+00  0.00000000000E+00  0.49108426370E+02  0.60273683528E+03  0.60073293156E+03 0.  0.
        3    1    3    3  502    0  0.19604526145E+03  0.22358042131E+03 -0.17990704408E+02  0.29790203923E+03  0.10100000352E+00 0.  1.
       -3    1    3    3    0  502 -0.19604526145E+03 -0.22358042131E+03  0.67099130778E+02  0.30483479605E+03  0.10100000352E+00 0. -1.
</event>
<event>
 5   0  0.7123340E-02  0.6030274E+03  0.7818609E-02  0.9899145E-01
        1   -1    0    0  501    0  0.00000000000E+00  0.00000000000E+00  0.45840732356E+03  0.45840732359E+03  0.50400001928E-02 0.  1.
       -1   -1    0    0    0  501  0.00000000000E+00  0.00000000000E+00 -0.19831821504E+03  0.19831821510E+03  0.50400001928E-02 0. -1.
    10030    2    1    2    0    0  0.00000000000E+00  0.00000000000E+00  0.26008910853E+03  0.65672553869E+03  0.60302743619E+03 0.  0.
        2    1    3    3  502    0  0.21315672146E+03  0.17887374504E+02  0.36146337717E+03  0.42001371300E+03  0.25500000920E-02 0. -1.
       -2    1    3    3    0  502 -0.21315672146E+03 -0.17887374504E+02 -0.10137426864E+03  0.23671182569E+03  0.25500000920E-02 0.  1.
</event>
<event>
 5   0  0.7424930E-02  0.5776977E+03  0.7818609E-02  0.9952788E-01
       -1   -1    0    0    0  501  0.00000000000E+00  0.00000000000E+00  0.93557825075E+02  0.93557825211E+02  0.50400001928E-02 0.  1.
        1   -1    0    0  501    0  0.00000000000E+00  0.00000000000E+00 -0.89178695997E+03  0.89178695998E+03  0.50400001928E-02 0. -1.
    10030    2    1    2    0    0  0.00000000000E+00  0.00000000000E+00 -0.79822913489E+03  0.98534478519E+03  0.57769766653E+03 0.  0.
        3    1    3    3  502    0  0.24423175468E+03 -0.15055717589E+03 -0.45612037076E+03  0.53885287049E+03  0.10100000352E+00 0.  1.
       -3    1    3    3    0  502 -0.24423175468E+03  0.15055717589E+03 -0.34210876413E+03  0.44649191471E+03  0.10100000352E+00 0. -1.
</event>
<event>
 5   0  0.1206238E-01  0.5990199E+03  0.7818609E-02  0.9907441E-01
        2   -1    0    0  501    0  0.00000000000E+00  0.00000000000E+00  0.20173149561E+04  0.20173149561E+04  0.25500000920E-02 0.  1.
       -2   -1    0    0    0  501  0.00000000000E+00  0.00000000000E+00 -0.44468128589E+02  0.44468128662E+02  0.25500000920E-02 0. -1.
    10030    2    1    2    0    0  0.00000000000E+00  0.00000000000E+00  0.19728468275E+04  0.20617830848E+04  0.59901993606E+03 0.  0.
        5    1    3    3  502    0 -0.26525142694E+02  0.22346245656E+03  0.16665423153E+04  0.16816731048E+04  0.46999998093E+01 0.  1.
       -5    1    3    3    0  502  0.26525142694E+02 -0.22346245656E+03  0.30630451226E+03  0.38010998002E+03  0.46999998093E+01 0. -1.
</event>
<event>
 5   0  0.1166419E-01  0.6005211E+03  0.7818609E-02  0.9904326E-01
        2   -1    0    0  501    0  0.00000000000E+00  0.00000000000E+00  0.15021434746E+04  0.15021434746E+04  0.25500000920E-02 0. -1.
       -2   -1    0    0    0  501  0.00000000000E+00  0.00000000000E+00 -0.60018500459E+02  0.60018500513E+02  0.25500000920E-02 0.  1.
    10030    2    1    2    0    0  0.00000000000E+00  0.00000000000E+00  0.14421249741E+04  0.15621619751E+04  0.60052110325E+03 0.  0.
        1    1    3    3  502    0 -0.20588750929E+03  0.21844694685E+03  0.70310308144E+03  0.76450158811E+03  0.50400001928E-02 0. -1.
       -1    1    3    3    0  502  0.20588750929E+03 -0.21844694685E+03  0.73902189265E+03  0.79766038695E+03  0.50400001928E-02 0.  1.
</event>
<event>
 5   0  0.7263385E-02  0.5918572E+03  0.7818609E-02  0.9922445E-01
        1   -1    0    0  501    0  0.00000000000E+00  0.00000000000E+00  0.22952717812E+03  0.22952717818E+03  0.50400001928E-02 0.  1.
       -1   -1    0    0    0  501  0.00000000000E+00  0.00000000000E+00 -0.38153967860E+03  0.38153967863E+03  0.50400001928E-02 0. -1.
    10030    2    1    2    0    0  0.00000000000E+00  0.00000000000E+00 -0.15201250048E+03  0.61106685681E+03  0.59185716452E+03 0.  0.
        1    1    3    3  502    0  0.17977504569E+03  0.10255800121E+03  0.14236873819E+03  0.25120921222E+03  0.50400001928E-02 0.  1.
       -1    1    3    3    0  502 -0.17977504569E+03 -0.10255800121E+03 -0.29438123867E+03  0.35985764459E+03  0.50400001928E-02 0. -1.
</event>
<event>
 5   0  0.1219020E-01  0.6060387E+03  0.7818609E-02  0.9892956E-01
       -2   -1    0    0    0  501  0.00000000000E+00  0.00000000000E+00  0.38265035932E+03  0.38265035932E+03  0.25500000920E-02 0.  1.
        2   -1    0    0  501    0  0.00000000000E+00  0.00000000000E+00 -0.23995985096E+03  0.23995985097E+03  0.25500000920E-02 0. -1.
    10030    2    1    2    0    0  0.00000000000E+00  0.00000000000E+00  0.14269050836E+03  0.62261021030E+03  0.60603868918E+03 0.  0.
        2    1    3    3  502    0  0.96326022706E+02  0.14854421333E+03 -0.18129916281E+03  0.25340377347E+03  0.25500000920E-02 0. -1.
       -2    1    3    3    0  502 -0.96326022706E+02 -0.14854421333E+03  0.32398967117E+03  0.36920643683E+03  0.25500000920E-02 0.  1.
</event>
<event>
 5   0  0.1206238E-01  0.6118945E+03  0.7818609E-02  0.9881031E-01
        2   -1    0    0  501    0  0.00000000000E+00  0.00000000000E+00  0.40875430401E+03  0.40875430402E+03  0.25500000920E-02 0.  1.
       -2   -1    0    0    0  501  0.00000000000E+00  0.00000000000E+00 -0.22899752320E+03  0.22899752321E+03  0.25500000920E-02 0. -1.
    10030    2    1    2    0    0  0.00000000000E+00  0.00000000000E+00  0.17975678082E+03  0.63775182723E+03  0.61189451124E+03 0.  0.
        5    1    3    3  502    0 -0.22228014934E+03  0.17232341240E+03 -0.35529998911E+02  0.28352829501E+03  0.46999998093E+01 0.  1.
       -5    1    3    3    0  502  0.22228014934E+03 -0.17232341240E+03  0.21528677973E+03  0.35422353222E+03  0.46999998093E+01 0. -1.
</event>
<event>
 5   0  0.7123340E-02  0.5223538E+03  0.7818609E-02  0.1008104E+00
        1   -1    0    0  501    0  0.00000000000E+00  0.00000000000E+00  0.18967983998E+03  0.18967984005E+03  0.50400001928E-02 0.  1.
       -1   -1    0    0    0  501  0.00000000000E+00  0.00000000000E+00 -0.35962375411E+03  0.35962375414E+03  0.50400001928E-02 0. -1.
    10030    2    1    2    0    0  0.00000000000E+00  0.00000000000E+00 -0.16994391413E+03  0.54930359419E+03  0.52235381174E+03 0.  0.
        2    1    3    3  502    0 -0.94755598337E+02 -0.21604285957E+03 -0.20282656428E+03  0.31111373446E+03  0.25500000920E-02 0. -1.
       -2    1    3    3    0  502  0.94755598337E+02  0.21604285957E+03  0.32882650148E+02  0.23818985973E+03  0.25500000920E-02 0.  1.
</event>
<event>
 5   0  0.1219020E-01  0.5992191E+03  0.7818609E-02  0.9907028E-01
        2   -1    0    0  501    0  0.00000000000E+00  0.00000000000E+00  0.14029239194E+04  0.14029239194E+04  0.25500000920E-02 0.  1.
       -2   -1    0    0    0  501  0.00000000000E+00  0.00000000000E+00 -0.63984846327E+02  0.63984846378E+02  0.25500000920E-02 0. -1.
    10030    2    1    2    0    0  0.00000000000E+00  0.00000000000E+00  0.13389390731E+04  0.14669087658E+04  0.59921906323E+03 0.  0.
        2    1    3    3  502    0  0.11610951104E+03 -0.23799324969E+03  0.32636318890E+03  0.42027983122E+03  0.25500000920E-02 0. -1.
       -2    1    3    3    0  502 -0.11610951104E+03  0.23799324969E+03  0.10125758842E+04  0.10466289346E+04  0.25500000920E-02 0.  1.
</event>
<event>
 5   0  0.1175861E-01  0.5945596E+03  0.7818609E-02  0.9916758E-01
        2   -1    0    0  501    0  0.00000000000E+00  0.00000000000E+00  0.63444330841E+03  0.63444330841E+03  0.25500000920E-02 0.  1.
       -2   -1    0    0    0  501  0.00000000000E+00  0.00000000000E+00 -0.13929577926E+03  0.13929577929E+03  0.25500000920E-02 0. -1.
    10030    2    1    2    0    0  0.00000000000E+00  0.00000000000E+00  0.49514752914E+03  0.77373908770E+03  0.59455958509E+03 0.  0.
        3    1    3    3  502    0  0.31304429024E+01  0.12226792047E+03 -0.10503619349E+03  0.16121990011E+03  0.10100000352E+00 0. -1.
       -3    1    3    3    0  502 -0.31304429024E+01 -0.12226792047E+03  0.60018372263E+03  0.61251918759E+03  0.10100000352E+00 0.  1.
</event>
<event>
 5   0  0.7221069E-02  0.6005285E+03  0.7818609E-02  0.9904310E-01
        1   -1    0    0  501    0  0.00000000000E+00  0.00000000000E+00  0.23913098416E+03  0.23913098421E+03  0.50400001928E-02 0. -1.
       -1   -1    0    0    0  501  0.00000000000E+00  0.00000000000E+00 -0.37702606672E+03  0.37702606676E+03  0.50400001928E-02 0.  1.
    10030    2    1    2    0    0  0.00000000000E+00  0.00000000000E+00 -0.13789508256E+03  0.61615705097E+03  0.60052848198E+03 0.  0.
        5    1    3    3  502    0 -0.10664316866E+03  0.10257568904E+03  0.19908260571E+03  0.24809375506E+03  0.46999998093E+01 0. -1.
       -5    1    3    3    0  502  0.10664316866E+03 -0.10257568904E+03 -0.33697768827E+03  0.36806329591E+03  0.46999998093E+01 0.  1.
</event>
<event>
 5   0  0.7221069E-02  0.6008186E+03  0.7818609E-02  0.9903709E-01
       -1   -1    0    0    0  501  0.00000000000E+00  0.00000000000E+00  0.43618919018E+02  0.43618919309E+02  0.50400001928E-02 0. -1.
        1   -1    0    0  501    0  0.00000000000E+00  0.00000000000E+00 -0.20689587121E+04  0.20689587121E+04  0.50400001928E-02 0.  1.
    10030    2    1    2    0    0  0.00000000000E+00  0.00000000000E+00 -0.20253397931E+04  0.21125776314E+04  0.60081858437E+03 0.  0.
        5    1    3    3  502    0 -0.10028451454E+02  0.69577282858E+02  0.14159334545E+02  0.71861984953E+02  0.46999998093E+01 0. -1.
       -5    1    3    3    0  502  0.10028451454E+02 -0.69577282858E+02 -0.20394991276E+04  0.20407156465E+04  0.46999998093E+01 0.  1.
</event>
<event>
 5   0  0.1166419E-01  0.6012543E+03  0.7818609E-02  0.9902807E-01
       -2   -1    0    0    0  501  0.00000000000E+00  0.00000000000E+00  0.18409569954E+03  0.18409569955E+03  0.25500000920E-02 0. -1.
        2   -1    0    0  501    0  0.00000000000E+00  0.00000000000E+00 -0.49092227724E+03  0.49092227725E+03  0.25500000920E-02 0.  1.
    10030    2    1    2    0    0  0.00000000000E+00  0.00000000000E+00 -0.30682657770E+03  0.67501797680E+03  0.60125428915E+03 0.  0.
        1    1    3    3  502    0 -0.53411061485E+02 -0.22170592419E+03  0.66502007305E+02  0.23754741697E+03  0.50400001928E-02 0. -1.
       -1    1    3    3    0  502  0.53411061485E+02  0.22170592419E+03 -0.37332858501E+03  0.43747055983E+03  0.50400001928E-02 0.  1.
</event>
<event>
 5   0  0.7266519E-02  0.6236819E+03  0.7818609E-02  0.9857456E-01
       -1   -1    0    0    0  501  0.00000000000E+00  0.00000000000E+00  0.10733302458E+03  0.10733302470E+03  0.50400001928E-02 0.  1.
        1   -1    0    0  501    0  0.00000000000E+00  0.00000000000E+00 -0.90600994098E+03  0.90600994100E+03  0.50400001928E-02 0. -1.
    10030    2    1    2    0    0  0.00000000000E+00  0.00000000000E+00 -0.79867691640E+03  0.10133429657E+04  0.62368192962E+03 0.  0.
        4    1    3    3  502    0  0.22128274846E+03 -0.93368010737E+01 -0.75601250229E+03  0.78778788207E+03  0.12699999809E+01 0. -1.
       -4    1    3    3    0  502 -0.22128274846E+03  0.93368010737E+01 -0.42664414115E+02  0.22555508363E+03  0.12699999809E+01 0.  1.
</event>
<event>
 5   0  0.7123340E-02  0.5993382E+03  0.7818609E-02  0.9906780E-01
        1   -1    0    0  501    0  0.00000000000E+00  0.00000000000E+00  0.81354964901E+03  0.81354964903E+03  0.50400001928E-02 0.  1.
       -1   -1    0    0    0  501  0.00000000000E+00  0.00000000000E+00 -0.11038242431E+03  0.11038242442E+03  0.50400001928E-02 0. -1.
    10030    2    1    2    0    0  0.00000000000E+00  0.00000000000E+00  0.70316722471E+03  0.92393207345E+03  0.59933824378E+03 0.  0.
        2    1    3    3  502    0  0.28307909196E+03  0.61276857783E+02  0.23304211382E+03  0.37174891046E+03  0.25500000920E-02 0.  1.
       -2    1    3    3    0  502 -0.28307909196E+03 -0.61276857783E+02  0.47012511089E+03  0.55218316300E+03  0.25500000920E-02 0. -1.
</event>
<event>
 5   0  0.1146468E-01  0.5986214E+03  0.7818609E-02  0.9908270E-01
       -2   -1    0    0    0  501  0.00000000000E+00  0.00000000000E+00  0.99935316821E+02  0.99935316853E+02  0.25500000920E-02 0. -1.
        2   -1    0    0  501    0  0.00000000000E+00  0.00000000000E+00 -0.89644874157E+03  0.89644874157E+03  0.25500000920E-02 0.  1.
    10030    2    1    2    0    0  0.00000000000E+00  0.00000000000E+00 -0.79651342475E+03  0.99638405843E+03  0.59862137957E+03 0.  0.
        4    1    3    3  502    0  0.17323530844E+03 -0.28918110043E+02  0.51435221995E+01  0.17571225882E+03  0.12699999809E+01 0. -1.
       -4    1    3    3    0  502 -0.17323530844E+03  0.28918110043E+02 -0.80165694695E+03  0.82067179961E+03  0.12699999809E+01 0.  1.
</event>
<event>
 5   0  0.1219020E-01  0.6018306E+03  0.7818609E-02  0.9901615E-01
        2   -1    0    0  501    0  0.00000000000E+00  0.00000000000E+00  0.29686256592E+03  0.29686256593E+03  0.25500000920E-02 0.  1.
       -2   -1    0    0    0  501  0.00000000000E+00  0.00000000000E+00 -0.30502339485E+03  0.30502339486E+03  0.25500000920E-02 0. -1.
    10030    2    1    2    0    0  0.00000000000E+00  0.00000000000E+00 -0.81608289256E+01  0.60188596079E+03  0.60183063288E+03 0.  0.
        2    1    3    3  502    0  0.33718970452E+02  0.37285303589E+02  0.29263333637E+03  0.29691990905E+03  0.25500000920E-02 0.  1.
       -2    1    3    3    0  502 -0.33718970452E+02 -0.37285303589E+02 -0.30079416529E+03  0.30496605174E+03  0.25500000920E-02 0. -1.
</event>
<event>
 5   0  0.1175861E-01  0.5897810E+03  0.7818609E-02  0.9926837E-01
        2   -1    0    0  501    0  0.00000000000E+00  0.00000000000E+00  0.17130245820E+03  0.17130245822E+03  0.25500000920E-02 0. -1.
       -2   -1    0    0    0  501  0.00000000000E+00  0.00000000000E+00 -0.50764243013E+03  0.50764243014E+03  0.25500000920E-02 0.  1.
    10030    2    1    2    0    0  0.00000000000E+00  0.00000000000E+00 -0.33633997193E+03  0.67894488836E+03  0.58978096334E+03 0.  0.
        3    1    3    3  502    0  0.27028273525E+03  0.44941500636E+02 -0.42654829746E+02  0.27729395983E+03  0.10100000352E+00 0. -1.
       -3    1    3    3    0  502 -0.27028273525E+03 -0.44941500636E+02 -0.29368514218E+03  0.40165092854E+03  0.10100000352E+00 0.  1.
</event>
<event>
 5   0  0.4695625E-02  0.5993716E+03  0.7818609E-02  0.9906711E-01
       -4   -1    0    0    0  501  0.00000000000E+00  0.00000000000E+00  0.91951976787E+02  0.91960746707E+02  0.12699999809E+01 0. -1.
        4   -1    0    0  501    0  0.00000000000E+00  0.00000000000E+00 -0.97666679412E+03  0.97666761984E+03  0.12699999809E+01 0.  1.
    10030    2    1    2    0    0  0.00000000000E+00  0.00000000000E+00 -0.88471481734E+03  0.10686283665E+04  0.59937156904E+03 0.  0.
        1    1    3    3  502    0  0.57226742780E+02  0.26159836068E+03 -0.68224370528E+03  0.73291546295E+03  0.50400001928E-02 0.  1.
       -1    1    3    3    0  502 -0.57226742780E+02 -0.26159836068E+03 -0.20247111205E+03  0.33571290360E+03  0.50400001928E-02 0. -1.
</event>
<event>
 5   0  0.1146468E-01  0.6037712E+03  0.7818609E-02  0.9897613E-01
       -2   -1    0    0    0  501  0.00000000000E+00  0.00000000000E+00  0.88467973608E+02  0.88467973645E+02  0.25500000920E-02 0.  1.
        2   -1    0    0  501    0  0.00000000000E+00  0.00000000000E+00 -0.10301457800E+04  0.10301457800E+04  0.25500000920E-02 0. -1.
    10030    2    1    2    0    0  0.00000000000E+00  0.00000000000E+00 -0.94167780636E+03  0.11186137536E+04  0.60377118082E+03 0.  0.
        4    1    3    3  502    0 -0.26564402255E+03  0.11328309075E+03 -0.30791095824E+03  0.42214994548E+03  0.12699999809E+01 0.  1.
       -4    1    3    3    0  502  0.26564402255E+03 -0.11328309075E+03 -0.63376684813E+03  0.69646380814E+03  0.12699999809E+01 0. -1.
</event>
<event>
 5   0  0.1175861E-01  0.6016144E+03  0.7818609E-02  0.9902062E-01
       -2   -1    0    0    0  501  0.00000000000E+00  0.00000000000E+00  0.14401294149E+03  0.14401294151E+03  0.25500000920E-02 0. -1.
        2   -1    0    0  501    0  0.00000000000E+00  0.00000000000E+00 -0.62831146248E+03  0.62831146249E+03  0.25500000920E-02 0.  1.
    10030    2    1    2    0    0  0.00000000000E+00  0.00000000000E+00 -0.48429852099E+03  0.77232440400E+03  0.60161443432E+03 0.  0.
        3    1    3    3  502    0 -0.33097847311E+01  0.27007136748E+03 -0.41214586969E+03  0.49276132794E+03  0.10100000352E+00 0.  1.
       -3    1    3    3    0  502  0.33097847311E+01 -0.27007136748E+03 -0.72152651299E+02  0.27956307606E+03  0.10100000352E+00 0. -1.
</event>
<event>
 5   0  0.7424930E-02  0.5990405E+03  0.7818609E-02  0.9907399E-01
       -1   -1    0    0    0  501  0.00000000000E+00  0.00000000000E+00  0.19192962290E+03  0.19192962296E+03  0.50400001928E-02 0. -1.
        1   -1    0    0  501    0  0.00000000000E+00  0.00000000000E+00 -0.46742335754E+03  0.46742335757E+03  0.50400001928E-02 0.  1.
    10030    2    1    2    0    0  0.00000000000E+00  0.00000000000E+00 -0.27549373464E+03  0.65935298053E+03  0.59904052877E+03 0.  0.
        3    1    3    3  502    0  0.23717203155E+03  0.17716136347E+03 -0.18789324823E+03  0.35062886959E+03  0.10100000352E+00 0. -1.
       -3    1    3    3    0  502 -0.23717203155E+03 -0.17716136347E+03 -0.87600486412E+02  0.30872411094E+03  0.10100000352E+00 0.  1.
</event>
<event>
 5   0  0.1175861E-01  0.5838748E+03  0.7818609E-02  0.9939437E-01
        2   -1    0    0  501    0  0.00000000000E+00  0.00000000000E+00  0.87689343925E+03  0.87689343926E+03  0.25500000920E-02 0.  1.
       -2   -1    0    0    0  501  0.00000000000E+00  0.00000000000E+00 -0.97192471969E+02  0.97192472002E+02  0.25500000920E-02 0. -1.
    10030    2    1    2    0    0  0.00000000000E+00  0.00000000000E+00  0.77970096729E+03  0.97408591126E+03  0.58387478463E+03 0.  0.
        3    1    3    3  502    0 -0.16284416485E+03  0.24213831034E+03  0.37509298667E+03  0.47523040960E+03  0.10100000352E+00 0.  1.
       -3    1    3    3    0  502  0.16284416485E+03 -0.24213831034E+03  0.40460798061E+03  0.49885550166E+03  0.10100000352E+00 0. -1.
</event>
<event>
 5   0  0.7123340E-02  0.6057216E+03  0.7818609E-02  0.9893606E-01
       -1   -1    0    0    0  501  0.00000000000E+00  0.00000000000E+00  0.17353357468E+03  0.17353357475E+03  0.50400001928E-02 0. -1.
        1   -1    0    0  501    0  0.00000000000E+00  0.00000000000E+00 -0.52857008195E+03  0.52857008197E+03  0.50400001928E-02 0.  1.
    10030    2    1    2    0    0  0.00000000000E+00  0.00000000000E+00 -0.35503650727E+03  0.70210365672E+03  0.60572157242E+03 0.  0.
        2    1    3    3  502    0  0.80430376073E+02 -0.27412033875E+03 -0.60949498010E+02  0.29210588291E+03  0.25500000920E-02 0. -1.
       -2    1    3    3    0  502 -0.80430376073E+02  0.27412033875E+03 -0.29408700926E+03  0.40999777382E+03  0.25500000920E-02 0.  1.
</event>
<event>
 5   0  0.7263385E-02  0.6102799E+03  0.7818609E-02  0.9884305E-01
       -1   -1    0    0    0  501  0.00000000000E+00  0.00000000000E+00  0.67912623839E+03  0.67912623841E+03  0.50400001928E-02 0. -1.
        1   -1    0    0  501    0  0.00000000000E+00  0.00000000000E+00 -0.13710321563E+03  0.13710321572E+03  0.50400001928E-02 0.  1.
    10030    2    1    2    0    0  0.00000000000E+00  0.00000000000E+00  0.54202302277E+03  0.81622945413E+03  0.61027990675E+03 0.  0.
        1    1    3    3  502    0  0.27771455155E+03 -0.11628799985E+03  0.33737631377E+03  0.45218475004E+03  0.50400001928E-02 0.  1.
       -1    1    3    3    0  502 -0.27771455155E+03  0.11628799985E+03  0.20464670900E+03  0.36404470409E+03  0.50400001928E-02 0. -1.
</event>
<event>
 5   0  0.1146468E-01  0.6011987E+03  0.7818609E-02  0.9902922E-01
       -2   -1    0    0    0  501  0.00000000000E+00  0.00000000000E+00  0.11692030216E+03  0.11692030219E+03  0.25500000920E-02 0. -1.
        2   -1    0    0  501    0  0.00000000000E+00  0.00000000000E+00 -0.77283387627E+03  0.77283387627E+03  0.25500000920E-02 0.  1.
    10030    2    1    2    0    0  0.00000000000E+00  0.00000000000E+00 -0.65591357411E+03  0.88975417846E+03  0.60119870375E+03 0.  0.
        4    1    3    3  502    0  0.24524580906E+03 -0.16281196162E+03 -0.23787170255E+03  0.37846770203E+03  0.12699999809E+01 0. -1.
       -4    1    3    3    0  502 -0.24524580906E+03  0.16281196162E+03 -0.41804187156E+03  0.51128647643E+03  0.12699999809E+01 0.  1.
</event>
<event>
 5   0  0.1146468E-01  0.6173791E+03  0.7818609E-02  0.9869992E-01
       -2   -1    0    0    0  501  0.00000000000E+00  0.00000000000E+00  0.87716279045E+02  0.87716279082E+02  0.25500000920E-02 0. -1.
        2   -1    0    0  501    0  0.00000000000E+00  0.00000000000E+00 -0.10863346592E+04  0.10863346592E+04  0.25500000920E-02 0.  1.
    10030    2    1    2    0    0  0.00000000000E+00  0.00000000000E+00 -0.99861838016E+03  0.11740509383E+04  0.61737908655E+03 0.  0.
        4    1    3    3  502    0 -0.25118941146E+03 -0.16843715902E+03 -0.38176779987E+03  0.48704770084E+03  0.12699999809E+01 0. -1.
       -4    1    3    3    0  502  0.25118941146E+03  0.16843715902E+03 -0.61685058028E+03  0.68700323745E+03  0.12699999809E+01 0.  1.
</event>
<event>
 5   0  0.1146468E-01  0.5909066E+03  0.7818609E-02  0.9924454E-01
       -2   -1    0    0    0  501  0.00000000000E+00  0.00000000000E+00  0.55018802182E+02  0.55018802241E+02  0.25500000920E-02 0. -1.
        2   -1    0    0  501    0  0.00000000000E+00  0.00000000000E+00 -0.15865968046E+04  0.15865968046E+04  0.25500000920E-02 0.  1.
    10030    2    1    2    0    0  0.00000000000E+00  0.00000000000E+00 -0.15315780025E+04  0.16416156069E+04  0.59090661119E+03 0.  0.
        4    1    3    3  502    0  0.17187414421E+03 -0.78348393358E+02 -0.13464662668E+03  0.23197094466E+03  0.12699999809E+01 0. -1.
       -4    1    3    3    0  502 -0.17187414421E+03  0.78348393358E+02 -0.13969313758E+04  0.14096446622E+04  0.12699999809E+01 0.  1.
</event>
<event>
 5   0  0.4695625E-02  0.5793990E+03  0.7818609E-02  0.9949093E-01
        3   -1    0    0  501    0  0.00000000000E+00  0.00000000000E+00  0.20680869123E+03  0.20680871589E+03  0.10100000352E+00 0. -1.
       -3   -1    0    0    0  501  0.00000000000E+00  0.00000000000E+00 -0.40581369719E+03  0.40581370976E+03  0.10100000352E+00 0.  1.
    10030    2    1    2    0    0  0.00000000000E+00  0.00000000000E+00 -0.19900500596E+03  0.61262242565E+03  0.57939903694E+03 0.  0.
        4    1    3    3  502    0  0.25131020528E+03  0.12738302769E+03 -0.17075304142E+03  0.32945632347E+03  0.12699999809E+01 0.  1.
       -4    1    3    3    0  502 -0.25131020528E+03 -0.12738302769E+03 -0.28251964543E+02  0.28316610218E+03  0.12699999809E+01 0. -1.
</event>
<event>
 5   0  0.7263385E-02  0.6035374E+03  0.7818609E-02  0.9898094E-01
       -1   -1    0    0    0  501  0.00000000000E+00  0.00000000000E+00  0.23861397092E+03  0.23861397097E+03  0.50400001928E-02 0.  1.
        1   -1    0    0  501    0  0.00000000000E+00  0.00000000000E+00 -0.38163885692E+03  0.38163885696E+03  0.50400001928E-02 0. -1.
    10030    2    1    2    0    0  0.00000000000E+00  0.00000000000E+00 -0.14302488601E+03  0.62025282793E+03  0.60353744916E+03 0.  0.
        1    1    3    3  502    0 -0.16853687481E+03  0.23817731161E+02 -0.32759721585E+03  0.36917732642E+03  0.50400001928E-02 0. -1.
       -1    1    3    3    0  502  0.16853687481E+03 -0.23817731161E+02  0.18457232984E+03  0.25107550151E+03  0.50400001928E-02 0.  1.
</event>
<event>
 5   0  0.4695625E-02  0.5969385E+03  0.7818609E-02  0.9911778E-01
       -3   -1    0    0    0  501  0.00000000000E+00  0.00000000000E+00  0.16190602692E+03  0.16190605842E+03  0.10100000352E+00 0. -1.
        3   -1    0    0  501    0  0.00000000000E+00  0.00000000000E+00 -0.55021969993E+03  0.55021970920E+03  0.10100000352E+00 0.  1.
    10030    2    1    2    0    0  0.00000000000E+00  0.00000000000E+00 -0.38831367302E+03  0.71212576763E+03  0.59693852302E+03 0.  0.
        4    1    3    3  502    0  0.25037273203E+02  0.84558584061E+02 -0.53431933809E+03  0.54154943186E+03  0.12699999809E+01 0.  1.
       -4    1    3    3    0  502 -0.25037273203E+02 -0.84558584061E+02  0.14600566508E+03  0.17057633576E+03  0.12699999809E+01 0. -1.
</event>
<event>
 5   0  0.1175861E-01  0.5894715E+03  0.7818609E-02  0.9927493E-01
       -2   -1    0    0    0  501  0.00000000000E+00  0.00000000000E+00  0.33004206263E+03  0.33004206264E+03  0.25500000920E-02 0.  1.
        2   -1    0    0  501    0  0.00000000000E+00  0.00000000000E+00 -0.26320631713E+03  0.26320631714E+03  0.25500000920E-02 0. -1.
    10030    2    1    2    0    0  0.00000000000E+00  0.00000000000E+00  0.66835745504E+02  0.59324837979E+03  0.58947147789E+03 0.  0.
        3    1    3    3  502    0 -0.49912382775E+02 -0.19964462878E+03 -0.17893148963E+03  0.27270077362E+03  0.10100000352E+00 0. -1.
       -3    1    3    3    0  502  0.49912382775E+02  0.19964462878E+03  0.24576723513E+03  0.32054760616E+03  0.10100000352E+00 0.  1.
</event>
<event>
 5   0  0.4695625E-02  0.5804152E+03  0.7818609E-02  0.9946893E-01
        3   -1    0    0  501    0  0.00000000000E+00  0.00000000000E+00  0.43602713152E+03  0.43602714321E+03  0.10100000352E+00 0. -1.
       -3   -1    0    0    0  501  0.00000000000E+00  0.00000000000E+00 -0.19315411355E+03  0.19315413995E+03  0.10100000352E+00 0.  1.
    10030    2    1    2    0    0  0.00000000000E+00  0.00000000000E+00  0.24287301797E+03  0.62918128317E+03  0.58041518263E+03 0.  0.
        3    1    3    3  502    0  0.19461766015E+03  0.11943260778E+03  0.31559479630E+03  0.38953853095E+03  0.10100000352E+00 0. -1.
       -3    1    3    3    0  502 -0.19461766015E+03 -0.11943260778E+03 -0.72721778332E+02  0.23964275222E+03  0.10100000352E+00 0.  1.
</event>
<event>
 5   0  0.1166419E-01  0.5981318E+03  0.7818609E-02  0.9909290E-01
        2   -1    0    0  501    0  0.00000000000E+00  0.00000000000E+00  0.26981665026E+04  0.26981665026E+04  0.25500000920E-02 0.  1.
       -2   -1    0    0    0  501  0.00000000000E+00  0.00000000000E+00 -0.33148584236E+02  0.33148584334E+02  0.25500000920E-02 0. -1.
    10030    2    1    2    0    0  0.00000000000E+00  0.00000000000E+00  0.26650179183E+04  0.27313150869E+04  0.59813175715E+03 0.  0.
        1    1    3    3  502    0 -0.15370624417E+03 -0.19000671852E+03  0.54538593094E+03  0.59764034023E+03  0.50400001928E-02 0. -1.
       -1    1    3    3    0  502  0.15370624417E+03  0.19000671852E+03  0.21196319874E+04  0.21336747467E+04  0.50400001928E-02 0.  1.
</event>
<event>
 5   0  0.4695625E-02  0.6086886E+03  0.7818609E-02  0.9887542E-01
       -4   -1    0    0    0  501  0.00000000000E+00  0.00000000000E+00  0.29227588902E+03  0.29227864821E+03  0.12699999809E+01 0.  1.
        4   -1    0    0  501    0  0.00000000000E+00  0.00000000000E+00 -0.31690545624E+03  0.31690800100E+03  0.12699999809E+01 0. -1.
    10030    2    1    2    0    0  0.00000000000E+00  0.00000000000E+00 -0.24629567227E+02  0.60918664921E+03  0.60868855583E+03 0.  0.
        1    1    3    3  502    0 -0.49402200216E+02  0.19836834488E+03  0.21333559375E+03  0.29547022392E+03  0.50400001928E-02 0.  1.
       -1    1    3    3    0  502  0.49402200216E+02 -0.19836834488E+03 -0.23796516098E+03  0.31371642529E+03  0.50400001928E-02 0. -1.
</event>
<event>
 5   0  0.7263385E-02  0.6029728E+03  0.7818609E-02  0.9899258E-01
        1   -1    0    0  501    0  0.00000000000E+00  0.00000000000E+00  0.36937823011E+03  0.36937823015E+03  0.50400001928E-02 0. -1.
       -1   -1    0    0    0  501  0.00000000000E+00  0.00000000000E+00 -0.24607310557E+03  0.24607310562E+03  0.50400001928E-02 0.  1.
    10030    2    1    2    0    0  0.00000000000E+00  0.00000000000E+00  0.12330512455E+03  0.61545133577E+03  0.60297279620E+03 0.  0.
        1    1    3    3  502    0  0.17457003399E+03  0.13589079982E+03  0.27071582697E+03  0.34961130594E+03  0.50400001928E-02 0.  1.
       -1    1    3    3    0  502 -0.17457003399E+03 -0.13589079982E+03 -0.14741070242E+03  0.26584002983E+03  0.50400001928E-02 0. -1.
</event>
<event>
 5   0  0.7123340E-02  0.6269002E+03  0.7818609E-02  0.9851117E-01
        1   -1    0    0  501    0  0.00000000000E+00  0.00000000000E+00  0.50095920030E+03  0.50095920033E+03  0.50400001928E-02 0. -1.
       -1   -1    0    0    0  501  0.00000000000E+00  0.00000000000E+00 -0.19612568448E+03  0.19612568454E+03  0.50400001928E-02 0.  1.
    10030    2    1    2    0    0  0.00000000000E+00  0.00000000000E+00  0.30483351582E+03  0.69708488487E+03  0.62690020286E+03 0.  0.
        2    1    3    3  502    0 -0.19363254421E+03 -0.13327319625E+03  0.38298503840E+03  0.44936938777E+03  0.25500000920E-02 0. -1.
       -2    1    3    3    0  502  0.19363254421E+03  0.13327319625E+03 -0.78151522577E+02  0.24771549711E+03  0.25500000920E-02 0.  1.
</event>
<event>
 5   0  0.1175861E-01  0.5767600E+03  0.7818609E-02  0.9954830E-01
        2   -1    0    0  501    0  0.00000000000E+00  0.00000000000E+00  0.70018202351E+03  0.70018202352E+03  0.25500000920E-02 0.  1.
       -2   -1    0    0    0  501  0.00000000000E+00  0.00000000000E+00 -0.11877341850E+03  0.11877341853E+03  0.25500000920E-02 0. -1.
    10030    2    1    2    0    0  0.00000000000E+00  0.00000000000E+00  0.58140860501E+03  0.81895544205E+03  0.57675995880E+03 0.  0.
        3    1    3    3  502    0 -0.20642521398E+02 -0.23339183164E+03  0.51983231945E+02  0.24000026536E+03  0.10100000352E+00 0. -1.
       -3    1    3    3    0  502  0.20642521398E+02  0.23339183164E+03  0.52942537306E+03  0.57895517669E+03  0.10100000352E+00 0.  1.
</event>
<event>
 5   0  0.7123340E-02  0.5991556E+03  0.7818609E-02  0.9907160E-01
        1   -1    0    0  501    0  0.00000000000E+00  0.00000000000E+00  0.65584405006E+03  0.65584405008E+03  0.50400001928E-02 0.  1.
       -1   -1    0    0    0  501  0.00000000000E+00  0.00000000000E+00 -0.13684174349E+03  0.13684174358E+03  0.50400001928E-02 0. -1.
    10030    2    1    2    0    0  0.00000000000E+00  0.00000000000E+00  0.51900230657E+03  0.79268579366E+03  0.59915555013E+03 0.  0.
        2    1    3    3  502    0 -0.10760764686E+03  0.75143794601E+02  0.61578236811E+03  0.62961410436E+03  0.25500000920E-02 0.  1.
       -2    1    3    3    0  502  0.10760764686E+03 -0.75143794601E+02 -0.96780061546E+02  0.16307168930E+03  0.25500000920E-02 0. -1.
</event>
<event>
 5   0  0.1146468E-01  0.6068216E+03  0.7818609E-02  0.9891354E-01
       -2   -1    0    0    0  501  0.00000000000E+00  0.00000000000E+00  0.15568748674E+03  0.15568748676E+03  0.25500000920E-02 0. -1.
        2   -1    0    0  501    0  0.00000000000E+00  0.00000000000E+00 -0.59130064199E+03  0.59130064199E+03  0.25500000920E-02 0.  1.
    10030    2    1    2    0    0  0.00000000000E+00  0.00000000000E+00 -0.43561315525E+03  0.74698812875E+03  0.60682159114E+03 0.  0.
        4    1    3    3  502    0 -0.19251523399E+03 -0.23439088689E+03 -0.20865291730E+03  0.36815602123E+03  0.12699999809E+01 0.  1.
       -4    1    3    3    0  502  0.19251523399E+03  0.23439088689E+03 -0.22696023795E+03  0.37883210752E+03  0.12699999809E+01 0. -1.
</event>
<event>
 5   0  0.7424930E-02  0.5523645E+03  0.7818609E-02  0.1000948E+00
       -1   -1    0    0    0  501  0.00000000000E+00  0.00000000000E+00  0.29350386705E+02  0.29350387137E+02  0.50400001928E-02 0.  1.
        1   -1    0    0  501    0  0.00000000000E+00  0.00000000000E+00 -0.25988290491E+04  0.25988290492E+04  0.50400001928E-02 0. -1.
    10030    2    1    2    0    0  0.00000000000E+00  0.00000000000E+00 -0.25694786624E+04  0.26281794363E+04  0.55236451061E+03 0.  0.
        3    1    3    3  502    0  0.44822609825E+02  0.13846868112E+03 -0.24015545989E+04  0.24059607527E+04  0.10100000352E+00 0. -1.
       -3    1    3    3    0  502 -0.44822609825E+02 -0.13846868112E+03 -0.16792406355E+03  0.22221868356E+03  0.10100000352E+00 0.  1.
</event>
<event>
 5   0  0.7263385E-02  0.5439722E+03  0.7818609E-02  0.1002899E+00
       -1   -1    0    0    0  501  0.00000000000E+00  0.00000000000E+00  0.81884880094E+03  0.81884880095E+03  0.50400001928E-02 0. -1.
        1   -1    0    0  501    0  0.00000000000E+00  0.00000000000E+00 -0.90341993187E+02  0.90341993327E+02  0.50400001928E-02 0.  1.
    10030    2    1    2    0    0  0.00000000000E+00  0.00000000000E+00  0.72850680775E+03  0.90919079428E+03  0.54397217894E+03 0.  0.
        1    1    3    3  502    0  0.20665737182E+03 -0.97926357914E+01  0.65935360560E+03  0.69105017349E+03  0.50400001928E-02 0. -1.
       -1    1    3    3    0  502 -0.20665737182E+03  0.97926357914E+01  0.69153202149E+02  0.21814062078E+03  0.50400001928E-02 0.  1.
</event>
<event>
 5   0  0.1146468E-01  0.5845836E+03  0.7818609E-02  0.9937917E-01
       -2   -1    0    0    0  501  0.00000000000E+00  0.00000000000E+00  0.19093281045E+03  0.19093281047E+03  0.25500000920E-02 0. -1.
        2   -1    0    0  501    0  0.00000000000E+00  0.00000000000E+00 -0.44745848045E+03  0.44745848046E+03  0.25500000920E-02 0.  1.
    10030    2    1    2    0    0  0.00000000000E+00  0.00000000000E+00 -0.25652567000E+03  0.63839129093E+03  0.58458363043E+03 0.  0.
        4    1    3    3  502    0 -0.18981153419E+03 -0.15062707132E+03  0.50232014717E+02  0.24747080904E+03  0.12699999809E+01 0. -1.
       -4    1    3    3    0  502  0.18981153419E+03  0.15062707132E+03 -0.30675768471E+03  0.39092048188E+03  0.12699999809E+01 0.  1.
</event>
<event>
 5   0  0.1206238E-01  0.5682094E+03  0.7818609E-02  0.9973649E-01
        2   -1    0    0  501    0  0.00000000000E+00  0.00000000000E+00  0.87480607076E+03  0.87480607076E+03  0.25500000920E-02 0. -1.
       -2   -1    0    0    0  501  0.00000000000E+00  0.00000000000E+00 -0.92266710821E+02  0.92266710856E+02  0.25500000920E-02 0.  1.
    10030    2    1    2    0    0  0.00000000000E+00  0.00000000000E+00  0.78253935994E+03  0.96707278162E+03  0.56820939371E+03 0.  0.
        5    1    3    3  502    0 -0.78403386761E+02 -0.21414814755E+03  0.10300440923E+03  0.25027688362E+03  0.46999998093E+01 0.  1.
       -5    1    3    3    0  502  0.78403386761E+02  0.21414814755E+03  0.67953495071E+03  0.71679589800E+03  0.46999998093E+01 0. -1.
</event>
<event>
 5   0  0.7123340E-02  0.6196625E+03  0.7818609E-02  0.9865432E-01
       -1   -1    0    0    0  501  0.00000000000E+00  0.00000000000E+00  0.18938139076E+03  0.18938139083E+03  0.50400001928E-02 0. -1.
        1   -1    0    0  501    0  0.00000000000E+00  0.00000000000E+00 -0.50688928967E+03  0.50688928970E+03  0.50400001928E-02 0.  1.
    10030    2    1    2    0    0  0.00000000000E+00  0.00000000000E+00 -0.31750789891E+03  0.69627068053E+03  0.61966248450E+03 0.  0.
        2    1    3    3  502    0 -0.16143920731E+03 -0.25984772175E+03 -0.21393708578E+03  0.37329952161E+03  0.25500000920E-02 0.  1.
       -2    1    3    3    0  502  0.16143920731E+03  0.25984772175E+03 -0.10357081313E+03  0.32297115892E+03  0.25500000920E-02 0. -1.
</event>
<event>
 5   0  0.7123340E-02  0.5743212E+03  0.7818609E-02  0.9960162E-01
       -1   -1    0    0    0  501  0.00000000000E+00  0.00000000000E+00  0.16994689779E+03  0.16994689786E+03  0.50400001928E-02 0. -1.
        1   -1    0    0  501    0  0.00000000000E+00  0.00000000000E+00 -0.48521752962E+03  0.48521752965E+03  0.50400001928E-02 0.  1.
    10030    2    1    2    0    0  0.00000000000E+00  0.00000000000E+00 -0.31527063183E+03  0.65516442751E+03  0.57432121306E+03 0.  0.
        2    1    3    3  502    0 -0.79793839729E+02 -0.26334771425E+03 -0.25130397122E+03  0.37265635835E+03  0.25500000920E-02 0. -1.
       -2    1    3    3    0  502  0.79793839729E+02  0.26334771425E+03 -0.63966660607E+02  0.28250806915E+03  0.25500000920E-02 0.  1.
</event>
<event>
 5   0  0.7263385E-02  0.6009772E+03  0.7818609E-02  0.9903381E-01
        1   -1    0    0  501    0  0.00000000000E+00  0.00000000000E+00  0.60958454088E+03  0.60958454090E+03  0.50400001928E-02 0.  1.
       -1   -1    0    0    0  501  0.00000000000E+00  0.00000000000E+00 -0.14812286510E+03  0.14812286518E+03  0.50400001928E-02 0. -1.
    10030    2    1    2    0    0  0.00000000000E+00  0.00000000000E+00  0.46146167578E+03  0.75770740609E+03  0.60097723336E+03 0.  0.
        1    1    3    3  502    0 -0.79019260833E+02 -0.26921349032E+02  0.59467113629E+03  0.60050192587E+03  0.50400001928E-02 0.  1.
       -1    1    3    3    0  502  0.79019260833E+02  0.26921349032E+02 -0.13320946051E+03  0.15720548022E+03  0.50400001928E-02 0. -1.
</event>
<event>
 5   0  0.7221069E-02  0.5924724E+03  0.7818609E-02  0.9921148E-01
       -1   -1    0    0    0  501  0.00000000000E+00  0.00000000000E+00  0.22081419879E+03  0.22081419885E+03  0.50400001928E-02 0.  1.
        1   -1    0    0  501    0  0.00000000000E+00  0.00000000000E+00 -0.39741959879E+03  0.39741959882E+03  0.50400001928E-02 0. -1.
    10030    2    1    2    0    0  0.00000000000E+00  0.00000000000E+00 -0.17660539999E+03  0.61823379767E+03  0.59247241394E+03 0.  0.
        5    1    3    3  502    0  0.13466713919E+02 -0.72626380381E+02  0.21101065484E+03  0.22361469085E+03  0.46999998093E+01 0.  1.
       -5    1    3    3    0  502 -0.13466713919E+02  0.72626380381E+02 -0.38761605483E+03  0.39461910682E+03  0.46999998093E+01 0. -1.
</event>
<event>
 5   0  0.7424930E-02  0.4764964E+03  0.7818609E-02  0.1020103E+00
        1   -1    0    0  501    0  0.00000000000E+00  0.00000000000E+00  0.43117054643E+03  0.43117054646E+03  0.50400001928E-02 0. -1.
       -1   -1    0    0    0  501  0.00000000000E+00  0.00000000000E+00 -0.13164674856E+03  0.13164674866E+03  0.50400001928E-02 0.  1.
    10030    2    1    2    0    0  0.00000000000E+00  0.00000000000E+00  0.29952379787E+03  0.56281729512E+03  0.47649638214E+03 0.  0.
        3    1    3    3  502    0 -0.14816406852E+02 -0.23168818223E+03  0.21296487244E+03  0.31504442035E+03  0.10100000352E+00 0.  1.
       -3    1    3    3    0  502  0.14816406852E+02  0.23168818223E+03  0.86558925429E+02  0.24777287477E+03  0.10100000352E+00 0. -1.
</event>
<event>
 5   0  0.1166419E-01  0.5785128E+03  0.7818609E-02  0.9951016E-01
       -2   -1    0    0    0  501  0.00000000000E+00  0.00000000000E+00  0.18895023160E+03  0.18895023162E+03  0.25500000920E-02 0.  1.
        2   -1    0    0  501    0  0.00000000000E+00  0.00000000000E+00 -0.44281108308E+03  0.44281108309E+03  0.25500000920E-02 0. -1.
    10030    2    1    2    0    0  0.00000000000E+00  0.00000000000E+00 -0.25386085148E+03  0.63176131470E+03  0.57851277155E+03 0.  0.
        1    1    3    3  502    0  0.15044454525E+02 -0.20675505124E+03 -0.34722918138E+03  0.40440337691E+03  0.50400001928E-02 0. -1.
       -1    1    3    3    0  502 -0.15044454525E+02  0.20675505124E+03  0.93368329899E+02  0.22735793780E+03  0.50400001928E-02 0.  1.
</event>
<event>
 5   0  0.7424930E-02  0.6524051E+03  0.7818609E-02  0.9802277E-01
        1   -1    0    0  501    0  0.00000000000E+00  0.00000000000E+00  0.10347721653E+04  0.10347721653E+04  0.50400001928E-02 0.  1.
       -1   -1    0    0    0  501  0.00000000000E+00  0.00000000000E+00 -0.10283238437E+03  0.10283238450E+03  0.50400001928E-02 0. -1.
    10030    2    1    2    0    0  0.00000000000E+00  0.00000000000E+00  0.93193978094E+03  0.11376045498E+04  0.65240505553E+03 0.  0.
        3    1    3    3  502    0 -0.12140565875E+03  0.98774142905E+02  0.96502541102E+03  0.97763475767E+03  0.10100000352E+00 0.  1.
       -3    1    3    3    0  502  0.12140565875E+03 -0.98774142905E+02 -0.33085630084E+02  0.15996979215E+03  0.10100000352E+00 0. -1.
</event>
<event>
 5   0  0.7263385E-02  0.5900587E+03  0.7818609E-02  0.9926248E-01
        1   -1    0    0  501    0  0.00000000000E+00  0.00000000000E+00  0.18449518008E+04  0.18449518008E+04  0.50400001928E-02 0. -1.
       -1   -1    0    0    0  501  0.00000000000E+00  0.00000000000E+00 -0.47178643655E+02  0.47178643925E+02  0.50400001928E-02 0.  1.
    10030    2    1    2    0    0  0.00000000000E+00  0.00000000000E+00  0.17977731571E+04  0.18921304447E+04  0.59005872193E+03 0.  0.
        1    1    3    3  502    0 -0.23933769908E+03  0.16175117777E+03  0.10911898087E+04  0.11287786215E+04  0.50400001928E-02 0. -1.
       -1    1    3    3    0  502  0.23933769908E+03 -0.16175117777E+03  0.70658334845E+03  0.76335182324E+03  0.50400001928E-02 0.  1.
</event>
<event>
 5   0  0.7263385E-02  0.6035315E+03  0.7818609E-02  0.9898106E-01
        1   -1    0    0  501    0  0.00000000000E+00  0.00000000000E+00  0.76863052741E+03  0.76863052743E+03  0.50400001928E-02 0. -1.
       -1   -1    0    0    0  501  0.00000000000E+00  0.00000000000E+00 -0.11847378271E+03  0.11847378282E+03  0.50400001928E-02 0.  1.
    10030    2    1    2    0    0  0.00000000000E+00  0.00000000000E+00  0.65015674470E+03  0.88710431024E+03  0.60353149427E+03 0.  0.
        1    1    3    3  502    0 -0.11085635889E+03  0.26109845725E+03  0.47641664461E+03  0.55446763294E+03  0.50400001928E-02 0.  1.
       -1    1    3    3    0  502  0.11085635889E+03 -0.26109845725E+03  0.17374010009E+03  0.33263667731E+03  0.50400001928E-02 0. -1.
</event>
<event>
 5   0  0.7123340E-02  0.5869380E+03  0.7818609E-02  0.9932882E-01
       -1   -1    0    0    0  501  0.00000000000E+00  0.00000000000E+00  0.80936978215E+03  0.80936978216E+03  0.50400001928E-02 0. -1.
        1   -1    0    0  501    0  0.00000000000E+00  0.00000000000E+00 -0.10640879378E+03  0.10640879390E+03  0.50400001928E-02 0.  1.
    10030    2    1    2    0    0  0.00000000000E+00  0.00000000000E+00  0.70296098837E+03  0.91577857606E+03  0.58693802843E+03 0.  0.
        2    1    3    3  502    0  0.11347399190E+03 -0.19929579381E+03  0.65782036205E+02  0.23858423368E+03  0.25500000920E-02 0.  1.
       -2    1    3    3    0  502 -0.11347399190E+03  0.19929579381E+03  0.63717895216E+03  0.67719434238E+03  0.25500000920E-02 0. -1.
</event>
<event>
 5   0  0.7424930E-02  0.5609651E+03  0.7818609E-02  0.9989873E-01
        1   -1    0    0  501    0  0.00000000000E+00  0.00000000000E+00  0.45688898397E+03  0.45688898400E+03  0.50400001928E-02 0. -1.
       -1   -1    0    0    0  501  0.00000000000E+00  0.00000000000E+00 -0.17218724691E+03  0.17218724698E+03  0.50400001928E-02 0.  1.
    10030    2    1    2    0    0  0.00000000000E+00  0.00000000000E+00  0.28470173706E+03  0.62907623098E+03  0.56096508385E+03 0.  0.
        3    1    3    3  502    0 -0.73826249865E+02  0.31349238219E+02  0.44375442138E+03  0.45094466024E+03  0.10100000352E+00 0. -1.
       -3    1    3    3    0  502  0.73826249865E+02 -0.31349238219E+02 -0.15905268432E+03  0.17813157074E+03  0.10100000352E+00 0.  1.
</event>
<event>
 5   0  0.1166419E-01  0.6028548E+03  0.7818609E-02  0.9899501E-01
        2   -1    0    0  501    0  0.00000000000E+00  0.00000000000E+00  0.49474398689E+03  0.49474398689E+03  0.25500000920E-02 0.  1.
       -2   -1    0    0    0  501  0.00000000000E+00  0.00000000000E+00 -0.18364747497E+03  0.18364747498E+03  0.25500000920E-02 0. -1.
    10030    2    1    2    0    0  0.00000000000E+00  0.00000000000E+00  0.31109651192E+03  0.67839146188E+03  0.60285482151E+03 0.  0.
        1    1    3    3  502    0 -0.89376066275E+02 -0.23607676630E+03 -0.29829601727E+02  0.25418521982E+03  0.50400001928E-02 0. -1.
       -1    1    3    3    0  502  0.89376066275E+02  0.23607676630E+03  0.34092611365E+03  0.42420624206E+03  0.50400001928E-02 0.  1.
</event>
<event>
 5   0  0.1175861E-01  0.6230009E+03  0.7818609E-02  0.9858803E-01
       -2   -1    0    0    0  501  0.00000000000E+00  0.00000000000E+00  0.10944771629E+03  0.10944771632E+03  0.25500000920E-02 0.  1.
        2   -1    0    0  501    0  0.00000000000E+00  0.00000000000E+00 -0.88656518580E+03  0.88656518580E+03  0.25500000920E-02 0. -1.
    10030    2    1    2    0    0  0.00000000000E+00  0.00000000000E+00 -0.77711746951E+03  0.99601290213E+03  0.62300091476E+03 0.  0.
        3    1    3    3  502    0 -0.19473470799E+03 -0.11810726179E+03 -0.48807607794E+02  0.23292300136E+03  0.10100000352E+00 0.  1.
       -3    1    3    3    0  502  0.19473470799E+03  0.11810726179E+03 -0.72830986171E+03  0.76308990077E+03  0.10100000352E+00 0. -1.
</event>
<event>
 5   0  0.7424930E-02  0.5991058E+03  0.7818609E-02  0.9907263E-01
       -1   -1    0    0    0  501  0.00000000000E+00  0.00000000000E+00  0.54532872392E+03  0.54532872394E+03  0.50400001928E-02 0. -1.
        1   -1    0    0  501    0  0.00000000000E+00  0.00000000000E+00 -0.16454648745E+03  0.16454648753E+03  0.50400001928E-02 0.  1.
    10030    2    1    2    0    0  0.00000000000E+00  0.00000000000E+00  0.38078223647E+03  0.70987521147E+03  0.59910575381E+03 0.  0.
        3    1    3    3  502    0  0.14285890672E+03  0.24098053712E+03  0.31607692273E+03  0.42235638717E+03  0.10100000352E+00 0. -1.
       -3    1    3    3    0  502 -0.14285890672E+03 -0.24098053712E+03  0.64705313735E+02  0.28751882430E+03  0.10100000352E+00 0.  1.
</event>
<event>
 5   0  0.4695625E-02  0.6098530E+03  0.7818609E-02  0.9885173E-01
        4   -1    0    0  501    0  0.00000000000E+00  0.00000000000E+00  0.44684259975E+03  0.44684440452E+03  0.12699999809E+01 0.  1.
       -4   -1    0    0    0  501  0.00000000000E+00  0.00000000000E+00 -0.20807842386E+03  0.20808229952E+03  0.12699999809E+01 0. -1.
    10030    2    1    2    0    0  0.00000000000E+00  0.00000000000E+00  0.23876417589E+03  0.65492670404E+03  0.60985297899E+03 0.  0.
        2    1    3    3  502    0 -0.11386796616E+03  0.49134516879E+01 -0.18434651425E+03  0.21673415294E+03  0.25500000920E-02 0. -1.
       -2    1    3    3    0  502  0.11386796616E+03 -0.49134516879E+01  0.42311069014E+03  0.43819255110E+03  0.25500000920E-02 0.  1.
</event>
<event>
 5   0  0.7123340E-02  0.5611067E+03  0.7818609E-02  0.9989554E-01
        1   -1    0    0  501    0  0.00000000000E+00  0.00000000000E+00  0.58998391101E+03  0.58998391104E+03  0.50400001928E-02 0.  1.
       -1   -1    0    0    0  501  0.00000000000E+00  0.00000000000E+00 -0.13341071194E+03  0.13341071203E+03  0.50400001928E-02 0. -1.
    10030    2    1    2    0    0  0.00000000000E+00  0.00000000000E+00  0.45657319907E+03  0.72339462307E+03  0.56110666951E+03 0.  0.
        2    1    3    3  502    0 -0.25483004131E+03 -0.11689012602E+03  0.24171700065E+03  0.37017395900E+03  0.25500000920E-02 0. -1.
       -2    1    3    3    0  502  0.25483004131E+03  0.11689012602E+03  0.21485619843E+03  0.35322066407E+03  0.25500000920E-02 0.  1.
</event>
<event>
 5   0  0.7123340E-02  0.6077368E+03  0.7818609E-02  0.9889483E-01
        1   -1    0    0  501    0  0.00000000000E+00  0.00000000000E+00  0.97290485736E+03  0.97290485737E+03  0.50400001928E-02 0. -1.
       -1   -1    0    0    0  501  0.00000000000E+00  0.00000000000E+00 -0.94907533793E+02  0.94907533927E+02  0.50400001928E-02 0.  1.
    10030    2    1    2    0    0  0.00000000000E+00  0.00000000000E+00  0.87799732357E+03  0.10678123913E+04  0.60773678745E+03 0.  0.
        2    1    3    3  502    0 -0.15925502266E+02 -0.14958639668E+03 -0.24891766690E+02  0.15247724994E+03  0.25500000920E-02 0.  1.
       -2    1    3    3    0  502  0.15925502266E+02  0.14958639668E+03  0.90288909026E+03  0.91533514136E+03  0.25500000920E-02 0. -1.
</event>
<event>
 5   0  0.7263385E-02  0.6705223E+03  0.7818609E-02  0.9769015E-01
        1   -1    0    0  501    0  0.00000000000E+00  0.00000000000E+00  0.91174864110E+03  0.91174864111E+03  0.50400001928E-02 0.  1.
       -1   -1    0    0    0  501  0.00000000000E+00  0.00000000000E+00 -0.12327961722E+03  0.12327961732E+03  0.50400001928E-02 0. -1.
    10030    2    1    2    0    0  0.00000000000E+00  0.00000000000E+00  0.78846902388E+03  0.10350282584E+04  0.67052225477E+03 0.  0.
        1    1    3    3  502    0 -0.11952907203E+03 -0.20764159365E+03  0.75623707175E+03  0.79328225695E+03  0.50400001928E-02 0.  1.
       -1    1    3    3    0  502  0.11952907203E+03  0.20764159365E+03  0.32231952126E+02  0.24174600149E+03  0.50400001928E-02 0. -1.
</event>
<event>
 5   0  0.7221069E-02  0.5737004E+03  0.7818609E-02  0.9961523E-01
       -1   -1    0    0    0  501  0.00000000000E+00  0.00000000000E+00  0.10624418626E+03  0.10624418638E+03  0.50400001928E-02 0. -1.
        1   -1    0    0  501    0  0.00000000000E+00  0.00000000000E+00 -0.77447088930E+03  0.77447088932E+03  0.50400001928E-02 0.  1.
    10030    2    1    2    0    0  0.00000000000E+00  0.00000000000E+00 -0.66822670304E+03  0.88071507570E+03  0.57370037294E+03 0.  0.
        5    1    3    3  502    0  0.99218254166E+02 -0.16715285394E+03 -0.65786805985E+03  0.68600059235E+03  0.46999998093E+01 0.  1.
       -5    1    3    3    0  502 -0.99218254166E+02  0.16715285394E+03 -0.10358643195E+02  0.19471448335E+03  0.46999998093E+01 0. -1.
</event>
<event>
 5   0  0.1206238E-01  0.5998344E+03  0.7818609E-02  0.9905750E-01
       -2   -1    0    0    0  501  0.00000000000E+00  0.00000000000E+00  0.35491664392E+03  0.35491664393E+03  0.25500000920E-02 0.  1.
        2   -1    0    0  501    0  0.00000000000E+00  0.00000000000E+00 -0.25344067329E+03  0.25344067330E+03  0.25500000920E-02 0. -1.
    10030    2    1    2    0    0  0.00000000000E+00  0.00000000000E+00  0.10147597064E+03  0.60835731723E+03  0.59983435448E+03 0.  0.
        5    1    3    3  502    0 -0.90488926349E+02  0.23103807374E+03 -0.12006329625E+03  0.27568845172E+03  0.46999998093E+01 0. -1.
       -5    1    3    3    0  502  0.90488926349E+02 -0.23103807374E+03  0.22153926688E+03  0.33266886551E+03  0.46999998093E+01 0.  1.
</event>
<event>
 5   0  0.1146468E-01  0.6033728E+03  0.7818609E-02  0.9898433E-01
        2   -1    0    0  501    0  0.00000000000E+00  0.00000000000E+00  0.57827377218E+03  0.57827377218E+03  0.25500000920E-02 0.  1.
       -2   -1    0    0    0  501  0.00000000000E+00  0.00000000000E+00 -0.15739028724E+03  0.15739028726E+03  0.25500000920E-02 0. -1.
    10030    2    1    2    0    0  0.00000000000E+00  0.00000000000E+00  0.42088348494E+03  0.73566405944E+03  0.60337277073E+03 0.  0.
        4    1    3    3  502    0  0.11092118059E+03  0.25967016876E+03  0.80942624330E+02  0.29374381046E+03  0.12699999809E+01 0. -1.
       -4    1    3    3    0  502 -0.11092118059E+03 -0.25967016876E+03  0.33994086061E+03  0.44192024898E+03  0.12699999809E+01 0.  1.
</event>
<event>
 5   0  0.7221069E-02  0.5621707E+03  0.7818609E-02  0.9987155E-01
        1   -1    0    0  501    0  0.00000000000E+00  0.00000000000E+00  0.14064805373E+04  0.14064805373E+04  0.50400001928E-02 0.  1.
       -1   -1    0    0    0  501  0.00000000000E+00  0.00000000000E+00 -0.56174945598E+02  0.56174945824E+02  0.50400001928E-02 0. -1.
    10030    2    1    2    0    0  0.00000000000E+00  0.00000000000E+00  0.13503055917E+04  0.14626554831E+04  0.56217067814E+03 0.  0.
        5    1    3    3  502    0 -0.21743598090E+03 -0.14403554452E+03  0.94756300975E+03  0.98281350791E+03  0.46999998093E+01 0.  1.
       -5    1    3    3    0  502  0.21743598090E+03  0.14403554452E+03  0.40274258195E+03  0.47984197523E+03  0.46999998093E+01 0. -1.
</event>
<event>
 5   0  0.7221069E-02  0.5923020E+03  0.7818609E-02  0.9921507E-01
        1   -1    0    0  501    0  0.00000000000E+00  0.00000000000E+00  0.55466964272E+03  0.55466964274E+03  0.50400001928E-02 0. -1.
       -1   -1    0    0    0  501  0.00000000000E+00  0.00000000000E+00 -0.15812191665E+03  0.15812191673E+03  0.50400001928E-02 0.  1.
    10030    2    1    2    0    0  0.00000000000E+00  0.00000000000E+00  0.39654772607E+03  0.71279155947E+03  0.59230204136E+03 0.  0.
        5    1    3    3  502    0 -0.19288887103E+03 -0.71716267522E+01 -0.71963669508E+02  0.20605438244E+03  0.46999998093E+01 0.  1.
       -5    1    3    3    0  502  0.19288887103E+03  0.71716267522E+01  0.46851139558E+03  0.50673717703E+03  0.46999998093E+01 0. -1.
</event>
<event>
 5   0  0.1166419E-01  0.5577035E+03  0.7818609E-02  0.9997264E-01
       -2   -1    0    0    0  501  0.00000000000E+00  0.00000000000E+00  0.15193935328E+03  0.15193935330E+03  0.25500000920E-02 0.  1.
        2   -1    0    0  501    0  0.00000000000E+00  0.00000000000E+00 -0.51177195852E+03  0.51177195852E+03  0.25500000920E-02 0. -1.
    10030    2    1    2    0    0  0.00000000000E+00  0.00000000000E+00 -0.35983260523E+03  0.66371131182E+03  0.55770350694E+03 0.  0.
        1    1    3    3  502    0  0.25405388612E+03 -0.33303136676E+02 -0.31085651154E+03  0.40284518956E+03  0.50400001928E-02 0. -1.
       -1    1    3    3    0  502 -0.25405388612E+03  0.33303136676E+02 -0.48976093696E+02  0.26086612226E+03  0.50400001928E-02 0.  1.
</event>
<event>
 5   0  0.1146468E-01  0.6520496E+03  0.7818609E-02  0.9802941E-01
        2   -1    0    0  501    0  0.00000000000E+00  0.00000000000E+00  0.51506843958E+03  0.51506843959E+03  0.25500000920E-02 0. -1.
       -2   -1    0    0    0  501  0.00000000000E+00  0.00000000000E+00 -0.20636510808E+03  0.20636510809E+03  0.25500000920E-02 0.  1.
    10030    2    1    2    0    0  0.00000000000E+00  0.00000000000E+00  0.30870333151E+03  0.72143354768E+03  0.65204955091E+03 0.  0.
        4    1    3    3  502    0 -0.18435093790E+03 -0.40671470949E+01  0.45182705061E+03  0.48800728125E+03  0.12699999809E+01 0. -1.
       -4    1    3    3    0  502  0.18435093790E+03  0.40671470949E+01 -0.14312371911E+03  0.23342626643E+03  0.12699999809E+01 0.  1.
</event>
<event>
 5   0  0.1146468E-01  0.6011098E+03  0.7818609E-02  0.9903106E-01
       -2   -1    0    0    0  501  0.00000000000E+00  0.00000000000E+00  0.17127161199E+03  0.17127161201E+03  0.25500000920E-02 0.  1.
        2   -1    0    0  501    0  0.00000000000E+00  0.00000000000E+00 -0.52742680065E+03  0.52742680066E+03  0.25500000920E-02 0. -1.
    10030    2    1    2    0    0  0.00000000000E+00  0.00000000000E+00 -0.35615518866E+03  0.69869841267E+03  0.60110976823E+03 0.  0.
        4    1    3    3  502    0  0.69501224498E+02 -0.86482574960E+02 -0.50274928730E+03  0.51484766170E+03  0.12699999809E+01 0. -1.
       -4    1    3    3    0  502 -0.69501224498E+02  0.86482574960E+02  0.14659409864E+03  0.18385075097E+03  0.12699999809E+01 0.  1.
</event>
<event>
 5   0  0.7266519E-02  0.6087028E+03  0.7818609E-02  0.9887513E-01
        1   -1    0    0  501    0  0.00000000000E+00  0.00000000000E+00  0.22966678850E+03  0.22966678855E+03  0.50400001928E-02 0. -1.
       -1   -1    0    0    0  501  0.00000000000E+00  0.00000000000E+00 -0.40332243138E+03  0.40332243142E+03  0.50400001928E-02 0.  1.
    10030    2    1    2    0    0  0.00000000000E+00  0.00000000000E+00 -0.17365564289E+03  0.63298921997E+03  0.60870277664E+03 0.  0.
        4    1    3    3  502    0  0.14466917379E+03 -0.13097069046E+03  0.15604065243E+03  0.24986554327E+03  0.12699999809E+01 0. -1.
       -4    1    3    3    0  502 -0.14466917379E+03  0.13097069046E+03 -0.32969629532E+03  0.38312367670E+03  0.12699999809E+01 0.  1.
</event>
<event>
 5   0  0.7424930E-02  0.5875962E+03  0.7818609E-02  0.9931479E-01
        1   -1    0    0  501    0  0.00000000000E+00  0.00000000000E+00  0.35522138299E+03  0.35522138302E+03  0.50400001928E-02 0.  1.
       -1   -1    0    0    0  501  0.00000000000E+00  0.00000000000E+00 -0.24299584574E+03  0.24299584579E+03  0.50400001928E-02 0. -1.
    10030    2    1    2    0    0  0.00000000000E+00  0.00000000000E+00  0.11222553725E+03  0.59821722881E+03  0.58759618927E+03 0.  0.
        3    1    3    3  502    0  0.11184662177E+03 -0.69698425845E+02  0.32344194843E+03  0.34925956189E+03  0.10100000352E+00 0.  1.
       -3    1    3    3    0  502 -0.11184662177E+03  0.69698425845E+02 -0.21121641118E+03  0.24895766692E+03  0.10100000352E+00 0. -1.
</event>
<event>
 5   0  0.7424930E-02  0.5968396E+03  0.7818609E-02  0.9911985E-01
        1   -1    0    0  501    0  0.00000000000E+00  0.00000000000E+00  0.42908467967E+03  0.42908467970E+03  0.50400001928E-02 0.  1.
       -1   -1    0    0    0  501  0.00000000000E+00  0.00000000000E+00 -0.20754502790E+03  0.20754502796E+03  0.50400001928E-02 0. -1.
    10030    2    1    2    0    0  0.00000000000E+00  0.00000000000E+00  0.22153965177E+03  0.63662970766E+03  0.59683964963E+03 0.  0.
        3    1    3    3  502    0 -0.10980343828E+03 -0.24015418533E+03 -0.37506813638E+02  0.26671632695E+03  0.10100000352E+00 0. -1.
       -3    1    3    3    0  502  0.10980343828E+03  0.24015418533E+03  0.25904646541E+03  0.36991338071E+03  0.10100000352E+00 0.  1.
</event>
<event>
 5   0  0.1146468E-01  0.5977732E+03  0.7818609E-02  0.9910037E-01
        2   -1    0    0  501    0  0.00000000000E+00  0.00000000000E+00  0.27049781986E+03  0.27049781987E+03  0.25500000920E-02 0.  1.
       -2   -1    0    0    0  501  0.00000000000E+00  0.00000000000E+00 -0.33025477278E+03  0.33025477279E+03  0.25500000920E-02 0. -1.
    10030    2    1    2    0    0  0.00000000000E+00  0.00000000000E+00 -0.59756952925E+02  0.60075259267E+03  0.59777318790E+03 0.  0.
        4    1    3    3  502    0 -0.34844684447E+02  0.98894073372E+02 -0.31116166757E+03  0.32835557868E+03  0.12699999809E+01 0. -1.
       -4    1    3    3    0  502  0.34844684447E+02 -0.98894073372E+02  0.25140471465E+03  0.27239701399E+03  0.12699999809E+01 0.  1.
</event>
<event>
 5   0  0.7266519E-02  0.6017121E+03  0.7818609E-02  0.9901860E-01
        1   -1    0    0  501    0  0.00000000000E+00  0.00000000000E+00  0.62829303563E+03  0.62829303565E+03  0.50400001928E-02 0.  1.
       -1   -1    0    0    0  501  0.00000000000E+00  0.00000000000E+00 -0.14406391593E+03  0.14406391602E+03  0.50400001928E-02 0. -1.
    10030    2    1    2    0    0  0.00000000000E+00  0.00000000000E+00  0.48422911970E+03  0.77235695166E+03  0.60171207435E+03 0.  0.
        4    1    3    3  502    0 -0.11466072058E+03 -0.57840982333E+02  0.59133858579E+03  0.60512444672E+03  0.12699999809E+01 0.  1.
       -4    1    3    3    0  502  0.11466072058E+03  0.57840982333E+02 -0.10710946609E+03  0.16723250494E+03  0.12699999809E+01 0. -1.
</event>
<event>
 5   0  0.4695625E-02  0.6032313E+03  0.7818609E-02  0.9898725E-01
       -3   -1    0    0    0  501  0.00000000000E+00  0.00000000000E+00  0.45986009935E+03  0.45986011044E+03  0.10100000352E+00 0.  1.
        3   -1    0    0  501    0  0.00000000000E+00  0.00000000000E+00 -0.19782534562E+03  0.19782537140E+03  0.10100000352E+00 0. -1.
    10030    2    1    2    0    0  0.00000000000E+00  0.00000000000E+00  0.26203475373E+03  0.65768548185E+03  0.60323128307E+03 0.  0.
        5    1    3    3  502    0  0.11547900828E+03 -0.25905956273E+03  0.19283779822E+02  0.28432589147E+03  0.46999998093E+01 0. -1.
       -5    1    3    3    0  502 -0.11547900828E+03  0.25905956273E+03  0.24275097391E+03  0.37335959038E+03  0.46999998093E+01 0.  1.
</event>
<event>
 5   0  0.1166419E-01  0.6011655E+03  0.7818609E-02  0.9902991E-01
        2   -1    0    0  501    0  0.00000000000E+00  0.00000000000E+00  0.75886915227E+03  0.75886915227E+03  0.25500000920E-02 0.  1.
       -2   -1    0    0    0  501  0.00000000000E+00  0.00000000000E+00 -0.11905873563E+03  0.11905873566E+03  0.25500000920E-02 0. -1.
    10030    2    1    2    0    0  0.00000000000E+00  0.00000000000E+00  0.63981041663E+03  0.87792788793E+03  0.60116554057E+03 0.  0.
        1    1    3    3  502    0  0.17618058122E+03 -0.36204235591E+02 -0.31798933207E+02  0.18265135108E+03  0.50400001928E-02 0. -1.
       -1    1    3    3    0  502 -0.17618058122E+03  0.36204235591E+02  0.67160934984E+03  0.69527653685E+03  0.50400001928E-02 0.  1.
</event>
<event>
 5   0  0.7221069E-02  0.6000204E+03  0.7818609E-02  0.9905364E-01
        1   -1    0    0  501    0  0.00000000000E+00  0.00000000000E+00  0.68910795013E+03  0.68910795015E+03  0.50400001928E-02 0.  1.
       -1   -1    0    0    0  501  0.00000000000E+00  0.00000000000E+00 -0.13061252960E+03  0.13061252970E+03  0.50400001928E-02 0. -1.
    10030    2    1    2    0    0  0.00000000000E+00  0.00000000000E+00  0.55849542053E+03  0.81972047985E+03  0.60002044160E+03 0.  0.
        5    1    3    3  502    0 -0.92803148358E+02  0.91800554731E+02  0.64822135784E+03  0.66125092435E+03  0.46999998093E+01 0.  1.
       -5    1    3    3    0  502  0.92803148358E+02 -0.91800554731E+02 -0.89725937316E+02  0.15846955550E+03  0.46999998093E+01 0. -1.
</event>
<event>
 5   0  0.1175861E-01  0.6018560E+03  0.7818609E-02  0.9901563E-01
        2   -1    0    0  501    0  0.00000000000E+00  0.00000000000E+00  0.21214078530E+04  0.21214078530E+04  0.25500000920E-02 0.  1.
       -2   -1    0    0    0  501  0.00000000000E+00  0.00000000000E+00 -0.42687534117E+02  0.42687534194E+02  0.25500000920E-02 0. -1.
    10030    2    1    2    0    0  0.00000000000E+00  0.00000000000E+00  0.20787203189E+04  0.21640953872E+04  0.60185602991E+03 0.  0.
        3    1    3    3  502    0 -0.17634288971E+03 -0.14818129212E+02  0.16418303568E+03  0.24139691612E+03  0.10100000352E+00 0. -1.
       -3    1    3    3    0  502  0.17634288971E+03  0.14818129212E+02  0.19145372832E+04  0.19226984710E+04  0.10100000352E+00 0.  1.
</event>
<event>
 5   0  0.1166419E-01  0.6041787E+03  0.7818609E-02  0.9896774E-01
        2   -1    0    0  501    0  0.00000000000E+00  0.00000000000E+00  0.19144057835E+03  0.19144057837E+03  0.25500000920E-02 0.  1.
       -2   -1    0    0    0  501  0.00000000000E+00  0.00000000000E+00 -0.47669085429E+03  0.47669085429E+03  0.25500000920E-02 0. -1.
    10030    2    1    2    0    0  0.00000000000E+00  0.00000000000E+00 -0.28525027594E+03  0.66813143266E+03  0.60417869160E+03 0.  0.
        1    1    3    3  502    0  0.11240350891E+03 -0.11027384522E+03 -0.42771830373E+03  0.45578264241E+03  0.50400001928E-02 0. -1.
       -1    1    3    3    0  502 -0.11240350891E+03  0.11027384522E+03  0.14246802779E+03  0.21234879025E+03  0.50400001928E-02 0.  1.
</event>
<event>
 5   0  0.7221069E-02  0.6003794E+03  0.7818609E-02  0.9904619E-01
        1   -1    0    0  501    0  0.00000000000E+00  0.00000000000E+00  0.56948512367E+03  0.56948512369E+03  0.50400001928E-02 0. -1.
       -1   -1    0    0    0  501  0.00000000000E+00  0.00000000000E+00 -0.15823744221E+03  0.15823744229E+03  0.50400001928E-02 0.  1.
    10030    2    1    2    0    0  0.00000000000E+00  0.00000000000E+00  0.41124768146E+03  0.72772256598E+03  0.60037944463E+03 0.  0.
        5    1    3    3  502    0  0.51431192771E+02 -0.21754216154E+03  0.44841419069E+03  0.50106599969E+03  0.46999998093E+01 0. -1.
       -5    1    3    3    0  502 -0.51431192771E+02  0.21754216154E+03 -0.37166509235E+02  0.22665656629E+03  0.46999998093E+01 0.  1.
</event>
<event>
 5   0  0.7123340E-02  0.5945948E+03  0.7818609E-02  0.9916684E-01
        1   -1    0    0  501    0  0.00000000000E+00  0.00000000000E+00  0.34307275839E+03  0.34307275842E+03  0.50400001928E-02 0.  1.
       -1   -1    0    0    0  501  0.00000000000E+00  0.00000000000E+00 -0.25762976352E+03  0.25762976357E+03  0.50400001928E-02 0. -1.
    10030    2    1    2    0    0  0.00000000000E+00  0.00000000000E+00  0.85442994868E+02  0.60070252199E+03  0.59459483226E+03 0.  0.
        2    1    3    3  502    0  0.28658813846E+03 -0.75728099810E+02  0.19722606109E+02  0.29707993437E+03  0.25500000920E-02 0. -1.
       -2    1    3    3    0  502 -0.28658813846E+03  0.75728099810E+02  0.65720388759E+02  0.30362258762E+03  0.25500000920E-02 0.  1.
</event>
<event>
 5   0  0.1219020E-01  0.6012151E+03  0.7818609E-02  0.9902888E-01
        2   -1    0    0  501    0  0.00000000000E+00  0.00000000000E+00  0.46203974040E+03  0.46203974041E+03  0.25500000920E-02 0.  1.
       -2   -1    0    0    0  501  0.00000000000E+00  0.00000000000E+00 -0.19557820738E+03  0.19557820739E+03  0.25500000920E-02 0. -1.
    10030    2    1    2    0    0  0.00000000000E+00  0.00000000000E+00  0.26646153303E+03  0.65761794780E+03  0.60121511682E+03 0.  0.
        2    1    3    3  502    0 -0.13937399649E+03 -0.13979006637E+03  0.38121217217E+03  0.42928905619E+03  0.25500000920E-02 0.  1.
       -2    1    3    3    0  502  0.13937399649E+03  0.13979006637E+03 -0.11475063914E+03  0.22832889161E+03  0.25500000920E-02 0. -1.
</event>
<event>
 5   0  0.1219020E-01  0.5978562E+03  0.7818609E-02  0.9909864E-01
        2   -1    0    0  501    0  0.00000000000E+00  0.00000000000E+00  0.17914996114E+03  0.17914996116E+03  0.25500000920E-02 0. -1.
       -2   -1    0    0    0  501  0.00000000000E+00  0.00000000000E+00 -0.49878884634E+03  0.49878884635E+03  0.25500000920E-02 0.  1.
    10030    2    1    2    0    0  0.00000000000E+00  0.00000000000E+00 -0.31963888521E+03  0.67793880751E+03  0.59785617818E+03 0.  0.
        2    1    3    3  502    0 -0.72379519355E+02  0.12744349252E+03  0.13561168843E+03  0.19967766188E+03  0.25500000920E-02 0. -1.
       -2    1    3    3    0  502  0.72379519355E+02 -0.12744349252E+03 -0.45525057364E+03  0.47826114562E+03  0.25500000920E-02 0.  1.
</event>
<event>
 5   0  0.7263385E-02  0.6259090E+03  0.7818609E-02  0.9853065E-01
        1   -1    0    0  501    0  0.00000000000E+00  0.00000000000E+00  0.43620568027E+03  0.43620568030E+03  0.50400001928E-02 0. -1.
       -1   -1    0    0    0  501  0.00000000000E+00  0.00000000000E+00 -0.22452832610E+03  0.22452832616E+03  0.50400001928E-02 0.  1.
    10030    2    1    2    0    0  0.00000000000E+00  0.00000000000E+00  0.21167735417E+03  0.66073400646E+03  0.62590903894E+03 0.  0.
        1    1    3    3  502    0 -0.52351338218E+02 -0.88660899172E+02 -0.20613634639E+03  0.23042050904E+03  0.50400001928E-02 0.  1.
       -1    1    3    3    0  502  0.52351338218E+02  0.88660899172E+02  0.41781370057E+03  0.43031349742E+03  0.50400001928E-02 0. -1.
</event>
<event>
 5   0  0.7123340E-02  0.6075899E+03  0.7818609E-02  0.9889783E-01
       -1   -1    0    0    0  501  0.00000000000E+00  0.00000000000E+00  0.27037917303E+03  0.27037917308E+03  0.50400001928E-02 0. -1.
        1   -1    0    0  501    0  0.00000000000E+00  0.00000000000E+00 -0.34134050580E+03  0.34134050583E+03  0.50400001928E-02 0.  1.
    10030    2    1    2    0    0  0.00000000000E+00  0.00000000000E+00 -0.70961332763E+02  0.61171967891E+03  0.60758987387E+03 0.  0.
        2    1    3    3  502    0 -0.18429824715E+03  0.37360709783E+02 -0.27570188259E+03  0.33372622703E+03  0.25500000920E-02 0.  1.
       -2    1    3    3    0  502  0.18429824715E+03 -0.37360709783E+02  0.20474054983E+03  0.27799345188E+03  0.25500000920E-02 0. -1.
</event>
<event>
 5   0  0.1166419E-01  0.6008029E+03  0.7818609E-02  0.9903742E-01
        2   -1    0    0  501    0  0.00000000000E+00  0.00000000000E+00  0.62664872137E+03  0.62664872137E+03  0.25500000920E-02 0. -1.
       -2   -1    0    0    0  501  0.00000000000E+00  0.00000000000E+00 -0.14400578006E+03  0.14400578008E+03  0.25500000920E-02 0.  1.
    10030    2    1    2    0    0  0.00000000000E+00  0.00000000000E+00  0.48264294131E+03  0.77065450145E+03  0.60080292260E+03 0.  0.
        1    1    3    3  502    0  0.26024629557E+03 -0.70523814719E+02  0.41119814522E+03  0.49171705020E+03  0.50400001928E-02 0.  1.
       -1    1    3    3    0  502 -0.26024629557E+03  0.70523814719E+02  0.71444796094E+02  0.27893745125E+03  0.50400001928E-02 0. -1.
</event>
<event>
 5   0  0.7266519E-02  0.5933592E+03  0.7818609E-02  0.9919280E-01
        1   -1    0    0  501    0  0.00000000000E+00  0.00000000000E+00  0.66252581909E+03  0.66252581911E+03  0.50400001928E-02 0.  1.
       -1   -1    0    0    0  501  0.00000000000E+00  0.00000000000E+00 -0.13285334454E+03  0.13285334464E+03  0.50400001928E-02 0. -1.
    10030    2    1    2    0    0  0.00000000000E+00  0.00000000000E+00  0.52967247454E+03  0.79537916375E+03  0.59335915248E+03 0.  0.
        4    1    3    3  502    0  0.81253077459E+02  0.47915300666E+02  0.64188503562E+03  0.64878035612E+03  0.12699999809E+01 0.  1.
       -4    1    3    3    0  502 -0.81253077459E+02 -0.47915300666E+02 -0.11221256108E+03  0.14659880763E+03  0.12699999809E+01 0. -1.
</event>
<event>
 5   0  0.1166419E-01  0.6081795E+03  0.7818609E-02  0.9888580E-01
       -2   -1    0    0    0  501  0.00000000000E+00  0.00000000000E+00  0.35199365724E+02  0.35199365816E+02  0.25500000920E-02 0. -1.
        2   -1    0    0  501    0  0.00000000000E+00  0.00000000000E+00 -0.26270524037E+04  0.26270524037E+04  0.25500000920E-02 0.  1.
    10030    2    1    2    0    0  0.00000000000E+00  0.00000000000E+00 -0.25918530379E+04  0.26622517695E+04  0.60817950790E+03 0.  0.
        1    1    3    3  502    0 -0.23496904614E+03 -0.13459986684E+03 -0.19015774089E+04  0.19207613644E+04  0.50400001928E-02 0.  1.
       -1    1    3    3    0  502  0.23496904614E+03  0.13459986684E+03 -0.69027562904E+03  0.74149040511E+03  0.50400001928E-02 0. -1.
</event>
<event>
 5   0  0.7263385E-02  0.6007606E+03  0.7818609E-02  0.9903829E-01
       -1   -1    0    0    0  501  0.00000000000E+00  0.00000000000E+00  0.15974898922E+03  0.15974898930E+03  0.50400001928E-02 0.  1.
        1   -1    0    0  501    0  0.00000000000E+00  0.00000000000E+00 -0.56481313720E+03  0.56481313722E+03  0.50400001928E-02 0. -1.
    10030    2    1    2    0    0  0.00000000000E+00  0.00000000000E+00 -0.40506414798E+03  0.72456212653E+03  0.60076061058E+03 0.  0.
        1    1    3    3  502    0 -0.18662851449E+03  0.22802282089E+03 -0.27289615137E+03  0.40161787650E+03  0.50400001928E-02 0. -1.
       -1    1    3    3    0  502  0.18662851449E+03 -0.22802282089E+03 -0.13216799661E+03  0.32294425002E+03  0.50400001928E-02 0.  1.
</event>
<event>
 5   0  0.1146468E-01  0.6131047E+03  0.7818609E-02  0.9878585E-01
        2   -1    0    0  501    0  0.00000000000E+00  0.00000000000E+00  0.48393665767E+03  0.48393665768E+03  0.25500000920E-02 0. -1.
       -2   -1    0    0    0  501  0.00000000000E+00  0.00000000000E+00 -0.19418727865E+03  0.19418727866E+03  0.25500000920E-02 0.  1.
    10030    2    1    2    0    0  0.00000000000E+00  0.00000000000E+00  0.28974937903E+03  0.67812393634E+03  0.61310469774E+03 0.  0.
        4    1    3    3  502    0  0.61701164770E+02 -0.29886492898E+03  0.17703486747E+03  0.35280339668E+03  0.12699999809E+01 0. -1.
       -4    1    3    3    0  502 -0.61701164770E+02  0.29886492898E+03  0.11271451156E+03  0.32532053966E+03  0.12699999809E+01 0.  1.
</event>
<event>
 5   0  0.7221069E-02  0.5995249E+03  0.7818609E-02  0.9906392E-01
        1   -1    0    0  501    0  0.00000000000E+00  0.00000000000E+00  0.32849049343E+03  0.32849049346E+03  0.50400001928E-02 0.  1.
       -1   -1    0    0    0  501  0.00000000000E+00  0.00000000000E+00 -0.27354679161E+03  0.27354679165E+03  0.50400001928E-02 0. -1.
    10030    2    1    2    0    0  0.00000000000E+00  0.00000000000E+00  0.54943701819E+02  0.60203728512E+03  0.59952488047E+03 0.  0.
        5    1    3    3  502    0 -0.17084025404E+03  0.21722114137E+03  0.14399264977E+03  0.31165267501E+03  0.46999998093E+01 0.  1.
       -5    1    3    3    0  502  0.17084025404E+03 -0.21722114137E+03 -0.89048947946E+02  0.29038461011E+03  0.46999998093E+01 0. -1.
</event>
<event>
 5   0  0.1175861E-01  0.5967632E+03  0.7818609E-02  0.9912144E-01
        2   -1    0    0  501    0  0.00000000000E+00  0.00000000000E+00  0.58605197929E+03  0.58605197929E+03  0.25500000920E-02 0. -1.
       -2   -1    0    0    0  501  0.00000000000E+00  0.00000000000E+00 -0.15191755610E+03  0.15191755612E+03  0.25500000920E-02 0.  1.
    10030    2    1    2    0    0  0.00000000000E+00  0.00000000000E+00  0.43413442319E+03  0.73796953542E+03  0.59676321754E+03 0.  0.
        3    1    3    3  502    0  0.24891066074E+03 -0.33601946509E+02  0.41625894581E+03  0.48616574130E+03  0.10100000352E+00 0. -1.
       -3    1    3    3    0  502 -0.24891066074E+03  0.33601946509E+02  0.17875477373E+02  0.25180379412E+03  0.10100000352E+00 0.  1.
</event>
<event>
 5   0  0.1219020E-01  0.6002773E+03  0.7818609E-02  0.9904831E-01
        2   -1    0    0  501    0  0.00000000000E+00  0.00000000000E+00  0.36166089005E+03  0.36166089006E+03  0.25500000920E-02 0. -1.
       -2   -1    0    0    0  501  0.00000000000E+00  0.00000000000E+00 -0.24908195904E+03  0.24908195905E+03  0.25500000920E-02 0.  1.
    10030    2    1    2    0    0  0.00000000000E+00  0.00000000000E+00  0.11257893101E+03  0.61074284911E+03  0.60027727929E+03 0.  0.
        2    1    3    3  502    0  0.24733030027E+03 -0.16815912127E+03  0.30682525443E+02  0.30065126787E+03  0.25500000920E-02 0. -1.
       -2    1    3    3    0  502 -0.24733030027E+03  0.16815912127E+03  0.81896405570E+02  0.31009158123E+03  0.25500000920E-02 0.  1.
</event>
<event>
 5   0  0.1166419E-01  0.5935410E+03  0.7818609E-02  0.9918898E-01
       -2   -1    0    0    0  501  0.00000000000E+00  0.00000000000E+00  0.28903772457E+03  0.28903772458E+03  0.25500000920E-02 0. -1.
        2   -1    0    0  501    0  0.00000000000E+00  0.00000000000E+00 -0.30471012642E+03  0.30471012643E+03  0.25500000920E-02 0.  1.
    10030    2    1    2    0    0  0.00000000000E+00  0.00000000000E+00 -0.15672401846E+02  0.59374785101E+03  0.59354097280E+03 0.  0.
        1    1    3    3  502    0 -0.28743908163E+03 -0.73800651022E+02 -0.56083556840E+01  0.29681511993E+03  0.50400001928E-02 0. -1.
       -1    1    3    3    0  502  0.28743908163E+03  0.73800651022E+02 -0.10064046162E+02  0.29693273108E+03  0.50400001928E-02 0.  1.
</event>
<event>
 5   0  0.7123340E-02  0.6052264E+03  0.7818609E-02  0.9894622E-01
       -1   -1    0    0    0  501  0.00000000000E+00  0.00000000000E+00  0.25330315288E+03  0.25330315293E+03  0.50400001928E-02 0. -1.
        1   -1    0    0  501    0  0.00000000000E+00  0.00000000000E+00 -0.36152236084E+03  0.36152236088E+03  0.50400001928E-02 0.  1.
    10030    2    1    2    0    0  0.00000000000E+00  0.00000000000E+00 -0.10821920797E+03  0.61482551381E+03  0.60522641668E+03 0.  0.
        2    1    3    3  502    0 -0.21008716762E+03 -0.20154032445E+03 -0.13800044008E+03  0.32217889727E+03  0.25500000920E-02 0.  1.
       -2    1    3    3    0  502  0.21008716762E+03  0.20154032445E+03  0.29781232115E+02  0.29264661654E+03  0.25500000920E-02 0. -1.
</event>
<event>
 5   0  0.1219020E-01  0.5863498E+03  0.7818609E-02  0.9934138E-01
        2   -1    0    0  501    0  0.00000000000E+00  0.00000000000E+00  0.81297920450E+03  0.81297920451E+03  0.25500000920E-02 0. -1.
       -2   -1    0    0    0  501  0.00000000000E+00  0.00000000000E+00 -0.10572411873E+03  0.10572411876E+03  0.25500000920E-02 0.  1.
    10030    2    1    2    0    0  0.00000000000E+00  0.00000000000E+00  0.70725508577E+03  0.91870332327E+03  0.58634975897E+03 0.  0.
        2    1    3    3  502    0  0.11037917087E+03  0.17354551984E+03  0.68097590223E+03  0.71135770766E+03  0.25500000920E-02 0. -1.
       -2    1    3    3    0  502 -0.11037917087E+03 -0.17354551984E+03  0.26279183541E+02  0.20734561561E+03  0.25500000920E-02 0.  1.
</event>
<event>
 5   0  0.7424930E-02  0.5981351E+03  0.7818609E-02  0.9909283E-01
       -1   -1    0    0    0  501  0.00000000000E+00  0.00000000000E+00  0.20224390016E+03  0.20224390022E+03  0.50400001928E-02 0. -1.
        1   -1    0    0  501    0  0.00000000000E+00  0.00000000000E+00 -0.44224516999E+03  0.44224517002E+03  0.50400001928E-02 0.  1.
    10030    2    1    2    0    0  0.00000000000E+00  0.00000000000E+00 -0.24000126983E+03  0.64448907024E+03  0.59813506179E+03 0.  0.
        3    1    3    3  502    0  0.24001128230E+03 -0.21327045582E+02  0.70875007147E+02  0.25116435923E+03  0.10100000352E+00 0. -1.
       -3    1    3    3    0  502 -0.24001128230E+03  0.21327045582E+02 -0.31087627698E+03  0.39332471102E+03  0.10100000352E+00 0.  1.
</event>
<event>
 5   0  0.7266519E-02  0.5839343E+03  0.7818609E-02  0.9939309E-01
        1   -1    0    0  501    0  0.00000000000E+00  0.00000000000E+00  0.13560874625E+04  0.13560874625E+04  0.50400001928E-02 0.  1.
       -1   -1    0    0    0  501  0.00000000000E+00  0.00000000000E+00 -0.62860857341E+02  0.62860857544E+02  0.50400001928E-02 0. -1.
    10030    2    1    2    0    0  0.00000000000E+00  0.00000000000E+00  0.12932266052E+04  0.14189483201E+04  0.58393431368E+03 0.  0.
        4    1    3    3  502    0  0.14739981319E+03  0.22643345397E+03  0.37772542347E+03  0.46441029537E+03  0.12699999809E+01 0. -1.
       -4    1    3    3    0  502 -0.14739981319E+03 -0.22643345397E+03  0.91550118172E+03  0.95453802472E+03  0.12699999809E+01 0.  1.
</event>
<event>
 5   0  0.7123340E-02  0.6158957E+03  0.7818609E-02  0.9872966E-01
        1   -1    0    0  501    0  0.00000000000E+00  0.00000000000E+00  0.68437046930E+03  0.68437046931E+03  0.50400001928E-02 0.  1.
       -1   -1    0    0    0  501  0.00000000000E+00  0.00000000000E+00 -0.13856802592E+03  0.13856802601E+03  0.50400001928E-02 0. -1.
    10030    2    1    2    0    0  0.00000000000E+00  0.00000000000E+00  0.54580244338E+03  0.82293849533E+03  0.61589565666E+03 0.  0.
        2    1    3    3  502    0 -0.11792608957E+03 -0.20365571386E+02 -0.10622744395E+03  0.16001746453E+03  0.25500000920E-02 0. -1.
       -2    1    3    3    0  502  0.11792608957E+03  0.20365571386E+02  0.65202988733E+03  0.66292103080E+03  0.25500000920E-02 0.  1.
</event>
<event>
 5   0  0.7221069E-02  0.6148232E+03  0.7818609E-02  0.9875121E-01
       -1   -1    0    0    0  501  0.00000000000E+00  0.00000000000E+00  0.18263803197E+03  0.18263803204E+03  0.50400001928E-02 0. -1.
        1   -1    0    0  501    0  0.00000000000E+00  0.00000000000E+00 -0.51742719947E+03  0.51742719949E+03  0.50400001928E-02 0.  1.
    10030    2    1    2    0    0  0.00000000000E+00  0.00000000000E+00 -0.33478916749E+03  0.70006523153E+03  0.61482317924E+03 0.  0.
        5    1    3    3  502    0  0.35605810492E+02  0.27346939738E+03 -0.12830058246E+02  0.27611589132E+03  0.46999998093E+01 0. -1.
       -5    1    3    3    0  502 -0.35605810492E+02 -0.27346939738E+03 -0.32195910925E+03  0.42394934022E+03  0.46999998093E+01 0.  1.
</event>
<event>
 5   0  0.1175861E-01  0.5924304E+03  0.7818609E-02  0.9921236E-01
       -2   -1    0    0    0  501  0.00000000000E+00  0.00000000000E+00  0.53244342442E+03  0.53244342443E+03  0.25500000920E-02 0. -1.
        2   -1    0    0  501    0  0.00000000000E+00  0.00000000000E+00 -0.16479395743E+03  0.16479395745E+03  0.25500000920E-02 0.  1.
    10030    2    1    2    0    0  0.00000000000E+00  0.00000000000E+00  0.36764946699E+03  0.69723738188E+03  0.59243044834E+03 0.  0.
        3    1    3    3  502    0 -0.14779619187E+03 -0.84558906610E+01 -0.11813524729E+03  0.18939684072E+03  0.10100000352E+00 0.  1.
       -3    1    3    3    0  502  0.14779619187E+03  0.84558906610E+01  0.48578471428E+03  0.50784054117E+03  0.10100000352E+00 0. -1.
</event>
<event>
 5   0  0.1146468E-01  0.5745494E+03  0.7818609E-02  0.9959662E-01
       -2   -1    0    0    0  501  0.00000000000E+00  0.00000000000E+00  0.27867172510E+03  0.27867172511E+03  0.25500000920E-02 0. -1.
        2   -1    0    0  501    0  0.00000000000E+00  0.00000000000E+00 -0.29614322222E+03  0.29614322223E+03  0.25500000920E-02 0.  1.
    10030    2    1    2    0    0  0.00000000000E+00  0.00000000000E+00 -0.17471497118E+02  0.57481494734E+03  0.57454936296E+03 0.  0.
        4    1    3    3  502    0 -0.11683936433E+03 -0.16908053140E+03 -0.20954092513E+03  0.29351094589E+03  0.12699999809E+01 0.  1.
       -4    1    3    3    0  502  0.11683936433E+03  0.16908053140E+03  0.19206942801E+03  0.28130400145E+03  0.12699999809E+01 0. -1.
</event>
<event>
 5   0  0.1206238E-01  0.5998885E+03  0.7818609E-02  0.9905637E-01
        2   -1    0    0  501    0  0.00000000000E+00  0.00000000000E+00  0.68548513800E+03  0.68548513800E+03  0.25500000920E-02 0. -1.
       -2   -1    0    0    0  501  0.00000000000E+00  0.00000000000E+00 -0.13124506692E+03  0.13124506694E+03  0.25500000920E-02 0.  1.
    10030    2    1    2    0    0  0.00000000000E+00  0.00000000000E+00  0.55424007108E+03  0.81673020494E+03  0.59988846570E+03 0.  0.
        5    1    3    3  502    0 -0.18820623703E+03  0.22126555798E+03  0.17556113756E+03  0.33944636958E+03  0.46999998093E+01 0.  1.
       -5    1    3    3    0  502  0.18820623703E+03 -0.22126555798E+03  0.37867893352E+03  0.47728383536E+03  0.46999998093E+01 0. -1.
</event>
<event>
 5   0  0.7123340E-02  0.6060509E+03  0.7818609E-02  0.9892931E-01
       -1   -1    0    0    0  501  0.00000000000E+00  0.00000000000E+00  0.69706802640E+02  0.69706802822E+02  0.50400001928E-02 0. -1.
        1   -1    0    0  501    0  0.00000000000E+00  0.00000000000E+00 -0.13172948349E+04  0.13172948349E+04  0.50400001928E-02 0.  1.
    10030    2    1    2    0    0  0.00000000000E+00  0.00000000000E+00 -0.12475880323E+04  0.13870016377E+04  0.60605085994E+03 0.  0.
        2    1    3    3  502    0  0.11186197951E+03  0.17221242115E+03 -0.11337654576E+04  0.11522127986E+04  0.25500000920E-02 0.  1.
       -2    1    3    3    0  502 -0.11186197951E+03 -0.17221242115E+03 -0.11382257465E+03  0.23478883910E+03  0.25500000920E-02 0. -1.
</event>
<event>
 5   0  0.4695625E-02  0.5972636E+03  0.7818609E-02  0.9911099E-01
       -4   -1    0    0    0  501  0.00000000000E+00  0.00000000000E+00  0.95076825105E+02  0.95085306814E+02  0.12699999809E+01 0.  1.
        4   -1    0    0  501    0  0.00000000000E+00  0.00000000000E+00 -0.93793766763E+03  0.93793852744E+03  0.12699999809E+01 0. -1.
    10030    2    1    2    0    0  0.00000000000E+00  0.00000000000E+00 -0.84286084252E+03  0.10330238343E+04  0.59726362879E+03 0.  0.
        1    1    3    3  502    0 -0.28185257583E+03  0.37671311126E+01 -0.59200293759E+03  0.65568479006E+03  0.50400001928E-02 0. -1.
       -1    1    3    3    0  502  0.28185257583E+03 -0.37671311126E+01 -0.25085790494E+03  0.37733904419E+03  0.50400001928E-02 0.  1.
</event>
<event>
 5   0  0.4695625E-02  0.6048816E+03  0.7818609E-02  0.9895330E-01
       -3   -1    0    0    0  501  0.00000000000E+00  0.00000000000E+00  0.93434629810E+02  0.93434684399E+02  0.10100000352E+00 0.  1.
        3   -1    0    0  501    0  0.00000000000E+00  0.00000000000E+00 -0.97897746002E+03  0.97897746523E+03  0.10100000352E+00 0. -1.
    10030    2    1    2    0    0  0.00000000000E+00  0.00000000000E+00 -0.88554283021E+03  0.10724121496E+04  0.60488157067E+03 0.  0.
        2    1    3    3  502    0 -0.10055604104E+03 -0.28339409088E+02  0.60427563603E+02  0.12069022308E+03  0.25500000920E-02 0.  1.
       -2    1    3    3    0  502  0.10055604104E+03  0.28339409088E+02 -0.94597039381E+03  0.95172192654E+03  0.25500000920E-02 0. -1.
</event>
<event>
 5   0  0.7221069E-02  0.6185356E+03  0.7818609E-02  0.9867680E-01
       -1   -1    0    0    0  501  0.00000000000E+00  0.00000000000E+00  0.36880955449E+03  0.36880955452E+03  0.50400001928E-02 0. -1.
        1   -1    0    0  501    0  0.00000000000E+00  0.00000000000E+00 -0.25933861854E+03  0.25933861859E+03  0.50400001928E-02 0.  1.
    10030    2    1    2    0    0  0.00000000000E+00  0.00000000000E+00  0.10947093595E+03  0.62814817311E+03  0.61853556208E+03 0.  0.
        5    1    3    3  502    0  0.11924366515E+03  0.75266458200E+01  0.34438505784E+03  0.36455295931E+03  0.46999998093E+01 0. -1.
       -5    1    3    3    0  502 -0.11924366515E+03 -0.75266458200E+01 -0.23491412190E+03  0.26359521380E+03  0.46999998093E+01 0.  1.
</event>
<event>
 5   0  0.7266519E-02  0.6037701E+03  0.7818609E-02  0.9897615E-01
       -1   -1    0    0    0  501  0.00000000000E+00  0.00000000000E+00  0.11055732648E+03  0.11055732659E+03  0.50400001928E-02 0.  1.
        1   -1    0    0  501    0  0.00000000000E+00  0.00000000000E+00 -0.82431977479E+03  0.82431977481E+03  0.50400001928E-02 0. -1.
    10030    2    1    2    0    0  0.00000000000E+00  0.00000000000E+00 -0.71376244832E+03  0.93487710140E+03  0.60377012355E+03 0.  0.
        4    1    3    3  502    0  0.55584334577E+01 -0.35092525902E+02  0.10730443029E+03  0.11304085640E+03  0.12699999809E+01 0.  1.
       -4    1    3    3    0  502 -0.55584334577E+01  0.35092525902E+02 -0.82106687860E+03  0.82183624500E+03  0.12699999809E+01 0. -1.
</event>
<event>
 5   0  0.7263385E-02  0.6192966E+03  0.7818609E-02  0.9866161E-01
       -1   -1    0    0    0  501  0.00000000000E+00  0.00000000000E+00  0.91099850081E+02  0.91099850220E+02  0.50400001928E-02 0. -1.
        1   -1    0    0  501    0  0.00000000000E+00  0.00000000000E+00 -0.10524942525E+04  0.10524942526E+04  0.50400001928E-02 0.  1.
    10030    2    1    2    0    0  0.00000000000E+00  0.00000000000E+00 -0.96139440247E+03  0.11435941028E+04  0.61929659681E+03 0.  0.
        1    1    3    3  502    0  0.20023039763E+03 -0.17614998018E+03 -0.19012259126E+03  0.32751736960E+03  0.50400001928E-02 0. -1.
       -1    1    3    3    0  502 -0.20023039763E+03  0.17614998018E+03 -0.77127181121E+03  0.81607673318E+03  0.50400001928E-02 0.  1.
</event>
<event>
 5   0  0.1146468E-01  0.5868959E+03  0.7818609E-02  0.9932972E-01
        2   -1    0    0  501    0  0.00000000000E+00  0.00000000000E+00  0.31048530301E+03  0.31048530302E+03  0.25500000920E-02 0.  1.
       -2   -1    0    0    0  501  0.00000000000E+00  0.00000000000E+00 -0.27734547008E+03  0.27734547009E+03  0.25500000920E-02 0. -1.
    10030    2    1    2    0    0  0.00000000000E+00  0.00000000000E+00  0.33139832931E+02  0.58783077310E+03  0.58689587601E+03 0.  0.
        4    1    3    3  502    0 -0.23596492993E+02  0.10397361004E+03  0.29039666159E+03  0.30935277602E+03  0.12699999809E+01 0.  1.
       -4    1    3    3    0  502  0.23596492993E+02 -0.10397361004E+03 -0.25725682866E+03  0.27847799708E+03  0.12699999809E+01 0. -1.
</event>
<event>
 5   0  0.1206238E-01  0.6127932E+03  0.7818609E-02  0.9879214E-01
       -2   -1    0    0    0  501  0.00000000000E+00  0.00000000000E+00  0.76201052918E+02  0.76201052960E+02  0.25500000920E-02 0. -1.
        2   -1    0    0  501    0  0.00000000000E+00  0.00000000000E+00 -0.12319892498E+04  0.12319892498E+04  0.25500000920E-02 0.  1.
    10030    2    1    2    0    0  0.00000000000E+00  0.00000000000E+00 -0.11557881968E+04  0.13081903027E+04  0.61279320507E+03 0.  0.
        5    1    3    3  502    0  0.11470699679E+03  0.27005879233E+03 -0.38974887903E+03  0.48786855312E+03  0.46999998093E+01 0.  1.
       -5    1    3    3    0  502 -0.11470699679E+03 -0.27005879233E+03 -0.76603931781E+03  0.82032174959E+03  0.46999998093E+01 0. -1.
</event>
<event>
 5   0  0.7221069E-02  0.6016302E+03  0.7818609E-02  0.9902030E-01
       -1   -1    0    0    0  501  0.00000000000E+00  0.00000000000E+00  0.96007072143E+02  0.96007072275E+02  0.50400001928E-02 0.  1.
        1   -1    0    0  501    0  0.00000000000E+00  0.00000000000E+00 -0.94253187662E+03  0.94253187663E+03  0.50400001928E-02 0. -1.
    10030    2    1    2    0    0  0.00000000000E+00  0.00000000000E+00 -0.84652480448E+03  0.10385389489E+04  0.60163020520E+03 0.  0.
        5    1    3    3  502    0  0.25153676995E+03  0.16323296365E+03 -0.46381502839E+03  0.55232437717E+03  0.46999998093E+01 0.  1.
       -5    1    3    3    0  502 -0.25153676995E+03 -0.16323296365E+03 -0.38270977608E+03  0.48621457173E+03  0.46999998093E+01 0. -1.
</event>
<event>
 5   0  0.1166419E-01  0.5950834E+03  0.7818609E-02  0.9915659E-01
        2   -1    0    0  501    0  0.00000000000E+00  0.00000000000E+00  0.48067779687E+03  0.48067779687E+03  0.25500000920E-02 0.  1.
       -2   -1    0    0    0  501  0.00000000000E+00  0.00000000000E+00 -0.18417961752E+03  0.18417961754E+03  0.25500000920E-02 0. -1.
    10030    2    1    2    0    0  0.00000000000E+00  0.00000000000E+00  0.29649817935E+03  0.66485741441E+03  0.59508336487E+03 0.  0.
        1    1    3    3  502    0 -0.62469096965E+02  0.21107328984E+03  0.37191348289E+03  0.43217353059E+03  0.50400001928E-02 0.  1.
       -1    1    3    3    0  502  0.62469096965E+02 -0.21107328984E+03 -0.75415303544E+02  0.23268388383E+03  0.50400001928E-02 0. -1.
</event>
<event>
 5   0  0.1219020E-01  0.6262903E+03  0.7818609E-02  0.9852315E-01
        2   -1    0    0  501    0  0.00000000000E+00  0.00000000000E+00  0.17756572017E+04  0.17756572017E+04  0.25500000920E-02 0.  1.
       -2   -1    0    0    0  501  0.00000000000E+00  0.00000000000E+00 -0.55224559767E+02  0.55224559825E+02  0.25500000920E-02 0. -1.
    10030    2    1    2    0    0  0.00000000000E+00  0.00000000000E+00  0.17204326419E+04  0.18308817615E+04  0.62629030749E+03 0.  0.
        2    1    3    3  502    0  0.31190968695E+03 -0.97595131310E+01  0.78415312319E+03  0.84396624430E+03  0.25500000920E-02 0.  1.
       -2    1    3    3    0  502 -0.31190968695E+03  0.97595131310E+01  0.93627951872E+03  0.98691551720E+03  0.25500000920E-02 0. -1.
</event>
<event>
 5   0  0.1219020E-01  0.6057303E+03  0.7818609E-02  0.9893588E-01
        2   -1    0    0  501    0  0.00000000000E+00  0.00000000000E+00  0.35149055174E+03  0.35149055174E+03  0.25500000920E-02 0. -1.
       -2   -1    0    0    0  501  0.00000000000E+00  0.00000000000E+00 -0.26096663093E+03  0.26096663094E+03  0.25500000920E-02 0.  1.
    10030    2    1    2    0    0  0.00000000000E+00  0.00000000000E+00  0.90523920806E+02  0.61245718269E+03  0.60573031985E+03 0.  0.
        2    1    3    3  502    0  0.22435527827E+03 -0.19395975388E+03 -0.16833642680E+02  0.29705058247E+03  0.25500000920E-02 0. -1.
       -2    1    3    3    0  502 -0.22435527827E+03  0.19395975388E+03  0.10735756349E+03  0.31540660021E+03  0.25500000920E-02 0.  1.
</event>
<event>
 5   0  0.7266519E-02  0.6029675E+03  0.7818609E-02  0.9899268E-01
        1   -1    0    0  501    0  0.00000000000E+00  0.00000000000E+00  0.63710456962E+03  0.63710456964E+03  0.50400001928E-02 0.  1.
       -1   -1    0    0    0  501  0.00000000000E+00  0.00000000000E+00 -0.14266489886E+03  0.14266489895E+03  0.50400001928E-02 0. -1.
    10030    2    1    2    0    0  0.00000000000E+00  0.00000000000E+00  0.49443967076E+03  0.77976946859E+03  0.60296752494E+03 0.  0.
        4    1    3    3  502    0  0.28552814571E+01  0.28917930071E+03  0.13704521812E+03  0.32002472608E+03  0.12699999809E+01 0.  1.
       -4    1    3    3    0  502 -0.28552814571E+01 -0.28917930071E+03  0.35739445264E+03  0.45974474252E+03  0.12699999809E+01 0. -1.
</event>
<event>
 5   0  0.7263385E-02  0.5989224E+03  0.7818609E-02  0.9907644E-01
       -1   -1    0    0    0  501  0.00000000000E+00  0.00000000000E+00  0.16356942485E+03  0.16356942493E+03  0.50400001928E-02 0.  1.
        1   -1    0    0  501    0  0.00000000000E+00  0.00000000000E+00 -0.54825045578E+03  0.54825045580E+03  0.50400001928E-02 0. -1.
    10030    2    1    2    0    0  0.00000000000E+00  0.00000000000E+00 -0.38468103093E+03  0.71181988073E+03  0.59892240487E+03 0.  0.
        1    1    3    3  502    0  0.68035816861E+02 -0.41767603740E+02 -0.53537000418E+03  0.54128961425E+03  0.50400001928E-02 0. -1.
       -1    1    3    3    0  502 -0.68035816861E+02  0.41767603740E+02  0.15068897326E+03  0.17053026648E+03  0.50400001928E-02 0.  1.
</event>
<event>
 5   0  0.1206238E-01  0.5450797E+03  0.7818609E-02  0.1002639E+00
        2   -1    0    0  501    0  0.00000000000E+00  0.00000000000E+00  0.21143903095E+03  0.21143903096E+03  0.25500000920E-02 0.  1.
       -2   -1    0    0    0  501  0.00000000000E+00  0.00000000000E+00 -0.35129733903E+03  0.35129733904E+03  0.25500000920E-02 0. -1.
    10030    2    1    2    0    0  0.00000000000E+00  0.00000000000E+00 -0.13985830809E+03  0.56273637000E+03  0.54507969672E+03 0.  0.
        5    1    3    3  502    0  0.21376914736E+03 -0.12250931696E+03  0.50246417094E+02  0.25150064320E+03  0.46999998093E+01 0.  1.
       -5    1    3    3    0  502 -0.21376914736E+03  0.12250931696E+03 -0.19010472518E+03  0.31123572680E+03  0.46999998093E+01 0. -1.
</event>
<event>
 5   0  0.7221069E-02  0.6051076E+03  0.7818609E-02  0.9894866E-01
        1   -1    0    0  501    0  0.00000000000E+00  0.00000000000E+00  0.60149389765E+03  0.60149389768E+03  0.50400001928E-02 0.  1.
       -1   -1    0    0    0  501  0.00000000000E+00  0.00000000000E+00 -0.15218576075E+03  0.15218576084E+03  0.50400001928E-02 0. -1.
    10030    2    1    2    0    0  0.00000000000E+00  0.00000000000E+00  0.44930813690E+03  0.75367965851E+03  0.60510761503E+03 0.  0.
        5    1    3    3  502    0 -0.15533612649E+03 -0.83845108754E+02 -0.81344535094E+02  0.19441794630E+03  0.46999998093E+01 0. -1.
       -5    1    3    3    0  502  0.15533612649E+03  0.83845108754E+02  0.53065267199E+03  0.55926171221E+03  0.46999998093E+01 0.  1.
</event>
<event>
 5   0  0.1219020E-01  0.5722483E+03  0.7818609E-02  0.9964716E-01
        2   -1    0    0  501    0  0.00000000000E+00  0.00000000000E+00  0.14060049714E+04  0.14060049714E+04  0.25500000920E-02 0.  1.
       -2   -1    0    0    0  501  0.00000000000E+00  0.00000000000E+00 -0.58226705202E+02  0.58226705258E+02  0.25500000920E-02 0. -1.
    10030    2    1    2    0    0  0.00000000000E+00  0.00000000000E+00  0.13477782662E+04  0.14642316767E+04  0.57224832731E+03 0.  0.
        2    1    3    3  502    0 -0.83856035195E+02 -0.75772872359E+02  0.13084190081E+01  0.11302687641E+03  0.25500000920E-02 0. -1.
       -2    1    3    3    0  502  0.83856035195E+02  0.75772872359E+02  0.13464698472E+04  0.13512048003E+04  0.25500000920E-02 0.  1.
</event>
<event>
 5   0  0.1146468E-01  0.6117007E+03  0.7818609E-02  0.9881424E-01
        2   -1    0    0  501    0  0.00000000000E+00  0.00000000000E+00  0.75936492187E+03  0.75936492187E+03  0.25500000920E-02 0. -1.
       -2   -1    0    0    0  501  0.00000000000E+00  0.00000000000E+00 -0.12318771398E+03  0.12318771401E+03  0.25500000920E-02 0.  1.
    10030    2    1    2    0    0  0.00000000000E+00  0.00000000000E+00  0.63617720788E+03  0.88255263588E+03  0.61170067457E+03 0.  0.
        4    1    3    3  502    0 -0.83447889199E+02 -0.10944555053E+02 -0.10614783889E+03  0.13547069830E+03  0.12699999809E+01 0.  1.
       -4    1    3    3    0  502  0.83447889199E+02  0.10944555053E+02  0.74232504677E+03  0.74708193758E+03  0.12699999809E+01 0. -1.
</event>
<event>
 5   0  0.7266519E-02  0.6331170E+03  0.7818609E-02  0.9838985E-01
        1   -1    0    0  501    0  0.00000000000E+00  0.00000000000E+00  0.13839918059E+03  0.13839918069E+03  0.50400001928E-02 0.  1.
       -1   -1    0    0    0  501  0.00000000000E+00  0.00000000000E+00 -0.72405990589E+03  0.72405990590E+03  0.50400001928E-02 0. -1.
    10030    2    1    2    0    0  0.00000000000E+00  0.00000000000E+00 -0.58566072529E+03  0.86245908659E+03  0.63311704359E+03 0.  0.
        4    1    3    3  502    0 -0.13766200949E+03 -0.25792333600E+03 -0.12748524460E+03  0.31895042969E+03  0.12699999809E+01 0.  1.
       -4    1    3    3    0  502  0.13766200949E+03  0.25792333600E+03 -0.45817548069E+03  0.54350865690E+03  0.12699999809E+01 0. -1.
</event>
<event>
 5   0  0.1206238E-01  0.6027988E+03  0.7818609E-02  0.9899616E-01
        2   -1    0    0  501    0  0.00000000000E+00  0.00000000000E+00  0.11262113709E+04  0.11262113709E+04  0.25500000920E-02 0.  1.
       -2   -1    0    0    0  501  0.00000000000E+00  0.00000000000E+00 -0.80661223518E+02  0.80661223558E+02  0.25500000920E-02 0. -1.
    10030    2    1    2    0    0  0.00000000000E+00  0.00000000000E+00  0.10455501474E+04  0.12068725945E+04  0.60279876292E+03 0.  0.
        5    1    3    3  502    0  0.42660951559E+02 -0.28443897645E+03  0.34265135043E+03  0.44738968033E+03  0.46999998093E+01 0.  1.
       -5    1    3    3    0  502 -0.42660951559E+02  0.28443897645E+03  0.70289879695E+03  0.75948291414E+03  0.46999998093E+01 0. -1.
</event>
<event>
 5   0  0.1175861E-01  0.5996778E+03  0.7818609E-02  0.9906075E-01
       -2   -1    0    0    0  501  0.00000000000E+00  0.00000000000E+00  0.23364778608E+03  0.23364778609E+03  0.25500000920E-02 0.  1.
        2   -1    0    0  501    0  0.00000000000E+00  0.00000000000E+00 -0.38478162979E+03  0.38478162980E+03  0.25500000920E-02 0. -1.
    10030    2    1    2    0    0  0.00000000000E+00  0.00000000000E+00 -0.15113384371E+03  0.61842941589E+03  0.59967783328E+03 0.  0.
        3    1    3    3  502    0 -0.71285667058E+02 -0.14353118079E+03 -0.33690882564E+03  0.37308231422E+03  0.10100000352E+00 0. -1.
       -3    1    3    3    0  502  0.71285667058E+02  0.14353118079E+03  0.18577498193E+03  0.24534710167E+03  0.10100000352E+00 0.  1.
</event>
<event>
 5   0  0.1146468E-01  0.6017193E+03  0.7818609E-02  0.9901845E-01
       -2   -1    0    0    0  501  0.00000000000E+00  0.00000000000E+00  0.17413523577E+03  0.17413523578E+03  0.25500000920E-02 0. -1.
        2   -1    0    0  501    0  0.00000000000E+00  0.00000000000E+00 -0.51980599517E+03  0.51980599518E+03  0.25500000920E-02 0.  1.
    10030    2    1    2    0    0  0.00000000000E+00  0.00000000000E+00 -0.34567075940E+03  0.69394123096E+03  0.60171933500E+03 0.  0.
        4    1    3    3  502    0 -0.12663683618E+03 -0.13267046169E+03 -0.44787514513E+03  0.48397530743E+03  0.12699999809E+01 0.  1.
       -4    1    3    3    0  502  0.12663683618E+03  0.13267046169E+03  0.10220438572E+03  0.20996592353E+03  0.12699999809E+01 0. -1.
</event>
<event>
 5   0  0.7123340E-02  0.5894433E+03  0.7818609E-02  0.9927553E-01
       -1   -1    0    0    0  501  0.00000000000E+00  0.00000000000E+00  0.21635863704E+03  0.21635863710E+03  0.50400001928E-02 0.  1.
        1   -1    0    0  501    0  0.00000000000E+00  0.00000000000E+00 -0.40146693453E+03  0.40146693456E+03  0.50400001928E-02 0. -1.
    10030    2    1    2    0    0  0.00000000000E+00  0.00000000000E+00 -0.18510829749E+03  0.61782557166E+03  0.58944325867E+03 0.  0.
        2    1    3    3  502    0 -0.28514639506E+03  0.64683482425E+02 -0.13132751131E+03  0.32052977201E+03  0.25500000920E-02 0. -1.
       -2    1    3    3    0  502  0.28514639506E+03 -0.64683482425E+02 -0.53780786180E+02  0.29729579964E+03  0.25500000920E-02 0.  1.
</event>
<event>
 5   0  0.1206238E-01  0.6018117E+03  0.7818609E-02  0.9901654E-01
       -2   -1    0    0    0  501  0.00000000000E+00  0.00000000000E+00  0.48375435718E+03  0.48375435719E+03  0.25500000920E-02 0. -1.
        2   -1    0    0  501    0  0.00000000000E+00  0.00000000000E+00 -0.18717005728E+03  0.18717005730E+03  0.25500000920E-02 0.  1.
    10030    2    1    2    0    0  0.00000000000E+00  0.00000000000E+00  0.29658429991E+03  0.67092441449E+03  0.60181170062E+03 0.  0.
        5    1    3    3  502    0  0.14117625548E+03  0.24035003229E+03  0.27453710007E+03  0.39126919435E+03  0.46999998093E+01 0. -1.
       -5    1    3    3    0  502 -0.14117625548E+03 -0.24035003229E+03  0.22047199834E+02  0.27965522014E+03  0.46999998093E+01 0.  1.
</event>
<event>
 5   0  0.7424930E-02  0.5909548E+03  0.7818609E-02  0.9924352E-01
        1   -1    0    0  501    0  0.00000000000E+00  0.00000000000E+00  0.41886425729E+03  0.41886425732E+03  0.50400001928E-02 0. -1.
       -1   -1    0    0    0  501  0.00000000000E+00  0.00000000000E+00 -0.20843722530E+03  0.20843722536E+03  0.50400001928E-02 0.  1.
    10030    2    1    2    0    0  0.00000000000E+00  0.00000000000E+00  0.21042703199E+03  0.62730148268E+03  0.59095483277E+03 0.  0.
        3    1    3    3  502    0 -0.37614037708E+02  0.69825534362E+02 -0.19692680748E+03  0.21229837207E+03  0.10100000352E+00 0.  1.
       -3    1    3    3    0  502  0.37614037708E+02 -0.69825534362E+02  0.40735383946E+03  0.41500311060E+03  0.10100000352E+00 0. -1.
</event>
<event>
 5   0  0.1146468E-01  0.5990909E+03  0.7818609E-02  0.9907294E-01
       -2   -1    0    0    0  501  0.00000000000E+00  0.00000000000E+00  0.47745380351E+03  0.47745380352E+03  0.25500000920E-02 0. -1.
        2   -1    0    0  501    0  0.00000000000E+00  0.00000000000E+00 -0.18792913492E+03  0.18792913493E+03  0.25500000920E-02 0.  1.
    10030    2    1    2    0    0  0.00000000000E+00  0.00000000000E+00  0.28952466860E+03  0.66538293845E+03  0.59909091218E+03 0.  0.
        4    1    3    3  502    0  0.85961078295E+02 -0.28276700425E+03  0.19893883956E+03  0.35626501436E+03  0.12699999809E+01 0. -1.
       -4    1    3    3    0  502 -0.85961078295E+02  0.28276700425E+03  0.90585829039E+02  0.30911792409E+03  0.12699999809E+01 0.  1.
</event>
<event>
 5   0  0.7263385E-02  0.7718847E+03  0.7818609E-02  0.9601629E-01
        1   -1    0    0  501    0  0.00000000000E+00  0.00000000000E+00  0.12216137915E+04  0.12216137915E+04  0.50400001928E-02 0. -1.
       -1   -1    0    0    0  501  0.00000000000E+00  0.00000000000E+00 -0.12193010567E+03  0.12193010577E+03  0.50400001928E-02 0.  1.
    10030    2    1    2    0    0  0.00000000000E+00  0.00000000000E+00  0.10996836858E+04  0.13435438973E+04  0.77188470320E+03 0.  0.
        1    1    3    3  502    0 -0.14674169592E+03  0.35691490135E+03  0.54028807854E+03  0.66395224223E+03  0.50400001928E-02 0.  1.
       -1    1    3    3    0  502  0.14674169592E+03 -0.35691490135E+03  0.55939560728E+03  0.67959165504E+03  0.50400001928E-02 0. -1.
</event>
<event>
 5   0  0.1206238E-01  0.5949745E+03  0.7818609E-02  0.9915888E-01
        2   -1    0    0  501    0  0.00000000000E+00  0.00000000000E+00  0.18806302957E+04  0.18806302957E+04  0.25500000920E-02 0.  1.
       -2   -1    0    0    0  501  0.00000000000E+00  0.00000000000E+00 -0.47057978888E+02  0.47057978957E+02  0.25500000920E-02 0. -1.
    10030    2    1    2    0    0  0.00000000000E+00  0.00000000000E+00  0.18335723168E+04  0.19276882747E+04  0.59497448961E+03 0.  0.
        5    1    3    3  502    0 -0.62903210619E+02  0.27342814460E+03  0.12368173512E+04  0.12682503753E+04  0.46999998093E+01 0.  1.
       -5    1    3    3    0  502  0.62903210619E+02 -0.27342814460E+03  0.59675496567E+03  0.65943789944E+03  0.46999998093E+01 0. -1.
</event>
<event>
 5   0  0.7221069E-02  0.5979182E+03  0.7818609E-02  0.9909735E-01
       -1   -1    0    0    0  501  0.00000000000E+00  0.00000000000E+00  0.75182694021E+03  0.75182694022E+03  0.50400001928E-02 0. -1.
        1   -1    0    0  501    0  0.00000000000E+00  0.00000000000E+00 -0.11887913983E+03  0.11887913993E+03  0.50400001928E-02 0.  1.
    10030    2    1    2    0    0  0.00000000000E+00  0.00000000000E+00  0.63294780038E+03  0.87070608016E+03  0.59791818840E+03 0.  0.
        5    1    3    3  502    0  0.23070926219E+01 -0.14700255576E+03  0.69548367272E+03  0.71086897744E+03  0.46999998093E+01 0. -1.
       -5    1    3    3    0  502 -0.23070926219E+01  0.14700255576E+03 -0.62535872341E+02  0.15983710271E+03  0.46999998093E+01 0.  1.
</event>
<event>
 5   0  0.7221069E-02  0.6011864E+03  0.7818609E-02  0.9902948E-01
       -1   -1    0    0    0  501  0.00000000000E+00  0.00000000000E+00  0.57707390065E+03  0.57707390067E+03  0.50400001928E-02 0.  1.
        1   -1    0    0  501    0  0.00000000000E+00  0.00000000000E+00 -0.15657660259E+03  0.15657660267E+03  0.50400001928E-02 0. -1.
    10030    2    1    2    0    0  0.00000000000E+00  0.00000000000E+00  0.42049729806E+03  0.73365050334E+03  0.60118639653E+03 0.  0.
        5    1    3    3  502    0  0.52259768344E+02  0.14158908317E+03  0.52743233802E+03  0.54862146608E+03  0.46999998093E+01 0.  1.
       -5    1    3    3    0  502 -0.52259768344E+02 -0.14158908317E+03 -0.10693503996E+03  0.18502903726E+03  0.46999998093E+01 0. -1.
</event>
<event>
 5   0  0.1206238E-01  0.6189988E+03  0.7818609E-02  0.9866755E-01
       -2   -1    0    0    0  501  0.00000000000E+00  0.00000000000E+00  0.17792542312E+03  0.17792542313E+03  0.25500000920E-02 0. -1.
        2   -1    0    0  501    0  0.00000000000E+00  0.00000000000E+00 -0.53837099966E+03  0.53837099966E+03  0.25500000920E-02 0.  1.
    10030    2    1    2    0    0  0.00000000000E+00  0.00000000000E+00 -0.36044557654E+03  0.71629642280E+03  0.61899883010E+03 0.  0.
        5    1    3    3  502    0 -0.52330938259E+02 -0.18111831671E+02  0.17210403490E+03  0.18085478808E+03  0.46999998093E+01 0. -1.
       -5    1    3    3    0  502  0.52330938259E+02  0.18111831671E+02 -0.53254961144E+03  0.53544163472E+03  0.46999998093E+01 0.  1.
</event>
<event>
 5   0  0.7266519E-02  0.5710151E+03  0.7818609E-02  0.9967435E-01
        1   -1    0    0  501    0  0.00000000000E+00  0.00000000000E+00  0.86973774334E+03  0.86973774335E+03  0.50400001928E-02 0.  1.
       -1   -1    0    0    0  501  0.00000000000E+00  0.00000000000E+00 -0.93723140995E+02  0.93723141131E+02  0.50400001928E-02 0. -1.
    10030    2    1    2    0    0  0.00000000000E+00  0.00000000000E+00  0.77601460234E+03  0.96346088448E+03  0.57101507238E+03 0.  0.
        4    1    3    3  502    0  0.88440450737E+02  0.27049636896E+03  0.42659181358E+03  0.51280813884E+03  0.12699999809E+01 0.  1.
       -4    1    3    3    0  502 -0.88440450737E+02 -0.27049636896E+03  0.34942278876E+03  0.45065274564E+03  0.12699999809E+01 0. -1.
</event>
<event>
 5   0  0.7266519E-02  0.5759773E+03  0.7818609E-02  0.9956538E-01
        1   -1    0    0  501    0  0.00000000000E+00  0.00000000000E+00  0.79073486652E+03  0.79073486654E+03  0.50400001928E-02 0.  1.
       -1   -1    0    0    0  501  0.00000000000E+00  0.00000000000E+00 -0.10488656918E+03  0.10488656930E+03  0.50400001928E-02 0. -1.
    10030    2    1    2    0    0  0.00000000000E+00  0.00000000000E+00  0.68584829734E+03  0.89562143584E+03  0.57597731672E+03 0.  0.
        4    1    3    3  502    0  0.28239462919E+03  0.15271804678E+02  0.25838381543E+03  0.38307148627E+03  0.12699999809E+01 0. -1.
       -4    1    3    3    0  502 -0.28239462919E+03 -0.15271804678E+02  0.42746448191E+03  0.51254994957E+03  0.12699999809E+01 0.  1.
</event>
<event>
 5   0  0.7221069E-02  0.5998369E+03  0.7818609E-02  0.9905745E-01
        1   -1    0    0  501    0  0.00000000000E+00  0.00000000000E+00  0.54991612073E+03  0.54991612076E+03  0.50400001928E-02 0.  1.
       -1   -1    0    0    0  501  0.00000000000E+00  0.00000000000E+00 -0.16357235043E+03  0.16357235050E+03  0.50400001928E-02 0. -1.
    10030    2    1    2    0    0  0.00000000000E+00  0.00000000000E+00  0.38634377031E+03  0.71348847126E+03  0.59983688597E+03 0.  0.
        5    1    3    3  502    0  0.53490494612E+02  0.41395523532E+02  0.54068095028E+03  0.54491540846E+03  0.46999998093E+01 0.  1.
       -5    1    3    3    0  502 -0.53490494612E+02 -0.41395523532E+02 -0.15433717997E+03  0.16857306280E+03  0.46999998093E+01 0. -1.
</event>
<event>
 5   0  0.7123340E-02  0.5865259E+03  0.7818609E-02  0.9933762E-01
        1   -1    0    0  501    0  0.00000000000E+00  0.00000000000E+00  0.10580391968E+04  0.10580391968E+04  0.50400001928E-02 0. -1.
       -1   -1    0    0    0  501  0.00000000000E+00  0.00000000000E+00 -0.81285420292E+02  0.81285420448E+02  0.50400001928E-02 0.  1.
    10030    2    1    2    0    0  0.00000000000E+00  0.00000000000E+00  0.97675377648E+03  0.11393246172E+04  0.58652591039E+03 0.  0.
        2    1    3    3  502    0  0.53085436999E+02  0.17077308693E+03  0.93986279840E+03  0.95672545209E+03  0.25500000920E-02 0. -1.
       -2    1    3    3    0  502 -0.53085436999E+02 -0.17077308693E+03  0.36890978076E+02  0.18259916514E+03  0.25500000920E-02 0.  1.
</event>
<event>
 5   0  0.7266519E-02  0.6006547E+03  0.7818609E-02  0.9904049E-01
       -1   -1    0    0    0  501  0.00000000000E+00  0.00000000000E+00  0.60587043712E+02  0.60587043922E+02  0.50400001928E-02 0. -1.
        1   -1    0    0  501    0  0.00000000000E+00  0.00000000000E+00 -0.14887098159E+04  0.14887098159E+04  0.50400001928E-02 0.  1.
    10030    2    1    2    0    0  0.00000000000E+00  0.00000000000E+00 -0.14281227722E+04  0.15492968598E+04  0.60065473230E+03 0.  0.
        4    1    3    3  502    0 -0.25997108420E+03 -0.50972612758E+02 -0.10789431730E+04  0.11109919691E+04  0.12699999809E+01 0. -1.
       -4    1    3    3    0  502  0.25997108420E+03  0.50972612758E+02 -0.34917959917E+03  0.43830489075E+03  0.12699999809E+01 0.  1.
</event>
<event>
 5   0  0.7266519E-02  0.6688471E+03  0.7818609E-02  0.9772043E-01
       -1   -1    0    0    0  501  0.00000000000E+00  0.00000000000E+00  0.14263456509E+03  0.14263456518E+03  0.50400001928E-02 0. -1.
        1   -1    0    0  501    0  0.00000000000E+00  0.00000000000E+00 -0.78409551601E+03  0.78409551603E+03  0.50400001928E-02 0.  1.
    10030    2    1    2    0    0  0.00000000000E+00  0.00000000000E+00 -0.64146095091E+03  0.92673008121E+03  0.66884713640E+03 0.  0.
        4    1    3    3  502    0  0.34659874105E+02  0.45915536791E+02 -0.77718469003E+03  0.77931200344E+03  0.12699999809E+01 0.  1.
       -4    1    3    3    0  502 -0.34659874105E+02 -0.45915536791E+02  0.13572373912E+03  0.14741807776E+03  0.12699999809E+01 0. -1.
</event>
<event>
 5   0  0.7263385E-02  0.6039485E+03  0.7818609E-02  0.9897248E-01
        1   -1    0    0  501    0  0.00000000000E+00  0.00000000000E+00  0.31171190909E+03  0.31171190913E+03  0.50400001928E-02 0.  1.
       -1   -1    0    0    0  501  0.00000000000E+00  0.00000000000E+00 -0.29254080304E+03  0.29254080309E+03  0.50400001928E-02 0. -1.
    10030    2    1    2    0    0  0.00000000000E+00  0.00000000000E+00  0.19171106050E+02  0.60425271222E+03  0.60394851512E+03 0.  0.
        1    1    3    3  502    0  0.10308999308E+03 -0.25892752326E+03 -0.10673754702E+03  0.29843577692E+03  0.50400001928E-02 0. -1.
       -1    1    3    3    0  502 -0.10308999308E+03  0.25892752326E+03  0.12590865307E+03  0.30581693530E+03  0.50400001928E-02 0.  1.
</event>
<event>
 5   0  0.1219020E-01  0.6016201E+03  0.7818609E-02  0.9902051E-01
       -2   -1    0    0    0  501  0.00000000000E+00  0.00000000000E+00  0.92162203736E+02  0.92162203772E+02  0.25500000920E-02 0.  1.
        2   -1    0    0  501    0  0.00000000000E+00  0.00000000000E+00 -0.98181980888E+03  0.98181980888E+03  0.25500000920E-02 0. -1.
    10030    2    1    2    0    0  0.00000000000E+00  0.00000000000E+00 -0.88965760514E+03  0.10739820127E+04  0.60162007041E+03 0.  0.
        2    1    3    3  502    0 -0.47699453624E+02 -0.22681317248E+03 -0.10253021021E+03  0.25344012528E+03  0.25500000920E-02 0.  1.
       -2    1    3    3    0  502  0.47699453624E+02  0.22681317248E+03 -0.78712739493E+03  0.82054188738E+03  0.25500000920E-02 0. -1.
</event>
<event>
 5   0  0.7263385E-02  0.6189659E+03  0.7818609E-02  0.9866821E-01
       -1   -1    0    0    0  501  0.00000000000E+00  0.00000000000E+00  0.38819501847E+03  0.38819501850E+03  0.50400001928E-02 0.  1.
        1   -1    0    0  501    0  0.00000000000E+00  0.00000000000E+00 -0.24673090149E+03  0.24673090154E+03  0.50400001928E-02 0. -1.
    10030    2    1    2    0    0  0.00000000000E+00  0.00000000000E+00  0.14146411698E+03  0.63492592004E+03  0.61896593408E+03 0.  0.
        1    1    3    3  502    0  0.14255863742E+03 -0.12472438361E+03 -0.18032462453E+03  0.26152649428E+03  0.50400001928E-02 0. -1.
       -1    1    3    3    0  502 -0.14255863742E+03  0.12472438361E+03  0.32178874151E+03  0.37339942577E+03  0.50400001928E-02 0.  1.
</event>
<event>
 5   0  0.7266519E-02  0.5966521E+03  0.7818609E-02  0.9912376E-01
        1   -1    0    0  501    0  0.00000000000E+00  0.00000000000E+00  0.21840598501E+03  0.21840598507E+03  0.50400001928E-02 0. -1.
       -1   -1    0    0    0  501  0.00000000000E+00  0.00000000000E+00 -0.40749074678E+03  0.40749074681E+03  0.50400001928E-02 0.  1.
    10030    2    1    2    0    0  0.00000000000E+00  0.00000000000E+00 -0.18908476177E+03  0.62589673188E+03  0.59665205258E+03 0.  0.
        4    1    3    3  502    0 -0.15918205359E+03  0.90276015077E+01  0.16995991568E+03  0.23304164781E+03  0.12699999809E+01 0. -1.
       -4    1    3    3    0  502  0.15918205359E+03 -0.90276015077E+01 -0.35904467745E+03  0.39285508407E+03  0.12699999809E+01 0.  1.
</event>
<event>
 5   0  0.1206238E-01  0.5992504E+03  0.7818609E-02  0.9906963E-01
       -2   -1    0    0    0  501  0.00000000000E+00  0.00000000000E+00  0.96596429546E+03  0.96596429546E+03  0.25500000920E-02 0.  1.
        2   -1    0    0  501    0  0.00000000000E+00  0.00000000000E+00 -0.92938475129E+02  0.92938475164E+02  0.25500000920E-02 0. -1.
    10030    2    1    2    0    0  0.00000000000E+00  0.00000000000E+00  0.87302582033E+03  0.10589027706E+04  0.59925036060E+03 0.  0.
        5    1    3    3  502    0 -0.24711709871E+03  0.14995680795E+03  0.29738396444E+03  0.41474476131E+03  0.46999998093E+01 0. -1.
       -5    1    3    3    0  502  0.24711709871E+03 -0.14995680795E+03  0.57564185589E+03  0.64415800932E+03  0.46999998093E+01 0.  1.
</event>
<event>
 5   0  0.4695625E-02  0.5992880E+03  0.7818609E-02  0.9906884E-01
        4   -1    0    0  501    0  0.00000000000E+00  0.00000000000E+00  0.67451740083E+03  0.67451859643E+03  0.12699999809E+01 0.  1.
       -4   -1    0    0    0  501  0.00000000000E+00  0.00000000000E+00 -0.13310790994E+03  0.13311396842E+03  0.12699999809E+01 0. -1.
    10030    2    1    2    0    0  0.00000000000E+00  0.00000000000E+00  0.54140949089E+03  0.80763256484E+03  0.59928801337E+03 0.  0.
        4    1    3    3  502    0  0.13974073226E+01  0.45528351100E+02  0.66982440346E+03  0.67137257009E+03  0.12699999809E+01 0.  1.
       -4    1    3    3    0  502 -0.13974073226E+01 -0.45528351100E+02 -0.12841491256E+03  0.13625999475E+03  0.12699999809E+01 0. -1.
</event>
<event>
 5   0  0.7424930E-02  0.6133869E+03  0.7818609E-02  0.9878015E-01
       -1   -1    0    0    0  501  0.00000000000E+00  0.00000000000E+00  0.10539582672E+03  0.10539582684E+03  0.50400001928E-02 0.  1.
        1   -1    0    0  501    0  0.00000000000E+00  0.00000000000E+00 -0.89245360299E+03  0.89245360301E+03  0.50400001928E-02 0. -1.
    10030    2    1    2    0    0  0.00000000000E+00  0.00000000000E+00 -0.78705777627E+03  0.99784942985E+03  0.61338694268E+03 0.  0.
        3    1    3    3  502    0  0.12666728903E+03 -0.13561485055E+03  0.37031469222E+01  0.18560633960E+03  0.10100000352E+00 0.  1.
       -3    1    3    3    0  502 -0.12666728903E+03  0.13561485055E+03 -0.79076092320E+03  0.81224309025E+03  0.10100000352E+00 0. -1.
</event>
<event>
 5   0  0.7266519E-02  0.6140233E+03  0.7818609E-02  0.9876732E-01
       -1   -1    0    0    0  501  0.00000000000E+00  0.00000000000E+00  0.27689706921E+03  0.27689706926E+03  0.50400001928E-02 0. -1.
        1   -1    0    0  501    0  0.00000000000E+00  0.00000000000E+00 -0.34040142319E+03  0.34040142323E+03  0.50400001928E-02 0.  1.
    10030    2    1    2    0    0  0.00000000000E+00  0.00000000000E+00 -0.63504353977E+02  0.61729849248E+03  0.61402331051E+03 0.  0.
        4    1    3    3  502    0  0.29557422102E+03  0.52331247107E+02  0.33026476674E+02  0.30198516622E+03  0.12699999809E+01 0.  1.
       -4    1    3    3    0  502 -0.29557422102E+03 -0.52331247107E+02 -0.96530830650E+02  0.31531332627E+03  0.12699999809E+01 0. -1.
</event>
<event>
 5   0  0.7123340E-02  0.5971591E+03  0.7818609E-02  0.9911318E-01
       -1   -1    0    0    0  501  0.00000000000E+00  0.00000000000E+00  0.13147101202E+03  0.13147101211E+03  0.50400001928E-02 0.  1.
        1   -1    0    0  501    0  0.00000000000E+00  0.00000000000E+00 -0.67809440060E+03  0.67809440061E+03  0.50400001928E-02 0. -1.
    10030    2    1    2    0    0  0.00000000000E+00  0.00000000000E+00 -0.54662338858E+03  0.80956541273E+03  0.59715913168E+03 0.  0.
        2    1    3    3  502    0 -0.12638236839E+03 -0.29740379359E+02  0.91198167103E+02  0.15866347687E+03  0.25500000920E-02 0.  1.
       -2    1    3    3    0  502  0.12638236839E+03  0.29740379359E+02 -0.63782155568E+03  0.65090193586E+03  0.25500000920E-02 0. -1.
</event>
<event>
 5   0  0.1146468E-01  0.5666859E+03  0.7818609E-02  0.9977039E-01
       -2   -1    0    0    0  501  0.00000000000E+00  0.00000000000E+00  0.10477303647E+03  0.10477303650E+03  0.25500000920E-02 0. -1.
        2   -1    0    0  501    0  0.00000000000E+00  0.00000000000E+00 -0.76625843554E+03  0.76625843555E+03  0.25500000920E-02 0.  1.
    10030    2    1    2    0    0  0.00000000000E+00  0.00000000000E+00 -0.66148539907E+03  0.87103147205E+03  0.56668588488E+03 0.  0.
        4    1    3    3  502    0 -0.16903378879E+03 -0.13849236651E+03 -0.60796436007E+03  0.64604553504E+03  0.12699999809E+01 0.  1.
       -4    1    3    3    0  502  0.16903378879E+03  0.13849236651E+03 -0.53521039000E+02  0.22498593701E+03  0.12699999809E+01 0. -1.
</event>
<event>
 5   0  0.4695625E-02  0.5978369E+03  0.7818609E-02  0.9909904E-01
        3   -1    0    0  501    0  0.00000000000E+00  0.00000000000E+00  0.24947070072E+03  0.24947072116E+03  0.10100000352E+00 0. -1.
       -3   -1    0    0    0  501  0.00000000000E+00  0.00000000000E+00 -0.35816717505E+03  0.35816718929E+03  0.10100000352E+00 0.  1.
    10030    2    1    2    0    0  0.00000000000E+00  0.00000000000E+00 -0.10869647434E+03  0.60763791045E+03  0.59783685625E+03 0.  0.
        2    1    3    3  502    0 -0.25972847553E+02 -0.14871779177E+02  0.24794398517E+03  0.24974382558E+03  0.25500000920E-02 0. -1.
       -2    1    3    3    0  502  0.25972847553E+02  0.14871779177E+02 -0.35664045951E+03  0.35789408487E+03  0.25500000920E-02 0.  1.
</event>
<event>
 5   0  0.7424930E-02  0.5951984E+03  0.7818609E-02  0.9915418E-01
       -1   -1    0    0    0  501  0.00000000000E+00  0.00000000000E+00  0.11891321044E+03  0.11891321055E+03  0.50400001928E-02 0.  1.
        1   -1    0    0  501    0  0.00000000000E+00  0.00000000000E+00 -0.74478918212E+03  0.74478918213E+03  0.50400001928E-02 0. -1.
    10030    2    1    2    0    0  0.00000000000E+00  0.00000000000E+00 -0.62587597167E+03  0.86370239269E+03  0.59519836291E+03 0.  0.
        3    1    3    3  502    0 -0.24092539440E+02  0.19715833650E+03 -0.63452788972E+03  0.66488909838E+03  0.10100000352E+00 0. -1.
       -3    1    3    3    0  502  0.24092539440E+02 -0.19715833650E+03  0.86519180477E+01  0.19881329431E+03  0.10100000352E+00 0.  1.
</event>
<event>
 5   0  0.1219020E-01  0.6194225E+03  0.7818609E-02  0.9865910E-01
        2   -1    0    0  501    0  0.00000000000E+00  0.00000000000E+00  0.36517110780E+03  0.36517110781E+03  0.25500000920E-02 0. -1.
       -2   -1    0    0    0  501  0.00000000000E+00  0.00000000000E+00 -0.26267431275E+03  0.26267431276E+03  0.25500000920E-02 0.  1.
    10030    2    1    2    0    0  0.00000000000E+00  0.00000000000E+00  0.10249679506E+03  0.62784542057E+03  0.61942253683E+03 0.  0.
        2    1    3    3  502    0 -0.24084270427E+03 -0.25665712569E+02 -0.14439736372E+03  0.28198321875E+03  0.25500000920E-02 0.  1.
       -2    1    3    3    0  502  0.24084270427E+03  0.25665712569E+02  0.24689415878E+03  0.34586220182E+03  0.25500000920E-02 0. -1.
</event>
<event>
 5   0  0.1206238E-01  0.5910035E+03  0.7818609E-02  0.9924249E-01
        2   -1    0    0  501    0  0.00000000000E+00  0.00000000000E+00  0.39234111986E+03  0.39234111987E+03  0.25500000920E-02 0.  1.
       -2   -1    0    0    0  501  0.00000000000E+00  0.00000000000E+00 -0.22256473309E+03  0.22256473310E+03  0.25500000920E-02 0. -1.
    10030    2    1    2    0    0  0.00000000000E+00  0.00000000000E+00  0.16977638677E+03  0.61490585297E+03  0.59100354187E+03 0.  0.
        5    1    3    3  502    0  0.14929243152E+03  0.25182176149E+03  0.12646399890E+03  0.31893206594E+03  0.46999998093E+01 0.  1.
       -5    1    3    3    0  502 -0.14929243152E+03 -0.25182176149E+03  0.43312387868E+02  0.29597378703E+03  0.46999998093E+01 0. -1.
</event>
<event>
 5   0  0.1175861E-01  0.5974446E+03  0.7818609E-02  0.9910722E-01
       -2   -1    0    0    0  501  0.00000000000E+00  0.00000000000E+00  0.61512531753E+02  0.61512531806E+02  0.25500000920E-02 0.  1.
        2   -1    0    0  501    0  0.00000000000E+00  0.00000000000E+00 -0.14506801285E+04  0.14506801285E+04  0.25500000920E-02 0. -1.
    10030    2    1    2    0    0  0.00000000000E+00  0.00000000000E+00 -0.13891675967E+04  0.15121926603E+04  0.59744458322E+03 0.  0.
        3    1    3    3  502    0  0.19495249894E+03 -0.17373413926E+03 -0.10617677119E+04  0.10934078435E+04  0.10100000352E+00 0. -1.
       -3    1    3    3    0  502 -0.19495249894E+03  0.17373413926E+03 -0.32739988480E+03  0.41878481676E+03  0.10100000352E+00 0.  1.
</event>
<event>
 5   0  0.4695625E-02  0.5618522E+03  0.7818609E-02  0.9987872E-01
       -4   -1    0    0    0  501  0.00000000000E+00  0.00000000000E+00  0.27148734379E+03  0.27149031426E+03  0.12699999809E+01 0. -1.
        4   -1    0    0  501    0  0.00000000000E+00  0.00000000000E+00 -0.29068704510E+03  0.29068981938E+03  0.12699999809E+01 0.  1.
    10030    2    1    2    0    0  0.00000000000E+00  0.00000000000E+00 -0.19199701312E+02  0.56218013364E+03  0.56185218175E+03 0.  0.
        5    1    3    3  502    0 -0.18456172821E+02 -0.34462777421E+02  0.26871545949E+03  0.27158498027E+03  0.46999998093E+01 0. -1.
       -5    1    3    3    0  502  0.18456172821E+02  0.34462777421E+02 -0.28791516080E+03  0.29059515337E+03  0.46999998093E+01 0.  1.
</event>
<event>
 5   0  0.1175861E-01  0.5993110E+03  0.7818609E-02  0.9906837E-01
       -2   -1    0    0    0  501  0.00000000000E+00  0.00000000000E+00  0.46148490807E+02  0.46148490877E+02  0.25500000920E-02 0. -1.
        2   -1    0    0  501    0  0.00000000000E+00  0.00000000000E+00 -0.19457499474E+04  0.19457499474E+04  0.25500000920E-02 0.  1.
    10030    2    1    2    0    0  0.00000000000E+00  0.00000000000E+00 -0.18996014566E+04  0.19918984383E+04  0.59931101652E+03 0.  0.
        3    1    3    3  502    0 -0.84080037300E+02  0.20680779174E+03 -0.16141519983E+04  0.16295169834E+04  0.10100000352E+00 0.  1.
       -3    1    3    3    0  502  0.84080037300E+02 -0.20680779174E+03 -0.28544945832E+03  0.36238145489E+03  0.10100000352E+00 0. -1.
</event>
<event>
 5   0  0.7221069E-02  0.5853500E+03  0.7818609E-02  0.9936275E-01
        1   -1    0    0  501    0  0.00000000000E+00  0.00000000000E+00  0.12305203336E+03  0.12305203346E+03  0.50400001928E-02 0. -1.
       -1   -1    0    0    0  501  0.00000000000E+00  0.00000000000E+00 -0.69611731893E+03  0.69611731895E+03  0.50400001928E-02 0.  1.
    10030    2    1    2    0    0  0.00000000000E+00  0.00000000000E+00 -0.57306528557E+03  0.81916935242E+03  0.58534998626E+03 0.  0.
        5    1    3    3  502    0  0.10798994604E+03 -0.24637660261E+03 -0.44776328537E+03  0.52237659642E+03  0.46999998093E+01 0.  1.
       -5    1    3    3    0  502 -0.10798994604E+03  0.24637660261E+03 -0.12530200020E+03  0.29679275600E+03  0.46999998093E+01 0. -1.
</event>
<event>
 5   0  0.7424930E-02  0.6156828E+03  0.7818609E-02  0.9873393E-01
        1   -1    0    0  501    0  0.00000000000E+00  0.00000000000E+00  0.83594960516E+02  0.83594960668E+02  0.50400001928E-02 0. -1.
       -1   -1    0    0    0  501  0.00000000000E+00  0.00000000000E+00 -0.11336367378E+04  0.11336367378E+04  0.50400001928E-02 0.  1.
    10030    2    1    2    0    0  0.00000000000E+00  0.00000000000E+00 -0.10500417773E+04  0.12172316985E+04  0.61568277038E+03 0.  0.
        3    1    3    3  502    0 -0.23342243064E+03  0.65875333070E+02 -0.89982955605E+03  0.93194357703E+03  0.10100000352E+00 0. -1.
       -3    1    3    3    0  502  0.23342243064E+03 -0.65875333070E+02 -0.15021222125E+03  0.28528812146E+03  0.10100000352E+00 0.  1.
</event>
<event>
 5   0  0.4695625E-02  0.6049027E+03  0.7818609E-02  0.9895287E-01
       -3   -1    0    0    0  501  0.00000000000E+00  0.00000000000E+00  0.24409848724E+03  0.24409850813E+03  0.10100000352E+00 0. -1.
        3   -1    0    0  501    0  0.00000000000E+00  0.00000000000E+00 -0.37475362924E+03  0.37475364285E+03  0.10100000352E+00 0.  1.
    10030    2    1    2    0    0  0.00000000000E+00  0.00000000000E+00 -0.13065514200E+03  0.61885215098E+03  0.60490265220E+03 0.  0.
        1    1    3    3  502    0  0.84963637490E+02 -0.18206635384E+03  0.16596070807E+03  0.26059534444E+03  0.50400001928E-02 0. -1.
       -1    1    3    3    0  502 -0.84963637490E+02  0.18206635384E+03 -0.29661585007E+03  0.35825680654E+03  0.50400001928E-02 0.  1.
</event>
<event>
 5   0  0.7266519E-02  0.5827652E+03  0.7818609E-02  0.9941822E-01
        1   -1    0    0  501    0  0.00000000000E+00  0.00000000000E+00  0.95337814047E+03  0.95337814048E+03  0.50400001928E-02 0. -1.
       -1   -1    0    0    0  501  0.00000000000E+00  0.00000000000E+00 -0.89055751845E+02  0.89055751988E+02  0.50400001928E-02 0.  1.
    10030    2    1    2    0    0  0.00000000000E+00  0.00000000000E+00  0.86432238862E+03  0.10424338925E+04  0.58276515741E+03 0.  0.
        4    1    3    3  502    0  0.25495195854E+03 -0.96660019634E+02  0.61596595275E+03  0.67361660342E+03  0.12699999809E+01 0. -1.
       -4    1    3    3    0  502 -0.25495195854E+03  0.96660019634E+02  0.24835643588E+03  0.36881728905E+03  0.12699999809E+01 0.  1.
</event>
<event>
 5   0  0.1146468E-01  0.5827441E+03  0.7818609E-02  0.9941868E-01
        2   -1    0    0  501    0  0.00000000000E+00  0.00000000000E+00  0.20917131707E+03  0.20917131709E+03  0.25500000920E-02 0.  1.
       -2   -1    0    0    0  501  0.00000000000E+00  0.00000000000E+00 -0.40587619806E+03  0.40587619807E+03  0.25500000920E-02 0. -1.
    10030    2    1    2    0    0  0.00000000000E+00  0.00000000000E+00 -0.19670488099E+03  0.61504751516E+03  0.58274405677E+03 0.  0.
        4    1    3    3  502    0 -0.11956854941E+03 -0.23434026180E+03  0.33825786008E+02  0.26525043451E+03  0.12699999809E+01 0.  1.
       -4    1    3    3    0  502  0.11956854941E+03  0.23434026180E+03 -0.23053066699E+03  0.34979708065E+03  0.12699999809E+01 0. -1.
</event>
<event>
 5   0  0.7266519E-02  0.6312011E+03  0.7818609E-02  0.9842708E-01
       -1   -1    0    0    0  501  0.00000000000E+00  0.00000000000E+00  0.63608835975E+03  0.63608835977E+03  0.50400001928E-02 0. -1.
        1   -1    0    0  501    0  0.00000000000E+00  0.00000000000E+00 -0.15658785112E+03  0.15658785121E+03  0.50400001928E-02 0.  1.
    10030    2    1    2    0    0  0.00000000000E+00  0.00000000000E+00  0.47950050862E+03  0.79267621097E+03  0.63120110715E+03 0.  0.
        4    1    3    3  502    0  0.97742879252E+02  0.22788998772E+03 -0.54233092934E+01  0.24802931708E+03  0.12699999809E+01 0.  1.
       -4    1    3    3    0  502 -0.97742879252E+02 -0.22788998772E+03  0.48492381792E+03  0.54464689389E+03  0.12699999809E+01 0. -1.
</event>
<event>
 5   0  0.4695625E-02  0.5944787E+03  0.7818609E-02  0.9916928E-01
        4   -1    0    0  501    0  0.00000000000E+00  0.00000000000E+00  0.36106844000E+03  0.36107067351E+03  0.12699999809E+01 0. -1.
       -4   -1    0    0    0  501  0.00000000000E+00  0.00000000000E+00 -0.24468925368E+03  0.24469254948E+03  0.12699999809E+01 0.  1.
    10030    2    1    2    0    0  0.00000000000E+00  0.00000000000E+00  0.11637918632E+03  0.60576322298E+03  0.59447873579E+03 0.  0.
        2    1    3    3  502    0  0.93307634878E+02  0.27058654118E+03 -0.23506158510E+02  0.28718622962E+03  0.25500000920E-02 0.  1.
       -2    1    3    3    0  502 -0.93307634878E+02 -0.27058654118E+03  0.13988534483E+03  0.31857699336E+03  0.25500000920E-02 0. -1.
</event>
<event>
 5   0  0.7424930E-02  0.5866370E+03  0.7818609E-02  0.9933525E-01
        1   -1    0    0  501    0  0.00000000000E+00  0.00000000000E+00  0.99819082306E+03  0.99819082307E+03  0.50400001928E-02 0.  1.
       -1   -1    0    0    0  501  0.00000000000E+00  0.00000000000E+00 -0.86191679262E+02  0.86191679410E+02  0.50400001928E-02 0. -1.
    10030    2    1    2    0    0  0.00000000000E+00  0.00000000000E+00  0.91199914380E+03  0.10843825025E+04  0.58663700310E+03 0.  0.
        3    1    3    3  502    0 -0.20130182727E+03 -0.19080306897E+02  0.84876957764E+03  0.87252294520E+03  0.10100000352E+00 0.  1.
       -3    1    3    3    0  502  0.20130182727E+03  0.19080306897E+02  0.63229566162E+02  0.21185955729E+03  0.10100000352E+00 0. -1.
</event>
<event>
 5   0  0.1219020E-01  0.6105060E+03  0.7818609E-02  0.9883846E-01
       -2   -1    0    0    0  501  0.00000000000E+00  0.00000000000E+00  0.14741305228E+03  0.14741305230E+03  0.25500000920E-02 0.  1.
        2   -1    0    0  501    0  0.00000000000E+00  0.00000000000E+00 -0.63209732422E+03  0.63209732422E+03  0.25500000920E-02 0. -1.
    10030    2    1    2    0    0  0.00000000000E+00  0.00000000000E+00 -0.48468427194E+03  0.77951037652E+03  0.61050600623E+03 0.  0.
        2    1    3    3  502    0 -0.29642598552E+03  0.70052272510E+02 -0.26799682660E+03  0.40570677200E+03  0.25500000920E-02 0. -1.
       -2    1    3    3    0  502  0.29642598552E+03 -0.70052272510E+02 -0.21668744534E+03  0.37380360452E+03  0.25500000920E-02 0.  1.
</event>
<event>
 5   0  0.1146468E-01  0.6025990E+03  0.7818609E-02  0.9900029E-01
        2   -1    0    0  501    0  0.00000000000E+00  0.00000000000E+00  0.16341005412E+03  0.16341005414E+03  0.25500000920E-02 0.  1.
       -2   -1    0    0    0  501  0.00000000000E+00  0.00000000000E+00 -0.55554353154E+03  0.55554353154E+03  0.25500000920E-02 0. -1.
    10030    2    1    2    0    0  0.00000000000E+00  0.00000000000E+00 -0.39213347742E+03  0.71895358568E+03  0.60259903273E+03 0.  0.
        4    1    3    3  502    0  0.56218178441E+01  0.17514468872E+03  0.96355464532E+02  0.19998313745E+03  0.12699999809E+01 0.  1.
       -4    1    3    3    0  502 -0.56218178441E+01 -0.17514468872E+03 -0.48848894195E+03  0.51897044823E+03  0.12699999809E+01 0. -1.
</event>
<event>
 5   0  0.1219020E-01  0.5920452E+03  0.7818609E-02  0.9922049E-01
        2   -1    0    0  501    0  0.00000000000E+00  0.00000000000E+00  0.53451378484E+03  0.53451378485E+03  0.25500000920E-02 0. -1.
       -2   -1    0    0    0  501  0.00000000000E+00  0.00000000000E+00 -0.16394222374E+03  0.16394222376E+03  0.25500000920E-02 0.  1.
    10030    2    1    2    0    0  0.00000000000E+00  0.00000000000E+00  0.37057156110E+03  0.69845600861E+03  0.59204519596E+03 0.  0.
        2    1    3    3  502    0 -0.22784795993E+01 -0.14980324109E+03  0.48648369125E+03  0.50903102496E+03  0.25500000920E-02 0. -1.
       -2    1    3    3    0  502  0.22784795993E+01  0.14980324109E+03 -0.11591213015E+03  0.18942498365E+03  0.25500000920E-02 0.  1.
</event>
<event>
 5   0  0.7266519E-02  0.5894517E+03  0.7818609E-02  0.9927535E-01
       -1   -1    0    0    0  501  0.00000000000E+00  0.00000000000E+00  0.60548981512E+02  0.60548981722E+02  0.50400001928E-02 0.  1.
        1   -1    0    0  501    0  0.00000000000E+00  0.00000000000E+00 -0.14345959680E+04  0.14345959680E+04  0.50400001928E-02 0. -1.
    10030    2    1    2    0    0  0.00000000000E+00  0.00000000000E+00 -0.13740469865E+04  0.14951449497E+04  0.58945169406E+03 0.  0.
        4    1    3    3  502    0 -0.10350803260E+03 -0.21458782255E+03 -0.11270890277E+04  0.11519952846E+04  0.12699999809E+01 0. -1.
       -4    1    3    3    0  502  0.10350803260E+03  0.21458782255E+03 -0.24695795881E+03  0.34314966518E+03  0.12699999809E+01 0.  1.
</event>
<event>
 5   0  0.1206238E-01  0.6015830E+03  0.7818609E-02  0.9902127E-01
       -2   -1    0    0    0  501  0.00000000000E+00  0.00000000000E+00  0.74887329239E+02  0.74887329282E+02  0.25500000920E-02 0.  1.
        2   -1    0    0  501    0  0.00000000000E+00  0.00000000000E+00 -0.12081555355E+04  0.12081555355E+04  0.25500000920E-02 0. -1.
    10030    2    1    2    0    0  0.00000000000E+00  0.00000000000E+00 -0.11332682063E+04  0.12830428648E+04  0.60158304960E+03 0.  0.
        5    1    3    3  502    0 -0.27934262504E+03 -0.10333499141E+03 -0.65567670745E+03  0.72016974201E+03  0.46999998093E+01 0.  1.
       -5    1    3    3    0  502  0.27934262504E+03  0.10333499141E+03 -0.47759149885E+03  0.56287312282E+03  0.46999998093E+01 0. -1.
</event>
<event>
 5   0  0.7123340E-02  0.5018296E+03  0.7818609E-02  0.1013302E+00
        1   -1    0    0  501    0  0.00000000000E+00  0.00000000000E+00  0.10252288764E+04  0.10252288764E+04  0.50400001928E-02 0.  1.
       -1   -1    0    0    0  501  0.00000000000E+00  0.00000000000E+00 -0.61408955476E+02  0.61408955682E+02  0.50400001928E-02 0. -1.
    10030    2    1    2    0    0  0.00000000000E+00  0.00000000000E+00  0.96381992094E+03  0.10866378321E+04  0.50182959077E+03 0.  0.
        2    1    3    3  502    0 -0.21442880426E+03  0.10320054581E+03  0.30965663442E+03  0.39053462842E+03  0.25500000920E-02 0. -1.
       -2    1    3    3    0  502  0.21442880426E+03 -0.10320054581E+03  0.65416328653E+03  0.69610320369E+03  0.25500000920E-02 0.  1.
</event>
<event>
 5   0  0.7263385E-02  0.5992411E+03  0.7818609E-02  0.9906982E-01
        1   -1    0    0  501    0  0.00000000000E+00  0.00000000000E+00  0.56424229351E+03  0.56424229354E+03  0.50400001928E-02 0.  1.
       -1   -1    0    0    0  501  0.00000000000E+00  0.00000000000E+00 -0.15910271032E+03  0.15910271040E+03  0.50400001928E-02 0. -1.
    10030    2    1    2    0    0  0.00000000000E+00  0.00000000000E+00  0.40513958319E+03  0.72334500393E+03  0.59924111411E+03 0.  0.
        1    1    3    3  502    0  0.23930990571E+03 -0.14594894979E+03  0.74809880807E+02  0.29011522746E+03  0.50400001928E-02 0. -1.
       -1    1    3    3    0  502 -0.23930990571E+03  0.14594894979E+03  0.33032970239E+03  0.43322977647E+03  0.50400001928E-02 0.  1.
</event>
<event>
 5   0  0.7221069E-02  0.6294206E+03  0.7818609E-02  0.9846180E-01
        1   -1    0    0  501    0  0.00000000000E+00  0.00000000000E+00  0.11973323867E+04  0.11973323867E+04  0.50400001928E-02 0. -1.
       -1   -1    0    0    0  501  0.00000000000E+00  0.00000000000E+00 -0.82719372427E+02  0.82719372581E+02  0.50400001928E-02 0.  1.
    10030    2    1    2    0    0  0.00000000000E+00  0.00000000000E+00  0.11146130143E+04  0.12800517593E+04  0.62942063431E+03 0.  0.
        5    1    3    3  502    0  0.21862346481E+03 -0.16689327164E+03  0.24640389688E+03  0.36930550210E+03  0.46999998093E+01 0.  1.
       -5    1    3    3    0  502 -0.21862346481E+03  0.16689327164E+03  0.86820911742E+03  0.91074625723E+03  0.46999998093E+01 0. -1.
</event>
<event>
 5   0  0.7123340E-02  0.5965541E+03  0.7818609E-02  0.9912581E-01
       -1   -1    0    0    0  501  0.00000000000E+00  0.00000000000E+00  0.86410628565E+02  0.86410628712E+02  0.50400001928E-02 0. -1.
        1   -1    0    0  501    0  0.00000000000E+00  0.00000000000E+00 -0.10296092653E+04  0.10296092653E+04  0.50400001928E-02 0.  1.
    10030    2    1    2    0    0  0.00000000000E+00  0.00000000000E+00 -0.94319863670E+03  0.11160198940E+04  0.59655405078E+03 0.  0.
        2    1    3    3  502    0  0.10333908744E+03 -0.26470713839E+03 -0.64121548063E+03  0.70136019898E+03  0.25500000920E-02 0. -1.
       -2    1    3    3    0  502 -0.10333908744E+03  0.26470713839E+03 -0.30198315607E+03  0.41465969501E+03  0.25500000920E-02 0.  1.
</event>
<event>
 5   0  0.1166419E-01  0.6189762E+03  0.7818609E-02  0.9866800E-01
       -2   -1    0    0    0  501  0.00000000000E+00  0.00000000000E+00  0.18610054211E+03  0.18610054213E+03  0.25500000920E-02 0. -1.
        2   -1    0    0  501    0  0.00000000000E+00  0.00000000000E+00 -0.51468349571E+03  0.51468349572E+03  0.25500000920E-02 0.  1.
    10030    2    1    2    0    0  0.00000000000E+00  0.00000000000E+00 -0.32858295360E+03  0.70078403785E+03  0.61897617911E+03 0.  0.
        1    1    3    3  502    0 -0.21215033300E+03 -0.67795591376E+02  0.79002817106E+02  0.23631642164E+03  0.50400001928E-02 0. -1.
       -1    1    3    3    0  502  0.21215033300E+03  0.67795591376E+02 -0.40758577070E+03  0.46446761621E+03  0.50400001928E-02 0.  1.
</event>
<event>
 5   0  0.7266519E-02  0.5969169E+03  0.7818609E-02  0.9911823E-01
       -1   -1    0    0    0  501  0.00000000000E+00  0.00000000000E+00  0.56590004494E+03  0.56590004496E+03  0.50400001928E-02 0.  1.
        1   -1    0    0  501    0  0.00000000000E+00  0.00000000000E+00 -0.15740846047E+03  0.15740846055E+03  0.50400001928E-02 0. -1.
    10030    2    1    2    0    0  0.00000000000E+00  0.00000000000E+00  0.40849158446E+03  0.72330850551E+03  0.59691692853E+03 0.  0.
        4    1    3    3  502    0  0.18434916716E+03 -0.19836027660E+03  0.52200453887E+02  0.27578599502E+03  0.12699999809E+01 0. -1.
       -4    1    3    3    0  502 -0.18434916716E+03  0.19836027660E+03  0.35629113058E+03  0.44752251049E+03  0.12699999809E+01 0.  1.
</event>
<event>
 5   0  0.1175861E-01  0.5967456E+03  0.7818609E-02  0.9912181E-01
       -2   -1    0    0    0  501  0.00000000000E+00  0.00000000000E+00  0.40477972337E+03  0.40477972338E+03  0.25500000920E-02 0.  1.
        2   -1    0    0  501    0  0.00000000000E+00  0.00000000000E+00 -0.21993769306E+03  0.21993769308E+03  0.25500000920E-02 0. -1.
    10030    2    1    2    0    0  0.00000000000E+00  0.00000000000E+00  0.18484203031E+03  0.62471741645E+03  0.59674556911E+03 0.  0.
        3    1    3    3  502    0 -0.21529917352E+03 -0.18299333866E+03 -0.79152476326E+01  0.28267111182E+03  0.10100000352E+00 0. -1.
       -3    1    3    3    0  502  0.21529917352E+03  0.18299333866E+03  0.19275727794E+03  0.34204630463E+03  0.10100000352E+00 0.  1.
</event>
<event>
 5   0  0.1166419E-01  0.6006640E+03  0.7818609E-02  0.9904029E-01
        2   -1    0    0  501    0  0.00000000000E+00  0.00000000000E+00  0.29962883002E+03  0.29962883004E+03  0.25500000920E-02 0.  1.
       -2   -1    0    0    0  501  0.00000000000E+00  0.00000000000E+00 -0.30103686580E+03  0.30103686581E+03  0.25500000920E-02 0. -1.
    10030    2    1    2    0    0  0.00000000000E+00  0.00000000000E+00 -0.14080357745E+01  0.60066569585E+03  0.60066404554E+03 0.  0.
        1    1    3    3  502    0  0.72140044392E+02 -0.18334670124E+03  0.22596624338E+03  0.29980150438E+03  0.50400001928E-02 0.  1.
       -1    1    3    3    0  502 -0.72140044392E+02  0.18334670124E+03 -0.22737427915E+03  0.30086419146E+03  0.50400001928E-02 0. -1.
</event>
<event>
 5   0  0.1166419E-01  0.6022720E+03  0.7818609E-02  0.9900704E-01
       -2   -1    0    0    0  501  0.00000000000E+00  0.00000000000E+00  0.97198188460E+02  0.97198188493E+02  0.25500000920E-02 0.  1.
        2   -1    0    0  501    0  0.00000000000E+00  0.00000000000E+00 -0.93296890450E+03  0.93296890450E+03  0.25500000920E-02 0. -1.
    10030    2    1    2    0    0  0.00000000000E+00  0.00000000000E+00 -0.83577071604E+03  0.10301670930E+04  0.60227198980E+03 0.  0.
        1    1    3    3  502    0  0.24135469956E+03  0.12259049075E+03 -0.19224375255E+03  0.33202135449E+03  0.50400001928E-02 0.  1.
       -1    1    3    3    0  502 -0.24135469956E+03 -0.12259049075E+03 -0.64352696349E+03  0.69814573850E+03  0.50400001928E-02 0. -1.
</event>
<event>
 5   0  0.1206238E-01  0.6079453E+03  0.7818609E-02  0.9889058E-01
        2   -1    0    0  501    0  0.00000000000E+00  0.00000000000E+00  0.48200627634E+03  0.48200627635E+03  0.25500000920E-02 0.  1.
       -2   -1    0    0    0  501  0.00000000000E+00  0.00000000000E+00 -0.19169742731E+03  0.19169742733E+03  0.25500000920E-02 0. -1.
    10030    2    1    2    0    0  0.00000000000E+00  0.00000000000E+00  0.29030884903E+03  0.67370370368E+03  0.60794527099E+03 0.  0.
        5    1    3    3  502    0 -0.14306055259E+02 -0.30157212507E+03  0.10633916113E+03  0.32012578313E+03  0.46999998093E+01 0. -1.
       -5    1    3    3    0  502  0.14306055259E+02  0.30157212507E+03  0.18396968791E+03  0.35357792055E+03  0.46999998093E+01 0.  1.
</event>
<event>
 5   0  0.7221069E-02  0.5931762E+03  0.7818609E-02  0.9919665E-01
        1   -1    0    0  501    0  0.00000000000E+00  0.00000000000E+00  0.17185807889E+04  0.17185807889E+04  0.50400001928E-02 0. -1.
       -1   -1    0    0    0  501  0.00000000000E+00  0.00000000000E+00 -0.51184376944E+02  0.51184377192E+02  0.50400001928E-02 0.  1.
    10030    2    1    2    0    0  0.00000000000E+00  0.00000000000E+00  0.16673964120E+04  0.17697651661E+04  0.59317615304E+03 0.  0.
        5    1    3    3  502    0  0.24678736418E+03  0.12181583527E+03  0.11632315378E+04  0.11953546760E+04  0.46999998093E+01 0. -1.
       -5    1    3    3    0  502 -0.24678736418E+03 -0.12181583527E+03  0.50416487418E+03  0.57441049015E+03  0.46999998093E+01 0.  1.
</event>
<event>
 5   0  0.1175861E-01  0.5785867E+03  0.7818609E-02  0.9950855E-01
       -2   -1    0    0    0  501  0.00000000000E+00  0.00000000000E+00  0.11040770877E+03  0.11040770880E+03  0.25500000920E-02 0. -1.
        2   -1    0    0  501    0  0.00000000000E+00  0.00000000000E+00 -0.75801458598E+03  0.75801458599E+03  0.25500000920E-02 0.  1.
    10030    2    1    2    0    0  0.00000000000E+00  0.00000000000E+00 -0.64760687721E+03  0.86842229479E+03  0.57858673911E+03 0.  0.
        3    1    3    3  502    0  0.47297898138E+02 -0.41785274141E+02  0.99948990089E+02  0.11820706884E+03  0.10100000352E+00 0. -1.
       -3    1    3    3    0  502 -0.47297898138E+02  0.41785274141E+02 -0.74755586730E+03  0.75021522595E+03  0.10100000352E+00 0.  1.
</event>
<event>
 5   0  0.7123340E-02  0.6042184E+03  0.7818609E-02  0.9896693E-01
       -1   -1    0    0    0  501  0.00000000000E+00  0.00000000000E+00  0.15598949862E+04  0.15598949862E+04  0.50400001928E-02 0.  1.
        1   -1    0    0  501    0  0.00000000000E+00  0.00000000000E+00 -0.58510327973E+02  0.58510328190E+02  0.50400001928E-02 0. -1.
    10030    2    1    2    0    0  0.00000000000E+00  0.00000000000E+00  0.15013846583E+04  0.16184053144E+04  0.60421839571E+03 0.  0.
        2    1    3    3  502    0 -0.14571239478E+03 -0.23640338743E+03  0.43205872179E+03  0.51360821903E+03  0.25500000920E-02 0.  1.
       -2    1    3    3    0  502  0.14571239478E+03  0.23640338743E+03  0.10693259365E+04  0.11047970954E+04  0.25500000920E-02 0. -1.
</event>
<event>
 5   0  0.7263385E-02  0.5952789E+03  0.7818609E-02  0.9915250E-01
       -1   -1    0    0    0  501  0.00000000000E+00  0.00000000000E+00  0.13235343644E+03  0.13235343654E+03  0.50400001928E-02 0. -1.
        1   -1    0    0  501    0  0.00000000000E+00  0.00000000000E+00 -0.66933839340E+03  0.66933839342E+03  0.50400001928E-02 0.  1.
    10030    2    1    2    0    0  0.00000000000E+00  0.00000000000E+00 -0.53698495697E+03  0.80169182996E+03  0.59527888104E+03 0.  0.
        1    1    3    3  502    0  0.15149817438E+03  0.88379863911E+01  0.76337143447E+02  0.16987397193E+03  0.50400001928E-02 0. -1.
       -1    1    3    3    0  502 -0.15149817438E+03 -0.88379863911E+01 -0.61332210041E+03  0.63181785803E+03  0.50400001928E-02 0.  1.
</event>
<event>
 5   0  0.7424930E-02  0.5965329E+03  0.7818609E-02  0.9912625E-01
        1   -1    0    0  501    0  0.00000000000E+00  0.00000000000E+00  0.10022724592E+04  0.10022724592E+04  0.50400001928E-02 0. -1.
       -1   -1    0    0    0  501  0.00000000000E+00  0.00000000000E+00 -0.88761173661E+02  0.88761173804E+02  0.50400001928E-02 0.  1.
    10030    2    1    2    0    0  0.00000000000E+00  0.00000000000E+00  0.91351128550E+03  0.10910336330E+04  0.59653291573E+03 0.  0.
        3    1    3    3  502    0 -0.75691634798E+02  0.10133947027E+03 -0.37279585447E+02  0.13186618029E+03  0.10100000352E+00 0.  1.
       -3    1    3    3    0  502  0.75691634798E+02 -0.10133947027E+03  0.95079087095E+03  0.95916745269E+03  0.10100000352E+00 0. -1.
</event>
<event>
 5   0  0.7424930E-02  0.5985906E+03  0.7818609E-02  0.9908334E-01
       -1   -1    0    0    0  501  0.00000000000E+00  0.00000000000E+00  0.36177552287E+03  0.36177552290E+03  0.50400001928E-02 0.  1.
        1   -1    0    0  501    0  0.00000000000E+00  0.00000000000E+00 -0.24760569858E+03  0.24760569864E+03  0.50400001928E-02 0. -1.
    10030    2    1    2    0    0  0.00000000000E+00  0.00000000000E+00  0.11416982428E+03  0.60938122154E+03  0.59859061502E+03 0.  0.
        3    1    3    3  502    0 -0.26830361750E+03 -0.20979349900E+02  0.19040640635E+03  0.32966888550E+03  0.10100000352E+00 0.  1.
       -3    1    3    3    0  502  0.26830361750E+03  0.20979349900E+02 -0.76236582066E+02  0.27971233604E+03  0.10100000352E+00 0. -1.
</event>
<event>
 5   0  0.1219020E-01  0.6583766E+03  0.7818609E-02  0.9791187E-01
        2   -1    0    0  501    0  0.00000000000E+00  0.00000000000E+00  0.14579094684E+04  0.14579094684E+04  0.25500000920E-02 0. -1.
       -2   -1    0    0    0  501  0.00000000000E+00  0.00000000000E+00 -0.74328995204E+02  0.74328995247E+02  0.25500000920E-02 0.  1.
    10030    2    1    2    0    0  0.00000000000E+00  0.00000000000E+00  0.13835804732E+04  0.15322384637E+04  0.65837662753E+03 0.  0.
        2    1    3    3  502    0 -0.32336341494E+03 -0.35079806651E+02  0.57379704337E+03  0.65957375474E+03  0.25500000920E-02 0.  1.
       -2    1    3    3    0  502  0.32336341494E+03  0.35079806651E+02  0.80978342984E+03  0.87266470893E+03  0.25500000920E-02 0. -1.
</event>
<event>
 5   0  0.7221069E-02  0.5873479E+03  0.7818609E-02  0.9932008E-01
        1   -1    0    0  501    0  0.00000000000E+00  0.00000000000E+00  0.11530294174E+04  0.11530294174E+04  0.50400001928E-02 0.  1.
       -1   -1    0    0    0  501  0.00000000000E+00  0.00000000000E+00 -0.74798091960E+02  0.74798092130E+02  0.50400001928E-02 0. -1.
    10030    2    1    2    0    0  0.00000000000E+00  0.00000000000E+00  0.10782313255E+04  0.12278275096E+04  0.58734793950E+03 0.  0.
        5    1    3    3  502    0  0.15495065683E+03 -0.24336113226E+03  0.42484636104E+03  0.51356680892E+03  0.46999998093E+01 0.  1.
       -5    1    3    3    0  502 -0.15495065683E+03  0.24336113226E+03  0.65338496443E+03  0.71426070064E+03  0.46999998093E+01 0. -1.
</event>
<event>
 5   0  0.1206238E-01  0.6107131E+03  0.7818609E-02  0.9883426E-01
       -2   -1    0    0    0  501  0.00000000000E+00  0.00000000000E+00  0.12574239595E+03  0.12574239597E+03  0.25500000920E-02 0.  1.
        2   -1    0    0  501    0  0.00000000000E+00  0.00000000000E+00 -0.74153682668E+03  0.74153682668E+03  0.25500000920E-02 0. -1.
    10030    2    1    2    0    0  0.00000000000E+00  0.00000000000E+00 -0.61579443073E+03  0.86727922266E+03  0.61071308249E+03 0.  0.
        5    1    3    3  502    0 -0.23701923341E+03  0.16620420601E+03 -0.44571785270E+03  0.53149642456E+03  0.46999998093E+01 0. -1.
       -5    1    3    3    0  502  0.23701923341E+03 -0.16620420601E+03 -0.17007657803E+03  0.33578279809E+03  0.46999998093E+01 0.  1.
</event>
<event>
 5   0  0.4695625E-02  0.6027306E+03  0.7818609E-02  0.9899757E-01
       -4   -1    0    0    0  501  0.00000000000E+00  0.00000000000E+00  0.26929321035E+03  0.26929620502E+03  0.12699999809E+01 0. -1.
        4   -1    0    0  501    0  0.00000000000E+00  0.00000000000E+00 -0.33725103009E+03  0.33725342132E+03  0.12699999809E+01 0.  1.
    10030    2    1    2    0    0  0.00000000000E+00  0.00000000000E+00 -0.67957819740E+02  0.60654962634E+03  0.60273060645E+03 0.  0.
        5    1    3    3  502    0 -0.80181068784E+02  0.10794898535E+03 -0.30534837433E+03  0.33367904779E+03  0.46999998093E+01 0.  1.
       -5    1    3    3    0  502  0.80181068784E+02 -0.10794898535E+03  0.23739055459E+03  0.27287057855E+03  0.46999998093E+01 0. -1.
</event>
<event>
 5   0  0.4695625E-02  0.6755405E+03  0.7818609E-02  0.9760000E-01
        4   -1    0    0  501    0  0.00000000000E+00  0.00000000000E+00  0.24186638363E+03  0.24186971788E+03  0.12699999809E+01 0.  1.
       -4   -1    0    0    0  501  0.00000000000E+00  0.00000000000E+00 -0.47169407000E+03  0.47169577969E+03  0.12699999809E+01 0. -1.
    10030    2    1    2    0    0  0.00000000000E+00  0.00000000000E+00 -0.22982768637E+03  0.71356549757E+03  0.67554049020E+03 0.  0.
        4    1    3    3  502    0  0.32782942442E+03  0.29905669416E+02 -0.19480614925E+03  0.38251474385E+03  0.12699999809E+01 0.  1.
       -4    1    3    3    0  502 -0.32782942442E+03 -0.29905669416E+02 -0.35021537126E+02  0.33105075372E+03  0.12699999809E+01 0. -1.
</event>
<event>
 5   0  0.7263385E-02  0.5984875E+03  0.7818609E-02  0.9908549E-01
        1   -1    0    0  501    0  0.00000000000E+00  0.00000000000E+00  0.23048255387E+03  0.23048255392E+03  0.50400001928E-02 0.  1.
       -1   -1    0    0    0  501  0.00000000000E+00  0.00000000000E+00 -0.38851881913E+03  0.38851881917E+03  0.50400001928E-02 0. -1.
    10030    2    1    2    0    0  0.00000000000E+00  0.00000000000E+00 -0.15803626526E+03  0.61900137309E+03  0.59848745914E+03 0.  0.
        1    1    3    3  502    0  0.20866544589E+03 -0.15519044249E+03 -0.23215204347E+03  0.34859706404E+03  0.50400001928E-02 0. -1.
       -1    1    3    3    0  502 -0.20866544589E+03  0.15519044249E+03  0.74115778206E+02  0.27040430905E+03  0.50400001928E-02 0.  1.
</event>
<event>
 5   0  0.7123340E-02  0.5989989E+03  0.7818609E-02  0.9907485E-01
       -1   -1    0    0    0  501  0.00000000000E+00  0.00000000000E+00  0.17956992787E+03  0.17956992794E+03  0.50400001928E-02 0.  1.
        1   -1    0    0  501    0  0.00000000000E+00  0.00000000000E+00 -0.49952636023E+03  0.49952636025E+03  0.50400001928E-02 0. -1.
    10030    2    1    2    0    0  0.00000000000E+00  0.00000000000E+00 -0.31995643236E+03  0.67909628819E+03  0.59899887314E+03 0.  0.
        2    1    3    3  502    0 -0.42428942235E+02  0.28231565534E+03 -0.26262559602E+03  0.38791048978E+03  0.25500000920E-02 0. -1.
       -2    1    3    3    0  502  0.42428942235E+02 -0.28231565534E+03 -0.57330836338E+02  0.29118579841E+03  0.25500000920E-02 0.  1.
</event>
<event>
 5   0  0.1166419E-01  0.5978394E+03  0.7818609E-02  0.9909899E-01
        2   -1    0    0  501    0  0.00000000000E+00  0.00000000000E+00  0.12830598208E+04  0.12830598209E+04  0.25500000920E-02 0. -1.
       -2   -1    0    0    0  501  0.00000000000E+00  0.00000000000E+00 -0.69640541347E+02  0.69640541393E+02  0.25500000920E-02 0.  1.
    10030    2    1    2    0    0  0.00000000000E+00  0.00000000000E+00  0.12134192795E+04  0.13527003622E+04  0.59783937822E+03 0.  0.
        1    1    3    3  502    0 -0.15879344667E+03 -0.25285146358E+03  0.57441163653E+03  0.64737774872E+03  0.50400001928E-02 0. -1.
       -1    1    3    3    0  502  0.15879344667E+03  0.25285146358E+03  0.63900764297E+03  0.70532261352E+03  0.50400001928E-02 0.  1.
</event>
<event>
 5   0  0.1166419E-01  0.6160703E+03  0.7818609E-02  0.9872615E-01
       -2   -1    0    0    0  501  0.00000000000E+00  0.00000000000E+00  0.85670165527E+03  0.85670165527E+03  0.25500000920E-02 0.  1.
        2   -1    0    0  501    0  0.00000000000E+00  0.00000000000E+00 -0.11075695544E+03  0.11075695547E+03  0.25500000920E-02 0. -1.
    10030    2    1    2    0    0  0.00000000000E+00  0.00000000000E+00  0.74594469983E+03  0.96745861074E+03  0.61607034362E+03 0.  0.
        1    1    3    3  502    0  0.20948089830E+03  0.99938151438E+02  0.54935376896E+02  0.23851158573E+03  0.50400001928E-02 0. -1.
       -1    1    3    3    0  502 -0.20948089830E+03 -0.99938151438E+02  0.69100932294E+03  0.72894702501E+03  0.50400001928E-02 0.  1.
</event>
<event>
 5   0  0.4695625E-02  0.4090501E+03  0.7818609E-02  0.1040690E+00
        3   -1    0    0  501    0  0.00000000000E+00  0.00000000000E+00  0.57116285977E+02  0.57116375277E+02  0.10100000352E+00 0.  1.
       -3   -1    0    0    0  501  0.00000000000E+00  0.00000000000E+00 -0.73237343455E+03  0.73237344151E+03  0.10100000352E+00 0. -1.
    10030    2    1    2    0    0  0.00000000000E+00  0.00000000000E+00 -0.67525714857E+03  0.78948981679E+03  0.40905006310E+03 0.  0.
        2    1    3    3  502    0  0.87669431360E+02  0.13230021423E+03 -0.58660747992E+03  0.60769861887E+03  0.25500000920E-02 0. -1.
       -2    1    3    3    0  502 -0.87669431360E+02 -0.13230021423E+03 -0.88649668656E+02  0.18179119792E+03  0.25500000920E-02 0.  1.
</event>
<event>
 5   0  0.7266519E-02  0.6055274E+03  0.7818609E-02  0.9894004E-01
       -1   -1    0    0    0  501  0.00000000000E+00  0.00000000000E+00  0.97901712600E+02  0.97901712729E+02  0.50400001928E-02 0.  1.
        1   -1    0    0  501    0  0.00000000000E+00  0.00000000000E+00 -0.93630497416E+03  0.93630497417E+03  0.50400001928E-02 0. -1.
    10030    2    1    2    0    0  0.00000000000E+00  0.00000000000E+00 -0.83840326156E+03  0.10342066869E+04  0.60552740833E+03 0.  0.
        4    1    3    3  502    0 -0.18190467323E+03 -0.15169365268E+03 -0.97110568804E+02  0.25599287076E+03  0.12699999809E+01 0.  1.
       -4    1    3    3    0  502  0.18190467323E+03  0.15169365268E+03 -0.74129269275E+03  0.77821381614E+03  0.12699999809E+01 0. -1.
</event>
<event>
 5   0  0.1206238E-01  0.5939793E+03  0.7818609E-02  0.9917976E-01
       -2   -1    0    0    0  501  0.00000000000E+00  0.00000000000E+00  0.59904495577E+03  0.59904495577E+03  0.25500000920E-02 0. -1.
        2   -1    0    0  501    0  0.00000000000E+00  0.00000000000E+00 -0.14723913110E+03  0.14723913113E+03  0.25500000920E-02 0.  1.
    10030    2    1    2    0    0  0.00000000000E+00  0.00000000000E+00  0.45180582466E+03  0.74628408690E+03  0.59397932216E+03 0.  0.
        5    1    3    3  502    0 -0.50902220098E+02 -0.25093871400E+02 -0.14031550746E+03  0.15143074333E+03  0.46999998093E+01 0.  1.
       -5    1    3    3    0  502  0.50902220098E+02  0.25093871400E+02  0.59212133213E+03  0.59485334357E+03  0.46999998093E+01 0. -1.
</event>
<event>
 5   0  0.7221069E-02  0.5915510E+03  0.7818609E-02  0.9923092E-01
       -1   -1    0    0    0  501  0.00000000000E+00  0.00000000000E+00  0.77779028199E+02  0.77779028362E+02  0.50400001928E-02 0.  1.
        1   -1    0    0  501    0  0.00000000000E+00  0.00000000000E+00 -0.11247652482E+04  0.11247652483E+04  0.50400001928E-02 0. -1.
    10030    2    1    2    0    0  0.00000000000E+00  0.00000000000E+00 -0.10469862200E+04  0.12025442766E+04  0.59155100563E+03 0.  0.
        5    1    3    3  502    0 -0.76977727891E+02 -0.15964017555E+03 -0.42212204928E+02  0.18224850200E+03  0.46999998093E+01 0.  1.
       -5    1    3    3    0  502  0.76977727891E+02  0.15964017555E+03 -0.10047740151E+04  0.10202957746E+04  0.46999998093E+01 0. -1.
</event>
<event>
 5   0  0.7123340E-02  0.6173234E+03  0.7818609E-02  0.9870103E-01
        1   -1    0    0  501    0  0.00000000000E+00  0.00000000000E+00  0.10129363588E+04  0.10129363588E+04  0.50400001928E-02 0. -1.
       -1   -1    0    0    0  501  0.00000000000E+00  0.00000000000E+00 -0.94055318805E+02  0.94055318940E+02  0.50400001928E-02 0.  1.
    10030    2    1    2    0    0  0.00000000000E+00  0.00000000000E+00  0.91888104000E+03  0.11069916778E+04  0.61732342330E+03 0.  0.
        2    1    3    3  502    0 -0.11245977558E+03 -0.13698240721E+03  0.62838888154E+01  0.17734392653E+03  0.25500000920E-02 0.  1.
       -2    1    3    3    0  502  0.11245977558E+03  0.13698240721E+03  0.91259715119E+03  0.92964775123E+03  0.25500000920E-02 0. -1.
</event>
<event>
 5   0  0.1206238E-01  0.6543998E+03  0.7818609E-02  0.9798558E-01
       -2   -1    0    0    0  501  0.00000000000E+00  0.00000000000E+00  0.87629723247E+02  0.87629723284E+02  0.25500000920E-02 0.  1.
        2   -1    0    0  501    0  0.00000000000E+00  0.00000000000E+00 -0.12217289156E+04  0.12217289156E+04  0.25500000920E-02 0. -1.
    10030    2    1    2    0    0  0.00000000000E+00  0.00000000000E+00 -0.11340991924E+04  0.13093586389E+04  0.65439977624E+03 0.  0.
        5    1    3    3  502    0  0.31299099322E+03 -0.15867811131E+02 -0.37911272747E+03  0.49189805793E+03  0.46999998093E+01 0.  1.
       -5    1    3    3    0  502 -0.31299099322E+03  0.15867811131E+02 -0.75498646491E+03  0.81746058099E+03  0.46999998093E+01 0. -1.
</event>
<event>
 5   0  0.1166419E-01  0.5926158E+03  0.7818609E-02  0.9920845E-01
        2   -1    0    0  501    0  0.00000000000E+00  0.00000000000E+00  0.53566864954E+03  0.53566864954E+03  0.25500000920E-02 0. -1.
       -2   -1    0    0    0  501  0.00000000000E+00  0.00000000000E+00 -0.16390428324E+03  0.16390428325E+03  0.25500000920E-02 0.  1.
    10030    2    1    2    0    0  0.00000000000E+00  0.00000000000E+00  0.37176436630E+03  0.69957293280E+03  0.59261584880E+03 0.  0.
        1    1    3    3  502    0 -0.80255408243E+02  0.71765628182E+01 -0.15072308335E+03  0.17090898597E+03  0.50400001928E-02 0.  1.
       -1    1    3    3    0  502  0.80255408243E+02 -0.71765628182E+01  0.52248744965E+03  0.52866394683E+03  0.50400001928E-02 0. -1.
</event>
<event>
 5   0  0.7123340E-02  0.6230837E+03  0.7818609E-02  0.9858639E-01
        1   -1    0    0  501    0  0.00000000000E+00  0.00000000000E+00  0.22449644575E+03  0.22449644581E+03  0.50400001928E-02 0.  1.
       -1   -1    0    0    0  501  0.00000000000E+00  0.00000000000E+00 -0.43233796182E+03  0.43233796185E+03  0.50400001928E-02 0. -1.
    10030    2    1    2    0    0  0.00000000000E+00  0.00000000000E+00 -0.20784151607E+03  0.65683440766E+03  0.62308373697E+03 0.  0.
        2    1    3    3  502    0  0.30447711958E+03  0.64842927396E+00 -0.34380881828E+02  0.30641276385E+03  0.25500000920E-02 0.  1.
       -2    1    3    3    0  502 -0.30447711958E+03 -0.64842927396E+00 -0.17346063424E+03  0.35042164381E+03  0.25500000920E-02 0. -1.
</event>
<event>
 5   0  0.7221069E-02  0.6017252E+03  0.7818609E-02  0.9901833E-01
        1   -1    0    0  501    0  0.00000000000E+00  0.00000000000E+00  0.20527097799E+04  0.20527097799E+04  0.50400001928E-02 0. -1.
       -1   -1    0    0    0  501  0.00000000000E+00  0.00000000000E+00 -0.44096975239E+02  0.44096975527E+02  0.50400001928E-02 0.  1.
    10030    2    1    2    0    0  0.00000000000E+00  0.00000000000E+00  0.20086128046E+04  0.20968067554E+04  0.60172516200E+03 0.  0.
        5    1    3    3  502    0 -0.18672564349E+03 -0.55726801106E+01  0.18264576386E+03  0.26130267077E+03  0.46999998093E+01 0.  1.
       -5    1    3    3    0  502  0.18672564349E+03  0.55726801106E+01  0.18259670408E+04  0.18355040846E+04  0.46999998093E+01 0. -1.
</event>
<event>
 5   0  0.7424930E-02  0.5858052E+03  0.7818609E-02  0.9935301E-01
       -1   -1    0    0    0  501  0.00000000000E+00  0.00000000000E+00  0.10250107636E+03  0.10250107648E+03  0.50400001928E-02 0.  1.
        1   -1    0    0  501    0  0.00000000000E+00  0.00000000000E+00 -0.83698554402E+03  0.83698554403E+03  0.50400001928E-02 0. -1.
    10030    2    1    2    0    0  0.00000000000E+00  0.00000000000E+00 -0.73448446766E+03  0.93948662052E+03  0.58580515268E+03 0.  0.
        3    1    3    3  502    0 -0.31734177362E+02 -0.16517168849E+01  0.99728384253E+02  0.10466874896E+03  0.10100000352E+00 0.  1.
       -3    1    3    3    0  502  0.31734177362E+02  0.16517168849E+01 -0.83421285191E+03  0.83481787156E+03  0.10100000352E+00 0. -1.
</event>
<event>
 5   0  0.7424930E-02  0.5837140E+03  0.7818609E-02  0.9939783E-01
        1   -1    0    0  501    0  0.00000000000E+00  0.00000000000E+00  0.41890298579E+03  0.41890298582E+03  0.50400001928E-02 0.  1.
       -1   -1    0    0    0  501  0.00000000000E+00  0.00000000000E+00 -0.20334183050E+03  0.20334183057E+03  0.50400001928E-02 0. -1.
    10030    2    1    2    0    0  0.00000000000E+00  0.00000000000E+00  0.21556115529E+03  0.62224481639E+03  0.58371397093E+03 0.  0.
        3    1    3    3  502    0 -0.16451090662E+03 -0.13583701308E+03  0.32008776389E+03  0.38467092341E+03  0.10100000352E+00 0.  1.
       -3    1    3    3    0  502  0.16451090662E+03  0.13583701308E+03 -0.10452660860E+03  0.23757389298E+03  0.10100000352E+00 0. -1.
</event>
<event>
 5   0  0.7221069E-02  0.5978508E+03  0.7818609E-02  0.9909875E-01
        1   -1    0    0  501    0  0.00000000000E+00  0.00000000000E+00  0.19804359156E+03  0.19804359162E+03  0.50400001928E-02 0. -1.
       -1   -1    0    0    0  501  0.00000000000E+00  0.00000000000E+00 -0.45119552400E+03  0.45119552403E+03  0.50400001928E-02 0.  1.
    10030    2    1    2    0    0  0.00000000000E+00  0.00000000000E+00 -0.25315193244E+03  0.64923911565E+03  0.59785075763E+03 0.  0.
        5    1    3    3  502    0 -0.10186403584E+03 -0.27770009902E+03 -0.17316667391E+03  0.34278625081E+03  0.46999998093E+01 0. -1.
       -5    1    3    3    0  502  0.10186403584E+03  0.27770009902E+03 -0.79985258532E+02  0.30645286485E+03  0.46999998093E+01 0.  1.
</event>
<event>
 5   0  0.7266519E-02  0.5871895E+03  0.7818609E-02  0.9932346E-01
       -1   -1    0    0    0  501  0.00000000000E+00  0.00000000000E+00  0.14526383757E+03  0.14526383765E+03  0.50400001928E-02 0.  1.
        1   -1    0    0  501    0  0.00000000000E+00  0.00000000000E+00 -0.59338846481E+03  0.59338846483E+03  0.50400001928E-02 0. -1.
    10030    2    1    2    0    0  0.00000000000E+00  0.00000000000E+00 -0.44812462724E+03  0.73865230248E+03  0.58718952854E+03 0.  0.
        4    1    3    3  502    0 -0.14104887852E+03  0.19293194249E+03 -0.95512794529E+01  0.23918687339E+03  0.12699999809E+01 0.  1.
       -4    1    3    3    0  502  0.14104887852E+03 -0.19293194249E+03 -0.43857334779E+03  0.49946542909E+03  0.12699999809E+01 0. -1.
</event>
<event>
 5   0  0.7424930E-02  0.6064910E+03  0.7818609E-02  0.9892030E-01
       -1   -1    0    0    0  501  0.00000000000E+00  0.00000000000E+00  0.10007511814E+03  0.10007511827E+03  0.50400001928E-02 0.  1.
        1   -1    0    0  501    0  0.00000000000E+00  0.00000000000E+00 -0.91888816645E+03  0.91888816646E+03  0.50400001928E-02 0. -1.
    10030    2    1    2    0    0  0.00000000000E+00  0.00000000000E+00 -0.81881304831E+03  0.10189632847E+04  0.60649102841E+03 0.  0.
        3    1    3    3  502    0  0.19792502670E+03 -0.19200004957E+03 -0.19742460572E+03  0.33913834990E+03  0.10100000352E+00 0.  1.
       -3    1    3    3    0  502 -0.19792502670E+03  0.19200004957E+03 -0.62138844259E+03  0.67982493483E+03  0.10100000352E+00 0. -1.
</event>
<event>
 5   0  0.1146468E-01  0.5949670E+03  0.7818609E-02  0.9915903E-01
        2   -1    0    0  501    0  0.00000000000E+00  0.00000000000E+00  0.71664610174E+03  0.71664610174E+03  0.25500000920E-02 0. -1.
       -2   -1    0    0    0  501  0.00000000000E+00  0.00000000000E+00 -0.12348694067E+03  0.12348694070E+03  0.25500000920E-02 0.  1.
    10030    2    1    2    0    0  0.00000000000E+00  0.00000000000E+00  0.59315916107E+03  0.84013304244E+03  0.59496700634E+03 0.  0.
        4    1    3    3  502    0  0.14626957250E+03 -0.23156945892E+03  0.13266048285E+03  0.30433471500E+03  0.12699999809E+01 0.  1.
       -4    1    3    3    0  502 -0.14626957250E+03  0.23156945892E+03  0.46049867822E+03  0.53579832744E+03  0.12699999809E+01 0. -1.
</event>
<event>
 5   0  0.7424930E-02  0.6187095E+03  0.7818609E-02  0.9867332E-01
        1   -1    0    0  501    0  0.00000000000E+00  0.00000000000E+00  0.25506885365E+04  0.25506885365E+04  0.50400001928E-02 0.  1.
       -1   -1    0    0    0  501  0.00000000000E+00  0.00000000000E+00 -0.37519423459E+02  0.37519423797E+02  0.50400001928E-02 0. -1.
    10030    2    1    2    0    0  0.00000000000E+00  0.00000000000E+00  0.25131691131E+04  0.25882079603E+04  0.61870950779E+03 0.  0.
        3    1    3    3  502    0 -0.97194472171E+02 -0.89762829174E+02  0.24263674494E+04  0.24299718395E+04  0.10100000352E+00 0.  1.
       -3    1    3    3    0  502  0.97194472171E+02  0.89762829174E+02  0.86801663634E+02  0.15823612082E+03  0.10100000352E+00 0. -1.
</event>
<event>
 5   0  0.1175861E-01  0.5576430E+03  0.7818609E-02  0.9997402E-01
        2   -1    0    0  501    0  0.00000000000E+00  0.00000000000E+00  0.93924008780E+03  0.93924008780E+03  0.25500000920E-02 0.  1.
       -2   -1    0    0    0  501  0.00000000000E+00  0.00000000000E+00 -0.82770561308E+02  0.82770561347E+02  0.25500000920E-02 0. -1.
    10030    2    1    2    0    0  0.00000000000E+00  0.00000000000E+00  0.85646952649E+03  0.10220106491E+04  0.55764300154E+03 0.  0.
        3    1    3    3  502    0  0.41140960338E+02  0.25149251800E+02  0.93154056409E+03  0.93278770159E+03  0.10100000352E+00 0.  1.
       -3    1    3    3    0  502 -0.41140960338E+02 -0.25149251800E+02 -0.75071037603E+02  0.89222947560E+02  0.10100000352E+00 0. -1.
</event>
<event>
 5   0  0.1175861E-01  0.6066978E+03  0.7818609E-02  0.9891607E-01
        2   -1    0    0  501    0  0.00000000000E+00  0.00000000000E+00  0.16049006288E+04  0.16049006288E+04  0.25500000920E-02 0. -1.
       -2   -1    0    0    0  501  0.00000000000E+00  0.00000000000E+00 -0.57337220660E+02  0.57337220716E+02  0.25500000920E-02 0.  1.
    10030    2    1    2    0    0  0.00000000000E+00  0.00000000000E+00  0.15475634082E+04  0.16622378495E+04  0.60669775520E+03 0.  0.
        3    1    3    3  502    0  0.25902101341E+03 -0.15640608846E+03  0.71465116047E+03  0.77606767827E+03  0.10100000352E+00 0. -1.
       -3    1    3    3    0  502 -0.25902101341E+03  0.15640608846E+03  0.83291224769E+03  0.88617017127E+03  0.10100000352E+00 0.  1.
</event>
<event>
 5   0  0.4695625E-02  0.6370221E+03  0.7818609E-02  0.9831441E-01
       -4   -1    0    0    0  501  0.00000000000E+00  0.00000000000E+00  0.20771146800E+03  0.20771535051E+03  0.12699999809E+01 0.  1.
        4   -1    0    0  501    0  0.00000000000E+00  0.00000000000E+00 -0.48840526808E+03  0.48840691927E+03  0.12699999809E+01 0. -1.
    10030    2    1    2    0    0  0.00000000000E+00  0.00000000000E+00 -0.28069380009E+03  0.69612226978E+03  0.63702213861E+03 0.  0.
        4    1    3    3  502    0  0.16955559049E+03  0.74012667262E+01 -0.43487742591E+03  0.46682316296E+03  0.12699999809E+01 0. -1.
       -4    1    3    3    0  502 -0.16955559049E+03 -0.74012667262E+01  0.15418362582E+03  0.22929910682E+03  0.12699999809E+01 0.  1.
</event>
<event>
 5   0  0.1206238E-01  0.4681740E+03  0.7818609E-02  0.1022437E+00
        2   -1    0    0  501    0  0.00000000000E+00  0.00000000000E+00  0.11272960268E+03  0.11272960271E+03  0.25500000920E-02 0. -1.
       -2   -1    0    0    0  501  0.00000000000E+00  0.00000000000E+00 -0.48608982416E+03  0.48608982417E+03  0.25500000920E-02 0.  1.
    10030    2    1    2    0    0  0.00000000000E+00  0.00000000000E+00 -0.37336022149E+03  0.59881942688E+03  0.46817395380E+03 0.  0.
        5    1    3    3  502    0  0.34167540120E+02 -0.27368788296E+02 -0.48074597780E+03  0.48275796890E+03  0.46999998093E+01 0.  1.
       -5    1    3    3    0  502 -0.34167540120E+02  0.27368788296E+02  0.10738575631E+03  0.11606145798E+03  0.46999998093E+01 0. -1.
</event>
<event>
 5   0  0.7221069E-02  0.6006034E+03  0.7818609E-02  0.9904155E-01
        1   -1    0    0  501    0  0.00000000000E+00  0.00000000000E+00  0.13927028344E+04  0.13927028344E+04  0.50400001928E-02 0.  1.
       -1   -1    0    0    0  501  0.00000000000E+00  0.00000000000E+00 -0.64752577999E+02  0.64752578195E+02  0.50400001928E-02 0. -1.
    10030    2    1    2    0    0  0.00000000000E+00  0.00000000000E+00  0.13279502564E+04  0.14574554126E+04  0.60060336018E+03 0.  0.
        5    1    3    3  502    0 -0.27696058576E+03  0.79183596787E+02  0.86962299247E+03  0.91610231257E+03  0.46999998093E+01 0.  1.
       -5    1    3    3    0  502  0.27696058576E+03 -0.79183596787E+02  0.45832726396E+03  0.54135310006E+03  0.46999998093E+01 0. -1.
</event>
<event>
 5   0  0.7123340E-02  0.5863783E+03  0.7818609E-02  0.9934077E-01
       -1   -1    0    0    0  501  0.00000000000E+00  0.00000000000E+00  0.13313833571E+03  0.13313833581E+03  0.50400001928E-02 0.  1.
        1   -1    0    0  501    0  0.00000000000E+00  0.00000000000E+00 -0.64564325244E+03  0.64564325246E+03  0.50400001928E-02 0. -1.
    10030    2    1    2    0    0  0.00000000000E+00  0.00000000000E+00 -0.51250491672E+03  0.77878158826E+03  0.58637826747E+03 0.  0.
        2    1    3    3  502    0  0.15749602542E+03 -0.47433550288E+02  0.66087114292E+02  0.17726377633E+03  0.25500000920E-02 0.  1.
       -2    1    3    3    0  502 -0.15749602542E+03  0.47433550288E+02 -0.57859203101E+03  0.60151781194E+03  0.25500000920E-02 0. -1.
</event>
<event>
 5   0  0.1206238E-01  0.6070892E+03  0.7818609E-02  0.9890806E-01
       -2   -1    0    0    0  501  0.00000000000E+00  0.00000000000E+00  0.17710249554E+03  0.17710249556E+03  0.25500000920E-02 0. -1.
        2   -1    0    0  501    0  0.00000000000E+00  0.00000000000E+00 -0.52025984937E+03  0.52025984938E+03  0.25500000920E-02 0.  1.
    10030    2    1    2    0    0  0.00000000000E+00  0.00000000000E+00 -0.34315735384E+03  0.69736234494E+03  0.60708917849E+03 0.  0.
        5    1    3    3  502    0 -0.25382223822E+02  0.58913603777E+02 -0.51234185660E+03  0.51636357154E+03  0.46999998093E+01 0.  1.
       -5    1    3    3    0  502  0.25382223822E+02 -0.58913603777E+02  0.16918450276E+03  0.18099877339E+03  0.46999998093E+01 0. -1.
</event>
<event>
 5   0  0.1166419E-01  0.5946664E+03  0.7818609E-02  0.9916534E-01
       -2   -1    0    0    0  501  0.00000000000E+00  0.00000000000E+00  0.80800335018E+02  0.80800335059E+02  0.25500000920E-02 0. -1.
        2   -1    0    0  501    0  0.00000000000E+00  0.00000000000E+00 -0.10941420145E+04  0.10941420145E+04  0.25500000920E-02 0.  1.
    10030    2    1    2    0    0  0.00000000000E+00  0.00000000000E+00 -0.10133416794E+04  0.11749423495E+04  0.59466643205E+03 0.  0.
        1    1    3    3  502    0  0.88962424101E+02 -0.27704983027E+02 -0.10645509010E+04  0.10686208400E+04  0.50400001928E-02 0.  1.
       -1    1    3    3    0  502 -0.88962424101E+02  0.27704983027E+02  0.51209221519E+02  0.10632150949E+03  0.50400001928E-02 0. -1.
</event>
<event>
 5   0  0.7123340E-02  0.5982609E+03  0.7818609E-02  0.9909021E-01
       -1   -1    0    0    0  501  0.00000000000E+00  0.00000000000E+00  0.41370907767E+02  0.41370908074E+02  0.50400001928E-02 0.  1.
        1   -1    0    0  501    0  0.00000000000E+00  0.00000000000E+00 -0.21628492094E+04  0.21628492094E+04  0.50400001928E-02 0. -1.
    10030    2    1    2    0    0  0.00000000000E+00  0.00000000000E+00 -0.21214783016E+04  0.22042201175E+04  0.59826093137E+03 0.  0.
        2    1    3    3  502    0 -0.25282486379E+03 -0.12946727814E+03 -0.14063026428E+04  0.14347018195E+04  0.25500000920E-02 0. -1.
       -2    1    3    3    0  502  0.25282486379E+03  0.12946727814E+03 -0.71517565883E+03  0.76951829793E+03  0.25500000920E-02 0.  1.
</event>
<event>
 5   0  0.1166419E-01  0.5909899E+03  0.7818609E-02  0.9924277E-01
        2   -1    0    0  501    0  0.00000000000E+00  0.00000000000E+00  0.25438280216E+03  0.25438280217E+03  0.25500000920E-02 0.  1.
       -2   -1    0    0    0  501  0.00000000000E+00  0.00000000000E+00 -0.34325146932E+03  0.34325146933E+03  0.25500000920E-02 0. -1.
    10030    2    1    2    0    0  0.00000000000E+00  0.00000000000E+00 -0.88868667158E+02  0.59763427150E+03  0.59098991740E+03 0.  0.
        1    1    3    3  502    0  0.16520799112E+03  0.11435713794E+03 -0.26354064259E+03  0.33139840924E+03  0.50400001928E-02 0. -1.
       -1    1    3    3    0  502 -0.16520799112E+03 -0.11435713794E+03  0.17467197543E+03  0.26623586226E+03  0.50400001928E-02 0.  1.
</event>
<event>
 5   0  0.7266519E-02  0.5848901E+03  0.7818609E-02  0.9937260E-01
        1   -1    0    0  501    0  0.00000000000E+00  0.00000000000E+00  0.18782472267E+04  0.18782472267E+04  0.50400001928E-02 0. -1.
       -1   -1    0    0    0  501  0.00000000000E+00  0.00000000000E+00 -0.45533994415E+02  0.45533994694E+02  0.50400001928E-02 0.  1.
    10030    2    1    2    0    0  0.00000000000E+00  0.00000000000E+00  0.18327132322E+04  0.19237812214E+04  0.58489007174E+03 0.  0.
        4    1    3    3  502    0 -0.97259866484E+00  0.21725720929E+03  0.27248545860E+03  0.34849903727E+03  0.12699999809E+01 0.  1.
       -4    1    3    3    0  502  0.97259866484E+00 -0.21725720929E+03  0.15602277736E+04  0.15752821841E+04  0.12699999809E+01 0. -1.
</event>
<event>
 5   0  0.4695625E-02  0.6103424E+03  0.7818609E-02  0.9884178E-01
        3   -1    0    0  501    0  0.00000000000E+00  0.00000000000E+00  0.11268725733E+03  0.11268730260E+03  0.10100000352E+00 0.  1.
       -3   -1    0    0    0  501  0.00000000000E+00  0.00000000000E+00 -0.82644151716E+03  0.82644152334E+03  0.10100000352E+00 0. -1.
    10030    2    1    2    0    0  0.00000000000E+00  0.00000000000E+00 -0.71375425983E+03  0.93912882593E+03  0.61034236971E+03 0.  0.
        1    1    3    3  502    0  0.13598196833E+03  0.20425905930E+03 -0.77713336850E+02  0.25739506943E+03  0.50400001928E-02 0.  1.
       -1    1    3    3    0  502 -0.13598196833E+03 -0.20425905930E+03 -0.63604092298E+03  0.68173375650E+03  0.50400001928E-02 0. -1.
</event>
<event>
 5   0  0.1175861E-01  0.6011693E+03  0.7818609E-02  0.9902983E-01
       -2   -1    0    0    0  501  0.00000000000E+00  0.00000000000E+00  0.19598177046E+03  0.19598177048E+03  0.25500000920E-02 0. -1.
        2   -1    0    0  501    0  0.00000000000E+00  0.00000000000E+00 -0.46101798203E+03  0.46101798204E+03  0.25500000920E-02 0.  1.
    10030    2    1    2    0    0  0.00000000000E+00  0.00000000000E+00 -0.26503621157E+03  0.65699975251E+03  0.60116926182E+03 0.  0.
        3    1    3    3  502    0  0.20843307047E+03 -0.11818496300E+03  0.65828224784E+02  0.24848620832E+03  0.10100000352E+00 0. -1.
       -3    1    3    3    0  502 -0.20843307047E+03  0.11818496300E+03 -0.33086443635E+03  0.40851354419E+03  0.10100000352E+00 0.  1.
</event>
<event>
 5   0  0.7266519E-02  0.6170085E+03  0.7818609E-02  0.9870734E-01
       -1   -1    0    0    0  501  0.00000000000E+00  0.00000000000E+00  0.80265185021E+02  0.80265185179E+02  0.50400001928E-02 0.  1.
        1   -1    0    0  501    0  0.00000000000E+00  0.00000000000E+00 -0.11857554509E+04  0.11857554510E+04  0.50400001928E-02 0. -1.
    10030    2    1    2    0    0  0.00000000000E+00  0.00000000000E+00 -0.11054902659E+04  0.12660206361E+04  0.61700852755E+03 0.  0.
        4    1    3    3  502    0  0.16650512249E+03  0.11791376811E+03 -0.77944009949E+02  0.21841358500E+03  0.12699999809E+01 0.  1.
       -4    1    3    3    0  502 -0.16650512249E+03 -0.11791376811E+03 -0.10275462560E+04  0.10476070511E+04  0.12699999809E+01 0. -1.
</event>
<event>
 5   0  0.1175861E-01  0.6070246E+03  0.7818609E-02  0.9890938E-01
       -2   -1    0    0    0  501  0.00000000000E+00  0.00000000000E+00  0.66288746800E+02  0.66288746849E+02  0.25500000920E-02 0. -1.
        2   -1    0    0  501    0  0.00000000000E+00  0.00000000000E+00 -0.13896735723E+04  0.13896735723E+04  0.25500000920E-02 0.  1.
    10030    2    1    2    0    0  0.00000000000E+00  0.00000000000E+00 -0.13233848255E+04  0.14559623191E+04  0.60702461104E+03 0.  0.
        3    1    3    3  502    0 -0.19062628161E+03  0.64298898599E+02 -0.11660480400E+03  0.23252831681E+03  0.10100000352E+00 0. -1.
       -3    1    3    3    0  502  0.19062628161E+03 -0.64298898599E+02 -0.12067800215E+04  0.12234340023E+04  0.10100000352E+00 0.  1.
</event>
<event>
 5   0  0.1146468E-01  0.5968757E+03  0.7818609E-02  0.9911909E-01
        2   -1    0    0  501    0  0.00000000000E+00  0.00000000000E+00  0.14323821822E+04  0.14323821822E+04  0.25500000920E-02 0. -1.
       -2   -1    0    0    0  501  0.00000000000E+00  0.00000000000E+00 -0.62179730357E+02  0.62179730409E+02  0.25500000920E-02 0.  1.
    10030    2    1    2    0    0  0.00000000000E+00  0.00000000000E+00  0.13702024519E+04  0.14945619126E+04  0.59687565841E+03 0.  0.
        4    1    3    3  502    0 -0.11048197555E+03 -0.16753434089E+03  0.13201449654E+03  0.24021545016E+03  0.12699999809E+01 0.  1.
       -4    1    3    3    0  502  0.11048197555E+03  0.16753434089E+03  0.12381879553E+04  0.12543464625E+04  0.12699999809E+01 0. -1.
</event>
<event>
 5   0  0.1219020E-01  0.5759413E+03  0.7818609E-02  0.9956617E-01
       -2   -1    0    0    0  501  0.00000000000E+00  0.00000000000E+00  0.77892996875E+03  0.77892996875E+03  0.25500000920E-02 0.  1.
        2   -1    0    0  501    0  0.00000000000E+00  0.00000000000E+00 -0.10646283359E+03  0.10646283362E+03  0.25500000920E-02 0. -1.
    10030    2    1    2    0    0  0.00000000000E+00  0.00000000000E+00  0.67246713516E+03  0.88539280238E+03  0.57594128749E+03 0.  0.
        2    1    3    3  502    0 -0.15950552647E+03 -0.10267152372E+03  0.66931171520E+03  0.69567350594E+03  0.25500000920E-02 0.  1.
       -2    1    3    3    0  502  0.15950552647E+03  0.10267152372E+03  0.31554199591E+01  0.18971929644E+03  0.25500000920E-02 0. -1.
</event>
<event>
 5   0  0.1219020E-01  0.5818906E+03  0.7818609E-02  0.9943706E-01
       -2   -1    0    0    0  501  0.00000000000E+00  0.00000000000E+00  0.71316000689E+02  0.71316000734E+02  0.25500000920E-02 0. -1.
        2   -1    0    0  501    0  0.00000000000E+00  0.00000000000E+00 -0.11869588674E+04  0.11869588674E+04  0.25500000920E-02 0.  1.
    10030    2    1    2    0    0  0.00000000000E+00  0.00000000000E+00 -0.11156428667E+04  0.12582748682E+04  0.58189057197E+03 0.  0.
        2    1    3    3  502    0  0.20647537958E+02 -0.19629343987E+03 -0.95596919347E+02  0.21930847306E+03  0.25500000920E-02 0. -1.
       -2    1    3    3    0  502 -0.20647537958E+02  0.19629343987E+03 -0.10200459474E+04  0.10389663951E+04  0.25500000920E-02 0.  1.
</event>
<event>
 5   0  0.7123340E-02  0.5987395E+03  0.7818609E-02  0.9908025E-01
       -1   -1    0    0    0  501  0.00000000000E+00  0.00000000000E+00  0.35195327133E+03  0.35195327137E+03  0.50400001928E-02 0.  1.
        1   -1    0    0  501    0  0.00000000000E+00  0.00000000000E+00 -0.25464247140E+03  0.25464247145E+03  0.50400001928E-02 0. -1.
    10030    2    1    2    0    0  0.00000000000E+00  0.00000000000E+00  0.97310799935E+02  0.60659574281E+03  0.59873951216E+03 0.  0.
        2    1    3    3  502    0  0.10555607725E+03  0.27596984510E+03 -0.15150093299E+00  0.29546821117E+03  0.25500000920E-02 0.  1.
       -2    1    3    3    0  502 -0.10555607725E+03 -0.27596984510E+03  0.97462300868E+02  0.31112753165E+03  0.25500000920E-02 0. -1.
</event>
<event>
 5   0  0.1219020E-01  0.5965259E+03  0.7818609E-02  0.9912640E-01
       -2   -1    0    0    0  501  0.00000000000E+00  0.00000000000E+00  0.43830129644E+02  0.43830129718E+02  0.25500000920E-02 0.  1.
        2   -1    0    0  501    0  0.00000000000E+00  0.00000000000E+00 -0.20296721763E+04  0.20296721763E+04  0.25500000920E-02 0. -1.
    10030    2    1    2    0    0  0.00000000000E+00  0.00000000000E+00 -0.19858420467E+04  0.20735023061E+04  0.59652592467E+03 0.  0.
        2    1    3    3  502    0 -0.22736486238E+03  0.18751727493E+03 -0.11523342418E+04  0.11894249509E+04  0.25500000920E-02 0.  1.
       -2    1    3    3    0  502  0.22736486238E+03 -0.18751727493E+03 -0.83350780489E+03  0.88407735514E+03  0.25500000920E-02 0. -1.
</event>
<event>
 5   0  0.1206238E-01  0.6037401E+03  0.7818609E-02  0.9897677E-01
        2   -1    0    0  501    0  0.00000000000E+00  0.00000000000E+00  0.12721918282E+04  0.12721918282E+04  0.25500000920E-02 0.  1.
       -2   -1    0    0    0  501  0.00000000000E+00  0.00000000000E+00 -0.71628770828E+02  0.71628770873E+02  0.25500000920E-02 0. -1.
    10030    2    1    2    0    0  0.00000000000E+00  0.00000000000E+00  0.12005630573E+04  0.13438205990E+04  0.60374013264E+03 0.  0.
        5    1    3    3  502    0  0.34404909021E+02 -0.28760813582E+03  0.78916631671E+03  0.84065908844E+03  0.46999998093E+01 0.  1.
       -5    1    3    3    0  502 -0.34404909021E+02  0.28760813582E+03  0.41139674063E+03  0.50316151060E+03  0.46999998093E+01 0. -1.
</event>
<event>
 5   0  0.1206238E-01  0.5976081E+03  0.7818609E-02  0.9910381E-01
        2   -1    0    0  501    0  0.00000000000E+00  0.00000000000E+00  0.20626307461E+04  0.20626307461E+04  0.25500000920E-02 0.  1.
       -2   -1    0    0    0  501  0.00000000000E+00  0.00000000000E+00 -0.43286402164E+02  0.43286402239E+02  0.25500000920E-02 0. -1.
    10030    2    1    2    0    0  0.00000000000E+00  0.00000000000E+00  0.20193443440E+04  0.21059171484E+04  0.59760811264E+03 0.  0.
        5    1    3    3  502    0  0.23261930787E+03  0.23398263254E+02  0.16651814870E+04  0.16815203525E+04  0.46999998093E+01 0.  1.
       -5    1    3    3    0  502 -0.23261930787E+03 -0.23398263254E+02  0.35416285693E+03  0.42439679587E+03  0.46999998093E+01 0. -1.
</event>
<event>
 5   0  0.1175861E-01  0.6045099E+03  0.7818609E-02  0.9896093E-01
        2   -1    0    0  501    0  0.00000000000E+00  0.00000000000E+00  0.56368261902E+03  0.56368261902E+03  0.25500000920E-02 0. -1.
       -2   -1    0    0    0  501  0.00000000000E+00  0.00000000000E+00 -0.16207359190E+03  0.16207359192E+03  0.25500000920E-02 0.  1.
    10030    2    1    2    0    0  0.00000000000E+00  0.00000000000E+00  0.40160902711E+03  0.72575621094E+03  0.60450993959E+03 0.  0.
        3    1    3    3  502    0  0.18985893343E+03 -0.23442426187E+03  0.17812336229E+03  0.35032712078E+03  0.10100000352E+00 0.  1.
       -3    1    3    3    0  502 -0.18985893343E+03  0.23442426187E+03  0.22348566483E+03  0.37542909016E+03  0.10100000352E+00 0. -1.
</event>
<event>
 5   0  0.7221069E-02  0.6007942E+03  0.7818609E-02  0.9903760E-01
       -1   -1    0    0    0  501  0.00000000000E+00  0.00000000000E+00  0.35712900266E+03  0.35712900270E+03  0.50400001928E-02 0.  1.
        1   -1    0    0  501    0  0.00000000000E+00  0.00000000000E+00 -0.25267733764E+03  0.25267733769E+03  0.50400001928E-02 0. -1.
    10030    2    1    2    0    0  0.00000000000E+00  0.00000000000E+00  0.10445166502E+03  0.60980634038E+03  0.60079415980E+03 0.  0.
        5    1    3    3  502    0  0.22320835215E+03 -0.15949739323E+03  0.17635058817E+03  0.32616407967E+03  0.46999998093E+01 0.  1.
       -5    1    3    3    0  502 -0.22320835215E+03  0.15949739323E+03 -0.71898923152E+02  0.28364226072E+03  0.46999998093E+01 0. -1.
</event>
<event>
 5   0  0.7263385E-02  0.6020453E+03  0.7818609E-02  0.9901172E-01
       -1   -1    0    0    0  501  0.00000000000E+00  0.00000000000E+00  0.27870721874E+03  0.27870721878E+03  0.50400001928E-02 0. -1.
        1   -1    0    0  501    0  0.00000000000E+00  0.00000000000E+00 -0.32512482590E+03  0.32512482594E+03  0.50400001928E-02 0.  1.
    10030    2    1    2    0    0  0.00000000000E+00  0.00000000000E+00 -0.46417607162E+02  0.60383204472E+03  0.60204530060E+03 0.  0.
        1    1    3    3  502    0 -0.97652210694E+02  0.17490308102E+03  0.20215248816E+03  0.28459211251E+03  0.50400001928E-02 0. -1.
       -1    1    3    3    0  502  0.97652210694E+02 -0.17490308102E+03 -0.24857009533E+03  0.31923993221E+03  0.50400001928E-02 0.  1.
</event>
<event>
 5   0  0.1175861E-01  0.5932911E+03  0.7818609E-02  0.9919424E-01
        2   -1    0    0  501    0  0.00000000000E+00  0.00000000000E+00  0.33170301543E+03  0.33170301544E+03  0.25500000920E-02 0. -1.
       -2   -1    0    0    0  501  0.00000000000E+00  0.00000000000E+00 -0.26529325469E+03  0.26529325470E+03  0.25500000920E-02 0.  1.
    10030    2    1    2    0    0  0.00000000000E+00  0.00000000000E+00  0.66409760746E+02  0.59699627014E+03  0.59329106705E+03 0.  0.
        3    1    3    3  502    0 -0.77062316153E+02  0.16239387198E+03 -0.20425233357E+03  0.27208343610E+03  0.10100000352E+00 0.  1.
       -3    1    3    3    0  502  0.77062316153E+02 -0.16239387198E+03  0.27066209431E+03  0.32491283405E+03  0.10100000352E+00 0. -1.
</event>
<event>
 5   0  0.4695625E-02  0.6081014E+03  0.7818609E-02  0.9888739E-01
        4   -1    0    0  501    0  0.00000000000E+00  0.00000000000E+00  0.12203960392E+04  0.12203967000E+04  0.12699999809E+01 0.  1.
       -4   -1    0    0    0  501  0.00000000000E+00  0.00000000000E+00 -0.75745482893E+02  0.75756128984E+02  0.12699999809E+01 0. -1.
    10030    2    1    2    0    0  0.00000000000E+00  0.00000000000E+00  0.11446505563E+04  0.12961528290E+04  0.60810135672E+03 0.  0.
        3    1    3    3  502    0 -0.11540194699E+03  0.20912818552E+03  0.97332930006E+03  0.10022086329E+04  0.10100000352E+00 0.  1.
       -3    1    3    3    0  502  0.11540194699E+03 -0.20912818552E+03  0.17132125621E+03  0.29394419603E+03  0.10100000352E+00 0. -1.
</event>
<event>
 5   0  0.1146468E-01  0.6035112E+03  0.7818609E-02  0.9898148E-01
        2   -1    0    0  501    0  0.00000000000E+00  0.00000000000E+00  0.10747171389E+04  0.10747171389E+04  0.25500000920E-02 0.  1.
       -2   -1    0    0    0  501  0.00000000000E+00  0.00000000000E+00 -0.84725951221E+02  0.84725951259E+02  0.25500000920E-02 0. -1.
    10030    2    1    2    0    0  0.00000000000E+00  0.00000000000E+00  0.98999118764E+03  0.11594430901E+04  0.60351116612E+03 0.  0.
        4    1    3    3  502    0 -0.22672624545E+03  0.13787685054E+02  0.11336579959E+03  0.25386671316E+03  0.12699999809E+01 0. -1.
       -4    1    3    3    0  502  0.22672624545E+03 -0.13787685054E+02  0.87662538805E+03  0.90557637696E+03  0.12699999809E+01 0.  1.
</event>
<event>
 5   0  0.4695625E-02  0.5994298E+03  0.7818609E-02  0.9906590E-01
       -3   -1    0    0    0  501  0.00000000000E+00  0.00000000000E+00  0.17664066272E+03  0.17664069159E+03  0.10100000352E+00 0.  1.
        3   -1    0    0  501    0  0.00000000000E+00  0.00000000000E+00 -0.50854089363E+03  0.50854090366E+03  0.10100000352E+00 0. -1.
    10030    2    1    2    0    0  0.00000000000E+00  0.00000000000E+00 -0.33190023091E+03  0.68518159525E+03  0.59942977503E+03 0.  0.
        4    1    3    3  502    0  0.10523375374E+02 -0.15907562402E+03 -0.45605125772E+03  0.48311505685E+03  0.12699999809E+01 0. -1.
       -4    1    3    3    0  502 -0.10523375374E+02  0.15907562402E+03  0.12415102681E+03  0.20206653840E+03  0.12699999809E+01 0.  1.
</event>
<event>
 5   0  0.7266519E-02  0.7021528E+03  0.7818609E-02  0.9713558E-01
        1   -1    0    0  501    0  0.00000000000E+00  0.00000000000E+00  0.70307793974E+03  0.70307793976E+03  0.50400001928E-02 0. -1.
       -1   -1    0    0    0  501  0.00000000000E+00  0.00000000000E+00 -0.17530720525E+03  0.17530720533E+03  0.50400001928E-02 0.  1.
    10030    2    1    2    0    0  0.00000000000E+00  0.00000000000E+00  0.52777073449E+03  0.87838514509E+03  0.70215277179E+03 0.  0.
        4    1    3    3  502    0  0.92050385404E+01 -0.34615097389E+03  0.33626764350E+03  0.48268288806E+03  0.12699999809E+01 0.  1.
       -4    1    3    3    0  502 -0.92050385404E+01  0.34615097389E+03  0.19150309099E+03  0.39570225703E+03  0.12699999809E+01 0. -1.
</event>
<event>
 5   0  0.1146468E-01  0.6075490E+03  0.7818609E-02  0.9889867E-01
       -2   -1    0    0    0  501  0.00000000000E+00  0.00000000000E+00  0.16315390571E+03  0.16315390573E+03  0.25500000920E-02 0.  1.
        2   -1    0    0  501    0  0.00000000000E+00  0.00000000000E+00 -0.56559444770E+03  0.56559444770E+03  0.25500000920E-02 0. -1.
    10030    2    1    2    0    0  0.00000000000E+00  0.00000000000E+00 -0.40244054199E+03  0.72874835343E+03  0.60754898798E+03 0.  0.
        4    1    3    3  502    0 -0.13810205168E+03  0.90801967520E+02  0.10449688821E+03  0.19554637948E+03  0.12699999809E+01 0.  1.
       -4    1    3    3    0  502  0.13810205168E+03 -0.90801967520E+02 -0.50693743020E+03  0.53320197395E+03  0.12699999809E+01 0. -1.
</event>
<event>
 5   0  0.1166419E-01  0.5965461E+03  0.7818609E-02  0.9912598E-01
        2   -1    0    0  501    0  0.00000000000E+00  0.00000000000E+00  0.13930645762E+03  0.13930645764E+03  0.25500000920E-02 0. -1.
       -2   -1    0    0    0  501  0.00000000000E+00  0.00000000000E+00 -0.63864089688E+03  0.63864089688E+03  0.25500000920E-02 0.  1.
    10030    2    1    2    0    0  0.00000000000E+00  0.00000000000E+00 -0.49933443926E+03  0.77794735452E+03  0.59654606208E+03 0.  0.
        1    1    3    3  502    0 -0.14098805542E+03 -0.10177833111E+03 -0.56570389518E+03  0.59182544513E+03  0.50400001928E-02 0.  1.
       -1    1    3    3    0  502  0.14098805542E+03  0.10177833111E+03  0.66369455919E+02  0.18612190940E+03  0.50400001928E-02 0. -1.
</event>
<event>
 5   0  0.1219020E-01  0.5902037E+03  0.7818609E-02  0.9925941E-01
        2   -1    0    0  501    0  0.00000000000E+00  0.00000000000E+00  0.10970302940E+04  0.10970302940E+04  0.25500000920E-02 0.  1.
       -2   -1    0    0    0  501  0.00000000000E+00  0.00000000000E+00 -0.79382582275E+02  0.79382582316E+02  0.25500000920E-02 0. -1.
    10030    2    1    2    0    0  0.00000000000E+00  0.00000000000E+00  0.10176477117E+04  0.11764128763E+04  0.59020368550E+03 0.  0.
        2    1    3    3  502    0 -0.22621324293E+03  0.15443451606E+03  0.28990702433E+03  0.39883396770E+03  0.25500000920E-02 0. -1.
       -2    1    3    3    0  502  0.22621324293E+03 -0.15443451606E+03  0.72774068738E+03  0.77757890860E+03  0.25500000920E-02 0.  1.
</event>
<event>
 5   0  0.7424930E-02  0.5815617E+03  0.7818609E-02  0.9944416E-01
        1   -1    0    0  501    0  0.00000000000E+00  0.00000000000E+00  0.47669419339E+03  0.47669419342E+03  0.50400001928E-02 0.  1.
       -1   -1    0    0    0  501  0.00000000000E+00  0.00000000000E+00 -0.17737470459E+03  0.17737470466E+03  0.50400001928E-02 0. -1.
    10030    2    1    2    0    0  0.00000000000E+00  0.00000000000E+00  0.29931948881E+03  0.65406889808E+03  0.58156166230E+03 0.  0.
        3    1    3    3  502    0 -0.59801724588E+02 -0.25505442036E+03  0.29158521111E+03  0.39198335315E+03  0.10100000352E+00 0. -1.
       -3    1    3    3    0  502  0.59801724588E+02  0.25505442036E+03  0.77342776995E+01  0.26208554493E+03  0.10100000352E+00 0.  1.
</event>
<event>
 5   0  0.4695625E-02  0.5801307E+03  0.7818609E-02  0.9947508E-01
       -3   -1    0    0    0  501  0.00000000000E+00  0.00000000000E+00  0.92118639674E+02  0.92118695043E+02  0.10100000352E+00 0. -1.
        3   -1    0    0  501    0  0.00000000000E+00  0.00000000000E+00 -0.91336418248E+03  0.91336418806E+03  0.10100000352E+00 0.  1.
    10030    2    1    2    0    0  0.00000000000E+00  0.00000000000E+00 -0.82124554281E+03  0.10054828831E+04  0.58013066342E+03 0.  0.
        4    1    3    3  502    0 -0.12264327452E+03  0.24032852119E+03 -0.22607870077E+03  0.35201187867E+03  0.12699999809E+01 0. -1.
       -4    1    3    3    0  502  0.12264327452E+03 -0.24032852119E+03 -0.59516684203E+03  0.65347100444E+03  0.12699999809E+01 0.  1.
</event>
<event>
 5   0  0.7266519E-02  0.5954410E+03  0.7818609E-02  0.9914910E-01
       -1   -1    0    0    0  501  0.00000000000E+00  0.00000000000E+00  0.12469489482E+03  0.12469489493E+03  0.50400001928E-02 0.  1.
        1   -1    0    0  501    0  0.00000000000E+00  0.00000000000E+00 -0.71083495370E+03  0.71083495372E+03  0.50400001928E-02 0. -1.
    10030    2    1    2    0    0  0.00000000000E+00  0.00000000000E+00 -0.58614005888E+03  0.83552984865E+03  0.59544097890E+03 0.  0.
        4    1    3    3  502    0  0.14509189166E+03 -0.13428319017E+03 -0.60542967110E+03  0.63689114591E+03  0.12699999809E+01 0. -1.
       -4    1    3    3    0  502 -0.14509189166E+03  0.13428319017E+03  0.19289612222E+02  0.19863870274E+03  0.12699999809E+01 0.  1.
</event>
<event>
 5   0  0.7123340E-02  0.5921406E+03  0.7818609E-02  0.9921847E-01
        1   -1    0    0  501    0  0.00000000000E+00  0.00000000000E+00  0.12306201561E+04  0.12306201561E+04  0.50400001928E-02 0.  1.
       -1   -1    0    0    0  501  0.00000000000E+00  0.00000000000E+00 -0.71230449807E+02  0.71230449985E+02  0.50400001928E-02 0. -1.
    10030    2    1    2    0    0  0.00000000000E+00  0.00000000000E+00  0.11593897063E+04  0.13018506061E+04  0.59214061634E+03 0.  0.
        2    1    3    3  502    0 -0.50722820818E+02 -0.34558267291E+02 -0.57090134767E+02  0.83823396997E+02  0.25500000920E-02 0. -1.
       -2    1    3    3    0  502  0.50722820818E+02  0.34558267291E+02  0.12164798410E+04  0.12180272091E+04  0.25500000920E-02 0.  1.
</event>
<event>
 5   0  0.1219020E-01  0.5989172E+03  0.7818609E-02  0.9907655E-01
       -2   -1    0    0    0  501  0.00000000000E+00  0.00000000000E+00  0.10105987580E+03  0.10105987583E+03  0.25500000920E-02 0.  1.
        2   -1    0    0  501    0  0.00000000000E+00  0.00000000000E+00 -0.88734984846E+03  0.88734984847E+03  0.25500000920E-02 0. -1.
    10030    2    1    2    0    0  0.00000000000E+00  0.00000000000E+00 -0.78628997266E+03  0.98840972430E+03  0.59891724135E+03 0.  0.
        2    1    3    3  502    0 -0.26783553056E+03 -0.13146531762E+03 -0.35086101609E+03  0.46056753444E+03  0.25500000920E-02 0.  1.
       -2    1    3    3    0  502  0.26783553056E+03  0.13146531762E+03 -0.43542895657E+03  0.52784218986E+03  0.25500000920E-02 0. -1.
</event>
<event>
 5   0  0.1206238E-01  0.6228788E+03  0.7818609E-02  0.9859045E-01
       -2   -1    0    0    0  501  0.00000000000E+00  0.00000000000E+00  0.80128281042E+02  0.80128281083E+02  0.25500000920E-02 0.  1.
        2   -1    0    0  501    0  0.00000000000E+00  0.00000000000E+00 -0.12104903579E+04  0.12104903579E+04  0.25500000920E-02 0. -1.
    10030    2    1    2    0    0  0.00000000000E+00  0.00000000000E+00 -0.11303620768E+04  0.12906186390E+04  0.62287883773E+03 0.  0.
        5    1    3    3  502    0  0.69699616784E+02 -0.17928105782E+03 -0.57756913103E+02  0.20089222305E+03  0.46999998093E+01 0.  1.
       -5    1    3    3    0  502 -0.69699616784E+02  0.17928105782E+03 -0.10726051637E+04  0.10897264159E+04  0.46999998093E+01 0. -1.
</event>
<event>
 5   0  0.7263385E-02  0.6009551E+03  0.7818609E-02  0.9903426E-01
        1   -1    0    0  501    0  0.00000000000E+00  0.00000000000E+00  0.10693284344E+04  0.10693284344E+04  0.50400001928E-02 0.  1.
       -1   -1    0    0    0  501  0.00000000000E+00  0.00000000000E+00 -0.84433151858E+02  0.84433152008E+02  0.50400001928E-02 0. -1.
    10030    2    1    2    0    0  0.00000000000E+00  0.00000000000E+00  0.98489528258E+03  0.11537615865E+04  0.60095514037E+03 0.  0.
        1    1    3    3  502    0 -0.16964351166E+03 -0.18434666851E+03  0.17393181383E+03  0.30498342762E+03  0.50400001928E-02 0. -1.
       -1    1    3    3    0  502  0.16964351166E+03  0.18434666851E+03  0.81096346875E+03  0.84877815883E+03  0.50400001928E-02 0.  1.
</event>
<event>
 5   0  0.1166419E-01  0.6044750E+03  0.7818609E-02  0.9896165E-01
       -2   -1    0    0    0  501  0.00000000000E+00  0.00000000000E+00  0.87540646256E+02  0.87540646293E+02  0.25500000920E-02 0. -1.
        2   -1    0    0  501    0  0.00000000000E+00  0.00000000000E+00 -0.10434868524E+04  0.10434868524E+04  0.25500000920E-02 0.  1.
    10030    2    1    2    0    0  0.00000000000E+00  0.00000000000E+00 -0.95594620612E+03  0.11310274987E+04  0.60447502327E+03 0.  0.
        1    1    3    3  502    0 -0.73913205448E+02  0.41654619105E+01 -0.10262601038E+04  0.10289267776E+04  0.50400001928E-02 0.  1.
       -1    1    3    3    0  502  0.73913205448E+02 -0.41654619105E+01  0.70313897668E+02  0.10210072107E+03  0.50400001928E-02 0. -1.
</event>
<event>
 5   0  0.7266519E-02  0.5970164E+03  0.7818609E-02  0.9911615E-01
        1   -1    0    0  501    0  0.00000000000E+00  0.00000000000E+00  0.28959697661E+03  0.28959697665E+03  0.50400001928E-02 0. -1.
       -1   -1    0    0    0  501  0.00000000000E+00  0.00000000000E+00 -0.30769364171E+03  0.30769364175E+03  0.50400001928E-02 0.  1.
    10030    2    1    2    0    0  0.00000000000E+00  0.00000000000E+00 -0.18096665099E+02  0.59729061840E+03  0.59701640977E+03 0.  0.
        4    1    3    3  502    0 -0.60382594593E+02  0.19195800691E+03 -0.22962998647E+03  0.30532847514E+03  0.12699999809E+01 0.  1.
       -4    1    3    3    0  502  0.60382594593E+02 -0.19195800691E+03  0.21153332137E+03  0.29196214326E+03  0.12699999809E+01 0. -1.
</event>
<event>
 5   0  0.1206238E-01  0.6047834E+03  0.7818609E-02  0.9895532E-01
       -2   -1    0    0    0  501  0.00000000000E+00  0.00000000000E+00  0.12666515825E+04  0.12666515825E+04  0.25500000920E-02 0.  1.
        2   -1    0    0  501    0  0.00000000000E+00  0.00000000000E+00 -0.72190906192E+02  0.72190906237E+02  0.25500000920E-02 0. -1.
    10030    2    1    2    0    0  0.00000000000E+00  0.00000000000E+00  0.11944606763E+04  0.13388424887E+04  0.60478335163E+03 0.  0.
        5    1    3    3  502    0 -0.22549695862E+02  0.16100810267E+03  0.32889656078E+02  0.16593949917E+03  0.46999998093E+01 0. -1.
       -5    1    3    3    0  502  0.22549695862E+02 -0.16100810267E+03  0.11615710202E+04  0.11729029896E+04  0.46999998093E+01 0.  1.
</event>
<event>
 5   0  0.1166419E-01  0.5938679E+03  0.7818609E-02  0.9918211E-01
       -2   -1    0    0    0  501  0.00000000000E+00  0.00000000000E+00  0.22232059687E+03  0.22232059689E+03  0.25500000920E-02 0.  1.
        2   -1    0    0  501    0  0.00000000000E+00  0.00000000000E+00 -0.39658838871E+03  0.39658838871E+03  0.25500000920E-02 0. -1.
    10030    2    1    2    0    0  0.00000000000E+00  0.00000000000E+00 -0.17426779183E+03  0.61890898560E+03  0.59386788866E+03 0.  0.
        1    1    3    3  502    0  0.25706382515E+03  0.44088408664E+02 -0.23504869446E+03  0.35110324233E+03  0.50400001928E-02 0. -1.
       -1    1    3    3    0  502 -0.25706382515E+03 -0.44088408664E+02  0.60780902621E+02  0.26780574327E+03  0.50400001928E-02 0.  1.
</event>
<event>
 5   0  0.1206238E-01  0.6106618E+03  0.7818609E-02  0.9883530E-01
       -2   -1    0    0    0  501  0.00000000000E+00  0.00000000000E+00  0.12290026420E+03  0.12290026422E+03  0.25500000920E-02 0. -1.
        2   -1    0    0  501    0  0.00000000000E+00  0.00000000000E+00 -0.75855795289E+03  0.75855795289E+03  0.25500000920E-02 0.  1.
    10030    2    1    2    0    0  0.00000000000E+00  0.00000000000E+00 -0.63565768869E+03  0.88145821711E+03  0.61066184695E+03 0.  0.
        5    1    3    3  502    0 -0.24088876381E+03  0.17021252020E+03 -0.20412417874E+03  0.35873175063E+03  0.46999998093E+01 0.  1.
       -5    1    3    3    0  502  0.24088876381E+03 -0.17021252020E+03 -0.43153350995E+03  0.52272646649E+03  0.46999998093E+01 0. -1.
</event>
<event>
 5   0  0.1206238E-01  0.6139199E+03  0.7818609E-02  0.9876940E-01
        2   -1    0    0  501    0  0.00000000000E+00  0.00000000000E+00  0.15795510353E+04  0.15795510353E+04  0.25500000920E-02 0. -1.
       -2   -1    0    0    0  501  0.00000000000E+00  0.00000000000E+00 -0.59652648645E+02  0.59652648700E+02  0.25500000920E-02 0.  1.
    10030    2    1    2    0    0  0.00000000000E+00  0.00000000000E+00  0.15198983867E+04  0.16392036840E+04  0.61391987416E+03 0.  0.
        5    1    3    3  502    0 -0.21695092566E+03  0.39661487447E+02  0.13298779809E+04  0.13480498031E+04  0.46999998093E+01 0. -1.
       -5    1    3    3    0  502  0.21695092566E+03 -0.39661487447E+02  0.19002040580E+03  0.29115388088E+03  0.46999998093E+01 0.  1.
</event>
<event>
 5   0  0.4695625E-02  0.5935771E+03  0.7818609E-02  0.9918822E-01
       -4   -1    0    0    0  501  0.00000000000E+00  0.00000000000E+00  0.26249776437E+03  0.26250083657E+03  0.12699999809E+01 0.  1.
        4   -1    0    0  501    0  0.00000000000E+00  0.00000000000E+00 -0.33555258250E+03  0.33555498584E+03  0.12699999809E+01 0. -1.
    10030    2    1    2    0    0  0.00000000000E+00  0.00000000000E+00 -0.73054818122E+02  0.59805582241E+03  0.59357708873E+03 0.  0.
        4    1    3    3  502    0 -0.21041857965E+03 -0.13820431737E+03 -0.19489294383E+03  0.31837287016E+03  0.12699999809E+01 0. -1.
       -4    1    3    3    0  502  0.21041857965E+03  0.13820431737E+03  0.12183812571E+03  0.27968295225E+03  0.12699999809E+01 0.  1.
</event>
<event>
 5   0  0.1166419E-01  0.4264453E+03  0.7818609E-02  0.1034989E+00
        2   -1    0    0  501    0  0.00000000000E+00  0.00000000000E+00  0.70990282174E+03  0.70990282175E+03  0.25500000920E-02 0.  1.
       -2   -1    0    0    0  501  0.00000000000E+00  0.00000000000E+00 -0.64042430029E+02  0.64042430080E+02  0.25500000920E-02 0. -1.
    10030    2    1    2    0    0  0.00000000000E+00  0.00000000000E+00  0.64586039171E+03  0.77394525183E+03  0.42644531565E+03 0.  0.
        1    1    3    3  502    0  0.57969025857E+02  0.93036402424E+02 -0.89873128840E+01  0.10998614437E+03  0.50400001928E-02 0. -1.
       -1    1    3    3    0  502 -0.57969025857E+02 -0.93036402424E+02  0.65484770460E+03  0.66395910746E+03  0.50400001928E-02 0.  1.
</event>
<event>
 5   0  0.7123340E-02  0.6161989E+03  0.7818609E-02  0.9872357E-01
        1   -1    0    0  501    0  0.00000000000E+00  0.00000000000E+00  0.41698336291E+03  0.41698336294E+03  0.50400001928E-02 0.  1.
       -1   -1    0    0    0  501  0.00000000000E+00  0.00000000000E+00 -0.22764758882E+03  0.22764758888E+03  0.50400001928E-02 0. -1.
    10030    2    1    2    0    0  0.00000000000E+00  0.00000000000E+00  0.18933577409E+03  0.64463095182E+03  0.61619885483E+03 0.  0.
        2    1    3    3  502    0  0.20861538425E+03  0.83607872352E+02  0.31513974207E+03  0.38707068076E+03  0.25500000920E-02 0.  1.
       -2    1    3    3    0  502 -0.20861538425E+03 -0.83607872352E+02 -0.12580396798E+03  0.25756027107E+03  0.25500000920E-02 0. -1.
</event>
<event>
 5   0  0.1146468E-01  0.5893948E+03  0.7818609E-02  0.9927656E-01
       -2   -1    0    0    0  501  0.00000000000E+00  0.00000000000E+00  0.54179943188E+02  0.54179943248E+02  0.25500000920E-02 0.  1.
        2   -1    0    0  501    0  0.00000000000E+00  0.00000000000E+00 -0.16029283636E+04  0.16029283636E+04  0.25500000920E-02 0. -1.
    10030    2    1    2    0    0  0.00000000000E+00  0.00000000000E+00 -0.15487484205E+04  0.16571083069E+04  0.58939483448E+03 0.  0.
        4    1    3    3  502    0 -0.94349470154E+02  0.25728531338E+03 -0.46964404703E+03  0.54375058511E+03  0.12699999809E+01 0.  1.
       -4    1    3    3    0  502  0.94349470154E+02 -0.25728531338E+03 -0.10791043734E+04  0.11133577218E+04  0.12699999809E+01 0. -1.
</event>
<event>
 5   0  0.7424930E-02  0.6026135E+03  0.7818609E-02  0.9899999E-01
        1   -1    0    0  501    0  0.00000000000E+00  0.00000000000E+00  0.89097278614E+03  0.89097278615E+03  0.50400001928E-02 0. -1.
       -1   -1    0    0    0  501  0.00000000000E+00  0.00000000000E+00 -0.10189508279E+03  0.10189508292E+03  0.50400001928E-02 0.  1.
    10030    2    1    2    0    0  0.00000000000E+00  0.00000000000E+00  0.78907770334E+03  0.99286786907E+03  0.60261346112E+03 0.  0.
        3    1    3    3  502    0  0.11409733272E+03 -0.66219960737E+01 -0.64795911843E+02  0.13137949824E+03  0.10100000352E+00 0.  1.
       -3    1    3    3    0  502 -0.11409733272E+03  0.66219960737E+01  0.85387361519E+03  0.86148837083E+03  0.10100000352E+00 0. -1.
</event>
<event>
 5   0  0.1175861E-01  0.5995738E+03  0.7818609E-02  0.9906291E-01
       -2   -1    0    0    0  501  0.00000000000E+00  0.00000000000E+00  0.52229196941E+02  0.52229197003E+02  0.25500000920E-02 0.  1.
        2   -1    0    0  501    0  0.00000000000E+00  0.00000000000E+00 -0.17207271187E+04  0.17207271187E+04  0.25500000920E-02 0. -1.
    10030    2    1    2    0    0  0.00000000000E+00  0.00000000000E+00 -0.16684979217E+04  0.17729563157E+04  0.59957383405E+03 0.  0.
        3    1    3    3  502    0  0.22878471000E+03 -0.17621025821E+03 -0.59621859164E+03  0.66247197514E+03  0.10100000352E+00 0.  1.
       -3    1    3    3    0  502 -0.22878471000E+03  0.17621025821E+03 -0.10722793301E+04  0.11104843405E+04  0.10100000352E+00 0. -1.
</event>
<event>
 5   0  0.7266519E-02  0.5872354E+03  0.7818609E-02  0.9932248E-01
       -1   -1    0    0    0  501  0.00000000000E+00  0.00000000000E+00  0.24239891582E+03  0.24239891587E+03  0.50400001928E-02 0. -1.
        1   -1    0    0  501    0  0.00000000000E+00  0.00000000000E+00 -0.35565896111E+03  0.35565896115E+03  0.50400001928E-02 0.  1.
    10030    2    1    2    0    0  0.00000000000E+00  0.00000000000E+00 -0.11326004529E+03  0.59805787702E+03  0.58723537564E+03 0.  0.
        4    1    3    3  502    0  0.27938902157E+03  0.31890314011E+02  0.29392716858E+02  0.28273797446E+03  0.12699999809E+01 0. -1.
       -4    1    3    3    0  502 -0.27938902157E+03 -0.31890314011E+02 -0.14265276215E+03  0.31531990256E+03  0.12699999809E+01 0.  1.
</event>
<event>
 5   0  0.1166419E-01  0.5740810E+03  0.7818609E-02  0.9960688E-01
       -2   -1    0    0    0  501  0.00000000000E+00  0.00000000000E+00  0.36248095728E+03  0.36248095729E+03  0.25500000920E-02 0. -1.
        2   -1    0    0  501    0  0.00000000000E+00  0.00000000000E+00 -0.22730089782E+03  0.22730089783E+03  0.25500000920E-02 0.  1.
    10030    2    1    2    0    0  0.00000000000E+00  0.00000000000E+00  0.13518005946E+03  0.58978185512E+03  0.57408099442E+03 0.  0.
        1    1    3    3  502    0 -0.30461984981E+02 -0.14063925291E+03  0.32274716836E+03  0.35337383420E+03  0.50400001928E-02 0. -1.
       -1    1    3    3    0  502  0.30461984981E+02  0.14063925291E+03 -0.18756710890E+03  0.23640802092E+03  0.50400001928E-02 0.  1.
</event>
<event>
 5   0  0.7221069E-02  0.5907042E+03  0.7818609E-02  0.9924882E-01
       -1   -1    0    0    0  501  0.00000000000E+00  0.00000000000E+00  0.20181478310E+03  0.20181478316E+03  0.50400001928E-02 0. -1.
        1   -1    0    0  501    0  0.00000000000E+00  0.00000000000E+00 -0.43224213196E+03  0.43224213199E+03  0.50400001928E-02 0.  1.
    10030    2    1    2    0    0  0.00000000000E+00  0.00000000000E+00 -0.23042734886E+03  0.63405691515E+03  0.59070416331E+03 0.  0.
        5    1    3    3  502    0 -0.17199816515E+03 -0.61401463441E+01  0.14237726874E+03  0.22341541322E+03  0.46999998093E+01 0. -1.
       -5    1    3    3    0  502  0.17199816515E+03  0.61401463441E+01 -0.37280461760E+03  0.41064150194E+03  0.46999998093E+01 0.  1.
</event>
<event>
 5   0  0.7266519E-02  0.4773033E+03  0.7818609E-02  0.1019879E+00
       -1   -1    0    0    0  501  0.00000000000E+00  0.00000000000E+00  0.81197065458E+02  0.81197065614E+02  0.50400001928E-02 0.  1.
        1   -1    0    0  501    0  0.00000000000E+00  0.00000000000E+00 -0.70143693318E+03  0.70143693320E+03  0.50400001928E-02 0. -1.
    10030    2    1    2    0    0  0.00000000000E+00  0.00000000000E+00 -0.62023986773E+03  0.78263399882E+03  0.47730334441E+03 0.  0.
        4    1    3    3  502    0 -0.78460391640E+02  0.52342367161E+01 -0.67957872713E+03  0.68411423721E+03  0.12699999809E+01 0. -1.
       -4    1    3    3    0  502  0.78460391640E+02 -0.52342367161E+01  0.59338859406E+02  0.98519761601E+02  0.12699999809E+01 0.  1.
</event>
<event>
 5   0  0.1175861E-01  0.6367755E+03  0.7818609E-02  0.9831915E-01
       -2   -1    0    0    0  501  0.00000000000E+00  0.00000000000E+00  0.19215216758E+03  0.19215216760E+03  0.25500000920E-02 0.  1.
        2   -1    0    0  501    0  0.00000000000E+00  0.00000000000E+00 -0.52755454314E+03  0.52755454314E+03  0.25500000920E-02 0. -1.
    10030    2    1    2    0    0  0.00000000000E+00  0.00000000000E+00 -0.33540237555E+03  0.71970671074E+03  0.63677546746E+03 0.  0.
        3    1    3    3  502    0  0.20205240456E+03 -0.89100934320E+02 -0.42693359740E+03  0.48066251931E+03  0.10100000352E+00 0. -1.
       -3    1    3    3    0  502 -0.20205240456E+03  0.89100934320E+02  0.91531221846E+02  0.23904419143E+03  0.10100000352E+00 0.  1.
</event>
<event>
 5   0  0.7221069E-02  0.6035770E+03  0.7818609E-02  0.9898013E-01
        1   -1    0    0  501    0  0.00000000000E+00  0.00000000000E+00  0.36367398202E+03  0.36367398206E+03  0.50400001928E-02 0. -1.
       -1   -1    0    0    0  501  0.00000000000E+00  0.00000000000E+00 -0.25043393701E+03  0.25043393706E+03  0.50400001928E-02 0.  1.
    10030    2    1    2    0    0  0.00000000000E+00  0.00000000000E+00  0.11324004501E+03  0.61410791911E+03  0.60357702783E+03 0.  0.
        5    1    3    3  502    0  0.23889471636E+03  0.16724825144E+03  0.13550701014E+03  0.32160053314E+03  0.46999998093E+01 0. -1.
       -5    1    3    3    0  502 -0.23889471636E+03 -0.16724825144E+03 -0.22266965130E+02  0.29250738598E+03  0.46999998093E+01 0.  1.
</event>
<event>
 5   0  0.7424930E-02  0.5327085E+03  0.7818609E-02  0.1005577E+00
        1   -1    0    0  501    0  0.00000000000E+00  0.00000000000E+00  0.46954150060E+03  0.46954150063E+03  0.50400001928E-02 0. -1.
       -1   -1    0    0    0  501  0.00000000000E+00  0.00000000000E+00 -0.15109330103E+03  0.15109330111E+03  0.50400001928E-02 0.  1.
    10030    2    1    2    0    0  0.00000000000E+00  0.00000000000E+00  0.31844819957E+03  0.62063480174E+03  0.53270845809E+03 0.  0.
        3    1    3    3  502    0  0.22647324297E+03 -0.12261689983E+03  0.23840956741E+03  0.35094752590E+03  0.10100000352E+00 0. -1.
       -3    1    3    3    0  502 -0.22647324297E+03  0.12261689983E+03  0.80038632168E+02  0.26968727583E+03  0.10100000352E+00 0.  1.
</event>
<event>
 5   0  0.7123340E-02  0.5934305E+03  0.7818609E-02  0.9919130E-01
       -1   -1    0    0    0  501  0.00000000000E+00  0.00000000000E+00  0.11803432185E+03  0.11803432196E+03  0.50400001928E-02 0.  1.
        1   -1    0    0  501    0  0.00000000000E+00  0.00000000000E+00 -0.74588431554E+03  0.74588431555E+03  0.50400001928E-02 0. -1.
    10030    2    1    2    0    0  0.00000000000E+00  0.00000000000E+00 -0.62784999368E+03  0.86391863751E+03  0.59343053315E+03 0.  0.
        2    1    3    3  502    0 -0.27855883055E+03  0.46496436532E+02 -0.18143075180E+03  0.33566956727E+03  0.25500000920E-02 0. -1.
       -2    1    3    3    0  502  0.27855883055E+03 -0.46496436532E+02 -0.44641924188E+03  0.52824907024E+03  0.25500000920E-02 0.  1.
</event>
<event>
 5   0  0.1219020E-01  0.6062369E+03  0.7818609E-02  0.9892550E-01
       -2   -1    0    0    0  501  0.00000000000E+00  0.00000000000E+00  0.10868380012E+03  0.10868380015E+03  0.25500000920E-02 0. -1.
        2   -1    0    0  501    0  0.00000000000E+00  0.00000000000E+00 -0.84539558160E+03  0.84539558160E+03  0.25500000920E-02 0.  1.
    10030    2    1    2    0    0  0.00000000000E+00  0.00000000000E+00 -0.73671178148E+03  0.95407938176E+03  0.60623693200E+03 0.  0.
        2    1    3    3  502    0 -0.86456783714E+02 -0.78653993016E+02  0.71793247368E+02  0.13716959008E+03  0.25500000920E-02 0. -1.
       -2    1    3    3    0  502  0.86456783714E+02  0.78653993016E+02 -0.80850502885E+03  0.81690979168E+03  0.25500000920E-02 0.  1.
</event>
<event>
 5   0  0.7123340E-02  0.6025920E+03  0.7818609E-02  0.9900043E-01
       -1   -1    0    0    0  501  0.00000000000E+00  0.00000000000E+00  0.23336538707E+03  0.23336538712E+03  0.50400001928E-02 0. -1.
        1   -1    0    0  501    0  0.00000000000E+00  0.00000000000E+00 -0.38900055296E+03  0.38900055299E+03  0.50400001928E-02 0.  1.
    10030    2    1    2    0    0  0.00000000000E+00  0.00000000000E+00 -0.15563516589E+03  0.62236594011E+03  0.60259195029E+03 0.  0.
        2    1    3    3  502    0 -0.10323811710E+03  0.25119224727E+03  0.56938485309E+02  0.27748449512E+03  0.25500000920E-02 0. -1.
       -2    1    3    3    0  502  0.10323811710E+03 -0.25119224727E+03 -0.21257365120E+03  0.34488144500E+03  0.25500000920E-02 0.  1.
</event>
<event>
 5   0  0.7123340E-02  0.5934497E+03  0.7818609E-02  0.9919090E-01
       -1   -1    0    0    0  501  0.00000000000E+00  0.00000000000E+00  0.23585480635E+03  0.23585480640E+03  0.50400001928E-02 0. -1.
        1   -1    0    0  501    0  0.00000000000E+00  0.00000000000E+00 -0.37330437958E+03  0.37330437961E+03  0.50400001928E-02 0.  1.
    10030    2    1    2    0    0  0.00000000000E+00  0.00000000000E+00 -0.13744957323E+03  0.60915918602E+03  0.59344968509E+03 0.  0.
        2    1    3    3  502    0  0.46626914851E+01  0.27657630127E+03  0.41492831338E+02  0.27971028972E+03  0.25500000920E-02 0. -1.
       -2    1    3    3    0  502 -0.46626914851E+01 -0.27657630127E+03 -0.17894240456E+03  0.32944889630E+03  0.25500000920E-02 0.  1.
</event>
<event>
 5   0  0.7424930E-02  0.5768355E+03  0.7818609E-02  0.9954666E-01
        1   -1    0    0  501    0  0.00000000000E+00  0.00000000000E+00  0.62182405600E+03  0.62182405602E+03  0.50400001928E-02 0.  1.
       -1   -1    0    0    0  501  0.00000000000E+00  0.00000000000E+00 -0.13377547254E+03  0.13377547263E+03  0.50400001928E-02 0. -1.
    10030    2    1    2    0    0  0.00000000000E+00  0.00000000000E+00  0.48804858346E+03  0.75559952865E+03  0.57683552932E+03 0.  0.
        3    1    3    3  502    0  0.19011912229E+03 -0.97689617205E+02 -0.96249812954E+01  0.21396540009E+03  0.10100000352E+00 0. -1.
       -3    1    3    3    0  502 -0.19011912229E+03  0.97689617205E+02  0.49767356475E+03  0.54163412856E+03  0.10100000352E+00 0.  1.
</event>
<event>
 5   0  0.1166419E-01  0.4821851E+03  0.7818609E-02  0.1018536E+00
       -2   -1    0    0    0  501  0.00000000000E+00  0.00000000000E+00  0.21105241337E+03  0.21105241338E+03  0.25500000920E-02 0. -1.
        2   -1    0    0  501    0  0.00000000000E+00  0.00000000000E+00 -0.27540846961E+03  0.27540846962E+03  0.25500000920E-02 0.  1.
    10030    2    1    2    0    0  0.00000000000E+00  0.00000000000E+00 -0.64356056236E+02  0.48646088300E+03  0.48218511872E+03 0.  0.
        1    1    3    3  502    0 -0.23294917591E+03 -0.59794496475E+02 -0.49207334227E+02  0.24548332353E+03  0.50400001928E-02 0.  1.
       -1    1    3    3    0  502  0.23294917591E+03  0.59794496475E+02 -0.15148722009E+02  0.24097755947E+03  0.50400001928E-02 0. -1.
</event>
<event>
 5   0  0.4695625E-02  0.6173812E+03  0.7818609E-02  0.9869988E-01
       -3   -1    0    0    0  501  0.00000000000E+00  0.00000000000E+00  0.73622161286E+03  0.73622161979E+03  0.10100000352E+00 0.  1.
        3   -1    0    0  501    0  0.00000000000E+00  0.00000000000E+00 -0.12943096582E+03  0.12943100523E+03  0.10100000352E+00 0. -1.
    10030    2    1    2    0    0  0.00000000000E+00  0.00000000000E+00  0.60679064704E+03  0.86565262502E+03  0.61738122571E+03 0.  0.
        3    1    3    3  502    0  0.16648479479E+03 -0.21579345571E+03  0.10017801702E+03  0.29037845602E+03  0.10100000352E+00 0.  1.
       -3    1    3    3    0  502 -0.16648479479E+03  0.21579345571E+03  0.50661263002E+03  0.57527416900E+03  0.10100000352E+00 0. -1.
</event>
<event>
 5   0  0.1146468E-01  0.6076490E+03  0.7818609E-02  0.9889663E-01
        2   -1    0    0  501    0  0.00000000000E+00  0.00000000000E+00  0.13514841294E+04  0.13514841294E+04  0.25500000920E-02 0.  1.
       -2   -1    0    0    0  501  0.00000000000E+00  0.00000000000E+00 -0.68302181236E+02  0.68302181283E+02  0.25500000920E-02 0. -1.
    10030    2    1    2    0    0  0.00000000000E+00  0.00000000000E+00  0.12831819482E+04  0.14197863107E+04  0.60764895781E+03 0.  0.
        4    1    3    3  502    0  0.16804822588E+03  0.25287982635E+03  0.66711029584E+03  0.73295714234E+03  0.12699999809E+01 0.  1.
       -4    1    3    3    0  502 -0.16804822588E+03 -0.25287982635E+03  0.61607165237E+03  0.68682916839E+03  0.12699999809E+01 0. -1.
</event>
<event>
 5   0  0.7263385E-02  0.5899403E+03  0.7818609E-02  0.9926499E-01
       -1   -1    0    0    0  501  0.00000000000E+00  0.00000000000E+00  0.55128459599E+03  0.55128459602E+03  0.50400001928E-02 0. -1.
        1   -1    0    0  501    0  0.00000000000E+00  0.00000000000E+00 -0.15782660725E+03  0.15782660734E+03  0.50400001928E-02 0.  1.
    10030    2    1    2    0    0  0.00000000000E+00  0.00000000000E+00  0.39345798874E+03  0.70911120335E+03  0.58994025953E+03 0.  0.
        1    1    3    3  502    0  0.13453823985E+03 -0.25037484760E+03  0.10193600986E+03  0.30195869324E+03  0.50400001928E-02 0.  1.
       -1    1    3    3    0  502 -0.13453823985E+03  0.25037484760E+03  0.29152197888E+03  0.40715251011E+03  0.50400001928E-02 0. -1.
</event>
<event>
 5   0  0.1166419E-01  0.6014776E+03  0.7818609E-02  0.9902345E-01
        2   -1    0    0  501    0  0.00000000000E+00  0.00000000000E+00  0.26014293569E+03  0.26014293570E+03  0.25500000920E-02 0.  1.
       -2   -1    0    0    0  501  0.00000000000E+00  0.00000000000E+00 -0.34766973998E+03  0.34766973999E+03  0.25500000920E-02 0. -1.
    10030    2    1    2    0    0  0.00000000000E+00  0.00000000000E+00 -0.87526804290E+02  0.60781267569E+03  0.60147760329E+03 0.  0.
        1    1    3    3  502    0  0.14667066225E+03 -0.15809846588E+03  0.16805447907E+03  0.27340394299E+03  0.50400001928E-02 0.  1.
       -1    1    3    3    0  502 -0.14667066225E+03  0.15809846588E+03 -0.25558128336E+03  0.33440873271E+03  0.50400001928E-02 0. -1.
</event>
<event>
 5   0  0.4695625E-02  0.6141695E+03  0.7818609E-02  0.9876437E-01
       -3   -1    0    0    0  501  0.00000000000E+00  0.00000000000E+00  0.84152484334E+03  0.84152484940E+03  0.10100000352E+00 0. -1.
        3   -1    0    0  501    0  0.00000000000E+00  0.00000000000E+00 -0.11205968368E+03  0.11205972919E+03  0.10100000352E+00 0.  1.
    10030    2    1    2    0    0  0.00000000000E+00  0.00000000000E+00  0.72946515967E+03  0.95358457860E+03  0.61416946308E+03 0.  0.
        5    1    3    3  502    0 -0.13086127030E+03  0.11574473031E+01  0.79600055854E+03  0.80670006256E+03  0.46999998093E+01 0. -1.
       -5    1    3    3    0  502  0.13086127030E+03 -0.11574473031E+01 -0.66535398873E+02  0.14688451603E+03  0.46999998093E+01 0.  1.
</event>
<event>
 5   0  0.1146468E-01  0.6108531E+03  0.7818609E-02  0.9883142E-01
       -2   -1    0    0    0  501  0.00000000000E+00  0.00000000000E+00  0.10727443032E+03  0.10727443035E+03  0.25500000920E-02 0.  1.
        2   -1    0    0  501    0  0.00000000000E+00  0.00000000000E+00 -0.86959558904E+03  0.86959558904E+03  0.25500000920E-02 0. -1.
    10030    2    1    2    0    0  0.00000000000E+00  0.00000000000E+00 -0.76232115872E+03  0.97687001940E+03  0.61085308035E+03 0.  0.
        4    1    3    3  502    0 -0.12136056628E+03 -0.24236161081E+03 -0.60627868861E+03  0.66411068249E+03  0.12699999809E+01 0. -1.
       -4    1    3    3    0  502  0.12136056628E+03  0.24236161081E+03 -0.15604247011E+03  0.31275933690E+03  0.12699999809E+01 0.  1.
</event>
<event>
 5   0  0.1206238E-01  0.5874785E+03  0.7818609E-02  0.9931730E-01
        2   -1    0    0  501    0  0.00000000000E+00  0.00000000000E+00  0.10776696983E+04  0.10776696983E+04  0.25500000920E-02 0.  1.
       -2   -1    0    0    0  501  0.00000000000E+00  0.00000000000E+00 -0.80064178015E+02  0.80064178055E+02  0.25500000920E-02 0. -1.
    10030    2    1    2    0    0  0.00000000000E+00  0.00000000000E+00  0.99760552030E+03  0.11577338764E+04  0.58747847141E+03 0.  0.
        5    1    3    3  502    0 -0.95640061962E+02 -0.23606368475E+02 -0.46462013796E+02  0.10901876356E+03  0.46999998093E+01 0. -1.
       -5    1    3    3    0  502  0.95640061962E+02  0.23606368475E+02  0.10440675341E+04  0.10487151128E+04  0.46999998093E+01 0.  1.
</event>
<event>
 5   0  0.1166419E-01  0.5892189E+03  0.7818609E-02  0.9928029E-01
       -2   -1    0    0    0  501  0.00000000000E+00  0.00000000000E+00  0.12542833900E+03  0.12542833902E+03  0.25500000920E-02 0.  1.
        2   -1    0    0  501    0  0.00000000000E+00  0.00000000000E+00 -0.69198659787E+03  0.69198659788E+03  0.25500000920E-02 0. -1.
    10030    2    1    2    0    0  0.00000000000E+00  0.00000000000E+00 -0.56655825887E+03  0.81741493690E+03  0.58921890530E+03 0.  0.
        1    1    3    3  502    0 -0.98068719347E+00 -0.26165863371E+03 -0.47109387274E+03  0.53888369738E+03  0.50400001928E-02 0.  1.
       -1    1    3    3    0  502  0.98068719347E+00  0.26165863371E+03 -0.95464386134E+02  0.27853123952E+03  0.50400001928E-02 0. -1.
</event>
<event>
 5   0  0.1206238E-01  0.4336592E+03  0.7818609E-02  0.1032710E+00
        2   -1    0    0  501    0  0.00000000000E+00  0.00000000000E+00  0.45764137158E+03  0.45764137159E+03  0.25500000920E-02 0. -1.
       -2   -1    0    0    0  501  0.00000000000E+00  0.00000000000E+00 -0.10273346351E+03  0.10273346354E+03  0.25500000920E-02 0.  1.
    10030    2    1    2    0    0  0.00000000000E+00  0.00000000000E+00  0.35490790807E+03  0.56037483513E+03  0.43365923562E+03 0.  0.
        5    1    3    3  502    0  0.10874946203E+03  0.16719764664E+03  0.28718832190E+03  0.34968660365E+03  0.46999998093E+01 0. -1.
       -5    1    3    3    0  502 -0.10874946203E+03 -0.16719764664E+03  0.67719586162E+02  0.21068823148E+03  0.46999998093E+01 0.  1.
</event>
<event>
 5   0  0.1166419E-01  0.6128595E+03  0.7818609E-02  0.9879080E-01
       -2   -1    0    0    0  501  0.00000000000E+00  0.00000000000E+00  0.49183766602E+02  0.49183766668E+02  0.25500000920E-02 0. -1.
        2   -1    0    0  501    0  0.00000000000E+00  0.00000000000E+00 -0.19091503298E+04  0.19091503298E+04  0.25500000920E-02 0.  1.
    10030    2    1    2    0    0  0.00000000000E+00  0.00000000000E+00 -0.18599665632E+04  0.19583340964E+04  0.61285954115E+03 0.  0.
        1    1    3    3  502    0  0.77803351939E+02  0.17815003071E+03 -0.16868855587E+04  0.16980499649E+04  0.50400001928E-02 0.  1.
       -1    1    3    3    0  502 -0.77803351939E+02 -0.17815003071E+03 -0.17308100446E+03  0.26028413157E+03  0.50400001928E-02 0. -1.
</event>
<event>
 5   0  0.7266519E-02  0.6009983E+03  0.7818609E-02  0.9903337E-01
       -1   -1    0    0    0  501  0.00000000000E+00  0.00000000000E+00  0.12629515780E+03  0.12629515790E+03  0.50400001928E-02 0. -1.
        1   -1    0    0  501    0  0.00000000000E+00  0.00000000000E+00 -0.71498979978E+03  0.71498979979E+03  0.50400001928E-02 0.  1.
    10030    2    1    2    0    0  0.00000000000E+00  0.00000000000E+00 -0.58869464197E+03  0.84128495770E+03  0.60099833490E+03 0.  0.
        4    1    3    3  502    0 -0.40113643437E+02 -0.16878623152E+03 -0.63780162864E+03  0.66097687308E+03  0.12699999809E+01 0.  1.
       -4    1    3    3    0  502  0.40113643437E+02  0.16878623152E+03  0.49106986669E+02  0.18030808462E+03  0.12699999809E+01 0. -1.
</event>
<event>
 5   0  0.7424930E-02  0.5589616E+03  0.7818609E-02  0.9994407E-01
        1   -1    0    0  501    0  0.00000000000E+00  0.00000000000E+00  0.16149095127E+04  0.16149095127E+04  0.50400001928E-02 0.  1.
       -1   -1    0    0    0  501  0.00000000000E+00  0.00000000000E+00 -0.48367734943E+02  0.48367735206E+02  0.50400001928E-02 0. -1.
    10030    2    1    2    0    0  0.00000000000E+00  0.00000000000E+00  0.15665417777E+04  0.16632772479E+04  0.55896159256E+03 0.  0.
        3    1    3    3  502    0  0.17504052141E+03 -0.20940847491E+03  0.96226620802E+03  0.10002236544E+04  0.10100000352E+00 0. -1.
       -3    1    3    3    0  502 -0.17504052141E+03  0.20940847491E+03  0.60427556969E+03  0.66305359348E+03  0.10100000352E+00 0.  1.
</event>
<event>
 5   0  0.1166419E-01  0.7008529E+03  0.7818609E-02  0.9715775E-01
       -2   -1    0    0    0  501  0.00000000000E+00  0.00000000000E+00  0.17602549615E+03  0.17602549617E+03  0.25500000920E-02 0. -1.
        2   -1    0    0  501    0  0.00000000000E+00  0.00000000000E+00 -0.69761870985E+03  0.69761870985E+03  0.25500000920E-02 0.  1.
    10030    2    1    2    0    0  0.00000000000E+00  0.00000000000E+00 -0.52159321370E+03  0.87364420602E+03  0.70085285056E+03 0.  0.
        1    1    3    3  502    0 -0.26389961226E+03  0.14340870632E+03 -0.35762997493E+02  0.30246992316E+03  0.50400001928E-02 0. -1.
       -1    1    3    3    0  502  0.26389961226E+03 -0.14340870632E+03 -0.48583021620E+03  0.57117428286E+03  0.50400001928E-02 0.  1.
</event>
<event>
 5   0  0.7123340E-02  0.6045688E+03  0.7818609E-02  0.9895972E-01
        1   -1    0    0  501    0  0.00000000000E+00  0.00000000000E+00  0.12907585816E+04  0.12907585816E+04  0.50400001928E-02 0.  1.
       -1   -1    0    0    0  501  0.00000000000E+00  0.00000000000E+00 -0.70792373533E+02  0.70792373712E+02  0.50400001928E-02 0. -1.
    10030    2    1    2    0    0  0.00000000000E+00  0.00000000000E+00  0.12199662081E+04  0.13615509553E+04  0.60456881752E+03 0.  0.
        2    1    3    3  502    0 -0.16878538092E+03 -0.10410160197E+03  0.11237893999E+04  0.11411521650E+04  0.25500000920E-02 0.  1.
       -2    1    3    3    0  502  0.16878538092E+03  0.10410160197E+03  0.96176808194E+02  0.22039879035E+03  0.25500000920E-02 0. -1.
</event>
<event>
 5   0  0.1219020E-01  0.6039208E+03  0.7818609E-02  0.9897305E-01
        2   -1    0    0  501    0  0.00000000000E+00  0.00000000000E+00  0.30059851244E+03  0.30059851245E+03  0.25500000920E-02 0. -1.
       -2   -1    0    0    0  501  0.00000000000E+00  0.00000000000E+00 -0.30332849681E+03  0.30332849682E+03  0.25500000920E-02 0.  1.
    10030    2    1    2    0    0  0.00000000000E+00  0.00000000000E+00 -0.27299843768E+01  0.60392700927E+03  0.60392083895E+03 0.  0.
        2    1    3    3  502    0 -0.19949010264E+03  0.22426098550E+03 -0.34392655452E+02  0.30211280249E+03  0.25500000920E-02 0. -1.
       -2    1    3    3    0  502  0.19949010264E+03 -0.22426098550E+03  0.31662671075E+02  0.30181420678E+03  0.25500000920E-02 0.  1.
</event>
<event>
 5   0  0.7266519E-02  0.6005942E+03  0.7818609E-02  0.9904174E-01
        1   -1    0    0  501    0  0.00000000000E+00  0.00000000000E+00  0.12485527343E+04  0.12485527343E+04  0.50400001928E-02 0. -1.
       -1   -1    0    0    0  501  0.00000000000E+00  0.00000000000E+00 -0.72226293087E+02  0.72226293263E+02  0.50400001928E-02 0.  1.
    10030    2    1    2    0    0  0.00000000000E+00  0.00000000000E+00  0.11763264412E+04  0.13207790276E+04  0.60059415863E+03 0.  0.
        4    1    3    3  502    0  0.14630449668E+03  0.23476593116E+03  0.33117007297E+03  0.43150350904E+03  0.12699999809E+01 0.  1.
       -4    1    3    3    0  502 -0.14630449668E+03 -0.23476593116E+03  0.84515636824E+03  0.88927551853E+03  0.12699999809E+01 0. -1.
</event>
<event>
 5   0  0.1206238E-01  0.5978655E+03  0.7818609E-02  0.9909844E-01
       -2   -1    0    0    0  501  0.00000000000E+00  0.00000000000E+00  0.13313175962E+03  0.13313175965E+03  0.25500000920E-02 0.  1.
        2   -1    0    0  501    0  0.00000000000E+00  0.00000000000E+00 -0.67122074318E+03  0.67122074319E+03  0.25500000920E-02 0. -1.
    10030    2    1    2    0    0  0.00000000000E+00  0.00000000000E+00 -0.53808898356E+03  0.80435250283E+03  0.59786553219E+03 0.  0.
        5    1    3    3  502    0  0.17134149995E+03 -0.12532034734E+03  0.14045930145E+02  0.21279679794E+03  0.46999998093E+01 0.  1.
       -5    1    3    3    0  502 -0.17134149995E+03  0.12532034734E+03 -0.55213491371E+03  0.59155570490E+03  0.46999998093E+01 0. -1.
</event>
<event>
 5   0  0.7266519E-02  0.5870099E+03  0.7818609E-02  0.9932729E-01
       -1   -1    0    0    0  501  0.00000000000E+00  0.00000000000E+00  0.11973119019E+03  0.11973119030E+03  0.50400001928E-02 0. -1.
        1   -1    0    0  501    0  0.00000000000E+00  0.00000000000E+00 -0.71948812265E+03  0.71948812266E+03  0.50400001928E-02 0.  1.
    10030    2    1    2    0    0  0.00000000000E+00  0.00000000000E+00 -0.59975693246E+03  0.83921931296E+03  0.58700994644E+03 0.  0.
        4    1    3    3  502    0  0.11672873803E+03 -0.84929114840E+02  0.65466592914E+02  0.15851195702E+03  0.12699999809E+01 0. -1.
       -4    1    3    3    0  502 -0.11672873803E+03  0.84929114840E+02 -0.66522352537E+03  0.68070735594E+03  0.12699999809E+01 0.  1.
</event>
<event>
 5   0  0.1166419E-01  0.6044935E+03  0.7818609E-02  0.9896127E-01
        2   -1    0    0  501    0  0.00000000000E+00  0.00000000000E+00  0.45878932076E+03  0.45878932077E+03  0.25500000920E-02 0. -1.
       -2   -1    0    0    0  501  0.00000000000E+00  0.00000000000E+00 -0.19911777629E+03  0.19911777630E+03  0.25500000920E-02 0.  1.
    10030    2    1    2    0    0  0.00000000000E+00  0.00000000000E+00  0.25967154447E+03  0.65790709707E+03  0.60449353790E+03 0.  0.
        1    1    3    3  502    0  0.45725062729E+01  0.19441103853E+03 -0.12198879577E+03  0.22956007064E+03  0.50400001928E-02 0.  1.
       -1    1    3    3    0  502 -0.45725062729E+01 -0.19441103853E+03  0.38166034024E+03  0.42834702643E+03  0.50400001928E-02 0. -1.
</event>
<event>
 5   0  0.7123340E-02  0.5646047E+03  0.7818609E-02  0.9981689E-01
       -1   -1    0    0    0  501  0.00000000000E+00  0.00000000000E+00  0.37647739246E+03  0.37647739250E+03  0.50400001928E-02 0. -1.
        1   -1    0    0  501    0  0.00000000000E+00  0.00000000000E+00 -0.21168503248E+03  0.21168503254E+03  0.50400001928E-02 0.  1.
    10030    2    1    2    0    0  0.00000000000E+00  0.00000000000E+00  0.16479235999E+03  0.58816242503E+03  0.56460474344E+03 0.  0.
        2    1    3    3  502    0  0.45481944056E+02  0.27513008588E+03  0.12815453277E+03  0.30690186651E+03  0.25500000920E-02 0. -1.
       -2    1    3    3    0  502 -0.45481944056E+02 -0.27513008588E+03  0.36637827217E+02  0.28126055852E+03  0.25500000920E-02 0.  1.
</event>
<event>
 5   0  0.7123340E-02  0.6083269E+03  0.7818609E-02  0.9888279E-01
       -1   -1    0    0    0  501  0.00000000000E+00  0.00000000000E+00  0.11447917362E+03  0.11447917373E+03  0.50400001928E-02 0. -1.
        1   -1    0    0  501    0  0.00000000000E+00  0.00000000000E+00 -0.80814173042E+03  0.80814173044E+03  0.50400001928E-02 0.  1.
    10030    2    1    2    0    0  0.00000000000E+00  0.00000000000E+00 -0.69366255680E+03  0.92262090416E+03  0.60832687767E+03 0.  0.
        2    1    3    3  502    0 -0.29275742300E+02  0.19239781511E+03 -0.70135657626E+03  0.72785646622E+03  0.25500000920E-02 0.  1.
       -2    1    3    3    0  502  0.29275742300E+02 -0.19239781511E+03  0.76940194555E+01  0.19476443795E+03  0.25500000920E-02 0. -1.
</event>
<event>
 5   0  0.7424930E-02  0.5992254E+03  0.7818609E-02  0.9907014E-01
        1   -1    0    0  501    0  0.00000000000E+00  0.00000000000E+00  0.79931228662E+03  0.79931228663E+03  0.50400001928E-02 0.  1.
       -1   -1    0    0    0  501  0.00000000000E+00  0.00000000000E+00 -0.11230626825E+03  0.11230626837E+03  0.50400001928E-02 0. -1.
    10030    2    1    2    0    0  0.00000000000E+00  0.00000000000E+00  0.68700601836E+03  0.91161855500E+03  0.59922543383E+03 0.  0.
        3    1    3    3  502    0 -0.11895204909E+03 -0.20632253042E+03  0.62007191398E+03  0.66423472150E+03  0.10100000352E+00 0.  1.
       -3    1    3    3    0  502  0.11895204909E+03  0.20632253042E+03  0.66934104384E+02  0.24738383349E+03  0.10100000352E+00 0. -1.
</event>
<event>
 5   0  0.7221069E-02  0.5886894E+03  0.7818609E-02  0.9929154E-01
        1   -1    0    0  501    0  0.00000000000E+00  0.00000000000E+00  0.24091313911E+03  0.24091313916E+03  0.50400001928E-02 0. -1.
       -1   -1    0    0    0  501  0.00000000000E+00  0.00000000000E+00 -0.35962667064E+03  0.35962667067E+03  0.50400001928E-02 0.  1.
    10030    2    1    2    0    0  0.00000000000E+00  0.00000000000E+00 -0.11871353153E+03  0.60053980984E+03  0.58868935835E+03 0.  0.
        5    1    3    3  502    0 -0.15983701625E+03  0.67390425516E+01 -0.31135869541E+03  0.35008515202E+03  0.46999998093E+01 0.  1.
       -5    1    3    3    0  502  0.15983701625E+03 -0.67390425516E+01  0.19264516388E+03  0.25045465782E+03  0.46999998093E+01 0. -1.
</event>
<event>
 5   0  0.7266519E-02  0.5952762E+03  0.7818609E-02  0.9915255E-01
       -1   -1    0    0    0  501  0.00000000000E+00  0.00000000000E+00  0.66420583192E+02  0.66420583383E+02  0.50400001928E-02 0.  1.
        1   -1    0    0  501    0  0.00000000000E+00  0.00000000000E+00 -0.13337496222E+04  0.13337496222E+04  0.50400001928E-02 0. -1.
    10030    2    1    2    0    0  0.00000000000E+00  0.00000000000E+00 -0.12673290390E+04  0.14001702056E+04  0.59527616407E+03 0.  0.
        4    1    3    3  502    0 -0.25228907460E+03 -0.14180189874E+02 -0.10036006285E+04  0.10349235186E+04  0.12699999809E+01 0. -1.
       -4    1    3    3    0  502  0.25228907460E+03  0.14180189874E+02 -0.26372841053E+03  0.36524668700E+03  0.12699999809E+01 0.  1.
</event>
<event>
 5   0  0.1146468E-01  0.6013583E+03  0.7818609E-02  0.9902592E-01
        2   -1    0    0  501    0  0.00000000000E+00  0.00000000000E+00  0.69695078806E+03  0.69695078806E+03  0.25500000920E-02 0. -1.
       -2   -1    0    0    0  501  0.00000000000E+00  0.00000000000E+00 -0.12971926085E+03  0.12971926088E+03  0.25500000920E-02 0.  1.
    10030    2    1    2    0    0  0.00000000000E+00  0.00000000000E+00  0.56723152721E+03  0.82667004894E+03  0.60135826622E+03 0.  0.
        4    1    3    3  502    0 -0.15063718707E+03 -0.11219560526E+03 -0.39145012854E+02  0.19186808202E+03  0.12699999809E+01 0.  1.
       -4    1    3    3    0  502  0.15063718707E+03  0.11219560526E+03  0.60637654006E+03  0.63480196692E+03  0.12699999809E+01 0. -1.
</event>
<event>
 5   0  0.1166419E-01  0.5853427E+03  0.7818609E-02  0.9936291E-01
        2   -1    0    0  501    0  0.00000000000E+00  0.00000000000E+00  0.79118010028E+03  0.79118010028E+03  0.25500000920E-02 0.  1.
       -2   -1    0    0    0  501  0.00000000000E+00  0.00000000000E+00 -0.10826426065E+03  0.10826426068E+03  0.25500000920E-02 0. -1.
    10030    2    1    2    0    0  0.00000000000E+00  0.00000000000E+00  0.68291583962E+03  0.89944436096E+03  0.58534273248E+03 0.  0.
        1    1    3    3  502    0  0.25594830917E+03 -0.99198844894E+02  0.18545907629E+03  0.33127785438E+03  0.50400001928E-02 0. -1.
       -1    1    3    3    0  502 -0.25594830917E+03  0.99198844894E+02  0.49745676333E+03  0.56816650658E+03  0.50400001928E-02 0.  1.
</event>
<event>
 5   0  0.1206238E-01  0.5471125E+03  0.7818609E-02  0.1002164E+00
        2   -1    0    0  501    0  0.00000000000E+00  0.00000000000E+00  0.12408804071E+04  0.12408804071E+04  0.25500000920E-02 0. -1.
       -2   -1    0    0    0  501  0.00000000000E+00  0.00000000000E+00 -0.60306402338E+02  0.60306402392E+02  0.25500000920E-02 0.  1.
    10030    2    1    2    0    0  0.00000000000E+00  0.00000000000E+00  0.11805740048E+04  0.13011868095E+04  0.54711254098E+03 0.  0.
        5    1    3    3  502    0  0.24935120798E+03  0.92116660068E+02  0.43708738454E+03  0.51159454229E+03  0.46999998093E+01 0.  1.
       -5    1    3    3    0  502 -0.24935120798E+03 -0.92116660068E+02  0.74348662026E+03  0.78959226724E+03  0.46999998093E+01 0. -1.
</event>
<event>
 5   0  0.1219020E-01  0.6243158E+03  0.7818609E-02  0.9856204E-01
        2   -1    0    0  501    0  0.00000000000E+00  0.00000000000E+00  0.81582841513E+03  0.81582841513E+03  0.25500000920E-02 0.  1.
       -2   -1    0    0    0  501  0.00000000000E+00  0.00000000000E+00 -0.11944002227E+03  0.11944002230E+03  0.25500000920E-02 0. -1.
    10030    2    1    2    0    0  0.00000000000E+00  0.00000000000E+00  0.69638839286E+03  0.93526843743E+03  0.62431583060E+03 0.  0.
        2    1    3    3  502    0 -0.11668348709E+03  0.14978424784E+03  0.71937760386E+03  0.74401242866E+03  0.25500000920E-02 0.  1.
       -2    1    3    3    0  502  0.11668348709E+03 -0.14978424784E+03 -0.22989210994E+02  0.19125600877E+03  0.25500000920E-02 0. -1.
</event>
<event>
 5   0  0.7123340E-02  0.5972415E+03  0.7818609E-02  0.9911146E-01
       -1   -1    0    0    0  501  0.00000000000E+00  0.00000000000E+00  0.80175606237E+02  0.80175606396E+02  0.50400001928E-02 0. -1.
        1   -1    0    0  501    0  0.00000000000E+00  0.00000000000E+00 -0.11122379642E+04  0.11122379642E+04  0.50400001928E-02 0.  1.
    10030    2    1    2    0    0  0.00000000000E+00  0.00000000000E+00 -0.10320623579E+04  0.11924135706E+04  0.59724150277E+03 0.  0.
        2    1    3    3  502    0 -0.28364313911E+03  0.55143853775E+02 -0.36555973554E+03  0.46597016560E+03  0.25500000920E-02 0. -1.
       -2    1    3    3    0  502  0.28364313911E+03 -0.55143853775E+02 -0.66650262239E+03  0.72644340498E+03  0.25500000920E-02 0.  1.
</event>
<event>
 5   0  0.7263385E-02  0.6045908E+03  0.7818609E-02  0.9895927E-01
       -1   -1    0    0    0  501  0.00000000000E+00  0.00000000000E+00  0.18597436472E+03  0.18597436479E+03  0.50400001928E-02 0.  1.
        1   -1    0    0  501    0  0.00000000000E+00  0.00000000000E+00 -0.49137146813E+03  0.49137146816E+03  0.50400001928E-02 0. -1.
    10030    2    1    2    0    0  0.00000000000E+00  0.00000000000E+00 -0.30539710341E+03  0.67734583295E+03  0.60459075964E+03 0.  0.
        1    1    3    3  502    0 -0.50265678780E+02 -0.14562340275E+03 -0.44409338039E+03  0.47005504404E+03  0.50400001928E-02 0. -1.
       -1    1    3    3    0  502  0.50265678780E+02  0.14562340275E+03  0.13869627698E+03  0.20729078891E+03  0.50400001928E-02 0.  1.
</event>
<event>
 5   0  0.1206238E-01  0.5765247E+03  0.7818609E-02  0.9955343E-01
       -2   -1    0    0    0  501  0.00000000000E+00  0.00000000000E+00  0.82581778718E+02  0.82581778758E+02  0.25500000920E-02 0. -1.
        2   -1    0    0  501    0  0.00000000000E+00  0.00000000000E+00 -0.10062168488E+04  0.10062168488E+04  0.25500000920E-02 0.  1.
    10030    2    1    2    0    0  0.00000000000E+00  0.00000000000E+00 -0.92363507010E+03  0.10887986276E+04  0.57652468178E+03 0.  0.
        5    1    3    3  502    0  0.28476135417E+02  0.26837224738E+03 -0.27072287883E+03  0.38229245425E+03  0.46999998093E+01 0. -1.
       -5    1    3    3    0  502 -0.28476135417E+02 -0.26837224738E+03 -0.65291219127E+03  0.70650617333E+03  0.46999998093E+01 0.  1.
</event>
<event>
 5   0  0.1166419E-01  0.5355960E+03  0.7818609E-02  0.1004884E+00
       -2   -1    0    0    0  501  0.00000000000E+00  0.00000000000E+00  0.55980556766E+03  0.55980556767E+03  0.25500000920E-02 0. -1.
        2   -1    0    0  501    0  0.00000000000E+00  0.00000000000E+00 -0.12810833156E+03  0.12810833159E+03  0.25500000920E-02 0.  1.
    10030    2    1    2    0    0  0.00000000000E+00  0.00000000000E+00  0.43169723610E+03  0.68791389925E+03  0.53559595698E+03 0.  0.
        1    1    3    3  502    0  0.20659519827E+03  0.16263464123E+03  0.15055720681E+03  0.30298362171E+03  0.50400001928E-02 0.  1.
       -1    1    3    3    0  502 -0.20659519827E+03 -0.16263464123E+03  0.28114002929E+03  0.38493027754E+03  0.50400001928E-02 0. -1.
</event>
<event>
 5   0  0.7221069E-02  0.6126674E+03  0.7818609E-02  0.9879468E-01
       -1   -1    0    0    0  501  0.00000000000E+00  0.00000000000E+00  0.45856435371E+03  0.45856435374E+03  0.50400001928E-02 0. -1.
        1   -1    0    0  501    0  0.00000000000E+00  0.00000000000E+00 -0.20463943019E+03  0.20463943025E+03  0.50400001928E-02 0.  1.
    10030    2    1    2    0    0  0.00000000000E+00  0.00000000000E+00  0.25392492352E+03  0.66320378399E+03  0.61266744023E+03 0.  0.
        5    1    3    3  502    0 -0.12455342481E+03  0.13957046910E+03  0.38950662941E+03  0.43212379688E+03  0.46999998093E+01 0. -1.
       -5    1    3    3    0  502  0.12455342481E+03 -0.13957046910E+03 -0.13558170589E+03  0.23107998712E+03  0.46999998093E+01 0.  1.
</event>
<event>
 5   0  0.7424930E-02  0.5447261E+03  0.7818609E-02  0.1002722E+00
        1   -1    0    0  501    0  0.00000000000E+00  0.00000000000E+00  0.17585354517E+04  0.17585354517E+04  0.50400001928E-02 0. -1.
       -1   -1    0    0    0  501  0.00000000000E+00  0.00000000000E+00 -0.42183751416E+02  0.42183751717E+02  0.50400001928E-02 0.  1.
    10030    2    1    2    0    0  0.00000000000E+00  0.00000000000E+00  0.17163517003E+04  0.18007192034E+04  0.54472606924E+03 0.  0.
        3    1    3    3  502    0 -0.16362431259E+02  0.34264022975E+02  0.17497430166E+04  0.17501549608E+04  0.10100000352E+00 0. -1.
       -3    1    3    3    0  502  0.16362431259E+02 -0.34264022975E+02 -0.33391316316E+02  0.50564242637E+02  0.10100000352E+00 0.  1.
</event>
<event>
 5   0  0.1206238E-01  0.5683917E+03  0.7818609E-02  0.9973244E-01
       -2   -1    0    0    0  501  0.00000000000E+00  0.00000000000E+00  0.13035079588E+04  0.13035079588E+04  0.25500000920E-02 0.  1.
        2   -1    0    0  501    0  0.00000000000E+00  0.00000000000E+00 -0.61961486563E+02  0.61961486615E+02  0.25500000920E-02 0. -1.
    10030    2    1    2    0    0  0.00000000000E+00  0.00000000000E+00  0.12415464723E+04  0.13654694454E+04  0.56839173433E+03 0.  0.
        5    1    3    3  502    0  0.36489650663E+02 -0.26318741081E+03  0.86275556624E+03  0.90275598302E+03  0.46999998093E+01 0.  1.
       -5    1    3    3    0  502 -0.36489650663E+02  0.26318741081E+03  0.37879090602E+03  0.46271346241E+03  0.46999998093E+01 0. -1.
</event>
<event>
 5   0  0.7424930E-02  0.5997485E+03  0.7818609E-02  0.9905928E-01
        1   -1    0    0  501    0  0.00000000000E+00  0.00000000000E+00  0.28357323332E+03  0.28357323336E+03  0.50400001928E-02 0.  1.
       -1   -1    0    0    0  501  0.00000000000E+00  0.00000000000E+00 -0.31711227671E+03  0.31711227675E+03  0.50400001928E-02 0. -1.
    10030    2    1    2    0    0  0.00000000000E+00  0.00000000000E+00 -0.33539043386E+02  0.60068551011E+03  0.59974845946E+03 0.  0.
        3    1    3    3  502    0 -0.28419678430E+03  0.37873493982E+01 -0.11253474396E+03  0.30568976924E+03  0.10100000352E+00 0. -1.
       -3    1    3    3    0  502  0.28419678430E+03 -0.37873493982E+01  0.78995700570E+02  0.29499574087E+03  0.10100000352E+00 0.  1.
</event>
<event>
 5   0  0.1206238E-01  0.6056550E+03  0.7818609E-02  0.9893743E-01
       -2   -1    0    0    0  501  0.00000000000E+00  0.00000000000E+00  0.30216847113E+03  0.30216847115E+03  0.25500000920E-02 0. -1.
        2   -1    0    0  501    0  0.00000000000E+00  0.00000000000E+00 -0.30348797690E+03  0.30348797691E+03  0.25500000920E-02 0.  1.
    10030    2    1    2    0    0  0.00000000000E+00  0.00000000000E+00 -0.13195057649E+01  0.60565644806E+03  0.60565501069E+03 0.  0.
        5    1    3    3  502    0  0.42955434012E+02  0.13640413107E+03 -0.26755203417E+03  0.30340968552E+03  0.46999998093E+01 0.  1.
       -5    1    3    3    0  502 -0.42955434012E+02 -0.13640413107E+03  0.26623252840E+03  0.30224676253E+03  0.46999998093E+01 0. -1.
</event>
<event>
 5   0  0.7123340E-02  0.6047723E+03  0.7818609E-02  0.9895554E-01
        1   -1    0    0  501    0  0.00000000000E+00  0.00000000000E+00  0.84970403172E+02  0.84970403322E+02  0.50400001928E-02 0.  1.
       -1   -1    0    0    0  501  0.00000000000E+00  0.00000000000E+00 -0.10761087804E+04  0.10761087805E+04  0.50400001928E-02 0. -1.
    10030    2    1    2    0    0  0.00000000000E+00  0.00000000000E+00 -0.99113837727E+03  0.11610791838E+04  0.60477234403E+03 0.  0.
        2    1    3    3  502    0 -0.37987913880E+02 -0.54803691832E+02 -0.10618172852E+04  0.10639090532E+04  0.25500000920E-02 0. -1.
       -2    1    3    3    0  502  0.37987913880E+02  0.54803691832E+02  0.70678907966E+02  0.97170130581E+02  0.25500000920E-02 0.  1.
</event>
<event>
 5   0  0.1166419E-01  0.6134356E+03  0.7818609E-02  0.9877917E-01
       -2   -1    0    0    0  501  0.00000000000E+00  0.00000000000E+00  0.66385428840E+02  0.66385428889E+02  0.25500000920E-02 0. -1.
        2   -1    0    0  501    0  0.00000000000E+00  0.00000000000E+00 -0.14171154359E+04  0.14171154359E+04  0.25500000920E-02 0.  1.
    10030    2    1    2    0    0  0.00000000000E+00  0.00000000000E+00 -0.13507300070E+04  0.14835008648E+04  0.61343562324E+03 0.  0.
        1    1    3    3  502    0 -0.21355585732E+03  0.41722078577E+02 -0.15259343325E+03  0.26576604736E+03  0.50400001928E-02 0. -1.
       -1    1    3    3    0  502  0.21355585732E+03 -0.41722078577E+02 -0.11981365738E+04  0.12177348174E+04  0.50400001928E-02 0.  1.
</event>
<event>
 5   0  0.7123340E-02  0.6049112E+03  0.7818609E-02  0.9895269E-01
        1   -1    0    0  501    0  0.00000000000E+00  0.00000000000E+00  0.50279880821E+03  0.50279880824E+03  0.50400001928E-02 0.  1.
       -1   -1    0    0    0  501  0.00000000000E+00  0.00000000000E+00 -0.18194034707E+03  0.18194034714E+03  0.50400001928E-02 0. -1.
    10030    2    1    2    0    0  0.00000000000E+00  0.00000000000E+00  0.32085846114E+03  0.68473915538E+03  0.60491119912E+03 0.  0.
        2    1    3    3  502    0  0.14629997159E+03  0.16215214926E+03 -0.76426154417E+02  0.23138270956E+03  0.25500000920E-02 0. -1.
       -2    1    3    3    0  502 -0.14629997159E+03 -0.16215214926E+03  0.39728461556E+03  0.45335644582E+03  0.25500000920E-02 0.  1.
</event>
<event>
 5   0  0.4695625E-02  0.5967263E+03  0.7818609E-02  0.9912221E-01
        3   -1    0    0  501    0  0.00000000000E+00  0.00000000000E+00  0.12625396856E+04  0.12625396896E+04  0.10100000352E+00 0. -1.
       -3   -1    0    0    0  501  0.00000000000E+00  0.00000000000E+00 -0.70509089731E+02  0.70509162070E+02  0.10100000352E+00 0.  1.
    10030    2    1    2    0    0  0.00000000000E+00  0.00000000000E+00  0.11920305958E+04  0.13330488517E+04  0.59672631880E+03 0.  0.
        5    1    3    3  502    0  0.16075767423E+03 -0.18111926170E+02  0.36070181158E+02  0.16581381022E+03  0.46999998093E+01 0.  1.
       -5    1    3    3    0  502 -0.16075767423E+03  0.18111926170E+02  0.11559604147E+04  0.11672350414E+04  0.46999998093E+01 0. -1.
</event>
<event>
 5   0  0.1146468E-01  0.3844895E+03  0.7818609E-02  0.1049287E+00
       -2   -1    0    0    0  501  0.00000000000E+00  0.00000000000E+00  0.65759160296E+02  0.65759160346E+02  0.25500000920E-02 0. -1.
        2   -1    0    0  501    0  0.00000000000E+00  0.00000000000E+00 -0.56202130083E+03  0.56202130083E+03  0.25500000920E-02 0.  1.
    10030    2    1    2    0    0  0.00000000000E+00  0.00000000000E+00 -0.49626214053E+03  0.62778046118E+03  0.38448952562E+03 0.  0.
        4    1    3    3  502    0 -0.68549654763E+02  0.11389233748E+03 -0.47487904648E+03  0.49313511474E+03  0.12699999809E+01 0.  1.
       -4    1    3    3    0  502  0.68549654763E+02 -0.11389233748E+03 -0.21383094048E+02  0.13464534643E+03  0.12699999809E+01 0. -1.
</event>
<event>
 5   0  0.7123340E-02  0.5848464E+03  0.7818609E-02  0.9937353E-01
       -1   -1    0    0    0  501  0.00000000000E+00  0.00000000000E+00  0.24708108982E+03  0.24708108987E+03  0.50400001928E-02 0. -1.
        1   -1    0    0  501    0  0.00000000000E+00  0.00000000000E+00 -0.34608613736E+03  0.34608613739E+03  0.50400001928E-02 0.  1.
    10030    2    1    2    0    0  0.00000000000E+00  0.00000000000E+00 -0.99005047538E+02  0.59316722727E+03  0.58484644144E+03 0.  0.
        2    1    3    3  502    0 -0.15433596593E+03  0.22540956082E+03  0.56299806934E+02  0.27892423479E+03  0.25500000920E-02 0. -1.
       -2    1    3    3    0  502  0.15433596593E+03 -0.22540956082E+03 -0.15530485447E+03  0.31424299247E+03  0.25500000920E-02 0.  1.
</event>
<event>
 5   0  0.4695625E-02  0.5999590E+03  0.7818609E-02  0.9905491E-01
       -4   -1    0    0    0  501  0.00000000000E+00  0.00000000000E+00  0.50992138843E+03  0.50992296995E+03  0.12699999809E+01 0. -1.
        4   -1    0    0  501    0  0.00000000000E+00  0.00000000000E+00 -0.17646952813E+03  0.17647409798E+03  0.12699999809E+01 0.  1.
    10030    2    1    2    0    0  0.00000000000E+00  0.00000000000E+00  0.33345186030E+03  0.68639706792E+03  0.59995899169E+03 0.  0.
        1    1    3    3  502    0 -0.44408387936E+02 -0.29301677268E+03  0.21985780697E+03  0.36901001247E+03  0.50400001928E-02 0. -1.
       -1    1    3    3    0  502  0.44408387936E+02  0.29301677268E+03  0.11359405334E+03  0.31738705545E+03  0.50400001928E-02 0.  1.
</event>
<event>
 5   0  0.7424930E-02  0.6127417E+03  0.7818609E-02  0.9879318E-01
        1   -1    0    0  501    0  0.00000000000E+00  0.00000000000E+00  0.61124895399E+03  0.61124895401E+03  0.50400001928E-02 0. -1.
       -1   -1    0    0    0  501  0.00000000000E+00  0.00000000000E+00 -0.15355949907E+03  0.15355949916E+03  0.50400001928E-02 0.  1.
    10030    2    1    2    0    0  0.00000000000E+00  0.00000000000E+00  0.45768945492E+03  0.76480845317E+03  0.61274165265E+03 0.  0.
        3    1    3    3  502    0  0.15547530825E+03  0.10089170428E+02  0.55810904550E+03  0.57944808198E+03  0.10100000352E+00 0. -1.
       -3    1    3    3    0  502 -0.15547530825E+03 -0.10089170428E+02 -0.10041959059E+03  0.18536037119E+03  0.10100000352E+00 0.  1.
</event>
<event>
 5   0  0.7123340E-02  0.6039069E+03  0.7818609E-02  0.9897333E-01
        1   -1    0    0  501    0  0.00000000000E+00  0.00000000000E+00  0.72390765415E+03  0.72390765417E+03  0.50400001928E-02 0.  1.
       -1   -1    0    0    0  501  0.00000000000E+00  0.00000000000E+00 -0.12594961956E+03  0.12594961966E+03  0.50400001928E-02 0. -1.
    10030    2    1    2    0    0  0.00000000000E+00  0.00000000000E+00  0.59795803460E+03  0.84985727383E+03  0.60390692556E+03 0.  0.
        2    1    3    3  502    0 -0.16109957155E+03 -0.12373958774E+03  0.61337398349E+03  0.64613636421E+03  0.25500000920E-02 0.  1.
       -2    1    3    3    0  502  0.16109957155E+03  0.12373958774E+03 -0.15415948899E+02  0.20372090961E+03  0.25500000920E-02 0. -1.
</event>
<event>
 5   0  0.7424930E-02  0.5989711E+03  0.7818609E-02  0.9907543E-01
       -1   -1    0    0    0  501  0.00000000000E+00  0.00000000000E+00  0.62212072209E+03  0.62212072211E+03  0.50400001928E-02 0. -1.
        1   -1    0    0  501    0  0.00000000000E+00  0.00000000000E+00 -0.14417073484E+03  0.14417073493E+03  0.50400001928E-02 0.  1.
    10030    2    1    2    0    0  0.00000000000E+00  0.00000000000E+00  0.47794998725E+03  0.76629145704E+03  0.59897112353E+03 0.  0.
        3    1    3    3  502    0 -0.99006421970E+02  0.20599025320E+03 -0.86283692311E+01  0.22871098566E+03  0.10100000352E+00 0.  1.
       -3    1    3    3    0  502  0.99006421970E+02 -0.20599025320E+03  0.48657835648E+03  0.53758047138E+03  0.10100000352E+00 0. -1.
</event>
<event>
 5   0  0.7221069E-02  0.5825933E+03  0.7818609E-02  0.9942192E-01
        1   -1    0    0  501    0  0.00000000000E+00  0.00000000000E+00  0.10853833718E+03  0.10853833730E+03  0.50400001928E-02 0.  1.
       -1   -1    0    0    0  501  0.00000000000E+00  0.00000000000E+00 -0.78178594776E+03  0.78178594778E+03  0.50400001928E-02 0. -1.
    10030    2    1    2    0    0  0.00000000000E+00  0.00000000000E+00 -0.67324761058E+03  0.89032428508E+03  0.58259332939E+03 0.  0.
        5    1    3    3  502    0 -0.66242451509E+02 -0.14039359784E+03 -0.71323732749E+03  0.72995068328E+03  0.46999998093E+01 0. -1.
       -5    1    3    3    0  502  0.66242451509E+02  0.14039359784E+03  0.39989716914E+02  0.16037360180E+03  0.46999998093E+01 0.  1.
</event>
<event>
 5   0  0.7221069E-02  0.5994121E+03  0.7818609E-02  0.9906627E-01
       -1   -1    0    0    0  501  0.00000000000E+00  0.00000000000E+00  0.54111761727E+03  0.54111761729E+03  0.50400001928E-02 0.  1.
        1   -1    0    0  501    0  0.00000000000E+00  0.00000000000E+00 -0.16599664553E+03  0.16599664560E+03  0.50400001928E-02 0. -1.
    10030    2    1    2    0    0  0.00000000000E+00  0.00000000000E+00  0.37512097174E+03  0.70711426289E+03  0.59941207641E+03 0.  0.
        5    1    3    3  502    0 -0.21849048779E+03 -0.10136815612E+03  0.39788789309E+03  0.46513488559E+03  0.46999998093E+01 0.  1.
       -5    1    3    3    0  502  0.21849048779E+03  0.10136815612E+03 -0.22766921347E+02  0.24197937730E+03  0.46999998093E+01 0. -1.
</event>
<event>
 5   0  0.7221069E-02  0.6127588E+03  0.7818609E-02  0.9879284E-01
       -1   -1    0    0    0  501  0.00000000000E+00  0.00000000000E+00  0.19490764623E+03  0.19490764629E+03  0.50400001928E-02 0.  1.
        1   -1    0    0  501    0  0.00000000000E+00  0.00000000000E+00 -0.48160416973E+03  0.48160416976E+03  0.50400001928E-02 0. -1.
    10030    2    1    2    0    0  0.00000000000E+00  0.00000000000E+00 -0.28669652350E+03  0.67651181605E+03  0.61275879485E+03 0.  0.
        5    1    3    3  502    0 -0.88759146656E+02 -0.77217901414E+01  0.18024817579E+03  0.20112013085E+03  0.46999998093E+01 0.  1.
       -5    1    3    3    0  502  0.88759146656E+02  0.77217901414E+01 -0.46694469930E+03  0.47539168520E+03  0.46999998093E+01 0. -1.
</event>
<event>
 5   0  0.1146468E-01  0.6015253E+03  0.7818609E-02  0.9902247E-01
       -2   -1    0    0    0  501  0.00000000000E+00  0.00000000000E+00  0.49249488536E+03  0.49249488537E+03  0.25500000920E-02 0.  1.
        2   -1    0    0  501    0  0.00000000000E+00  0.00000000000E+00 -0.18367334071E+03  0.18367334073E+03  0.25500000920E-02 0. -1.
    10030    2    1    2    0    0  0.00000000000E+00  0.00000000000E+00  0.30882154465E+03  0.67616822610E+03  0.60152533076E+03 0.  0.
        4    1    3    3  502    0  0.83943827773E+02 -0.96526046023E+01  0.47887528537E+03  0.48627450153E+03  0.12699999809E+01 0.  1.
       -4    1    3    3    0  502 -0.83943827773E+02  0.96526046023E+01 -0.17005374072E+03  0.18989372457E+03  0.12699999809E+01 0. -1.
</event>
<event>
 5   0  0.7266519E-02  0.6085799E+03  0.7818609E-02  0.9887764E-01
       -1   -1    0    0    0  501  0.00000000000E+00  0.00000000000E+00  0.17081333702E+03  0.17081333710E+03  0.50400001928E-02 0.  1.
        1   -1    0    0  501    0  0.00000000000E+00  0.00000000000E+00 -0.54206753820E+03  0.54206753822E+03  0.50400001928E-02 0. -1.
    10030    2    1    2    0    0  0.00000000000E+00  0.00000000000E+00 -0.37125420117E+03  0.71288087532E+03  0.60857987192E+03 0.  0.
        4    1    3    3  502    0 -0.22208866391E+03  0.24243720135E+02 -0.42762391526E+03  0.48246757238E+03  0.12699999809E+01 0. -1.
       -4    1    3    3    0  502  0.22208866391E+03 -0.24243720135E+02  0.56369714082E+02  0.23041330293E+03  0.12699999809E+01 0.  1.
</event>
<event>
 5   0  0.1175861E-01  0.5985529E+03  0.7818609E-02  0.9908413E-01
       -2   -1    0    0    0  501  0.00000000000E+00  0.00000000000E+00  0.51541414718E+02  0.51541414782E+02  0.25500000920E-02 0. -1.
        2   -1    0    0  501    0  0.00000000000E+00  0.00000000000E+00 -0.17377559425E+04  0.17377559425E+04  0.25500000920E-02 0.  1.
    10030    2    1    2    0    0  0.00000000000E+00  0.00000000000E+00 -0.16862145278E+04  0.17892973573E+04  0.59855292087E+03 0.  0.
        3    1    3    3  502    0  0.15842179382E+03  0.11994649799E+03 -0.17411704529E+03  0.26419951325E+03  0.10100000352E+00 0. -1.
       -3    1    3    3    0  502 -0.15842179382E+03 -0.11994649799E+03 -0.15120974825E+04  0.15250978441E+04  0.10100000352E+00 0.  1.
</event>
<event>
 5   0  0.1166419E-01  0.5483218E+03  0.7818609E-02  0.1001883E+00
       -2   -1    0    0    0  501  0.00000000000E+00  0.00000000000E+00  0.44448736729E+02  0.44448736802E+02  0.25500000920E-02 0. -1.
        2   -1    0    0  501    0  0.00000000000E+00  0.00000000000E+00 -0.16910312019E+04  0.16910312019E+04  0.25500000920E-02 0.  1.
    10030    2    1    2    0    0  0.00000000000E+00  0.00000000000E+00 -0.16465824652E+04  0.17354799387E+04  0.54832180609E+03 0.  0.
        1    1    3    3  502    0 -0.14611386946E+03  0.22360934474E+03 -0.62782894797E+03  0.68228996024E+03  0.50400001928E-02 0.  1.
       -1    1    3    3    0  502  0.14611386946E+03 -0.22360934474E+03 -0.10187535172E+04  0.10531899785E+04  0.50400001928E-02 0. -1.
</event>
<event>
 5   0  0.7266519E-02  0.5926326E+03  0.7818609E-02  0.9920810E-01
        1   -1    0    0  501    0  0.00000000000E+00  0.00000000000E+00  0.18630280103E+03  0.18630280110E+03  0.50400001928E-02 0.  1.
       -1   -1    0    0    0  501  0.00000000000E+00  0.00000000000E+00 -0.47129372000E+03  0.47129372003E+03  0.50400001928E-02 0. -1.
    10030    2    1    2    0    0  0.00000000000E+00  0.00000000000E+00 -0.28499091897E+03  0.65759652113E+03  0.59263256804E+03 0.  0.
        4    1    3    3  502    0  0.28673875140E+02 -0.11496299639E+03 -0.44386087580E+03  0.45940480148E+03  0.12699999809E+01 0. -1.
       -4    1    3    3    0  502 -0.28673875140E+02  0.11496299639E+03  0.15886995683E+03  0.19819171965E+03  0.12699999809E+01 0.  1.
</event>
<event>
 5   0  0.1166419E-01  0.6061017E+03  0.7818609E-02  0.9892827E-01
       -2   -1    0    0    0  501  0.00000000000E+00  0.00000000000E+00  0.18719556040E+03  0.18719556042E+03  0.25500000920E-02 0.  1.
        2   -1    0    0  501    0  0.00000000000E+00  0.00000000000E+00 -0.49060901544E+03  0.49060901545E+03  0.25500000920E-02 0. -1.
    10030    2    1    2    0    0  0.00000000000E+00  0.00000000000E+00 -0.30341345504E+03  0.67780457587E+03  0.60610173929E+03 0.  0.
        1    1    3    3  502    0  0.25299834256E+03  0.49820083301E+02 -0.32975786700E+03  0.41860536656E+03  0.50400001928E-02 0. -1.
       -1    1    3    3    0  502 -0.25299834256E+03 -0.49820083301E+02  0.26344411961E+02  0.25919920931E+03  0.50400001928E-02 0.  1.
</event>
<event>
 5   0  0.1175861E-01  0.6016451E+03  0.7818609E-02  0.9901999E-01
        2   -1    0    0  501    0  0.00000000000E+00  0.00000000000E+00  0.60013270477E+03  0.60013270478E+03  0.25500000920E-02 0.  1.
       -2   -1    0    0    0  501  0.00000000000E+00  0.00000000000E+00 -0.15079031409E+03  0.15079031411E+03  0.25500000920E-02 0. -1.
    10030    2    1    2    0    0  0.00000000000E+00  0.00000000000E+00  0.44934239068E+03  0.75092301889E+03  0.60164507497E+03 0.  0.
        3    1    3    3  502    0 -0.29992544212E+03 -0.20952197613E+02  0.21219481081E+03  0.36799580616E+03  0.10100000352E+00 0. -1.
       -3    1    3    3    0  502  0.29992544212E+03  0.20952197613E+02  0.23714757987E+03  0.38292721273E+03  0.10100000352E+00 0.  1.
</event>
<event>
 5   0  0.7123340E-02  0.6082806E+03  0.7818609E-02  0.9888374E-01
       -1   -1    0    0    0  501  0.00000000000E+00  0.00000000000E+00  0.56036145756E+02  0.56036145983E+02  0.50400001928E-02 0.  1.
        1   -1    0    0  501    0  0.00000000000E+00  0.00000000000E+00 -0.16507437404E+04  0.16507437405E+04  0.50400001928E-02 0. -1.
    10030    2    1    2    0    0  0.00000000000E+00  0.00000000000E+00 -0.15947075947E+04  0.17067798864E+04  0.60828058343E+03 0.  0.
        2    1    3    3  502    0 -0.25144905621E+03 -0.12505910390E+03 -0.46971170141E+03  0.54726181101E+03  0.25500000920E-02 0.  1.
       -2    1    3    3    0  502  0.25144905621E+03  0.12505910390E+03 -0.11249958933E+04  0.11595180754E+04  0.25500000920E-02 0. -1.
</event>
<event>
 5   0  0.1175861E-01  0.5902443E+03  0.7818609E-02  0.9925855E-01
       -2   -1    0    0    0  501  0.00000000000E+00  0.00000000000E+00  0.16098523083E+03  0.16098523085E+03  0.25500000920E-02 0. -1.
        2   -1    0    0  501    0  0.00000000000E+00  0.00000000000E+00 -0.54102532083E+03  0.54102532084E+03  0.25500000920E-02 0.  1.
    10030    2    1    2    0    0  0.00000000000E+00  0.00000000000E+00 -0.38004009000E+03  0.70201055169E+03  0.59024430932E+03 0.  0.
        3    1    3    3  502    0 -0.36750763671E+02 -0.20547418958E+03 -0.43815632943E+03  0.48533621380E+03  0.10100000352E+00 0.  1.
       -3    1    3    3    0  502  0.36750763671E+02  0.20547418958E+03  0.58116239427E+02  0.21667433789E+03  0.10100000352E+00 0. -1.
</event>
<event>
 5   0  0.7266519E-02  0.5935513E+03  0.7818609E-02  0.9918876E-01
        1   -1    0    0  501    0  0.00000000000E+00  0.00000000000E+00  0.13466972349E+03  0.13466972359E+03  0.50400001928E-02 0. -1.
       -1   -1    0    0    0  501  0.00000000000E+00  0.00000000000E+00 -0.65401318730E+03  0.65401318732E+03  0.50400001928E-02 0.  1.
    10030    2    1    2    0    0  0.00000000000E+00  0.00000000000E+00 -0.51934346381E+03  0.78868291091E+03  0.59355126194E+03 0.  0.
        4    1    3    3  502    0 -0.13471621020E+03 -0.19256389743E+03 -0.50048357506E+03  0.55291476168E+03  0.12699999809E+01 0.  1.
       -4    1    3    3    0  502  0.13471621020E+03  0.19256389743E+03 -0.18859888749E+02  0.23576814922E+03  0.12699999809E+01 0. -1.
</event>
<event>
 5   0  0.4695625E-02  0.5390046E+03  0.7818609E-02  0.1004071E+00
        4   -1    0    0  501    0  0.00000000000E+00  0.00000000000E+00  0.50167748738E+03  0.50167909488E+03  0.12699999809E+01 0.  1.
       -4   -1    0    0    0  501  0.00000000000E+00  0.00000000000E+00 -0.14477265402E+03  0.14477822437E+03  0.12699999809E+01 0. -1.
    10030    2    1    2    0    0  0.00000000000E+00  0.00000000000E+00  0.35690483336E+03  0.64645731925E+03  0.53900464334E+03 0.  0.
        3    1    3    3  502    0  0.26321443171E+03  0.16484806108E+02  0.11191361480E+03  0.28649302482E+03  0.10100000352E+00 0. -1.
       -3    1    3    3    0  502 -0.26321443171E+03 -0.16484806108E+02  0.24499121856E+03  0.35996429443E+03  0.10100000352E+00 0.  1.
</event>
<event>
 5   0  0.7266519E-02  0.5947285E+03  0.7818609E-02  0.9916403E-01
       -1   -1    0    0    0  501  0.00000000000E+00  0.00000000000E+00  0.89197201218E+02  0.89197201361E+02  0.50400001928E-02 0.  1.
        1   -1    0    0  501    0  0.00000000000E+00  0.00000000000E+00 -0.99134833096E+03  0.99134833097E+03  0.50400001928E-02 0. -1.
    10030    2    1    2    0    0  0.00000000000E+00  0.00000000000E+00 -0.90215112974E+03  0.10805455323E+04  0.59472849818E+03 0.  0.
        4    1    3    3  502    0 -0.43376853151E+02 -0.15856098848E+03 -0.86970462354E+00  0.16439436652E+03  0.12699999809E+01 0.  1.
       -4    1    3    3    0  502  0.43376853151E+02  0.15856098848E+03 -0.90128142511E+03  0.91615116581E+03  0.12699999809E+01 0. -1.
</event>
<event>
 5   0  0.1166419E-01  0.6042857E+03  0.7818609E-02  0.9896554E-01
       -2   -1    0    0    0  501  0.00000000000E+00  0.00000000000E+00  0.12041392763E+03  0.12041392765E+03  0.25500000920E-02 0.  1.
        2   -1    0    0  501    0  0.00000000000E+00  0.00000000000E+00 -0.75813749673E+03  0.75813749673E+03  0.25500000920E-02 0. -1.
    10030    2    1    2    0    0  0.00000000000E+00  0.00000000000E+00 -0.63772356910E+03  0.87855142438E+03  0.60428573928E+03 0.  0.
        1    1    3    3  502    0  0.18684348525E+03  0.70731348405E+02 -0.64840228619E+03  0.67848281952E+03  0.50400001928E-02 0. -1.
       -1    1    3    3    0  502 -0.18684348525E+03 -0.70731348405E+02  0.10678717084E+02  0.20006860486E+03  0.50400001928E-02 0.  1.
</event>
<event>
 5   0  0.7263385E-02  0.6085251E+03  0.7818609E-02  0.9887875E-01
        1   -1    0    0  501    0  0.00000000000E+00  0.00000000000E+00  0.99195349970E+03  0.99195349971E+03  0.50400001928E-02 0. -1.
       -1   -1    0    0    0  501  0.00000000000E+00  0.00000000000E+00 -0.93326652699E+02  0.93326652835E+02  0.50400001928E-02 0.  1.
    10030    2    1    2    0    0  0.00000000000E+00  0.00000000000E+00  0.89862684700E+03  0.10852801525E+04  0.60852510167E+03 0.  0.
        1    1    3    3  502    0  0.18197823103E+02  0.26941282358E+03  0.19923907748E+03  0.33557508890E+03  0.50400001928E-02 0.  1.
       -1    1    3    3    0  502 -0.18197823103E+02 -0.26941282358E+03  0.69938776952E+03  0.74970506364E+03  0.50400001928E-02 0. -1.
</event>
<event>
 5   0  0.7123340E-02  0.5492205E+03  0.7818609E-02  0.1001675E+00
        1   -1    0    0  501    0  0.00000000000E+00  0.00000000000E+00  0.12341572617E+04  0.12341572617E+04  0.50400001928E-02 0.  1.
       -1   -1    0    0    0  501  0.00000000000E+00  0.00000000000E+00 -0.61103053259E+02  0.61103053466E+02  0.50400001928E-02 0. -1.
    10030    2    1    2    0    0  0.00000000000E+00  0.00000000000E+00  0.11730542084E+04  0.12952603152E+04  0.54922045494E+03 0.  0.
        2    1    3    3  502    0 -0.56401818598E+02 -0.20264519400E+03  0.10028599712E+04  0.10246825663E+04  0.25500000920E-02 0.  1.
       -2    1    3    3    0  502  0.56401818598E+02  0.20264519400E+03  0.17019423720E+03  0.27057774886E+03  0.25500000920E-02 0. -1.
</event>
<event>
 5   0  0.1219020E-01  0.5788851E+03  0.7818609E-02  0.9950208E-01
       -2   -1    0    0    0  501  0.00000000000E+00  0.00000000000E+00  0.17694050577E+03  0.17694050579E+03  0.25500000920E-02 0. -1.
        2   -1    0    0  501    0  0.00000000000E+00  0.00000000000E+00 -0.47347546404E+03  0.47347546405E+03  0.25500000920E-02 0.  1.
    10030    2    1    2    0    0  0.00000000000E+00  0.00000000000E+00 -0.29653495827E+03  0.65041596983E+03  0.57888509424E+03 0.  0.
        2    1    3    3  502    0  0.34326417013E+02  0.53020197474E+02  0.16910289005E+03  0.18051379912E+03  0.25500000920E-02 0. -1.
       -2    1    3    3    0  502 -0.34326417013E+02 -0.53020197474E+02 -0.46563784832E+03  0.46990217071E+03  0.25500000920E-02 0.  1.
</event>
<event>
 5   0  0.1219020E-01  0.6006436E+03  0.7818609E-02  0.9904072E-01
        2   -1    0    0  501    0  0.00000000000E+00  0.00000000000E+00  0.88999918813E+03  0.88999918813E+03  0.25500000920E-02 0. -1.
       -2   -1    0    0    0  501  0.00000000000E+00  0.00000000000E+00 -0.10134074851E+03  0.10134074854E+03  0.25500000920E-02 0.  1.
    10030    2    1    2    0    0  0.00000000000E+00  0.00000000000E+00  0.78865843961E+03  0.99133993667E+03  0.60064360121E+03 0.  0.
        2    1    3    3  502    0 -0.25022156692E+02 -0.20089758816E+03  0.76044649978E+03  0.78693381443E+03  0.25500000920E-02 0. -1.
       -2    1    3    3    0  502  0.25022156692E+02  0.20089758816E+03  0.28211939833E+02  0.20440612225E+03  0.25500000920E-02 0.  1.
</event>
<event>
 5   0  0.4695625E-02  0.6034471E+03  0.7818609E-02  0.9898280E-01
        4   -1    0    0  501    0  0.00000000000E+00  0.00000000000E+00  0.23826826871E+03  0.23827165332E+03  0.12699999809E+01 0.  1.
       -4   -1    0    0    0  501  0.00000000000E+00  0.00000000000E+00 -0.38207098589E+03  0.38207309661E+03  0.12699999809E+01 0. -1.
    10030    2    1    2    0    0  0.00000000000E+00  0.00000000000E+00 -0.14380271717E+03  0.62034474993E+03  0.60344708741E+03 0.  0.
        2    1    3    3  502    0  0.12528451538E+03 -0.58709002601E+02 -0.34754035642E+03  0.37406851796E+03  0.25500000920E-02 0. -1.
       -2    1    3    3    0  502 -0.12528451538E+03  0.58709002601E+02  0.20373763925E+03  0.24627623197E+03  0.25500000920E-02 0.  1.
</event>
<event>
 5   0  0.1166419E-01  0.5996042E+03  0.7818609E-02  0.9906228E-01
       -2   -1    0    0    0  501  0.00000000000E+00  0.00000000000E+00  0.84207418957E+02  0.84207418996E+02  0.25500000920E-02 0.  1.
        2   -1    0    0  501    0  0.00000000000E+00  0.00000000000E+00 -0.10673796702E+04  0.10673796702E+04  0.25500000920E-02 0. -1.
    10030    2    1    2    0    0  0.00000000000E+00  0.00000000000E+00 -0.98317225120E+03  0.11515870892E+04  0.59960415974E+03 0.  0.
        1    1    3    3  502    0  0.65261595624E+01 -0.19710881220E+03 -0.57914426876E+02  0.20554453403E+03  0.50400001928E-02 0.  1.
       -1    1    3    3    0  502 -0.65261595624E+01  0.19710881220E+03 -0.92525782432E+03  0.94604255512E+03  0.50400001928E-02 0. -1.
</event>
<event>
 5   0  0.7424930E-02  0.5990868E+03  0.7818609E-02  0.9907303E-01
        1   -1    0    0  501    0  0.00000000000E+00  0.00000000000E+00  0.38392625871E+03  0.38392625875E+03  0.50400001928E-02 0. -1.
       -1   -1    0    0    0  501  0.00000000000E+00  0.00000000000E+00 -0.23370695267E+03  0.23370695272E+03  0.50400001928E-02 0.  1.
    10030    2    1    2    0    0  0.00000000000E+00  0.00000000000E+00  0.15021930604E+03  0.61763321147E+03  0.59908675833E+03 0.  0.
        3    1    3    3  502    0  0.26067118246E+02 -0.26011171361E+03  0.22588570937E+03  0.34548800574E+03  0.10100000352E+00 0. -1.
       -3    1    3    3    0  502 -0.26067118246E+02  0.26011171361E+03 -0.75666403327E+02  0.27214520573E+03  0.10100000352E+00 0.  1.
</event>
<event>
 5   0  0.1146468E-01  0.6565108E+03  0.7818609E-02  0.9794638E-01
        2   -1    0    0  501    0  0.00000000000E+00  0.00000000000E+00  0.55047497521E+03  0.55047497522E+03  0.25500000920E-02 0. -1.
       -2   -1    0    0    0  501  0.00000000000E+00  0.00000000000E+00 -0.19574296716E+03  0.19574296718E+03  0.25500000920E-02 0.  1.
    10030    2    1    2    0    0  0.00000000000E+00  0.00000000000E+00  0.35473200805E+03  0.74621794239E+03  0.65651079200E+03 0.  0.
        4    1    3    3  502    0 -0.36503640474E+02  0.16889855959E+03 -0.13985853028E+03  0.22230893053E+03  0.12699999809E+01 0.  1.
       -4    1    3    3    0  502  0.36503640474E+02 -0.16889855959E+03  0.49459053833E+03  0.52390901186E+03  0.12699999809E+01 0. -1.
</event>
<event>
 5   0  0.1206238E-01  0.6036895E+03  0.7818609E-02  0.9897781E-01
        2   -1    0    0  501    0  0.00000000000E+00  0.00000000000E+00  0.56696944872E+03  0.56696944873E+03  0.25500000920E-02 0.  1.
       -2   -1    0    0    0  501  0.00000000000E+00  0.00000000000E+00 -0.16069695693E+03  0.16069695695E+03  0.25500000920E-02 0. -1.
    10030    2    1    2    0    0  0.00000000000E+00  0.00000000000E+00  0.40627249179E+03  0.72766640568E+03  0.60368953972E+03 0.  0.
        5    1    3    3  502    0 -0.64680601056E+01 -0.82019911916E+02  0.55314716012E+03  0.55925215466E+03  0.46999998093E+01 0.  1.
       -5    1    3    3    0  502  0.64680601056E+01  0.82019911916E+02 -0.14687466833E+03  0.16841425102E+03  0.46999998093E+01 0. -1.
</event>
<event>
 5   0  0.1175861E-01  0.5988892E+03  0.7818609E-02  0.9907713E-01
        2   -1    0    0  501    0  0.00000000000E+00  0.00000000000E+00  0.44660285010E+03  0.44660285011E+03  0.25500000920E-02 0. -1.
       -2   -1    0    0    0  501  0.00000000000E+00  0.00000000000E+00 -0.20077584894E+03  0.20077584896E+03  0.25500000920E-02 0.  1.
    10030    2    1    2    0    0  0.00000000000E+00  0.00000000000E+00  0.24582700116E+03  0.64737869906E+03  0.59888919301E+03 0.  0.
        3    1    3    3  502    0 -0.15200939609E+03 -0.55525952845E+02 -0.14943209698E+03  0.22027244437E+03  0.10100000352E+00 0.  1.
       -3    1    3    3    0  502  0.15200939609E+03  0.55525952845E+02  0.39525909814E+03  0.42710625470E+03  0.10100000352E+00 0. -1.
</event>
<event>
 5   0  0.7263385E-02  0.6002784E+03  0.7818609E-02  0.9904829E-01
       -1   -1    0    0    0  501  0.00000000000E+00  0.00000000000E+00  0.76093484737E+02  0.76093484904E+02  0.50400001928E-02 0. -1.
        1   -1    0    0  501    0  0.00000000000E+00  0.00000000000E+00 -0.11838534674E+04  0.11838534675E+04  0.50400001928E-02 0.  1.
    10030    2    1    2    0    0  0.00000000000E+00  0.00000000000E+00 -0.11077599827E+04  0.12599469524E+04  0.60027838831E+03 0.  0.
        1    1    3    3  502    0 -0.13475752263E+03 -0.23295465391E+03 -0.83277878577E+03  0.87518453296E+03  0.50400001928E-02 0.  1.
       -1    1    3    3    0  502  0.13475752263E+03  0.23295465391E+03 -0.27498119694E+03  0.38476241940E+03  0.50400001928E-02 0. -1.
</event>
<event>
 5   0  0.4695625E-02  0.6262891E+03  0.7818609E-02  0.9852317E-01
       -4   -1    0    0    0  501  0.00000000000E+00  0.00000000000E+00  0.23193137316E+03  0.23193485024E+03  0.12699999809E+01 0.  1.
        4   -1    0    0  501    0  0.00000000000E+00  0.00000000000E+00 -0.42278782521E+03  0.42278973267E+03  0.12699999809E+01 0. -1.
    10030    2    1    2    0    0  0.00000000000E+00  0.00000000000E+00 -0.19085645206E+03  0.65472458291E+03  0.62628914582E+03 0.  0.
        1    1    3    3  502    0  0.14572731425E+03  0.12065480788E+03  0.16543176215E+03  0.25131991711E+03  0.50400001928E-02 0.  1.
       -1    1    3    3    0  502 -0.14572731425E+03 -0.12065480788E+03 -0.35628821420E+03  0.40340466580E+03  0.50400001928E-02 0. -1.
</event>
<event>
 5   0  0.7123340E-02  0.5579044E+03  0.7818609E-02  0.9996808E-01
        1   -1    0    0  501    0  0.00000000000E+00  0.00000000000E+00  0.99643906220E+03  0.99643906221E+03  0.50400001928E-02 0.  1.
       -1   -1    0    0    0  501  0.00000000000E+00  0.00000000000E+00 -0.78092402394E+02  0.78092402557E+02  0.50400001928E-02 0. -1.
    10030    2    1    2    0    0  0.00000000000E+00  0.00000000000E+00  0.91834665981E+03  0.10745314648E+04  0.55790436564E+03 0.  0.
        2    1    3    3  502    0  0.49078874414E+02  0.12713502098E+03  0.92795996963E+03  0.93791351132E+03  0.25500000920E-02 0.  1.
       -2    1    3    3    0  502 -0.49078874414E+02 -0.12713502098E+03 -0.96133098182E+01  0.13661795346E+03  0.25500000920E-02 0. -1.
</event>
<event>
 5   0  0.1219020E-01  0.6046176E+03  0.7818609E-02  0.9895872E-01
       -2   -1    0    0    0  501  0.00000000000E+00  0.00000000000E+00  0.43325155877E+02  0.43325155952E+02  0.25500000920E-02 0. -1.
        2   -1    0    0  501    0  0.00000000000E+00  0.00000000000E+00 -0.21094119338E+04  0.21094119338E+04  0.25500000920E-02 0.  1.
    10030    2    1    2    0    0  0.00000000000E+00  0.00000000000E+00 -0.20660867779E+04  0.21527370897E+04  0.60461756813E+03 0.  0.
        2    1    3    3  502    0 -0.74367719632E+02  0.93364009168E+02 -0.44128147827E+02  0.12725835677E+03  0.25500000920E-02 0. -1.
       -2    1    3    3    0  502  0.74367719632E+02 -0.93364009168E+02 -0.20219586301E+04  0.20254787330E+04  0.25500000920E-02 0.  1.
</event>
<event>
 5   0  0.1146468E-01  0.6021461E+03  0.7818609E-02  0.9900964E-01
        2   -1    0    0  501    0  0.00000000000E+00  0.00000000000E+00  0.82323301968E+03  0.82323301968E+03  0.25500000920E-02 0.  1.
       -2   -1    0    0    0  501  0.00000000000E+00  0.00000000000E+00 -0.11010852486E+03  0.11010852489E+03  0.25500000920E-02 0. -1.
    10030    2    1    2    0    0  0.00000000000E+00  0.00000000000E+00  0.71312449482E+03  0.93334154458E+03  0.60214607341E+03 0.  0.
        4    1    3    3  502    0 -0.10150659351E+03  0.81403746154E+01 -0.82599854814E+02  0.13112666830E+03  0.12699999809E+01 0. -1.
       -4    1    3    3    0  502  0.10150659351E+03 -0.81403746154E+01  0.79572434963E+03  0.80221487628E+03  0.12699999809E+01 0.  1.
</event>
<event>
 5   0  0.1206238E-01  0.6026269E+03  0.7818609E-02  0.9899971E-01
        2   -1    0    0  501    0  0.00000000000E+00  0.00000000000E+00  0.89033220109E+03  0.89033220110E+03  0.25500000920E-02 0.  1.
       -2   -1    0    0    0  501  0.00000000000E+00  0.00000000000E+00 -0.10197292973E+03  0.10197292976E+03  0.25500000920E-02 0. -1.
    10030    2    1    2    0    0  0.00000000000E+00  0.00000000000E+00  0.78835927137E+03  0.99230513086E+03  0.60262685966E+03 0.  0.
        5    1    3    3  502    0  0.21238338849E+03 -0.21123222728E+03  0.34102793571E+03  0.45392499434E+03  0.46999998093E+01 0. -1.
       -5    1    3    3    0  502 -0.21238338849E+03  0.21123222728E+03  0.44733133565E+03  0.53838013652E+03  0.46999998093E+01 0.  1.
</event>
<event>
 5   0  0.7266519E-02  0.5873950E+03  0.7818609E-02  0.9931908E-01
        1   -1    0    0  501    0  0.00000000000E+00  0.00000000000E+00  0.10435323416E+03  0.10435323428E+03  0.50400001928E-02 0. -1.
       -1   -1    0    0    0  501  0.00000000000E+00  0.00000000000E+00 -0.82659845663E+03  0.82659845664E+03  0.50400001928E-02 0.  1.
    10030    2    1    2    0    0  0.00000000000E+00  0.00000000000E+00 -0.72224522247E+03  0.93095169092E+03  0.58739500291E+03 0.  0.
        4    1    3    3  502    0  0.23720140185E+03  0.15239644557E+03 -0.49150193166E+03  0.56662592898E+03  0.12699999809E+01 0. -1.
       -4    1    3    3    0  502 -0.23720140185E+03 -0.15239644557E+03 -0.23074329081E+03  0.36432576194E+03  0.12699999809E+01 0.  1.
</event>
<event>
 5   0  0.7266519E-02  0.5981386E+03  0.7818609E-02  0.9909275E-01
        1   -1    0    0  501    0  0.00000000000E+00  0.00000000000E+00  0.12901041195E+03  0.12901041205E+03  0.50400001928E-02 0. -1.
       -1   -1    0    0    0  501  0.00000000000E+00  0.00000000000E+00 -0.69329641032E+03  0.69329641034E+03  0.50400001928E-02 0.  1.
    10030    2    1    2    0    0  0.00000000000E+00  0.00000000000E+00 -0.56428599837E+03  0.82230682239E+03  0.59813863124E+03 0.  0.
        4    1    3    3  502    0  0.14167042337E+03  0.95494432255E+01  0.79710928429E+02  0.16284086015E+03  0.12699999809E+01 0. -1.
       -4    1    3    3    0  502 -0.14167042337E+03 -0.95494432255E+01 -0.64399692680E+03  0.65946596224E+03  0.12699999809E+01 0.  1.
</event>
<event>
 5   0  0.1219020E-01  0.5978423E+03  0.7818609E-02  0.9909893E-01
       -2   -1    0    0    0  501  0.00000000000E+00  0.00000000000E+00  0.10679224667E+03  0.10679224670E+03  0.25500000920E-02 0.  1.
        2   -1    0    0  501    0  0.00000000000E+00  0.00000000000E+00 -0.83670717853E+03  0.83670717853E+03  0.25500000920E-02 0. -1.
    10030    2    1    2    0    0  0.00000000000E+00  0.00000000000E+00 -0.72991493186E+03  0.94349942524E+03  0.59784225150E+03 0.  0.
        2    1    3    3  502    0 -0.27738336550E+03  0.73212532862E+02 -0.23242619550E+03  0.36922018198E+03  0.25500000920E-02 0.  1.
       -2    1    3    3    0  502  0.27738336550E+03 -0.73212532862E+02 -0.49748873636E+03  0.57427924325E+03  0.25500000920E-02 0. -1.
</event>
<event>
 5   0  0.1166419E-01  0.5870089E+03  0.7818609E-02  0.9932731E-01
       -2   -1    0    0    0  501  0.00000000000E+00  0.00000000000E+00  0.59267428702E+03  0.59267428702E+03  0.25500000920E-02 0. -1.
        2   -1    0    0  501    0  0.00000000000E+00  0.00000000000E+00 -0.14534939294E+03  0.14534939297E+03  0.25500000920E-02 0.  1.
    10030    2    1    2    0    0  0.00000000000E+00  0.00000000000E+00  0.44732489408E+03  0.73802367999E+03  0.58700885118E+03 0.  0.
        1    1    3    3  502    0 -0.12320517552E+03 -0.79164104475E+02 -0.96133047136E+02  0.17518000311E+03  0.50400001928E-02 0.  1.
       -1    1    3    3    0  502  0.12320517552E+03  0.79164104475E+02  0.54345794121E+03  0.56284367688E+03  0.50400001928E-02 0. -1.
</event>
<event>
 5   0  0.1166419E-01  0.6044223E+03  0.7818609E-02  0.9896274E-01
        2   -1    0    0  501    0  0.00000000000E+00  0.00000000000E+00  0.52758665830E+03  0.52758665830E+03  0.25500000920E-02 0. -1.
       -2   -1    0    0    0  501  0.00000000000E+00  0.00000000000E+00 -0.17311196755E+03  0.17311196757E+03  0.25500000920E-02 0.  1.
    10030    2    1    2    0    0  0.00000000000E+00  0.00000000000E+00  0.35447469075E+03  0.70069862587E+03  0.60442225134E+03 0.  0.
        1    1    3    3  502    0 -0.41985626577E+02 -0.21165863830E+03  0.42252823708E+03  0.47443891404E+03  0.50400001928E-02 0. -1.
       -1    1    3    3    0  502  0.41985626577E+02  0.21165863830E+03 -0.68053546329E+02  0.22625971183E+03  0.50400001928E-02 0.  1.
</event>
<event>
 5   0  0.4695625E-02  0.5983995E+03  0.7818609E-02  0.9908732E-01
       -4   -1    0    0    0  501  0.00000000000E+00  0.00000000000E+00  0.35833897925E+03  0.35834122977E+03  0.12699999809E+01 0. -1.
        4   -1    0    0  501    0  0.00000000000E+00  0.00000000000E+00 -0.24981603398E+03  0.24981926214E+03  0.12699999809E+01 0.  1.
    10030    2    1    2    0    0  0.00000000000E+00  0.00000000000E+00  0.10852294527E+03  0.60816049191E+03  0.59839949387E+03 0.  0.
        5    1    3    3  502    0  0.73100791117E+02 -0.14802945046E+03  0.30781438166E+03  0.34932538903E+03  0.46999998093E+01 0. -1.
       -5    1    3    3    0  502 -0.73100791117E+02  0.14802945046E+03 -0.19929143639E+03  0.25883510288E+03  0.46999998093E+01 0.  1.
</event>
<event>
 5   0  0.1206238E-01  0.5879379E+03  0.7818609E-02  0.9930752E-01
       -2   -1    0    0    0  501  0.00000000000E+00  0.00000000000E+00  0.19711266540E+03  0.19711266542E+03  0.25500000920E-02 0. -1.
        2   -1    0    0  501    0  0.00000000000E+00  0.00000000000E+00 -0.43841801699E+03  0.43841801700E+03  0.25500000920E-02 0.  1.
    10030    2    1    2    0    0  0.00000000000E+00  0.00000000000E+00 -0.24130535159E+03  0.63553068241E+03  0.58793790113E+03 0.  0.
        5    1    3    3  502    0 -0.24536253899E+03 -0.15737651582E+03 -0.16146490289E+03  0.33326138110E+03  0.46999998093E+01 0.  1.
       -5    1    3    3    0  502  0.24536253899E+03  0.15737651582E+03 -0.79840448702E+02  0.30226930131E+03  0.46999998093E+01 0. -1.
</event>
<event>
 5   0  0.7266519E-02  0.5897092E+03  0.7818609E-02  0.9926989E-01
        1   -1    0    0  501    0  0.00000000000E+00  0.00000000000E+00  0.45280708484E+03  0.45280708487E+03  0.50400001928E-02 0. -1.
       -1   -1    0    0    0  501  0.00000000000E+00  0.00000000000E+00 -0.19200058095E+03  0.19200058102E+03  0.50400001928E-02 0.  1.
    10030    2    1    2    0    0  0.00000000000E+00  0.00000000000E+00  0.26080650389E+03  0.64480766589E+03  0.58970916011E+03 0.  0.
        4    1    3    3  502    0  0.14705658580E+03  0.10229800361E+03  0.38647938994E+03  0.42597940410E+03  0.12699999809E+01 0. -1.
       -4    1    3    3    0  502 -0.14705658580E+03 -0.10229800361E+03 -0.12567288605E+03  0.21882826179E+03  0.12699999809E+01 0.  1.
</event>
<event>
 5   0  0.7263385E-02  0.6011784E+03  0.7818609E-02  0.9902964E-01
       -1   -1    0    0    0  501  0.00000000000E+00  0.00000000000E+00  0.65686288200E+02  0.65686288393E+02  0.50400001928E-02 0.  1.
        1   -1    0    0  501    0  0.00000000000E+00  0.00000000000E+00 -0.13755359715E+04  0.13755359715E+04  0.50400001928E-02 0. -1.
    10030    2    1    2    0    0  0.00000000000E+00  0.00000000000E+00 -0.13098496833E+04  0.14412222599E+04  0.60117835089E+03 0.  0.
        1    1    3    3  502    0 -0.88878736545E+02 -0.10703869205E+03 -0.12937000592E+04  0.13011596960E+04  0.50400001928E-02 0. -1.
       -1    1    3    3    0  502  0.88878736545E+02  0.10703869205E+03 -0.16149624076E+02  0.14006256384E+03  0.50400001928E-02 0.  1.
</event>
<event>
 5   0  0.7263385E-02  0.6221119E+03  0.7818609E-02  0.9860564E-01
        1   -1    0    0  501    0  0.00000000000E+00  0.00000000000E+00  0.30058964675E+03  0.30058964679E+03  0.50400001928E-02 0. -1.
       -1   -1    0    0    0  501  0.00000000000E+00  0.00000000000E+00 -0.32188666157E+03  0.32188666161E+03  0.50400001928E-02 0.  1.
    10030    2    1    2    0    0  0.00000000000E+00  0.00000000000E+00 -0.21297014819E+02  0.62247630839E+03  0.62211188035E+03 0.  0.
        1    1    3    3  502    0 -0.19610472405E+03 -0.10801123201E+03  0.20542314392E+03  0.30384561395E+03  0.50400001928E-02 0. -1.
       -1    1    3    3    0  502  0.19610472405E+03  0.10801123201E+03 -0.22672015874E+03  0.31863069444E+03  0.50400001928E-02 0.  1.
</event>
<event>
 5   0  0.4695625E-02  0.5542958E+03  0.7818609E-02  0.1000504E+00
        4   -1    0    0  501    0  0.00000000000E+00  0.00000000000E+00  0.11881805728E+04  0.11881812515E+04  0.12699999809E+01 0.  1.
       -4   -1    0    0    0  501  0.00000000000E+00  0.00000000000E+00 -0.64638925613E+02  0.64651400637E+02  0.12699999809E+01 0. -1.
    10030    2    1    2    0    0  0.00000000000E+00  0.00000000000E+00  0.11235416472E+04  0.12528326522E+04  0.55429578870E+03 0.  0.
        5    1    3    3  502    0 -0.47238911660E+01  0.26571082634E+03  0.38431362832E+03  0.46727252572E+03  0.46999998093E+01 0. -1.
       -5    1    3    3    0  502  0.47238911660E+01 -0.26571082634E+03  0.73922801889E+03  0.78556012646E+03  0.46999998093E+01 0.  1.
</event>
<event>
 5   0  0.4695625E-02  0.5834555E+03  0.7818609E-02  0.9940338E-01
       -3   -1    0    0    0  501  0.00000000000E+00  0.00000000000E+00  0.24303571558E+03  0.24303573656E+03  0.10100000352E+00 0. -1.
        3   -1    0    0  501    0  0.00000000000E+00  0.00000000000E+00 -0.35017518426E+03  0.35017519882E+03  0.10100000352E+00 0.  1.
    10030    2    1    2    0    0  0.00000000000E+00  0.00000000000E+00 -0.10713946868E+03  0.59321093539E+03  0.58345552368E+03 0.  0.
        3    1    3    3  502    0  0.70492997201E+02 -0.23926314579E+03 -0.20739031074E+03  0.32438690907E+03  0.10100000352E+00 0.  1.
       -3    1    3    3    0  502 -0.70492997201E+02  0.23926314579E+03  0.10025084206E+03  0.26882402631E+03  0.10100000352E+00 0. -1.
</event>
<event>
 5   0  0.7263385E-02  0.6459554E+03  0.7818609E-02  0.9814398E-01
        1   -1    0    0  501    0  0.00000000000E+00  0.00000000000E+00  0.11332854233E+04  0.11332854233E+04  0.50400001928E-02 0.  1.
       -1   -1    0    0    0  501  0.00000000000E+00  0.00000000000E+00 -0.92046187372E+02  0.92046187510E+02  0.50400001928E-02 0. -1.
    10030    2    1    2    0    0  0.00000000000E+00  0.00000000000E+00  0.10412392359E+04  0.12253316108E+04  0.64595542418E+03 0.  0.
        1    1    3    3  502    0  0.30595206516E+03 -0.54134939807E+02  0.68790837680E+03  0.75482129857E+03  0.50400001928E-02 0.  1.
       -1    1    3    3    0  502 -0.30595206516E+03  0.54134939807E+02  0.35333085908E+03  0.47051031220E+03  0.50400001928E-02 0. -1.
</event>
<event>
 5   0  0.1175861E-01  0.6005993E+03  0.7818609E-02  0.9904163E-01
       -2   -1    0    0    0  501  0.00000000000E+00  0.00000000000E+00  0.79318454087E+02  0.79318454128E+02  0.25500000920E-02 0.  1.
        2   -1    0    0  501    0  0.00000000000E+00  0.00000000000E+00 -0.11369344009E+04  0.11369344009E+04  0.25500000920E-02 0. -1.
    10030    2    1    2    0    0  0.00000000000E+00  0.00000000000E+00 -0.10576159468E+04  0.12162528550E+04  0.60059929772E+03 0.  0.
        3    1    3    3  502    0  0.30010336511E+02  0.72022249953E+01  0.76098336546E+02  0.82118568963E+02  0.10100000352E+00 0.  1.
       -3    1    3    3    0  502 -0.30010336511E+02 -0.72022249953E+01 -0.11337142834E+04  0.11341342861E+04  0.10100000352E+00 0. -1.
</event>
<event>
 5   0  0.7263385E-02  0.6036129E+03  0.7818609E-02  0.9897939E-01
       -1   -1    0    0    0  501  0.00000000000E+00  0.00000000000E+00  0.15465899760E+03  0.15465899768E+03  0.50400001928E-02 0.  1.
        1   -1    0    0  501    0  0.00000000000E+00  0.00000000000E+00 -0.58895464134E+03  0.58895464136E+03  0.50400001928E-02 0. -1.
    10030    2    1    2    0    0  0.00000000000E+00  0.00000000000E+00 -0.43429564375E+03  0.74361363904E+03  0.60361290410E+03 0.  0.
        1    1    3    3  502    0 -0.13534011305E+03 -0.23340545271E+02  0.11393285224E+03  0.17844445102E+03  0.50400001928E-02 0.  1.
       -1    1    3    3    0  502  0.13534011305E+03  0.23340545271E+02 -0.54822849599E+03  0.56516918802E+03  0.50400001928E-02 0. -1.
</event>
<event>
 5   0  0.1146468E-01  0.5984752E+03  0.7818609E-02  0.9908574E-01
        2   -1    0    0  501    0  0.00000000000E+00  0.00000000000E+00  0.18167878676E+04  0.18167878676E+04  0.25500000920E-02 0.  1.
       -2   -1    0    0    0  501  0.00000000000E+00  0.00000000000E+00 -0.49286522162E+02  0.49286522228E+02  0.25500000920E-02 0. -1.
    10030    2    1    2    0    0  0.00000000000E+00  0.00000000000E+00  0.17675013454E+04  0.18660743898E+04  0.59847524781E+03 0.  0.
        4    1    3    3  502    0  0.68290203662E+02  0.10100492609E+03  0.17358167399E+04  0.17400939384E+04  0.12699999809E+01 0.  1.
       -4    1    3    3    0  502 -0.68290203662E+02 -0.10100492609E+03  0.31684605505E+02  0.12598045141E+03  0.12699999809E+01 0. -1.
</event>
<event>
 5   0  0.1175861E-01  0.6802861E+03  0.7818609E-02  0.9751552E-01
        2   -1    0    0  501    0  0.00000000000E+00  0.00000000000E+00  0.13844769809E+04  0.13844769809E+04  0.25500000920E-02 0.  1.
       -2   -1    0    0    0  501  0.00000000000E+00  0.00000000000E+00 -0.83567502264E+02  0.83567502303E+02  0.25500000920E-02 0. -1.
    10030    2    1    2    0    0  0.00000000000E+00  0.00000000000E+00  0.13009094786E+04  0.14680444832E+04  0.68028606708E+03 0.  0.
        3    1    3    3  502    0  0.11504839752E+03 -0.29414164806E+03  0.37798597125E+03  0.49257369759E+03  0.10100000352E+00 0. -1.
       -3    1    3    3    0  502 -0.11504839752E+03  0.29414164806E+03  0.92292350737E+03  0.97547078560E+03  0.10100000352E+00 0.  1.
</event>
<event>
 5   0  0.1219020E-01  0.6058032E+03  0.7818609E-02  0.9893439E-01
       -2   -1    0    0    0  501  0.00000000000E+00  0.00000000000E+00  0.93128309243E+02  0.93128309278E+02  0.25500000920E-02 0.  1.
        2   -1    0    0  501    0  0.00000000000E+00  0.00000000000E+00 -0.98519338563E+03  0.98519338563E+03  0.25500000920E-02 0. -1.
    10030    2    1    2    0    0  0.00000000000E+00  0.00000000000E+00 -0.89206507638E+03  0.10783216949E+04  0.60580324958E+03 0.  0.
        2    1    3    3  502    0 -0.25855621577E+03  0.25931360621E+02 -0.72308013857E+03  0.76835450085E+03  0.25500000920E-02 0. -1.
       -2    1    3    3    0  502  0.25855621577E+03 -0.25931360621E+02 -0.16898493782E+03  0.30996719406E+03  0.25500000920E-02 0.  1.
</event>
<event>
 5   0  0.7221069E-02  0.6202944E+03  0.7818609E-02  0.9864174E-01
        1   -1    0    0  501    0  0.00000000000E+00  0.00000000000E+00  0.36716180037E+03  0.36716180041E+03  0.50400001928E-02 0. -1.
       -1   -1    0    0    0  501  0.00000000000E+00  0.00000000000E+00 -0.26198611406E+03  0.26198611411E+03  0.50400001928E-02 0.  1.
    10030    2    1    2    0    0  0.00000000000E+00  0.00000000000E+00  0.10517568631E+03  0.62914791451E+03  0.62029442472E+03 0.  0.
        5    1    3    3  502    0  0.16813698142E+03  0.64193061234E+02 -0.20356060357E+03  0.27175320229E+03  0.46999998093E+01 0.  1.
       -5    1    3    3    0  502 -0.16813698142E+03 -0.64193061234E+02  0.30873628989E+03  0.35739471222E+03  0.46999998093E+01 0. -1.
</event>
<event>
 5   0  0.7263385E-02  0.6137708E+03  0.7818609E-02  0.9877241E-01
        1   -1    0    0  501    0  0.00000000000E+00  0.00000000000E+00  0.14371924835E+04  0.14371924835E+04  0.50400001928E-02 0. -1.
       -1   -1    0    0    0  501  0.00000000000E+00  0.00000000000E+00 -0.65529599431E+02  0.65529599624E+02  0.50400001928E-02 0.  1.
    10030    2    1    2    0    0  0.00000000000E+00  0.00000000000E+00  0.13716628841E+04  0.15027220831E+04  0.61377079728E+03 0.  0.
        1    1    3    3  502    0 -0.20579852289E+03 -0.22669265502E+03  0.63470523358E+03  0.70469378131E+03  0.50400001928E-02 0. -1.
       -1    1    3    3    0  502  0.20579852289E+03  0.22669265502E+03  0.73695765048E+03  0.79802830181E+03  0.50400001928E-02 0.  1.
</event>
<event>
 5   0  0.1166419E-01  0.5956011E+03  0.7818609E-02  0.9914575E-01
       -2   -1    0    0    0  501  0.00000000000E+00  0.00000000000E+00  0.48039040534E+02  0.48039040602E+02  0.25500000920E-02 0.  1.
        2   -1    0    0  501    0  0.00000000000E+00  0.00000000000E+00 -0.18461064053E+04  0.18461064053E+04  0.25500000920E-02 0. -1.
    10030    2    1    2    0    0  0.00000000000E+00  0.00000000000E+00 -0.17980673647E+04  0.18941454459E+04  0.59560114338E+03 0.  0.
        1    1    3    3  502    0  0.25549949225E+03 -0.13087992904E+03 -0.11509675818E+04  0.11862276007E+04  0.50400001928E-02 0. -1.
       -1    1    3    3    0  502 -0.25549949225E+03  0.13087992904E+03 -0.64709978292E+03  0.70791784513E+03  0.50400001928E-02 0.  1.
</event>
<event>
 5   0  0.1146468E-01  0.5815234E+03  0.7818609E-02  0.9944498E-01
       -2   -1    0    0    0  501  0.00000000000E+00  0.00000000000E+00  0.94577656738E+02  0.94577656772E+02  0.25500000920E-02 0. -1.
        2   -1    0    0  501    0  0.00000000000E+00  0.00000000000E+00 -0.89389358924E+03  0.89389358925E+03  0.25500000920E-02 0.  1.
    10030    2    1    2    0    0  0.00000000000E+00  0.00000000000E+00 -0.79931593251E+03  0.98847124602E+03  0.58152338238E+03 0.  0.
        4    1    3    3  502    0  0.98189691365E+02 -0.19320664783E+03 -0.70183593291E+02  0.22780995133E+03  0.12699999809E+01 0. -1.
       -4    1    3    3    0  502 -0.98189691365E+02  0.19320664783E+03 -0.72913233921E+03  0.76066129469E+03  0.12699999809E+01 0.  1.
</event>
<event>
 5   0  0.1206238E-01  0.6436893E+03  0.7818609E-02  0.9818693E-01
        2   -1    0    0  501    0  0.00000000000E+00  0.00000000000E+00  0.62942597799E+03  0.62942597800E+03  0.25500000920E-02 0. -1.
       -2   -1    0    0    0  501  0.00000000000E+00  0.00000000000E+00 -0.16456898280E+03  0.16456898282E+03  0.25500000920E-02 0.  1.
    10030    2    1    2    0    0  0.00000000000E+00  0.00000000000E+00  0.46485699519E+03  0.79399496082E+03  0.64368934420E+03 0.  0.
        5    1    3    3  502    0 -0.97598607709E+02 -0.29006061903E+03  0.10968839449E+03  0.32513733225E+03  0.46999998093E+01 0.  1.
       -5    1    3    3    0  502  0.97598607709E+02  0.29006061903E+03  0.35516860070E+03  0.46885762857E+03  0.46999998093E+01 0. -1.
</event>
<event>
 5   0  0.1175861E-01  0.5950857E+03  0.7818609E-02  0.9915655E-01
       -2   -1    0    0    0  501  0.00000000000E+00  0.00000000000E+00  0.73371024241E+02  0.73371024285E+02  0.25500000920E-02 0.  1.
        2   -1    0    0  501    0  0.00000000000E+00  0.00000000000E+00 -0.12066307624E+04  0.12066307624E+04  0.25500000920E-02 0. -1.
    10030    2    1    2    0    0  0.00000000000E+00  0.00000000000E+00 -0.11332597381E+04  0.12800017867E+04  0.59508565752E+03 0.  0.
        3    1    3    3  502    0 -0.70187225278E+02 -0.28546998086E+03 -0.66548879803E+03  0.72752643049E+03  0.10100000352E+00 0.  1.
       -3    1    3    3    0  502  0.70187225278E+02  0.28546998086E+03 -0.46777094011E+03  0.55247535618E+03  0.10100000352E+00 0. -1.
</event>
<event>
 5   0  0.4695625E-02  0.4983554E+03  0.7818609E-02  0.1014209E+00
       -3   -1    0    0    0  501  0.00000000000E+00  0.00000000000E+00  0.15409528203E+03  0.15409531513E+03  0.10100000352E+00 0.  1.
        3   -1    0    0  501    0  0.00000000000E+00  0.00000000000E+00 -0.40292941567E+03  0.40292942833E+03  0.10100000352E+00 0. -1.
    10030    2    1    2    0    0  0.00000000000E+00  0.00000000000E+00 -0.24883413364E+03  0.55702474346E+03  0.49835543417E+03 0.  0.
        5    1    3    3  502    0 -0.49364044028E+02  0.16806875776E+03  0.73592500309E+02  0.19005752360E+03  0.46999998093E+01 0.  1.
       -5    1    3    3    0  502  0.49364044028E+02 -0.16806875776E+03 -0.32242663395E+03  0.36696721986E+03  0.46999998093E+01 0. -1.
</event>
<event>
 5   0  0.1146468E-01  0.6068633E+03  0.7818609E-02  0.9891268E-01
        2   -1    0    0  501    0  0.00000000000E+00  0.00000000000E+00  0.78732904733E+02  0.78732904774E+02  0.25500000920E-02 0.  1.
       -2   -1    0    0    0  501  0.00000000000E+00  0.00000000000E+00 -0.11694063280E+04  0.11694063280E+04  0.25500000920E-02 0. -1.
    10030    2    1    2    0    0  0.00000000000E+00  0.00000000000E+00 -0.10906734232E+04  0.12481392327E+04  0.60686326975E+03 0.  0.
        4    1    3    3  502    0 -0.15223179511E+02  0.30285169006E+03 -0.56770217226E+03  0.64361344040E+03  0.12699999809E+01 0.  1.
       -4    1    3    3    0  502  0.15223179511E+02 -0.30285169006E+03 -0.52297125097E+03  0.60452579235E+03  0.12699999809E+01 0. -1.
</event>
<event>
 5   0  0.4695625E-02  0.4818110E+03  0.7818609E-02  0.1018639E+00
        3   -1    0    0  501    0  0.00000000000E+00  0.00000000000E+00  0.20620768693E+03  0.20620771166E+03  0.10100000352E+00 0. -1.
       -3   -1    0    0    0  501  0.00000000000E+00  0.00000000000E+00 -0.28144172311E+03  0.28144174123E+03  0.10100000352E+00 0.  1.
    10030    2    1    2    0    0  0.00000000000E+00  0.00000000000E+00 -0.75234036179E+02  0.48764945289E+03  0.48181098857E+03 0.  0.
        3    1    3    3  502    0 -0.11351910726E+02  0.14903648903E+03  0.15360281972E+03  0.21432353433E+03  0.10100000352E+00 0. -1.
       -3    1    3    3    0  502  0.11351910726E+02 -0.14903648903E+03 -0.22883685590E+03  0.27332591856E+03  0.10100000352E+00 0.  1.
</event>
<event>
 5   0  0.7221069E-02  0.6037125E+03  0.7818609E-02  0.9897734E-01
       -1   -1    0    0    0  501  0.00000000000E+00  0.00000000000E+00  0.13402882846E+03  0.13402882855E+03  0.50400001928E-02 0.  1.
        1   -1    0    0  501    0  0.00000000000E+00  0.00000000000E+00 -0.67983288444E+03  0.67983288446E+03  0.50400001928E-02 0. -1.
    10030    2    1    2    0    0  0.00000000000E+00  0.00000000000E+00 -0.54580405598E+03  0.81386171301E+03  0.60371253124E+03 0.  0.
        5    1    3    3  502    0 -0.20770137136E+03  0.20944296721E+03 -0.35910527304E+03  0.46474175980E+03  0.46999998093E+01 0. -1.
       -5    1    3    3    0  502  0.20770137136E+03 -0.20944296721E+03 -0.18669878294E+03  0.34911995321E+03  0.46999998093E+01 0.  1.
</event>
<event>
 5   0  0.7123340E-02  0.6024727E+03  0.7818609E-02  0.9900289E-01
        1   -1    0    0  501    0  0.00000000000E+00  0.00000000000E+00  0.36653459389E+03  0.36653459393E+03  0.50400001928E-02 0. -1.
       -1   -1    0    0    0  501  0.00000000000E+00  0.00000000000E+00 -0.24757102527E+03  0.24757102532E+03  0.50400001928E-02 0.  1.
    10030    2    1    2    0    0  0.00000000000E+00  0.00000000000E+00  0.11896356862E+03  0.61410561924E+03  0.60247272214E+03 0.  0.
        2    1    3    3  502    0  0.18579509424E+03 -0.20601160466E+03 -0.60184987079E+02  0.28387115206E+03  0.25500000920E-02 0.  1.
       -2    1    3    3    0  502 -0.18579509424E+03  0.20601160466E+03  0.17914855570E+03  0.33023446718E+03  0.25500000920E-02 0. -1.
</event>
<event>
 5   0  0.4695625E-02  0.5993849E+03  0.7818609E-02  0.9906683E-01
       -3   -1    0    0    0  501  0.00000000000E+00  0.00000000000E+00  0.28491863770E+03  0.28491865561E+03  0.10100000352E+00 0.  1.
        3   -1    0    0  501    0  0.00000000000E+00  0.00000000000E+00 -0.31523232406E+03  0.31523234024E+03  0.10100000352E+00 0. -1.
    10030    2    1    2    0    0  0.00000000000E+00  0.00000000000E+00 -0.30313686354E+02  0.60015099584E+03  0.59938493327E+03 0.  0.
        1    1    3    3  502    0 -0.23312489043E+03  0.15926455381E+03  0.85486108486E+02  0.29499201245E+03  0.50400001928E-02 0.  1.
       -1    1    3    3    0  502  0.23312489043E+03 -0.15926455381E+03 -0.11579979484E+03  0.30515898340E+03  0.50400001928E-02 0. -1.
</event>
<event>
 5   0  0.1146468E-01  0.5242607E+03  0.7818609E-02  0.1007634E+00
        2   -1    0    0  501    0  0.00000000000E+00  0.00000000000E+00  0.27173451539E+03  0.27173451540E+03  0.25500000920E-02 0.  1.
       -2   -1    0    0    0  501  0.00000000000E+00  0.00000000000E+00 -0.25286560314E+03  0.25286560315E+03  0.25500000920E-02 0. -1.
    10030    2    1    2    0    0  0.00000000000E+00  0.00000000000E+00  0.18868912253E+02  0.52460011855E+03  0.52426066850E+03 0.  0.
        4    1    3    3  502    0  0.70151550180E+02  0.25195788035E+03 -0.80893289849E+01  0.26166976059E+03  0.12699999809E+01 0. -1.
       -4    1    3    3    0  502 -0.70151550180E+02 -0.25195788035E+03  0.26958241238E+02  0.26293035796E+03  0.12699999809E+01 0.  1.
</event>
<event>
 5   0  0.1175861E-01  0.5998421E+03  0.7818609E-02  0.9905734E-01
        2   -1    0    0  501    0  0.00000000000E+00  0.00000000000E+00  0.16874829598E+04  0.16874829598E+04  0.25500000920E-02 0.  1.
       -2   -1    0    0    0  501  0.00000000000E+00  0.00000000000E+00 -0.53305795760E+02  0.53305795821E+02  0.25500000920E-02 0. -1.
    10030    2    1    2    0    0  0.00000000000E+00  0.00000000000E+00  0.16341771640E+04  0.17407887556E+04  0.59984205274E+03 0.  0.
        3    1    3    3  502    0  0.97946928568E+02 -0.89378320673E+02  0.36378063684E+02  0.13749712266E+03  0.10100000352E+00 0. -1.
       -3    1    3    3    0  502 -0.97946928568E+02  0.89378320673E+02  0.15977991003E+04  0.16032916329E+04  0.10100000352E+00 0.  1.
</event>
<event>
 5   0  0.7221069E-02  0.6029525E+03  0.7818609E-02  0.9899299E-01
       -1   -1    0    0    0  501  0.00000000000E+00  0.00000000000E+00  0.11943996838E+03  0.11943996848E+03  0.50400001928E-02 0. -1.
        1   -1    0    0  501    0  0.00000000000E+00  0.00000000000E+00 -0.76095067327E+03  0.76095067329E+03  0.50400001928E-02 0.  1.
    10030    2    1    2    0    0  0.00000000000E+00  0.00000000000E+00 -0.64151070489E+03  0.88039064177E+03  0.60295248372E+03 0.  0.
        5    1    3    3  502    0  0.39114377051E+01 -0.97465824293E+02  0.95704977226E+02  0.13673484894E+03  0.46999998093E+01 0. -1.
       -5    1    3    3    0  502 -0.39114377051E+01  0.97465824293E+02 -0.73721568212E+03  0.74365579283E+03  0.46999998093E+01 0.  1.
</event>
<event>
 5   0  0.1219020E-01  0.5813465E+03  0.7818609E-02  0.9944880E-01
        2   -1    0    0  501    0  0.00000000000E+00  0.00000000000E+00  0.70374491216E+03  0.70374491216E+03  0.25500000920E-02 0. -1.
       -2   -1    0    0    0  501  0.00000000000E+00  0.00000000000E+00 -0.12005905928E+03  0.12005905931E+03  0.25500000920E-02 0.  1.
    10030    2    1    2    0    0  0.00000000000E+00  0.00000000000E+00  0.58368585288E+03  0.82380397147E+03  0.58134654773E+03 0.  0.
        2    1    3    3  502    0 -0.16621207087E+02 -0.27370607240E+03  0.42849701662E+03  0.50872484886E+03  0.25500000920E-02 0.  1.
       -2    1    3    3    0  502  0.16621207087E+02  0.27370607240E+03  0.15518883626E+03  0.31507912260E+03  0.25500000920E-02 0. -1.
</event>
<event>
 5   0  0.4695625E-02  0.6087797E+03  0.7818609E-02  0.9887357E-01
       -3   -1    0    0    0  501  0.00000000000E+00  0.00000000000E+00  0.11695481277E+03  0.11695485638E+03  0.10100000352E+00 0.  1.
        3   -1    0    0  501    0  0.00000000000E+00  0.00000000000E+00 -0.79221328721E+03  0.79221329365E+03  0.10100000352E+00 0. -1.
    10030    2    1    2    0    0  0.00000000000E+00  0.00000000000E+00 -0.67525847444E+03  0.90916815003E+03  0.60877969556E+03 0.  0.
        5    1    3    3  502    0  0.21692892914E+03  0.19017684981E+03 -0.19279224469E+03  0.34701056772E+03  0.46999998093E+01 0.  1.
       -5    1    3    3    0  502 -0.21692892914E+03 -0.19017684981E+03 -0.48246622975E+03  0.56215758231E+03  0.46999998093E+01 0. -1.
</event>
<event>
 5   0  0.1146468E-01  0.5686844E+03  0.7818609E-02  0.9972594E-01
       -2   -1    0    0    0  501  0.00000000000E+00  0.00000000000E+00  0.52371957527E+02  0.52371957589E+02  0.25500000920E-02 0. -1.
        2   -1    0    0  501    0  0.00000000000E+00  0.00000000000E+00 -0.15437745546E+04  0.15437745546E+04  0.25500000920E-02 0.  1.
    10030    2    1    2    0    0  0.00000000000E+00  0.00000000000E+00 -0.14914025970E+04  0.15961465122E+04  0.56868443079E+03 0.  0.
        4    1    3    3  502    0  0.17127292288E+03 -0.16825572051E+03 -0.31815087199E+03  0.39857996919E+03  0.12699999809E+01 0. -1.
       -4    1    3    3    0  502 -0.17127292288E+03  0.16825572051E+03 -0.11732517250E+04  0.11975665430E+04  0.12699999809E+01 0.  1.
</event>
<event>
 5   0  0.7263385E-02  0.6532588E+03  0.7818609E-02  0.9800683E-01
       -1   -1    0    0    0  501  0.00000000000E+00  0.00000000000E+00  0.19040136391E+03  0.19040136398E+03  0.50400001928E-02 0.  1.
        1   -1    0    0  501    0  0.00000000000E+00  0.00000000000E+00 -0.56032561067E+03  0.56032561069E+03  0.50400001928E-02 0. -1.
    10030    2    1    2    0    0  0.00000000000E+00  0.00000000000E+00 -0.36992424676E+03  0.75072697467E+03  0.65325878652E+03 0.  0.
        1    1    3    3  502    0 -0.12691852165E+03 -0.44272456937E+02 -0.52706656347E+03  0.54393705880E+03  0.50400001928E-02 0. -1.
       -1    1    3    3    0  502  0.12691852165E+03  0.44272456937E+02  0.15714231671E+03  0.20678991588E+03  0.50400001928E-02 0.  1.
</event>
<event>
 5   0  0.1219020E-01  0.6095176E+03  0.7818609E-02  0.9885854E-01
        2   -1    0    0  501    0  0.00000000000E+00  0.00000000000E+00  0.54498737477E+03  0.54498737478E+03  0.25500000920E-02 0. -1.
       -2   -1    0    0    0  501  0.00000000000E+00  0.00000000000E+00 -0.17042216398E+03  0.17042216400E+03  0.25500000920E-02 0.  1.
    10030    2    1    2    0    0  0.00000000000E+00  0.00000000000E+00  0.37456521079E+03  0.71540953878E+03  0.60951760519E+03 0.  0.
        2    1    3    3  502    0 -0.68747347200E+02  0.20558590019E+02  0.53493101410E+03  0.53972219078E+03  0.25500000920E-02 0. -1.
       -2    1    3    3    0  502  0.68747347200E+02 -0.20558590019E+02 -0.16036580331E+03  0.17568734800E+03  0.25500000920E-02 0.  1.
</event>
<event>
 5   0  0.7221069E-02  0.5992941E+03  0.7818609E-02  0.9906872E-01
        1   -1    0    0  501    0  0.00000000000E+00  0.00000000000E+00  0.83971002428E+03  0.83971002430E+03  0.50400001928E-02 0.  1.
       -1   -1    0    0    0  501  0.00000000000E+00  0.00000000000E+00 -0.10692781829E+03  0.10692781841E+03  0.50400001928E-02 0. -1.
    10030    2    1    2    0    0  0.00000000000E+00  0.00000000000E+00  0.73278220599E+03  0.94663784271E+03  0.59929412130E+03 0.  0.
        5    1    3    3  502    0 -0.22511764704E+03  0.55460107776E+02  0.66614886251E+03  0.70535818956E+03  0.46999998093E+01 0.  1.
       -5    1    3    3    0  502  0.22511764704E+03 -0.55460107776E+02  0.66633343484E+02  0.24127965315E+03  0.46999998093E+01 0. -1.
</event>
<event>
 5   0  0.4695625E-02  0.6014770E+03  0.7818609E-02  0.9902346E-01
        3   -1    0    0  501    0  0.00000000000E+00  0.00000000000E+00  0.26518474006E+03  0.26518475929E+03  0.10100000352E+00 0. -1.
       -3   -1    0    0    0  501  0.00000000000E+00  0.00000000000E+00 -0.34105901957E+03  0.34105903452E+03  0.10100000352E+00 0.  1.
    10030    2    1    2    0    0  0.00000000000E+00  0.00000000000E+00 -0.75874279509E+02  0.60624379381E+03  0.60147704133E+03 0.  0.
        4    1    3    3  502    0  0.37811524934E+02  0.13336593007E+03  0.23105965706E+03  0.26945567491E+03  0.12699999809E+01 0. -1.
       -4    1    3    3    0  502 -0.37811524934E+02 -0.13336593007E+03 -0.30693393657E+03  0.33678811891E+03  0.12699999809E+01 0.  1.
</event>
<event>
 5   0  0.7263385E-02  0.5886097E+03  0.7818609E-02  0.9929323E-01
       -1   -1    0    0    0  501  0.00000000000E+00  0.00000000000E+00  0.25735308867E+03  0.25735308872E+03  0.50400001928E-02 0.  1.
        1   -1    0    0  501    0  0.00000000000E+00  0.00000000000E+00 -0.33656232564E+03  0.33656232567E+03  0.50400001928E-02 0. -1.
    10030    2    1    2    0    0  0.00000000000E+00  0.00000000000E+00 -0.79209236966E+02  0.59391541439E+03  0.58860973168E+03 0.  0.
        1    1    3    3  502    0 -0.28084250748E+03 -0.55865590252E+02 -0.10820180388E+03  0.30610636807E+03  0.50400001928E-02 0. -1.
       -1    1    3    3    0  502  0.28084250748E+03  0.55865590252E+02  0.28992566910E+02  0.28780904632E+03  0.50400001928E-02 0.  1.
</event>
<event>
 5   0  0.1206238E-01  0.5849969E+03  0.7818609E-02  0.9937031E-01
       -2   -1    0    0    0  501  0.00000000000E+00  0.00000000000E+00  0.17066003504E+03  0.17066003506E+03  0.25500000920E-02 0. -1.
        2   -1    0    0  501    0  0.00000000000E+00  0.00000000000E+00 -0.50132032497E+03  0.50132032498E+03  0.25500000920E-02 0.  1.
    10030    2    1    2    0    0  0.00000000000E+00  0.00000000000E+00 -0.33066028993E+03  0.67198036004E+03  0.58499690336E+03 0.  0.
        5    1    3    3  502    0  0.82343389629E+02 -0.10486319113E+03  0.13367495520E+03  0.18885922353E+03  0.46999998093E+01 0. -1.
       -5    1    3    3    0  502 -0.82343389629E+02  0.10486319113E+03 -0.46433524513E+03  0.48312113650E+03  0.46999998093E+01 0.  1.
</event>
<event>
 5   0  0.7221069E-02  0.5956745E+03  0.7818609E-02  0.9914421E-01
        1   -1    0    0  501    0  0.00000000000E+00  0.00000000000E+00  0.21706140148E+03  0.21706140154E+03  0.50400001928E-02 0.  1.
       -1   -1    0    0    0  501  0.00000000000E+00  0.00000000000E+00 -0.40867251244E+03  0.40867251247E+03  0.50400001928E-02 0. -1.
    10030    2    1    2    0    0  0.00000000000E+00  0.00000000000E+00 -0.19161111096E+03  0.62573391402E+03  0.59567450282E+03 0.  0.
        5    1    3    3  502    0  0.13081743448E+02  0.29331977861E+03 -0.14808984285E+03  0.32887735722E+03  0.46999998093E+01 0.  1.
       -5    1    3    3    0  502 -0.13081743448E+02 -0.29331977861E+03 -0.43521268104E+02  0.29685655680E+03  0.46999998093E+01 0. -1.
</event>
<event>
 5   0  0.1175861E-01  0.6005509E+03  0.7818609E-02  0.9904264E-01
        2   -1    0    0  501    0  0.00000000000E+00  0.00000000000E+00  0.49575337004E+03  0.49575337005E+03  0.25500000920E-02 0.  1.
       -2   -1    0    0    0  501  0.00000000000E+00  0.00000000000E+00 -0.18187542543E+03  0.18187542544E+03  0.25500000920E-02 0. -1.
    10030    2    1    2    0    0  0.00000000000E+00  0.00000000000E+00  0.31387794462E+03  0.67762879549E+03  0.60055093070E+03 0.  0.
        3    1    3    3  502    0 -0.24505402580E+03  0.17042895766E+03  0.19381083214E+03  0.35589345881E+03  0.10100000352E+00 0. -1.
       -3    1    3    3    0  502  0.24505402580E+03 -0.17042895766E+03  0.12006711248E+03  0.32173533668E+03  0.10100000352E+00 0.  1.
</event>
<event>
 5   0  0.7263385E-02  0.5958638E+03  0.7818609E-02  0.9914025E-01
        1   -1    0    0  501    0  0.00000000000E+00  0.00000000000E+00  0.88142662841E+03  0.88142662843E+03  0.50400001928E-02 0. -1.
       -1   -1    0    0    0  501  0.00000000000E+00  0.00000000000E+00 -0.10070427638E+03  0.10070427651E+03  0.50400001928E-02 0.  1.
    10030    2    1    2    0    0  0.00000000000E+00  0.00000000000E+00  0.78072235203E+03  0.98213090493E+03  0.59586384641E+03 0.  0.
        1    1    3    3  502    0  0.16400476849E+03  0.20691988206E+03  0.16286706232E+03  0.31022424420E+03  0.50400001928E-02 0.  1.
       -1    1    3    3    0  502 -0.16400476849E+03 -0.20691988206E+03  0.61785528972E+03  0.67190666073E+03  0.50400001928E-02 0. -1.
</event>
<event>
 5   0  0.7424930E-02  0.5853903E+03  0.7818609E-02  0.9936189E-01
        1   -1    0    0  501    0  0.00000000000E+00  0.00000000000E+00  0.12143239926E+04  0.12143239926E+04  0.50400001928E-02 0.  1.
       -1   -1    0    0    0  501  0.00000000000E+00  0.00000000000E+00 -0.70549922415E+02  0.70549922595E+02  0.50400001928E-02 0. -1.
    10030    2    1    2    0    0  0.00000000000E+00  0.00000000000E+00  0.11437740702E+04  0.12848739152E+04  0.58539034357E+03 0.  0.
        3    1    3    3  502    0  0.18983833360E+03  0.22256825012E+03  0.55046739579E+03  0.62336953959E+03  0.10100000352E+00 0. -1.
       -3    1    3    3    0  502 -0.18983833360E+03 -0.22256825012E+03  0.59330667437E+03  0.66150437559E+03  0.10100000352E+00 0.  1.
</event>
<event>
 5   0  0.1175861E-01  0.6000789E+03  0.7818609E-02  0.9905242E-01
       -2   -1    0    0    0  501  0.00000000000E+00  0.00000000000E+00  0.21863176207E+03  0.21863176209E+03  0.25500000920E-02 0.  1.
        2   -1    0    0  501    0  0.00000000000E+00  0.00000000000E+00 -0.41175935814E+03  0.41175935815E+03  0.25500000920E-02 0. -1.
    10030    2    1    2    0    0  0.00000000000E+00  0.00000000000E+00 -0.19312759607E+03  0.63039112024E+03  0.60007890824E+03 0.  0.
        3    1    3    3  502    0 -0.16571961744E+03  0.18841297551E+03  0.76248813718E+02  0.26225242179E+03  0.10100000352E+00 0.  1.
       -3    1    3    3    0  502  0.16571961744E+03 -0.18841297551E+03 -0.26937640978E+03  0.36813869844E+03  0.10100000352E+00 0. -1.
</event>
<event>
 5   0  0.1206238E-01  0.5980365E+03  0.7818609E-02  0.9909488E-01
       -2   -1    0    0    0  501  0.00000000000E+00  0.00000000000E+00  0.44811633974E+03  0.44811633975E+03  0.25500000920E-02 0.  1.
        2   -1    0    0  501    0  0.00000000000E+00  0.00000000000E+00 -0.19952834669E+03  0.19952834670E+03  0.25500000920E-02 0. -1.
    10030    2    1    2    0    0  0.00000000000E+00  0.00000000000E+00  0.24858799305E+03  0.64764468645E+03  0.59803649521E+03 0.  0.
        5    1    3    3  502    0  0.27078749388E+03 -0.69733274171E+02  0.96788801806E+01  0.27982917484E+03  0.46999998093E+01 0.  1.
       -5    1    3    3    0  502 -0.27078749388E+03  0.69733274171E+02  0.23890911287E+03  0.36781551161E+03  0.46999998093E+01 0. -1.
</event>
<event>
 5   0  0.1206238E-01  0.6052013E+03  0.7818609E-02  0.9894673E-01
        2   -1    0    0  501    0  0.00000000000E+00  0.00000000000E+00  0.45332646668E+03  0.45332646668E+03  0.25500000920E-02 0. -1.
       -2   -1    0    0    0  501  0.00000000000E+00  0.00000000000E+00 -0.20198943485E+03  0.20198943486E+03  0.25500000920E-02 0.  1.
    10030    2    1    2    0    0  0.00000000000E+00  0.00000000000E+00  0.25133703183E+03  0.65531590155E+03  0.60520131134E+03 0.  0.
        5    1    3    3  502    0  0.21085098758E+03  0.18043490375E+03 -0.48542426907E+01  0.27759781542E+03  0.46999998093E+01 0.  1.
       -5    1    3    3    0  502 -0.21085098758E+03 -0.18043490375E+03  0.25619127452E+03  0.37771808613E+03  0.46999998093E+01 0. -1.
</event>
<event>
 5   0  0.7266519E-02  0.5946701E+03  0.7818609E-02  0.9916526E-01
       -1   -1    0    0    0  501  0.00000000000E+00  0.00000000000E+00  0.46525722434E+03  0.46525722437E+03  0.50400001928E-02 0. -1.
        1   -1    0    0  501    0  0.00000000000E+00  0.00000000000E+00 -0.19001987997E+03  0.19001988003E+03  0.50400001928E-02 0.  1.
    10030    2    1    2    0    0  0.00000000000E+00  0.00000000000E+00  0.27523734438E+03  0.65527710440E+03  0.59467006635E+03 0.  0.
        4    1    3    3  502    0 -0.19007304369E+03  0.38034045317E+02 -0.11081942344E+03  0.22328660518E+03  0.12699999809E+01 0.  1.
       -4    1    3    3    0  502  0.19007304369E+03 -0.38034045317E+02  0.38605676782E+03  0.43199049922E+03  0.12699999809E+01 0. -1.
</event>
<event>
 5   0  0.7221069E-02  0.6383524E+03  0.7818609E-02  0.9828884E-01
        1   -1    0    0  501    0  0.00000000000E+00  0.00000000000E+00  0.77860954168E+02  0.77860954331E+02  0.50400001928E-02 0.  1.
       -1   -1    0    0    0  501  0.00000000000E+00  0.00000000000E+00 -0.13084023483E+04  0.13084023483E+04  0.50400001928E-02 0. -1.
    10030    2    1    2    0    0  0.00000000000E+00  0.00000000000E+00 -0.12305413941E+04  0.13862633026E+04  0.63835242741E+03 0.  0.
        5    1    3    3  502    0  0.97492740519E+02 -0.41891824405E+02 -0.12688965054E+04  0.12733342808E+04  0.46999998093E+01 0. -1.
       -5    1    3    3    0  502 -0.97492740519E+02  0.41891824405E+02  0.38355111253E+02  0.11292902179E+03  0.46999998093E+01 0.  1.
</event>
<event>
 5   0  0.7123340E-02  0.6052353E+03  0.7818609E-02  0.9894604E-01
       -1   -1    0    0    0  501  0.00000000000E+00  0.00000000000E+00  0.20401062546E+03  0.20401062553E+03  0.50400001928E-02 0.  1.
        1   -1    0    0  501    0  0.00000000000E+00  0.00000000000E+00 -0.44888565805E+03  0.44888565808E+03  0.50400001928E-02 0. -1.
    10030    2    1    2    0    0  0.00000000000E+00  0.00000000000E+00 -0.24487503259E+03  0.65289628360E+03  0.60523530594E+03 0.  0.
        2    1    3    3  502    0 -0.14053503247E+02 -0.72841905806E+02 -0.43892455904E+03  0.44514965206E+03  0.25500000920E-02 0. -1.
       -2    1    3    3    0  502  0.14053503247E+02  0.72841905806E+02  0.19404952645E+03  0.20774663154E+03  0.25500000920E-02 0.  1.
</event>
<event>
 5   0  0.7263385E-02  0.6054232E+03  0.7818609E-02  0.9894218E-01
       -1   -1    0    0    0  501  0.00000000000E+00  0.00000000000E+00  0.30641767210E+03  0.30641767214E+03  0.50400001928E-02 0. -1.
        1   -1    0    0  501    0  0.00000000000E+00  0.00000000000E+00 -0.29905032947E+03  0.29905032951E+03  0.50400001928E-02 0.  1.
    10030    2    1    2    0    0  0.00000000000E+00  0.00000000000E+00  0.73673426282E+01  0.60546800165E+03  0.60542317703E+03 0.  0.
        1    1    3    3  502    0 -0.42870203885E+02  0.18390382588E+03  0.24029331457E+03  0.30561307008E+03  0.50400001928E-02 0. -1.
       -1    1    3    3    0  502  0.42870203885E+02 -0.18390382588E+03 -0.23292597194E+03  0.29985493157E+03  0.50400001928E-02 0.  1.
</event>
<event>
 5   0  0.4695625E-02  0.5940728E+03  0.7818609E-02  0.9917780E-01
       -3   -1    0    0    0  501  0.00000000000E+00  0.00000000000E+00  0.19599044206E+03  0.19599046808E+03  0.10100000352E+00 0. -1.
        3   -1    0    0  501    0  0.00000000000E+00  0.00000000000E+00 -0.45017812061E+03  0.45017813194E+03  0.10100000352E+00 0.  1.
    10030    2    1    2    0    0  0.00000000000E+00  0.00000000000E+00 -0.25418767855E+03  0.64616860003E+03  0.59407279329E+03 0.  0.
        1    1    3    3  502    0 -0.92814220726E+02 -0.52506127008E+02 -0.42864031143E+03  0.44170565941E+03  0.50400001928E-02 0.  1.
       -1    1    3    3    0  502  0.92814220726E+02  0.52506127008E+02  0.17445263288E+03  0.20446294062E+03  0.50400001928E-02 0. -1.
</event>
<event>
 5   0  0.7266519E-02  0.5775444E+03  0.7818609E-02  0.9953121E-01
       -1   -1    0    0    0  501  0.00000000000E+00  0.00000000000E+00  0.11747297705E+03  0.11747297716E+03  0.50400001928E-02 0. -1.
        1   -1    0    0  501    0  0.00000000000E+00  0.00000000000E+00 -0.70986018070E+03  0.70986018072E+03  0.50400001928E-02 0.  1.
    10030    2    1    2    0    0  0.00000000000E+00  0.00000000000E+00 -0.59238720365E+03  0.82733315787E+03  0.57754441826E+03 0.  0.
        4    1    3    3  502    0 -0.36231624486E+02  0.18885218566E+03  0.12409539676E+02  0.19270051431E+03  0.12699999809E+01 0. -1.
       -4    1    3    3    0  502  0.36231624486E+02 -0.18885218566E+03 -0.60479674333E+03  0.63463264356E+03  0.12699999809E+01 0.  1.
</event>
<event>
 5   0  0.1175861E-01  0.5881008E+03  0.7818609E-02  0.9930405E-01
        2   -1    0    0  501    0  0.00000000000E+00  0.00000000000E+00  0.35362462447E+03  0.35362462448E+03  0.25500000920E-02 0. -1.
       -2   -1    0    0    0  501  0.00000000000E+00  0.00000000000E+00 -0.24451249296E+03  0.24451249297E+03  0.25500000920E-02 0.  1.
    10030    2    1    2    0    0  0.00000000000E+00  0.00000000000E+00  0.10911213151E+03  0.59813711745E+03  0.58810080261E+03 0.  0.
        3    1    3    3  502    0  0.29234331660E+03 -0.13044480219E+02  0.83872532123E+02  0.30441646649E+03  0.10100000352E+00 0.  1.
       -3    1    3    3    0  502 -0.29234331660E+03  0.13044480219E+02  0.25239599389E+02  0.29372065096E+03  0.10100000352E+00 0. -1.
</event>
<event>
 5   0  0.1206238E-01  0.6042608E+03  0.7818609E-02  0.9896605E-01
       -2   -1    0    0    0  501  0.00000000000E+00  0.00000000000E+00  0.41466755687E+02  0.41466755766E+02  0.25500000920E-02 0.  1.
        2   -1    0    0  501    0  0.00000000000E+00  0.00000000000E+00 -0.22013485107E+04  0.22013485107E+04  0.25500000920E-02 0. -1.
    10030    2    1    2    0    0  0.00000000000E+00  0.00000000000E+00 -0.21598817550E+04  0.22428152665E+04  0.60426080781E+03 0.  0.
        5    1    3    3  502    0  0.46947538674E+02 -0.75866367586E+02 -0.86831700778E+01  0.89762266900E+02  0.46999998093E+01 0.  1.
       -5    1    3    3    0  502 -0.46947538674E+02  0.75866367586E+02 -0.21511985849E+04  0.21530529996E+04  0.46999998093E+01 0. -1.
</event>
<event>
 5   0  0.1206238E-01  0.6591090E+03  0.7818609E-02  0.9789835E-01
       -2   -1    0    0    0  501  0.00000000000E+00  0.00000000000E+00  0.10246141911E+03  0.10246141914E+03  0.25500000920E-02 0. -1.
        2   -1    0    0  501    0  0.00000000000E+00  0.00000000000E+00 -0.10599712516E+04  0.10599712516E+04  0.25500000920E-02 0.  1.
    10030    2    1    2    0    0  0.00000000000E+00  0.00000000000E+00 -0.95750983244E+03  0.11624326707E+04  0.65910897027E+03 0.  0.
        5    1    3    3  502    0 -0.26039008324E+03  0.19336771866E+03 -0.58144070538E+03  0.66579986027E+03  0.46999998093E+01 0. -1.
       -5    1    3    3    0  502  0.26039008324E+03 -0.19336771866E+03 -0.37606912707E+03  0.49663281044E+03  0.46999998093E+01 0.  1.
</event>
<event>
 5   0  0.7263385E-02  0.5280049E+03  0.7818609E-02  0.1006717E+00
       -1   -1    0    0    0  501  0.00000000000E+00  0.00000000000E+00  0.83965224572E+02  0.83965224723E+02  0.50400001928E-02 0.  1.
        1   -1    0    0  501    0  0.00000000000E+00  0.00000000000E+00 -0.83007337537E+03  0.83007337538E+03  0.50400001928E-02 0. -1.
    10030    2    1    2    0    0  0.00000000000E+00  0.00000000000E+00 -0.74610815080E+03  0.91403860011E+03  0.52800491456E+03 0.  0.
        1    1    3    3  502    0 -0.13574800203E+03  0.10167111875E+03 -0.72329112954E+03  0.74290954667E+03  0.50400001928E-02 0. -1.
       -1    1    3    3    0  502  0.13574800203E+03 -0.10167111875E+03 -0.22817021256E+02  0.17112905343E+03  0.50400001928E-02 0.  1.
</event>
<event>
 5   0  0.1166419E-01  0.6631595E+03  0.7818609E-02  0.9782395E-01
       -2   -1    0    0    0  501  0.00000000000E+00  0.00000000000E+00  0.28838333065E+03  0.28838333066E+03  0.25500000920E-02 0.  1.
        2   -1    0    0  501    0  0.00000000000E+00  0.00000000000E+00 -0.38124645308E+03  0.38124645308E+03  0.25500000920E-02 0. -1.
    10030    2    1    2    0    0  0.00000000000E+00  0.00000000000E+00 -0.92863122424E+02  0.66962978375E+03  0.66315947386E+03 0.  0.
        1    1    3    3  502    0  0.11725009325E+03 -0.21719118893E+03 -0.27000896573E+03  0.36582022705E+03  0.50400001928E-02 0. -1.
       -1    1    3    3    0  502 -0.11725009325E+03  0.21719118893E+03  0.17714584330E+03  0.30380955670E+03  0.50400001928E-02 0.  1.
</event>
<event>
 5   0  0.1166419E-01  0.5995956E+03  0.7818609E-02  0.9906245E-01
        2   -1    0    0  501    0  0.00000000000E+00  0.00000000000E+00  0.12188670580E+03  0.12188670582E+03  0.25500000920E-02 0. -1.
       -2   -1    0    0    0  501  0.00000000000E+00  0.00000000000E+00 -0.73739556342E+03  0.73739556342E+03  0.25500000920E-02 0.  1.
    10030    2    1    2    0    0  0.00000000000E+00  0.00000000000E+00 -0.61550885762E+03  0.85928226925E+03  0.59959558407E+03 0.  0.
        1    1    3    3  502    0  0.91359411684E+02 -0.22365094794E+03 -0.53353698133E+02  0.24741242036E+03  0.50400001928E-02 0. -1.
       -1    1    3    3    0  502 -0.91359411684E+02  0.22365094794E+03 -0.56215515949E+03  0.61186984889E+03  0.50400001928E-02 0.  1.
</event>
<event>
 5   0  0.7263385E-02  0.5952542E+03  0.7818609E-02  0.9915301E-01
       -1   -1    0    0    0  501  0.00000000000E+00  0.00000000000E+00  0.81470746017E+02  0.81470746173E+02  0.50400001928E-02 0. -1.
        1   -1    0    0  501    0  0.00000000000E+00  0.00000000000E+00 -0.10872845684E+04  0.10872845684E+04  0.50400001928E-02 0.  1.
    10030    2    1    2    0    0  0.00000000000E+00  0.00000000000E+00 -0.10058138224E+04  0.11687553146E+04  0.59525418106E+03 0.  0.
        1    1    3    3  502    0  0.33097000641E+02 -0.77846892062E+02 -0.10631849345E+04  0.10665447741E+04  0.50400001928E-02 0.  1.
       -1    1    3    3    0  502 -0.33097000641E+02  0.77846892062E+02  0.57371112157E+02  0.10221054051E+03  0.50400001928E-02 0. -1.
</event>
<event>
 5   0  0.1146468E-01  0.6082264E+03  0.7818609E-02  0.9888484E-01
        2   -1    0    0  501    0  0.00000000000E+00  0.00000000000E+00  0.34981204843E+03  0.34981204844E+03  0.25500000920E-02 0.  1.
       -2   -1    0    0    0  501  0.00000000000E+00  0.00000000000E+00 -0.26438438935E+03  0.26438438936E+03  0.25500000920E-02 0. -1.
    10030    2    1    2    0    0  0.00000000000E+00  0.00000000000E+00  0.85427659077E+02  0.61419643780E+03  0.60822642106E+03 0.  0.
        4    1    3    3  502    0 -0.15184177313E+03 -0.26344686875E+03  0.37865117016E+02  0.30642381877E+03  0.12699999809E+01 0.  1.
       -4    1    3    3    0  502  0.15184177313E+03  0.26344686875E+03  0.47562542061E+02  0.30777261904E+03  0.12699999809E+01 0. -1.
</event>
<event>
 5   0  0.7123340E-02  0.5992065E+03  0.7818609E-02  0.9907054E-01
        1   -1    0    0  501    0  0.00000000000E+00  0.00000000000E+00  0.36403498047E+03  0.36403498051E+03  0.50400001928E-02 0.  1.
       -1   -1    0    0    0  501  0.00000000000E+00  0.00000000000E+00 -0.24657553379E+03  0.24657553384E+03  0.50400001928E-02 0. -1.
    10030    2    1    2    0    0  0.00000000000E+00  0.00000000000E+00  0.11745944669E+03  0.61061051435E+03  0.59920654087E+03 0.  0.
        2    1    3    3  502    0  0.54567364513E+02  0.27923399117E+03 -0.36933975229E+02  0.28690301083E+03  0.25500000920E-02 0. -1.
       -2    1    3    3    0  502 -0.54567364513E+02 -0.27923399117E+03  0.15439342192E+03  0.32370750351E+03  0.25500000920E-02 0.  1.
</event>
<event>
 5   0  0.1219020E-01  0.6086056E+03  0.7818609E-02  0.9887711E-01
       -2   -1    0    0    0  501  0.00000000000E+00  0.00000000000E+00  0.11711339670E+03  0.11711339673E+03  0.25500000920E-02 0. -1.
        2   -1    0    0  501    0  0.00000000000E+00  0.00000000000E+00 -0.79068841348E+03  0.79068841348E+03  0.25500000920E-02 0.  1.
    10030    2    1    2    0    0  0.00000000000E+00  0.00000000000E+00 -0.67357501678E+03  0.90780181021E+03  0.60860563864E+03 0.  0.
        2    1    3    3  502    0 -0.82966114087E+01 -0.20662766984E+03 -0.66977529824E+03  0.70097273688E+03  0.25500000920E-02 0.  1.
       -2    1    3    3    0  502  0.82966114087E+01  0.20662766984E+03 -0.37997185374E+01  0.20682907333E+03  0.25500000920E-02 0. -1.
</event>
<event>
 5   0  0.7263385E-02  0.5920498E+03  0.7818609E-02  0.9922039E-01
        1   -1    0    0  501    0  0.00000000000E+00  0.00000000000E+00  0.30504732677E+03  0.30504732682E+03  0.50400001928E-02 0. -1.
       -1   -1    0    0    0  501  0.00000000000E+00  0.00000000000E+00 -0.28726931779E+03  0.28726931783E+03  0.50400001928E-02 0.  1.
    10030    2    1    2    0    0  0.00000000000E+00  0.00000000000E+00  0.17778008984E+02  0.59231664465E+03  0.59204978670E+03 0.  0.
        1    1    3    3  502    0 -0.15352090238E+03  0.25239716469E+03  0.27811578667E+02  0.29672627141E+03  0.50400001928E-02 0. -1.
       -1    1    3    3    0  502  0.15352090238E+03 -0.25239716469E+03 -0.10033569683E+02  0.29559037324E+03  0.50400001928E-02 0.  1.
</event>
<event>
 5   0  0.1219020E-01  0.6157723E+03  0.7818609E-02  0.9873213E-01
        2   -1    0    0  501    0  0.00000000000E+00  0.00000000000E+00  0.22047276834E+03  0.22047276836E+03  0.25500000920E-02 0. -1.
       -2   -1    0    0    0  501  0.00000000000E+00  0.00000000000E+00 -0.42995725377E+03  0.42995725378E+03  0.25500000920E-02 0.  1.
    10030    2    1    2    0    0  0.00000000000E+00  0.00000000000E+00 -0.20948448543E+03  0.65043002214E+03  0.61577225015E+03 0.  0.
        2    1    3    3  502    0 -0.16076378831E+03  0.24803085277E+03 -0.19578852172E+03  0.35453835449E+03  0.25500000920E-02 0.  1.
       -2    1    3    3    0  502  0.16076378831E+03 -0.24803085277E+03 -0.13695963705E+02  0.29589166765E+03  0.25500000920E-02 0. -1.
</event>
<event>
 5   0  0.1206238E-01  0.5977489E+03  0.7818609E-02  0.9910087E-01
       -2   -1    0    0    0  501  0.00000000000E+00  0.00000000000E+00  0.53814415163E+02  0.53814415223E+02  0.25500000920E-02 0.  1.
        2   -1    0    0  501    0  0.00000000000E+00  0.00000000000E+00 -0.16598886760E+04  0.16598886760E+04  0.25500000920E-02 0. -1.
    10030    2    1    2    0    0  0.00000000000E+00  0.00000000000E+00 -0.16060742608E+04  0.17137030912E+04  0.59774890510E+03 0.  0.
        5    1    3    3  502    0 -0.23614685881E+03  0.18119732217E+03 -0.72685880632E+03  0.78545758817E+03  0.46999998093E+01 0.  1.
       -5    1    3    3    0  502  0.23614685881E+03 -0.18119732217E+03 -0.87921545452E+03  0.92824550307E+03  0.46999998093E+01 0. -1.
</event>
<event>
 5   0  0.1206238E-01  0.5982391E+03  0.7818609E-02  0.9909066E-01
        2   -1    0    0  501    0  0.00000000000E+00  0.00000000000E+00  0.19044344755E+04  0.19044344755E+04  0.25500000920E-02 0. -1.
       -2   -1    0    0    0  501  0.00000000000E+00  0.00000000000E+00 -0.46981145664E+02  0.46981145733E+02  0.25500000920E-02 0.  1.
    10030    2    1    2    0    0  0.00000000000E+00  0.00000000000E+00  0.18574533298E+04  0.19514156212E+04  0.59823912801E+03 0.  0.
        5    1    3    3  502    0 -0.18961736667E+03  0.22393463645E+03  0.73995808401E+03  0.79602859448E+03  0.46999998093E+01 0.  1.
       -5    1    3    3    0  502  0.18961736667E+03 -0.22393463645E+03  0.11174952458E+04  0.11553870267E+04  0.46999998093E+01 0. -1.
</event>
<event>
 5   0  0.4695625E-02  0.6028598E+03  0.7818609E-02  0.9899491E-01
       -4   -1    0    0    0  501  0.00000000000E+00  0.00000000000E+00  0.20298210092E+03  0.20298607389E+03  0.12699999809E+01 0. -1.
        4   -1    0    0  501    0  0.00000000000E+00  0.00000000000E+00 -0.44761633403E+03  0.44761813568E+03  0.12699999809E+01 0.  1.
    10030    2    1    2    0    0  0.00000000000E+00  0.00000000000E+00 -0.24463423310E+03  0.65060420957E+03  0.60285979257E+03 0.  0.
        2    1    3    3  502    0 -0.25515188921E+02  0.84049157828E+02 -0.43350152250E+03  0.44231081359E+03  0.25500000920E-02 0.  1.
       -2    1    3    3    0  502  0.25515188921E+02 -0.84049157828E+02  0.18886728940E+03  0.20829339598E+03  0.25500000920E-02 0. -1.
</event>
<event>
 5   0  0.7263385E-02  0.5869766E+03  0.7818609E-02  0.9932800E-01
       -1   -1    0    0    0  501  0.00000000000E+00  0.00000000000E+00  0.20560136363E+03  0.20560136369E+03  0.50400001928E-02 0.  1.
        1   -1    0    0  501    0  0.00000000000E+00  0.00000000000E+00 -0.41894359300E+03  0.41894359303E+03  0.50400001928E-02 0. -1.
    10030    2    1    2    0    0  0.00000000000E+00  0.00000000000E+00 -0.21334222937E+03  0.62454495672E+03  0.58697657205E+03 0.  0.
        1    1    3    3  502    0  0.65150059962E+02  0.18628961270E+03  0.12445777427E+03  0.23331971137E+03  0.50400001928E-02 0.  1.
       -1    1    3    3    0  502 -0.65150059962E+02 -0.18628961270E+03 -0.33780000364E+03  0.39122524535E+03  0.50400001928E-02 0. -1.
</event>
<event>
 5   0  0.7263385E-02  0.6115282E+03  0.7818609E-02  0.9881773E-01
        1   -1    0    0  501    0  0.00000000000E+00  0.00000000000E+00  0.11129287475E+04  0.11129287475E+04  0.50400001928E-02 0. -1.
       -1   -1    0    0    0  501  0.00000000000E+00  0.00000000000E+00 -0.84005097144E+02  0.84005097295E+02  0.50400001928E-02 0.  1.
    10030    2    1    2    0    0  0.00000000000E+00  0.00000000000E+00  0.10289236503E+04  0.11969338448E+04  0.61152820913E+03 0.  0.
        1    1    3    3  502    0 -0.18817410390E+03  0.12069047487E+03  0.92276067220E+03  0.94945402326E+03  0.50400001928E-02 0. -1.
       -1    1    3    3    0  502  0.18817410390E+03 -0.12069047487E+03  0.10616297812E+03  0.24747982150E+03  0.50400001928E-02 0.  1.
</event>
<event>
 5   0  0.7424930E-02  0.6612985E+03  0.7818609E-02  0.9785806E-01
       -1   -1    0    0    0  501  0.00000000000E+00  0.00000000000E+00  0.14109032960E+03  0.14109032969E+03  0.50400001928E-02 0.  1.
        1   -1    0    0  501    0  0.00000000000E+00  0.00000000000E+00 -0.77488614025E+03  0.77488614027E+03  0.50400001928E-02 0. -1.
    10030    2    1    2    0    0  0.00000000000E+00  0.00000000000E+00 -0.63379581065E+03  0.91597646996E+03  0.66129854372E+03 0.  0.
        3    1    3    3  502    0 -0.16285044604E+03 -0.11656257521E+03  0.47527198692E+02  0.20582989708E+03  0.10100000352E+00 0.  1.
       -3    1    3    3    0  502  0.16285044604E+03  0.11656257521E+03 -0.68132300934E+03  0.71014657288E+03  0.10100000352E+00 0. -1.
</event>
<event>
 5   0  0.1166419E-01  0.5994135E+03  0.7818609E-02  0.9906624E-01
        2   -1    0    0  501    0  0.00000000000E+00  0.00000000000E+00  0.56486867572E+03  0.56486867573E+03  0.25500000920E-02 0.  1.
       -2   -1    0    0    0  501  0.00000000000E+00  0.00000000000E+00 -0.15901771604E+03  0.15901771606E+03  0.25500000920E-02 0. -1.
    10030    2    1    2    0    0  0.00000000000E+00  0.00000000000E+00  0.40585095969E+03  0.72388639179E+03  0.59941346893E+03 0.  0.
        1    1    3    3  502    0 -0.13353542336E+03  0.11307765586E+03  0.49677586623E+03  0.52669206073E+03  0.50400001928E-02 0.  1.
       -1    1    3    3    0  502  0.13353542336E+03 -0.11307765586E+03 -0.90924906542E+02  0.19719433106E+03  0.50400001928E-02 0. -1.
</event>
<event>
 5   0  0.7221069E-02  0.6078625E+03  0.7818609E-02  0.9889227E-01
        1   -1    0    0  501    0  0.00000000000E+00  0.00000000000E+00  0.83142195864E+03  0.83142195865E+03  0.50400001928E-02 0. -1.
       -1   -1    0    0    0  501  0.00000000000E+00  0.00000000000E+00 -0.11110388074E+03  0.11110388085E+03  0.50400001928E-02 0.  1.
    10030    2    1    2    0    0  0.00000000000E+00  0.00000000000E+00  0.72031807790E+03  0.94252583950E+03  0.60786250484E+03 0.  0.
        5    1    3    3  502    0 -0.22852830551E+02  0.12157039953E+03 -0.70244315120E+02  0.14233048763E+03  0.46999998093E+01 0.  1.
       -5    1    3    3    0  502  0.22852830551E+02 -0.12157039953E+03  0.79056239302E+03  0.80019535187E+03  0.46999998093E+01 0. -1.
</event>
<event>
 5   0  0.1166419E-01  0.6122223E+03  0.7818609E-02  0.9880368E-01
       -2   -1    0    0    0  501  0.00000000000E+00  0.00000000000E+00  0.15190753186E+03  0.15190753188E+03  0.25500000920E-02 0. -1.
        2   -1    0    0  501    0  0.00000000000E+00  0.00000000000E+00 -0.61684920827E+03  0.61684920828E+03  0.25500000920E-02 0.  1.
    10030    2    1    2    0    0  0.00000000000E+00  0.00000000000E+00 -0.46494167641E+03  0.76875674016E+03  0.61222231508E+03 0.  0.
        1    1    3    3  502    0  0.47728541993E+01  0.11757558488E+03 -0.58731440498E+03  0.59898665145E+03  0.50400001928E-02 0.  1.
       -1    1    3    3    0  502 -0.47728541993E+01 -0.11757558488E+03  0.12237272857E+03  0.16977008871E+03  0.50400001928E-02 0. -1.
</event>
<event>
 5   0  0.1175861E-01  0.4551494E+03  0.7818609E-02  0.1026197E+00
       -2   -1    0    0    0  501  0.00000000000E+00  0.00000000000E+00  0.38638586263E+02  0.38638586348E+02  0.25500000920E-02 0. -1.
        2   -1    0    0  501    0  0.00000000000E+00  0.00000000000E+00 -0.13403762860E+04  0.13403762860E+04  0.25500000920E-02 0.  1.
    10030    2    1    2    0    0  0.00000000000E+00  0.00000000000E+00 -0.13017376997E+04  0.13790148723E+04  0.45514940321E+03 0.  0.
        3    1    3    3  502    0  0.16586298778E+02  0.20458255001E+02 -0.13357432412E+04  0.13360028675E+04  0.10100000352E+00 0.  1.
       -3    1    3    3    0  502 -0.16586298778E+02 -0.20458255001E+02  0.34005541466E+02  0.43012004792E+02  0.10100000352E+00 0. -1.
</event>
<event>
 5   0  0.1219020E-01  0.6026805E+03  0.7818609E-02  0.9899860E-01
       -2   -1    0    0    0  501  0.00000000000E+00  0.00000000000E+00  0.33491320967E+03  0.33491320968E+03  0.25500000920E-02 0.  1.
        2   -1    0    0  501    0  0.00000000000E+00  0.00000000000E+00 -0.27113278512E+03  0.27113278513E+03  0.25500000920E-02 0. -1.
    10030    2    1    2    0    0  0.00000000000E+00  0.00000000000E+00  0.63780424553E+02  0.60604599482E+03  0.60268051676E+03 0.  0.
        2    1    3    3  502    0 -0.14410927403E+03 -0.16654930958E+02  0.29748835672E+03  0.33097460926E+03  0.25500000920E-02 0.  1.
       -2    1    3    3    0  502  0.14410927403E+03  0.16654930958E+02 -0.23370793217E+03  0.27507138555E+03  0.25500000920E-02 0. -1.
</event>
<event>
 5   0  0.7123340E-02  0.6053946E+03  0.7818609E-02  0.9894277E-01
        1   -1    0    0  501    0  0.00000000000E+00  0.00000000000E+00  0.11843807084E+04  0.11843807084E+04  0.50400001928E-02 0.  1.
       -1   -1    0    0    0  501  0.00000000000E+00  0.00000000000E+00 -0.77361653154E+02  0.77361653318E+02  0.50400001928E-02 0. -1.
    10030    2    1    2    0    0  0.00000000000E+00  0.00000000000E+00  0.11070190553E+04  0.12617423617E+04  0.60539458100E+03 0.  0.
        2    1    3    3  502    0  0.30149884972E+03 -0.24604416231E+02  0.53080111593E+03  0.61094742684E+03  0.25500000920E-02 0. -1.
       -2    1    3    3    0  502 -0.30149884972E+03  0.24604416231E+02  0.57621793932E+03  0.65079493490E+03  0.25500000920E-02 0.  1.
</event>
<event>
 5   0  0.1206238E-01  0.5916371E+03  0.7818609E-02  0.9922910E-01
        2   -1    0    0  501    0  0.00000000000E+00  0.00000000000E+00  0.11545625789E+03  0.11545625792E+03  0.25500000920E-02 0. -1.
       -2   -1    0    0    0  501  0.00000000000E+00  0.00000000000E+00 -0.75793728587E+03  0.75793728587E+03  0.25500000920E-02 0.  1.
    10030    2    1    2    0    0  0.00000000000E+00  0.00000000000E+00 -0.64248102798E+03  0.87339354379E+03  0.59163706022E+03 0.  0.
        5    1    3    3  502    0 -0.14218672109E+03  0.25876407204E+03 -0.29522345402E+03  0.41755824317E+03  0.46999998093E+01 0.  1.
       -5    1    3    3    0  502  0.14218672109E+03 -0.25876407204E+03 -0.34725757395E+03  0.45583530063E+03  0.46999998093E+01 0. -1.
</event>
<event>
 5   0  0.4695625E-02  0.6091806E+03  0.7818609E-02  0.9886540E-01
        3   -1    0    0  501    0  0.00000000000E+00  0.00000000000E+00  0.32051686053E+03  0.32051687645E+03  0.10100000352E+00 0.  1.
       -3   -1    0    0    0  501  0.00000000000E+00  0.00000000000E+00 -0.28945510265E+03  0.28945512027E+03  0.10100000352E+00 0. -1.
    10030    2    1    2    0    0  0.00000000000E+00  0.00000000000E+00  0.31061757886E+02  0.60997199671E+03  0.60918060046E+03 0.  0.
        2    1    3    3  502    0  0.11234386926E+03 -0.10586987201E+03  0.27844708127E+03  0.31837454646E+03  0.25500000920E-02 0.  1.
       -2    1    3    3    0  502 -0.11234386926E+03  0.10586987201E+03 -0.24738532338E+03  0.29159745025E+03  0.25500000920E-02 0. -1.
</event>
<event>
 5   0  0.1206238E-01  0.5026919E+03  0.7818609E-02  0.1013079E+00
       -2   -1    0    0    0  501  0.00000000000E+00  0.00000000000E+00  0.11774307909E+03  0.11774307912E+03  0.25500000920E-02 0.  1.
        2   -1    0    0  501    0  0.00000000000E+00  0.00000000000E+00 -0.53654778325E+03  0.53654778326E+03  0.25500000920E-02 0. -1.
    10030    2    1    2    0    0  0.00000000000E+00  0.00000000000E+00 -0.41880470416E+03  0.65429086238E+03  0.50269190601E+03 0.  0.
        5    1    3    3  502    0 -0.14170739645E+03 -0.14935289188E+03 -0.21842716352E+02  0.20709047969E+03  0.46999998093E+01 0.  1.
       -5    1    3    3    0  502  0.14170739645E+03  0.14935289188E+03 -0.39696198781E+03  0.44720038270E+03  0.46999998093E+01 0. -1.
</event>
<event>
 5   0  0.1166419E-01  0.5986213E+03  0.7818609E-02  0.9908271E-01
       -2   -1    0    0    0  501  0.00000000000E+00  0.00000000000E+00  0.92381002957E+02  0.92381002993E+02  0.25500000920E-02 0.  1.
        2   -1    0    0  501    0  0.00000000000E+00  0.00000000000E+00 -0.96975418248E+03  0.96975418248E+03  0.25500000920E-02 0. -1.
    10030    2    1    2    0    0  0.00000000000E+00  0.00000000000E+00 -0.87737317952E+03  0.10621351855E+04  0.59862129605E+03 0.  0.
        1    1    3    3  502    0  0.57683539740E+02  0.10839159696E+02  0.82070357985E+02  0.10089807642E+03  0.50400001928E-02 0.  1.
       -1    1    3    3    0  502 -0.57683539740E+02 -0.10839159696E+02 -0.95944353750E+03  0.96123710905E+03  0.50400001928E-02 0. -1.
</event>
<event>
 5   0  0.1146468E-01  0.5689193E+03  0.7818609E-02  0.9972073E-01
        2   -1    0    0  501    0  0.00000000000E+00  0.00000000000E+00  0.43117421898E+03  0.43117421899E+03  0.25500000920E-02 0.  1.
       -2   -1    0    0    0  501  0.00000000000E+00  0.00000000000E+00 -0.18766726540E+03  0.18766726542E+03  0.25500000920E-02 0. -1.
    10030    2    1    2    0    0  0.00000000000E+00  0.00000000000E+00  0.24350695358E+03  0.61884148441E+03  0.56891927932E+03 0.  0.
        4    1    3    3  502    0 -0.23605125676E+03 -0.13612790437E+03  0.32952418235E+02  0.27447855460E+03  0.12699999809E+01 0. -1.
       -4    1    3    3    0  502  0.23605125676E+03  0.13612790437E+03  0.21055453535E+03  0.34436292981E+03  0.12699999809E+01 0.  1.
</event>
<event>
 5   0  0.7123340E-02  0.6351584E+03  0.7818609E-02  0.9835034E-01
        1   -1    0    0  501    0  0.00000000000E+00  0.00000000000E+00  0.77937282027E+03  0.77937282029E+03  0.50400001928E-02 0. -1.
       -1   -1    0    0    0  501  0.00000000000E+00  0.00000000000E+00 -0.12940730357E+03  0.12940730367E+03  0.50400001928E-02 0.  1.
    10030    2    1    2    0    0  0.00000000000E+00  0.00000000000E+00  0.64996551670E+03  0.90878012396E+03  0.63515835884E+03 0.  0.
        2    1    3    3  502    0 -0.48583554872E+02  0.15662977219E+03 -0.64138453937E+02  0.17608801385E+03  0.25500000920E-02 0.  1.
       -2    1    3    3    0  502  0.48583554872E+02 -0.15662977219E+03  0.71410397064E+03  0.73269211012E+03  0.25500000920E-02 0. -1.
</event>
<event>
 5   0  0.7123340E-02  0.6120091E+03  0.7818609E-02  0.9880800E-01
       -1   -1    0    0    0  501  0.00000000000E+00  0.00000000000E+00  0.27658014364E+03  0.27658014369E+03  0.50400001928E-02 0. -1.
        1   -1    0    0  501    0  0.00000000000E+00  0.00000000000E+00 -0.33855930966E+03  0.33855930970E+03  0.50400001928E-02 0.  1.
    10030    2    1    2    0    0  0.00000000000E+00  0.00000000000E+00 -0.61979166019E+02  0.61513945339E+03  0.61200909315E+03 0.  0.
        2    1    3    3  502    0 -0.12277825852E+03 -0.18531454358E+03 -0.24235738646E+03  0.32886636132E+03  0.25500000920E-02 0.  1.
       -2    1    3    3    0  502  0.12277825852E+03  0.18531454358E+03  0.18037822044E+03  0.28627309207E+03  0.25500000920E-02 0. -1.
</event>
<event>
 5   0  0.1206238E-01  0.6038916E+03  0.7818609E-02  0.9897365E-01
       -2   -1    0    0    0  501  0.00000000000E+00  0.00000000000E+00  0.23704238104E+03  0.23704238105E+03  0.25500000920E-02 0. -1.
        2   -1    0    0  501    0  0.00000000000E+00  0.00000000000E+00 -0.38462008983E+03  0.38462008984E+03  0.25500000920E-02 0.  1.
    10030    2    1    2    0    0  0.00000000000E+00  0.00000000000E+00 -0.14757770879E+03  0.62166247089E+03  0.60389158595E+03 0.  0.
        5    1    3    3  502    0  0.60618494784E+02 -0.39554685796E+02 -0.37551818073E+03  0.38245936926E+03  0.46999998093E+01 0.  1.
       -5    1    3    3    0  502 -0.60618494784E+02  0.39554685796E+02  0.22794047194E+03  0.23920310162E+03  0.46999998093E+01 0. -1.
</event>
<event>
 5   0  0.1175861E-01  0.5881303E+03  0.7818609E-02  0.9930343E-01
        2   -1    0    0  501    0  0.00000000000E+00  0.00000000000E+00  0.17381421332E+04  0.17381421332E+04  0.25500000920E-02 0.  1.
       -2   -1    0    0    0  501  0.00000000000E+00  0.00000000000E+00 -0.49750995505E+02  0.49750995571E+02  0.25500000920E-02 0. -1.
    10030    2    1    2    0    0  0.00000000000E+00  0.00000000000E+00  0.16883911377E+04  0.17878931287E+04  0.58813026283E+03 0.  0.
        3    1    3    3  502    0  0.89255896290E+01 -0.45974736348E+02 -0.38341053580E+02  0.60525937606E+02  0.10100000352E+00 0. -1.
       -3    1    3    3    0  502 -0.89255896290E+01  0.45974736348E+02  0.17267321912E+04  0.17273671911E+04  0.10100000352E+00 0.  1.
</event>
<event>
 5   0  0.7123340E-02  0.5186107E+03  0.7818609E-02  0.1009032E+00
        1   -1    0    0  501    0  0.00000000000E+00  0.00000000000E+00  0.82016833599E+03  0.82016833601E+03  0.50400001928E-02 0. -1.
       -1   -1    0    0    0  501  0.00000000000E+00  0.00000000000E+00 -0.81982271457E+02  0.81982271612E+02  0.50400001928E-02 0.  1.
    10030    2    1    2    0    0  0.00000000000E+00  0.00000000000E+00  0.73818606453E+03  0.90215060762E+03  0.51861069499E+03 0.  0.
        2    1    3    3  502    0 -0.55778849925E+02 -0.15551126296E+02  0.80877729418E+03  0.81084759925E+03  0.25500000920E-02 0. -1.
       -2    1    3    3    0  502  0.55778849925E+02  0.15551126296E+02 -0.70591229643E+02  0.91303008368E+02  0.25500000920E-02 0.  1.
</event>
<event>
 5   0  0.1146468E-01  0.5727947E+03  0.7818609E-02  0.9963513E-01
       -2   -1    0    0    0  501  0.00000000000E+00  0.00000000000E+00  0.12259076358E+03  0.12259076361E+03  0.25500000920E-02 0. -1.
        2   -1    0    0  501    0  0.00000000000E+00  0.00000000000E+00 -0.66908342323E+03  0.66908342323E+03  0.25500000920E-02 0.  1.
    10030    2    1    2    0    0  0.00000000000E+00  0.00000000000E+00 -0.54649265965E+03  0.79167418684E+03  0.57279471983E+03 0.  0.
        4    1    3    3  502    0  0.24262297909E+03 -0.81250145414E+02 -0.95416997548E+02  0.27308151243E+03  0.12699999809E+01 0. -1.
       -4    1    3    3    0  502 -0.24262297909E+03  0.81250145414E+02 -0.45107566210E+03  0.51859267441E+03  0.12699999809E+01 0.  1.
</event>
<event>
 5   0  0.7123340E-02  0.5954643E+03  0.7818609E-02  0.9914861E-01
        1   -1    0    0  501    0  0.00000000000E+00  0.00000000000E+00  0.13332651165E+03  0.13332651174E+03  0.50400001928E-02 0.  1.
       -1   -1    0    0    0  501  0.00000000000E+00  0.00000000000E+00 -0.66486721733E+03  0.66486721735E+03  0.50400001928E-02 0. -1.
    10030    2    1    2    0    0  0.00000000000E+00  0.00000000000E+00 -0.53154070568E+03  0.79819372909E+03  0.59546427883E+03 0.  0.
        2    1    3    3  502    0 -0.12811663045E+03 -0.67991433833E+02  0.82768137005E+02  0.16699482202E+03  0.25500000920E-02 0.  1.
       -2    1    3    3    0  502  0.12811663045E+03  0.67991433833E+02 -0.61430884269E+03  0.63119890706E+03  0.25500000920E-02 0. -1.
</event>
<event>
 5   0  0.4695625E-02  0.5974152E+03  0.7818609E-02  0.9910783E-01
        3   -1    0    0  501    0  0.00000000000E+00  0.00000000000E+00  0.29388738838E+03  0.29388740574E+03  0.10100000352E+00 0.  1.
       -3   -1    0    0    0  501  0.00000000000E+00  0.00000000000E+00 -0.30360680967E+03  0.30360682647E+03  0.10100000352E+00 0. -1.
    10030    2    1    2    0    0  0.00000000000E+00  0.00000000000E+00 -0.97194212814E+01  0.59749423221E+03  0.59741517420E+03 0.  0.
        5    1    3    3  502    0  0.14546780985E+03 -0.22639501168E+03  0.12472806364E+03  0.29663911555E+03  0.46999998093E+01 0.  1.
       -5    1    3    3    0  502 -0.14546780985E+03  0.22639501168E+03 -0.13444748493E+03  0.30085511665E+03  0.46999998093E+01 0. -1.
</event>
<event>
 5   0  0.7424930E-02  0.5988015E+03  0.7818609E-02  0.9907896E-01
       -1   -1    0    0    0  501  0.00000000000E+00  0.00000000000E+00  0.54944238580E+03  0.54944238582E+03  0.50400001928E-02 0. -1.
        1   -1    0    0  501    0  0.00000000000E+00  0.00000000000E+00 -0.16314866944E+03  0.16314866951E+03  0.50400001928E-02 0.  1.
    10030    2    1    2    0    0  0.00000000000E+00  0.00000000000E+00  0.38629371636E+03  0.71259105533E+03  0.59880145027E+03 0.  0.
        3    1    3    3  502    0 -0.23532800072E+03 -0.71907733084E+02 -0.98247583938E+01  0.24626515401E+03  0.10100000352E+00 0.  1.
       -3    1    3    3    0  502  0.23532800072E+03  0.71907733084E+02  0.39611847475E+03  0.46632590132E+03  0.10100000352E+00 0. -1.
</event>
<event>
 5   0  0.1166419E-01  0.5810397E+03  0.7818609E-02  0.9945543E-01
        2   -1    0    0  501    0  0.00000000000E+00  0.00000000000E+00  0.82435715932E+03  0.82435715932E+03  0.25500000920E-02 0. -1.
       -2   -1    0    0    0  501  0.00000000000E+00  0.00000000000E+00 -0.10238497019E+03  0.10238497022E+03  0.25500000920E-02 0.  1.
    10030    2    1    2    0    0  0.00000000000E+00  0.00000000000E+00  0.72197218913E+03  0.92674212954E+03  0.58103969983E+03 0.  0.
        1    1    3    3  502    0  0.14681217943E+03  0.19518603769E+03  0.61191114274E+03  0.65885252672E+03  0.50400001928E-02 0. -1.
       -1    1    3    3    0  502 -0.14681217943E+03 -0.19518603769E+03  0.11006104639E+03  0.26788960281E+03  0.50400001928E-02 0.  1.
</event>
<event>
 5   0  0.7123340E-02  0.5968894E+03  0.7818609E-02  0.9911881E-01
       -1   -1    0    0    0  501  0.00000000000E+00  0.00000000000E+00  0.45028494338E+03  0.45028494341E+03  0.50400001928E-02 0. -1.
        1   -1    0    0  501    0  0.00000000000E+00  0.00000000000E+00 -0.19780637554E+03  0.19780637560E+03  0.50400001928E-02 0.  1.
    10030    2    1    2    0    0  0.00000000000E+00  0.00000000000E+00  0.25247856784E+03  0.64809131901E+03  0.59688937883E+03 0.  0.
        2    1    3    3  502    0 -0.20337424998E+02  0.28455019600E+03  0.22143455227E+03  0.36113112002E+03  0.25500000920E-02 0. -1.
       -2    1    3    3    0  502  0.20337424998E+02 -0.28455019600E+03  0.31044015575E+02  0.28696019900E+03  0.25500000920E-02 0.  1.
</event>
<event>
 5   0  0.1166419E-01  0.6026554E+03  0.7818609E-02  0.9899912E-01
       -2   -1    0    0    0  501  0.00000000000E+00  0.00000000000E+00  0.24809483914E+03  0.24809483916E+03  0.25500000920E-02 0. -1.
        2   -1    0    0  501    0  0.00000000000E+00  0.00000000000E+00 -0.36598259416E+03  0.36598259417E+03  0.25500000920E-02 0.  1.
    10030    2    1    2    0    0  0.00000000000E+00  0.00000000000E+00 -0.11788775502E+03  0.61407743332E+03  0.60265543334E+03 0.  0.
        1    1    3    3  502    0 -0.99832216351E+01  0.18079981566E+03  0.18647393087E+03  0.25992453708E+03  0.50400001928E-02 0. -1.
       -1    1    3    3    0  502  0.99832216351E+01 -0.18079981566E+03 -0.30436168588E+03  0.35415289624E+03  0.50400001928E-02 0.  1.
</event>
<event>
 5   0  0.4695625E-02  0.5974823E+03  0.7818609E-02  0.9910643E-01
       -3   -1    0    0    0  501  0.00000000000E+00  0.00000000000E+00  0.22330189628E+03  0.22330191912E+03  0.10100000352E+00 0.  1.
        3   -1    0    0  501    0  0.00000000000E+00  0.00000000000E+00 -0.39966634106E+03  0.39966635382E+03  0.10100000352E+00 0. -1.
    10030    2    1    2    0    0  0.00000000000E+00  0.00000000000E+00 -0.17636444478E+03  0.62296827294E+03  0.59748226058E+03 0.  0.
        5    1    3    3  502    0  0.17058368482E+03  0.17226699056E+03  0.93758843720E+02  0.25997599954E+03  0.46999998093E+01 0.  1.
       -5    1    3    3    0  502 -0.17058368482E+03 -0.17226699056E+03 -0.27012328850E+03  0.36299227340E+03  0.46999998093E+01 0. -1.
</event>
<event>
 5   0  0.1175861E-01  0.5912413E+03  0.7818609E-02  0.9923746E-01
        2   -1    0    0  501    0  0.00000000000E+00  0.00000000000E+00  0.16070812426E+04  0.16070812426E+04  0.25500000920E-02 0.  1.
       -2   -1    0    0    0  501  0.00000000000E+00  0.00000000000E+00 -0.54379065197E+02  0.54379065257E+02  0.25500000920E-02 0. -1.
    10030    2    1    2    0    0  0.00000000000E+00  0.00000000000E+00  0.15527021774E+04  0.16614603079E+04  0.59124132372E+03 0.  0.
        3    1    3    3  502    0 -0.18515392153E+03  0.55250401749E+02  0.14050714557E+04  0.14182948874E+04  0.10100000352E+00 0.  1.
       -3    1    3    3    0  502  0.18515392153E+03 -0.55250401749E+02  0.14763072168E+03  0.24316542052E+03  0.10100000352E+00 0. -1.
</event>
<event>
 5   0  0.7263385E-02  0.5890160E+03  0.7818609E-02  0.9928460E-01
       -1   -1    0    0    0  501  0.00000000000E+00  0.00000000000E+00  0.79983771659E+02  0.79983771818E+02  0.50400001928E-02 0.  1.
        1   -1    0    0  501    0  0.00000000000E+00  0.00000000000E+00 -0.10844070663E+04  0.10844070663E+04  0.50400001928E-02 0. -1.
    10030    2    1    2    0    0  0.00000000000E+00  0.00000000000E+00 -0.10044232946E+04  0.11643908381E+04  0.58901601770E+03 0.  0.
        1    1    3    3  502    0  0.24117585425E+03  0.16695370121E+03 -0.55435065613E+03  0.62717141277E+03  0.50400001928E-02 0. -1.
       -1    1    3    3    0  502 -0.24117585425E+03 -0.16695370121E+03 -0.45007263852E+03  0.53721942536E+03  0.50400001928E-02 0.  1.
</event>
<event>
 5   0  0.7263385E-02  0.5951041E+03  0.7818609E-02  0.9915616E-01
        1   -1    0    0  501    0  0.00000000000E+00  0.00000000000E+00  0.38246561031E+03  0.38246561034E+03  0.50400001928E-02 0.  1.
       -1   -1    0    0    0  501  0.00000000000E+00  0.00000000000E+00 -0.23149070882E+03  0.23149070887E+03  0.50400001928E-02 0. -1.
    10030    2    1    2    0    0  0.00000000000E+00  0.00000000000E+00  0.15097490149E+03  0.61395631921E+03  0.59510414300E+03 0.  0.
        1    1    3    3  502    0 -0.19158645943E+03  0.17626944367E+01  0.31035872037E+03  0.36473416876E+03  0.50400001928E-02 0.  1.
       -1    1    3    3    0  502  0.19158645943E+03 -0.17626944367E+01 -0.15938381887E+03  0.24922215045E+03  0.50400001928E-02 0. -1.
</event>
<event>
 5   0  0.1166419E-01  0.6007615E+03  0.7818609E-02  0.9903827E-01
       -2   -1    0    0    0  501  0.00000000000E+00  0.00000000000E+00  0.15211637807E+03  0.15211637809E+03  0.25500000920E-02 0.  1.
        2   -1    0    0  501    0  0.00000000000E+00  0.00000000000E+00 -0.59315503064E+03  0.59315503065E+03  0.25500000920E-02 0. -1.
    10030    2    1    2    0    0  0.00000000000E+00  0.00000000000E+00 -0.44103865257E+03  0.74527140874E+03  0.60076149978E+03 0.  0.
        1    1    3    3  502    0  0.20882930782E+03  0.10933377568E+02 -0.48802680718E+03  0.53094197715E+03  0.50400001928E-02 0. -1.
       -1    1    3    3    0  502 -0.20882930782E+03 -0.10933377568E+02  0.46988154603E+02  0.21432943159E+03  0.50400001928E-02 0.  1.
</event>
<event>
 5   0  0.4695625E-02  0.6005791E+03  0.7818609E-02  0.9904205E-01
        4   -1    0    0  501    0  0.00000000000E+00  0.00000000000E+00  0.52038482196E+03  0.52038637167E+03  0.12699999809E+01 0.  1.
       -4   -1    0    0    0  501  0.00000000000E+00  0.00000000000E+00 -0.17327881327E+03  0.17328346727E+03  0.12699999809E+01 0. -1.
    10030    2    1    2    0    0  0.00000000000E+00  0.00000000000E+00  0.34710600869E+03  0.69366983894E+03  0.60057910735E+03 0.  0.
        5    1    3    3  502    0 -0.12082364254E+03 -0.21930330183E+03 -0.17841027870E+02  0.25106310573E+03  0.46999998093E+01 0. -1.
       -5    1    3    3    0  502  0.12082364254E+03  0.21930330183E+03  0.36494703656E+03  0.44260673320E+03  0.46999998093E+01 0.  1.
</event>
<event>
 5   0  0.7263385E-02  0.6001531E+03  0.7818609E-02  0.9905089E-01
        1   -1    0    0  501    0  0.00000000000E+00  0.00000000000E+00  0.26619574409E+03  0.26619574414E+03  0.50400001928E-02 0. -1.
       -1   -1    0    0    0  501  0.00000000000E+00  0.00000000000E+00 -0.33826960607E+03  0.33826960611E+03  0.50400001928E-02 0.  1.
    10030    2    1    2    0    0  0.00000000000E+00  0.00000000000E+00 -0.72073861979E+02  0.60446535024E+03  0.60015307886E+03 0.  0.
        1    1    3    3  502    0 -0.27856584688E+03  0.39551826504E+02  0.69032585216E+02  0.28970463558E+03  0.50400001928E-02 0.  1.
       -1    1    3    3    0  502  0.27856584688E+03 -0.39551826504E+02 -0.14110644720E+03  0.31476071466E+03  0.50400001928E-02 0. -1.
</event>
<event>
 5   0  0.1175861E-01  0.6028672E+03  0.7818609E-02  0.9899475E-01
        2   -1    0    0  501    0  0.00000000000E+00  0.00000000000E+00  0.10961270287E+04  0.10961270287E+04  0.25500000920E-02 0. -1.
       -2   -1    0    0    0  501  0.00000000000E+00  0.00000000000E+00 -0.82893875880E+02  0.82893875920E+02  0.25500000920E-02 0.  1.
    10030    2    1    2    0    0  0.00000000000E+00  0.00000000000E+00  0.10132331529E+04  0.11790209047E+04  0.60286720891E+03 0.  0.
        3    1    3    3  502    0 -0.81284557141E+02 -0.13768703240E+03  0.68726936077E+01  0.16003794000E+03  0.10100000352E+00 0.  1.
       -3    1    3    3    0  502  0.81284557141E+02  0.13768703240E+03  0.10063604593E+04  0.10189829647E+04  0.10100000352E+00 0. -1.
</event>
<event>
 5   0  0.7266519E-02  0.5998633E+03  0.7818609E-02  0.9905690E-01
        1   -1    0    0  501    0  0.00000000000E+00  0.00000000000E+00  0.17148308692E+04  0.17148308692E+04  0.50400001928E-02 0. -1.
       -1   -1    0    0    0  501  0.00000000000E+00  0.00000000000E+00 -0.52459396211E+02  0.52459396454E+02  0.50400001928E-02 0.  1.
    10030    2    1    2    0    0  0.00000000000E+00  0.00000000000E+00  0.16623714730E+04  0.17672902657E+04  0.59986329184E+03 0.  0.
        4    1    3    3  502    0 -0.21664312913E+03  0.14019106567E+03  0.12815679483E+04  0.13072894857E+04  0.12699999809E+01 0.  1.
       -4    1    3    3    0  502  0.21664312913E+03 -0.14019106567E+03  0.38080352470E+03  0.46000078002E+03  0.12699999809E+01 0. -1.
</event>
<event>
 5   0  0.7266519E-02  0.7782557E+03  0.7818609E-02  0.9592036E-01
        1   -1    0    0  501    0  0.00000000000E+00  0.00000000000E+00  0.66304670150E+03  0.66304670152E+03  0.50400001928E-02 0.  1.
       -1   -1    0    0    0  501  0.00000000000E+00  0.00000000000E+00 -0.22837074023E+03  0.22837074028E+03  0.50400001928E-02 0. -1.
    10030    2    1    2    0    0  0.00000000000E+00  0.00000000000E+00  0.43467596127E+03  0.89141744180E+03  0.77825565481E+03 0.  0.
        4    1    3    3  502    0  0.32984666727E+03  0.17675947907E+03  0.33950552512E+03  0.50528046849E+03  0.12699999809E+01 0.  1.
       -4    1    3    3    0  502 -0.32984666727E+03 -0.17675947907E+03  0.95170436151E+02  0.38613697332E+03  0.12699999809E+01 0. -1.
</event>
<event>
 5   0  0.7266519E-02  0.5940904E+03  0.7818609E-02  0.9917743E-01
        1   -1    0    0  501    0  0.00000000000E+00  0.00000000000E+00  0.75833807561E+03  0.75833807563E+03  0.50400001928E-02 0. -1.
       -1   -1    0    0    0  501  0.00000000000E+00  0.00000000000E+00 -0.11635424371E+03  0.11635424382E+03  0.50400001928E-02 0.  1.
    10030    2    1    2    0    0  0.00000000000E+00  0.00000000000E+00  0.64198383190E+03  0.87469231945E+03  0.59409040834E+03 0.  0.
        4    1    3    3  502    0  0.26864605633E+03  0.70655002416E+02  0.16607309259E+03  0.32364288642E+03  0.12699999809E+01 0.  1.
       -4    1    3    3    0  502 -0.26864605633E+03 -0.70655002416E+02  0.47591073931E+03  0.55104943303E+03  0.12699999809E+01 0. -1.
</event>
<event>
 5   0  0.1219020E-01  0.6016266E+03  0.7818609E-02  0.9902037E-01
        2   -1    0    0  501    0  0.00000000000E+00  0.00000000000E+00  0.21292444565E+03  0.21292444567E+03  0.25500000920E-02 0. -1.
       -2   -1    0    0    0  501  0.00000000000E+00  0.00000000000E+00 -0.42498007996E+03  0.42498007997E+03  0.25500000920E-02 0.  1.
    10030    2    1    2    0    0  0.00000000000E+00  0.00000000000E+00 -0.21205563431E+03  0.63790452564E+03  0.60162662157E+03 0.  0.
        2    1    3    3  502    0  0.11354329882E+03  0.27850541566E+03 -0.10009575727E+03  0.31698029574E+03  0.25500000920E-02 0. -1.
       -2    1    3    3    0  502 -0.11354329882E+03 -0.27850541566E+03 -0.11195987704E+03  0.32092422989E+03  0.25500000920E-02 0.  1.
</event>
<event>
 5   0  0.1146468E-01  0.5671465E+03  0.7818609E-02  0.9976013E-01
        2   -1    0    0  501    0  0.00000000000E+00  0.00000000000E+00  0.45569036773E+03  0.45569036774E+03  0.25500000920E-02 0. -1.
       -2   -1    0    0    0  501  0.00000000000E+00  0.00000000000E+00 -0.17646584552E+03  0.17646584554E+03  0.25500000920E-02 0.  1.
    10030    2    1    2    0    0  0.00000000000E+00  0.00000000000E+00  0.27922452221E+03  0.63215621328E+03  0.56714649270E+03 0.  0.
        4    1    3    3  502    0  0.13240532313E+03  0.86888741533E+01  0.41894897713E+03  0.43946163025E+03  0.12699999809E+01 0. -1.
       -4    1    3    3    0  502 -0.13240532313E+03 -0.86888741533E+01 -0.13972445492E+03  0.19269458303E+03  0.12699999809E+01 0.  1.
</event>
<event>
 5   0  0.1175861E-01  0.5995627E+03  0.7818609E-02  0.9906314E-01
       -2   -1    0    0    0  501  0.00000000000E+00  0.00000000000E+00  0.10729976634E+03  0.10729976637E+03  0.25500000920E-02 0. -1.
        2   -1    0    0  501    0  0.00000000000E+00  0.00000000000E+00 -0.83754938866E+03  0.83754938867E+03  0.25500000920E-02 0.  1.
    10030    2    1    2    0    0  0.00000000000E+00  0.00000000000E+00 -0.73024962232E+03  0.94484915504E+03  0.59956268636E+03 0.  0.
        3    1    3    3  502    0  0.23057063277E+03 -0.14328211590E+03 -0.56555676938E+03  0.62733328545E+03  0.10100000352E+00 0.  1.
       -3    1    3    3    0  502 -0.23057063277E+03  0.14328211590E+03 -0.16469285294E+03  0.31751586959E+03  0.10100000352E+00 0. -1.
</event>
<event>
 5   0  0.7424930E-02  0.5990846E+03  0.7818609E-02  0.9907307E-01
       -1   -1    0    0    0  501  0.00000000000E+00  0.00000000000E+00  0.19864492545E+03  0.19864492552E+03  0.50400001928E-02 0. -1.
        1   -1    0    0  501    0  0.00000000000E+00  0.00000000000E+00 -0.45168826435E+03  0.45168826438E+03  0.50400001928E-02 0.  1.
    10030    2    1    2    0    0  0.00000000000E+00  0.00000000000E+00 -0.25304333889E+03  0.65033318989E+03  0.59908457376E+03 0.  0.
        3    1    3    3  502    0  0.29428699483E+03  0.31134655476E+02 -0.76170997722E+02  0.30557524964E+03  0.10100000352E+00 0.  1.
       -3    1    3    3    0  502 -0.29428699483E+03 -0.31134655476E+02 -0.17687234117E+03  0.34475794026E+03  0.10100000352E+00 0. -1.
</event>
<event>
 5   0  0.1206238E-01  0.5961984E+03  0.7818609E-02  0.9913325E-01
       -2   -1    0    0    0  501  0.00000000000E+00  0.00000000000E+00  0.13141831034E+03  0.13141831036E+03  0.25500000920E-02 0. -1.
        2   -1    0    0  501    0  0.00000000000E+00  0.00000000000E+00 -0.67618529331E+03  0.67618529331E+03  0.25500000920E-02 0.  1.
    10030    2    1    2    0    0  0.00000000000E+00  0.00000000000E+00 -0.54476698297E+03  0.80760360368E+03  0.59619838555E+03 0.  0.
        5    1    3    3  502    0  0.68110238790E+02  0.13409699692E+03 -0.62096322819E+03  0.63893538795E+03  0.46999998093E+01 0.  1.
       -5    1    3    3    0  502 -0.68110238790E+02 -0.13409699692E+03  0.76196245222E+02  0.16866821573E+03  0.46999998093E+01 0. -1.
</event>
<event>
 5   0  0.4695625E-02  0.5772105E+03  0.7818609E-02  0.9953849E-01
       -3   -1    0    0    0  501  0.00000000000E+00  0.00000000000E+00  0.13165989121E+03  0.13165992995E+03  0.10100000352E+00 0. -1.
        3   -1    0    0  501    0  0.00000000000E+00  0.00000000000E+00 -0.63263737000E+03  0.63263737806E+03  0.10100000352E+00 0.  1.
    10030    2    1    2    0    0  0.00000000000E+00  0.00000000000E+00 -0.50097747879E+03  0.76429730801E+03  0.57721048221E+03 0.  0.
        3    1    3    3  502    0 -0.11798638047E+03 -0.26534812507E+01 -0.59922634338E+03  0.61073729847E+03  0.10100000352E+00 0.  1.
       -3    1    3    3    0  502  0.11798638047E+03  0.26534812507E+01  0.98248864585E+02  0.15356000955E+03  0.10100000352E+00 0. -1.
</event>
<event>
 5   0  0.1219020E-01  0.5956982E+03  0.7818609E-02  0.9914371E-01
        2   -1    0    0  501    0  0.00000000000E+00  0.00000000000E+00  0.42973797446E+03  0.42973797446E+03  0.25500000920E-02 0. -1.
       -2   -1    0    0    0  501  0.00000000000E+00  0.00000000000E+00 -0.20643760104E+03  0.20643760106E+03  0.25500000920E-02 0.  1.
    10030    2    1    2    0    0  0.00000000000E+00  0.00000000000E+00  0.22330037341E+03  0.63617557552E+03  0.59569816697E+03 0.  0.
        2    1    3    3  502    0  0.14517612530E+03  0.19429677965E+03 -0.72974568276E+02  0.25328370173E+03  0.25500000920E-02 0.  1.
       -2    1    3    3    0  502 -0.14517612530E+03 -0.19429677965E+03  0.29627494169E+03  0.38289187379E+03  0.25500000920E-02 0. -1.
</event>
<event>
 5   0  0.7424930E-02  0.5936916E+03  0.7818609E-02  0.9918581E-01
       -1   -1    0    0    0  501  0.00000000000E+00  0.00000000000E+00  0.14401195074E+03  0.14401195083E+03  0.50400001928E-02 0.  1.
        1   -1    0    0  501    0  0.00000000000E+00  0.00000000000E+00 -0.61187577120E+03  0.61187577123E+03  0.50400001928E-02 0. -1.
    10030    2    1    2    0    0  0.00000000000E+00  0.00000000000E+00 -0.46786382046E+03  0.75588772205E+03  0.59369158142E+03 0.  0.
        3    1    3    3  502    0 -0.25977209630E+03 -0.54888254694E+02 -0.40295194180E+03  0.48256040049E+03  0.10100000352E+00 0. -1.
       -3    1    3    3    0  502  0.25977209630E+03  0.54888254694E+02 -0.64911878667E+02  0.27332732157E+03  0.10100000352E+00 0.  1.
</event>
<event>
 5   0  0.1206238E-01  0.5927462E+03  0.7818609E-02  0.9920571E-01
        2   -1    0    0  501    0  0.00000000000E+00  0.00000000000E+00  0.10555329748E+04  0.10555329748E+04  0.25500000920E-02 0.  1.
       -2   -1    0    0    0  501  0.00000000000E+00  0.00000000000E+00 -0.83215787331E+02  0.83215787370E+02  0.25500000920E-02 0. -1.
    10030    2    1    2    0    0  0.00000000000E+00  0.00000000000E+00  0.97231718745E+03  0.11387487622E+04  0.59274617696E+03 0.  0.
        5    1    3    3  502    0 -0.10066996248E+03 -0.12613164992E+03  0.96363560594E+03  0.97706668426E+03  0.46999998093E+01 0.  1.
       -5    1    3    3    0  502  0.10066996248E+03  0.12613164992E+03  0.86815815175E+01  0.16168207790E+03  0.46999998093E+01 0. -1.
</event>
<event>
 5   0  0.7221069E-02  0.6102698E+03  0.7818609E-02  0.9884326E-01
        1   -1    0    0  501    0  0.00000000000E+00  0.00000000000E+00  0.31412220805E+03  0.31412220809E+03  0.50400001928E-02 0. -1.
       -1   -1    0    0    0  501  0.00000000000E+00  0.00000000000E+00 -0.29640474337E+03  0.29640474342E+03  0.50400001928E-02 0.  1.
    10030    2    1    2    0    0  0.00000000000E+00  0.00000000000E+00  0.17717464671E+02  0.61052695150E+03  0.61026981734E+03 0.  0.
        5    1    3    3  502    0  0.19683847094E+03  0.22592635436E+03 -0.48586026287E+02  0.30359643144E+03  0.46999998093E+01 0. -1.
       -5    1    3    3    0  502 -0.19683847094E+03 -0.22592635436E+03  0.66303490958E+02  0.30693052006E+03  0.46999998093E+01 0.  1.
</event>
<event>
 5   0  0.1206238E-01  0.5898929E+03  0.7818609E-02  0.9926600E-01
        2   -1    0    0  501    0  0.00000000000E+00  0.00000000000E+00  0.74763926450E+03  0.74763926450E+03  0.25500000920E-02 0. -1.
       -2   -1    0    0    0  501  0.00000000000E+00  0.00000000000E+00 -0.11635744601E+03  0.11635744604E+03  0.25500000920E-02 0.  1.
    10030    2    1    2    0    0  0.00000000000E+00  0.00000000000E+00  0.63128181849E+03  0.86399671054E+03  0.58989285592E+03 0.  0.
        5    1    3    3  502    0 -0.71520780589E+02  0.40258614981E+02  0.73052020914E+03  0.73513117475E+03  0.46999998093E+01 0. -1.
       -5    1    3    3    0  502  0.71520780589E+02 -0.40258614981E+02 -0.99238390651E+02  0.12886553579E+03  0.46999998093E+01 0.  1.
</event>
<event>
 5   0  0.1166419E-01  0.6041582E+03  0.7818609E-02  0.9896816E-01
        2   -1    0    0  501    0  0.00000000000E+00  0.00000000000E+00  0.93769394534E+02  0.93769394569E+02  0.25500000920E-02 0.  1.
       -2   -1    0    0    0  501  0.00000000000E+00  0.00000000000E+00 -0.97315108719E+03  0.97315108720E+03  0.25500000920E-02 0. -1.
    10030    2    1    2    0    0  0.00000000000E+00  0.00000000000E+00 -0.87938169266E+03  0.10669204818E+04  0.60415821854E+03 0.  0.
        1    1    3    3  502    0 -0.30187534728E+03 -0.75854555219E+01 -0.42539595324E+03  0.52167804390E+03  0.50400001928E-02 0.  1.
       -1    1    3    3    0  502  0.30187534728E+03  0.75854555219E+01 -0.45398573942E+03  0.54524243787E+03  0.50400001928E-02 0. -1.
</event>
<event>
 5   0  0.1146468E-01  0.6071783E+03  0.7818609E-02  0.9890624E-01
        2   -1    0    0  501    0  0.00000000000E+00  0.00000000000E+00  0.65759745664E+03  0.65759745664E+03  0.25500000920E-02 0. -1.
       -2   -1    0    0    0  501  0.00000000000E+00  0.00000000000E+00 -0.14015623265E+03  0.14015623267E+03  0.25500000920E-02 0.  1.
    10030    2    1    2    0    0  0.00000000000E+00  0.00000000000E+00  0.51744122399E+03  0.79775368931E+03  0.60717833338E+03 0.  0.
        4    1    3    3  502    0  0.23399053200E+03  0.18089231972E+03  0.16873085335E+03  0.34050743630E+03  0.12699999809E+01 0. -1.
       -4    1    3    3    0  502 -0.23399053200E+03 -0.18089231972E+03  0.34871037064E+03  0.45724625301E+03  0.12699999809E+01 0.  1.
</event>
<event>
 5   0  0.7424930E-02  0.5997460E+03  0.7818609E-02  0.9905933E-01
        1   -1    0    0  501    0  0.00000000000E+00  0.00000000000E+00  0.13456421851E+04  0.13456421851E+04  0.50400001928E-02 0. -1.
       -1   -1    0    0    0  501  0.00000000000E+00  0.00000000000E+00 -0.66825938658E+02  0.66825938848E+02  0.50400001928E-02 0.  1.
    10030    2    1    2    0    0  0.00000000000E+00  0.00000000000E+00  0.12788162465E+04  0.14124681240E+04  0.59974595375E+03 0.  0.
        3    1    3    3  502    0  0.18127231279E+03  0.57437673044E+02  0.93321706965E+02  0.21181994443E+03  0.10100000352E+00 0.  1.
       -3    1    3    3    0  502 -0.18127231279E+03 -0.57437673044E+02  0.11854945395E+04  0.12006481796E+04  0.10100000352E+00 0. -1.
</event>
<event>
 5   0  0.7266519E-02  0.5937577E+03  0.7818609E-02  0.9918442E-01
        1   -1    0    0  501    0  0.00000000000E+00  0.00000000000E+00  0.42977410906E+03  0.42977410909E+03  0.50400001928E-02 0.  1.
       -1   -1    0    0    0  501  0.00000000000E+00  0.00000000000E+00 -0.20507761603E+03  0.20507761609E+03  0.50400001928E-02 0. -1.
    10030    2    1    2    0    0  0.00000000000E+00  0.00000000000E+00  0.22469649303E+03  0.63485172519E+03  0.59375769384E+03 0.  0.
        4    1    3    3  502    0  0.10834116947E+03 -0.16394798188E+03  0.35027737545E+03  0.40163740167E+03  0.12699999809E+01 0.  1.
       -4    1    3    3    0  502 -0.10834116947E+03  0.16394798188E+03 -0.12558088242E+03  0.23321432352E+03  0.12699999809E+01 0. -1.
</event>
<event>
 5   0  0.1166419E-01  0.5992815E+03  0.7818609E-02  0.9906898E-01
        2   -1    0    0  501    0  0.00000000000E+00  0.00000000000E+00  0.42621020965E+03  0.42621020966E+03  0.25500000920E-02 0.  1.
       -2   -1    0    0    0  501  0.00000000000E+00  0.00000000000E+00 -0.21065799044E+03  0.21065799046E+03  0.25500000920E-02 0. -1.
    10030    2    1    2    0    0  0.00000000000E+00  0.00000000000E+00  0.21555221921E+03  0.63686820012E+03  0.59928152409E+03 0.  0.
        1    1    3    3  502    0  0.60810769910E+02 -0.58091092693E+02  0.41341111810E+03  0.42187827318E+03  0.50400001928E-02 0.  1.
       -1    1    3    3    0  502 -0.60810769910E+02  0.58091092693E+02 -0.19785889889E+03  0.21498992693E+03  0.50400001928E-02 0. -1.
</event>
<event>
 5   0  0.7266519E-02  0.5962113E+03  0.7818609E-02  0.9913298E-01
       -1   -1    0    0    0  501  0.00000000000E+00  0.00000000000E+00  0.21064809122E+03  0.21064809128E+03  0.50400001928E-02 0.  1.
        1   -1    0    0  501    0  0.00000000000E+00  0.00000000000E+00 -0.42187416831E+03  0.42187416834E+03  0.50400001928E-02 0. -1.
    10030    2    1    2    0    0  0.00000000000E+00  0.00000000000E+00 -0.21122607709E+03  0.63252225962E+03  0.59621133272E+03 0.  0.
        4    1    3    3  502    0 -0.45188108439E+02  0.29434019756E+03 -0.12013068471E+03  0.32110918915E+03  0.12699999809E+01 0.  1.
       -4    1    3    3    0  502  0.45188108439E+02 -0.29434019756E+03 -0.91095392383E+02  0.31141307047E+03  0.12699999809E+01 0. -1.
</event>
<event>
 5   0  0.1146468E-01  0.6028342E+03  0.7818609E-02  0.9899543E-01
       -2   -1    0    0    0  501  0.00000000000E+00  0.00000000000E+00  0.16395773341E+03  0.16395773343E+03  0.25500000920E-02 0.  1.
        2   -1    0    0  501    0  0.00000000000E+00  0.00000000000E+00 -0.55411999198E+03  0.55411999199E+03  0.25500000920E-02 0. -1.
    10030    2    1    2    0    0  0.00000000000E+00  0.00000000000E+00 -0.39016225857E+03  0.71807772542E+03  0.60283416602E+03 0.  0.
        4    1    3    3  502    0  0.10339967669E+03  0.39494328827E+02 -0.52903237968E+03  0.54048882209E+03  0.12699999809E+01 0. -1.
       -4    1    3    3    0  502 -0.10339967669E+03 -0.39494328827E+02  0.13887012111E+03  0.17758890333E+03  0.12699999809E+01 0.  1.
</event>
<event>
 5   0  0.1206238E-01  0.6405721E+03  0.7818609E-02  0.9824632E-01
       -2   -1    0    0    0  501  0.00000000000E+00  0.00000000000E+00  0.21347615738E+03  0.21347615740E+03  0.25500000920E-02 0. -1.
        2   -1    0    0  501    0  0.00000000000E+00  0.00000000000E+00 -0.48053688959E+03  0.48053688960E+03  0.25500000920E-02 0.  1.
    10030    2    1    2    0    0  0.00000000000E+00  0.00000000000E+00 -0.26706073220E+03  0.69401304700E+03  0.64057214638E+03 0.  0.
        5    1    3    3  502    0 -0.14605679338E+03  0.70979379318E+02 -0.43258447015E+03  0.46208448686E+03  0.46999998093E+01 0.  1.
       -5    1    3    3    0  502  0.14605679338E+03 -0.70979379318E+02  0.16552373795E+03  0.23192856013E+03  0.46999998093E+01 0. -1.
</event>
<event>
 5   0  0.1206238E-01  0.6263008E+03  0.7818609E-02  0.9852294E-01
        2   -1    0    0  501    0  0.00000000000E+00  0.00000000000E+00  0.54896499165E+03  0.54896499165E+03  0.25500000920E-02 0.  1.
       -2   -1    0    0    0  501  0.00000000000E+00  0.00000000000E+00 -0.17863282427E+03  0.17863282429E+03  0.25500000920E-02 0. -1.
    10030    2    1    2    0    0  0.00000000000E+00  0.00000000000E+00  0.37033216737E+03  0.72759781594E+03  0.62630078044E+03 0.  0.
        5    1    3    3  502    0 -0.72767680566E+02 -0.26182259429E+03  0.44611181915E+01  0.27182383595E+03  0.46999998093E+01 0. -1.
       -5    1    3    3    0  502  0.72767680566E+02  0.26182259429E+03  0.36587104918E+03  0.45577398000E+03  0.46999998093E+01 0.  1.
</event>
<event>
 5   0  0.7123340E-02  0.5998803E+03  0.7818609E-02  0.9905654E-01
        1   -1    0    0  501    0  0.00000000000E+00  0.00000000000E+00  0.45530667557E+03  0.45530667560E+03  0.50400001928E-02 0.  1.
       -1   -1    0    0    0  501  0.00000000000E+00  0.00000000000E+00 -0.19759008215E+03  0.19759008221E+03  0.50400001928E-02 0. -1.
    10030    2    1    2    0    0  0.00000000000E+00  0.00000000000E+00  0.25771659342E+03  0.65289675781E+03  0.59988026625E+03 0.  0.
        2    1    3    3  502    0 -0.33315726177E+02 -0.42673041855E+02 -0.19222839530E+03  0.19970648983E+03  0.25500000920E-02 0. -1.
       -2    1    3    3    0  502  0.33315726177E+02  0.42673041855E+02  0.44994498873E+03  0.45319026799E+03  0.25500000920E-02 0.  1.
</event>
<event>
 5   0  0.7266519E-02  0.6276144E+03  0.7818609E-02  0.9849715E-01
       -1   -1    0    0    0  501  0.00000000000E+00  0.00000000000E+00  0.18127608591E+03  0.18127608598E+03  0.50400001928E-02 0.  1.
        1   -1    0    0  501    0  0.00000000000E+00  0.00000000000E+00 -0.54323185522E+03  0.54323185525E+03  0.50400001928E-02 0. -1.
    10030    2    1    2    0    0  0.00000000000E+00  0.00000000000E+00 -0.36195576931E+03  0.72450794123E+03  0.62761435449E+03 0.  0.
        4    1    3    3  502    0 -0.29062840189E+02 -0.24957105511E+03 -0.39799891023E+03  0.47067515939E+03  0.12699999809E+01 0. -1.
       -4    1    3    3    0  502  0.29062840189E+02  0.24957105511E+03  0.36043140920E+02  0.25383278184E+03  0.12699999809E+01 0.  1.
</event>
<event>
 5   0  0.4695625E-02  0.5429346E+03  0.7818609E-02  0.1003143E+00
       -3   -1    0    0    0  501  0.00000000000E+00  0.00000000000E+00  0.15316571608E+03  0.15316574938E+03  0.10100000352E+00 0.  1.
        3   -1    0    0  501    0  0.00000000000E+00  0.00000000000E+00 -0.48114217791E+03  0.48114218851E+03  0.10100000352E+00 0. -1.
    10030    2    1    2    0    0  0.00000000000E+00  0.00000000000E+00 -0.32797646184E+03  0.63430793789E+03  0.54293461904E+03 0.  0.
        1    1    3    3  502    0  0.37373309266E+02 -0.12566988129E+03  0.11372421761E+03  0.17355944516E+03  0.50400001928E-02 0.  1.
       -1    1    3    3    0  502 -0.37373309266E+02  0.12566988129E+03 -0.44170067944E+03  0.46074849273E+03  0.50400001928E-02 0. -1.
</event>
<event>
 5   0  0.7263385E-02  0.6062875E+03  0.7818609E-02  0.9892447E-01
        1   -1    0    0  501    0  0.00000000000E+00  0.00000000000E+00  0.92397097778E+03  0.92397097780E+03  0.50400001928E-02 0. -1.
       -1   -1    0    0    0  501  0.00000000000E+00  0.00000000000E+00 -0.99457801238E+02  0.99457801366E+02  0.50400001928E-02 0.  1.
    10030    2    1    2    0    0  0.00000000000E+00  0.00000000000E+00  0.82451317655E+03  0.10234287792E+04  0.60628746294E+03 0.  0.
        1    1    3    3  502    0 -0.34449572019E+02  0.13383401616E+03 -0.43190762114E+02  0.14478866963E+03  0.50400001928E-02 0.  1.
       -1    1    3    3    0  502  0.34449572019E+02 -0.13383401616E+03  0.86770393866E+03  0.87864010954E+03  0.50400001928E-02 0. -1.
</event>
<event>
 5   0  0.1206238E-01  0.6019795E+03  0.7818609E-02  0.9901308E-01
       -2   -1    0    0    0  501  0.00000000000E+00  0.00000000000E+00  0.28690929781E+03  0.28690929782E+03  0.25500000920E-02 0. -1.
        2   -1    0    0  501    0  0.00000000000E+00  0.00000000000E+00 -0.31576126189E+03  0.31576126190E+03  0.25500000920E-02 0.  1.
    10030    2    1    2    0    0  0.00000000000E+00  0.00000000000E+00 -0.28851964078E+02  0.60267055972E+03  0.60197954095E+03 0.  0.
        5    1    3    3  502    0 -0.10432515476E+03 -0.17299035528E+03 -0.23775906141E+03  0.31202702161E+03  0.46999998093E+01 0.  1.
       -5    1    3    3    0  502  0.10432515476E+03  0.17299035528E+03  0.20890709733E+03  0.29064353811E+03  0.46999998093E+01 0. -1.
</event>
<event>
 5   0  0.1146468E-01  0.6258282E+03  0.7818609E-02  0.9853224E-01
       -2   -1    0    0    0  501  0.00000000000E+00  0.00000000000E+00  0.22062022563E+03  0.22062022564E+03  0.25500000920E-02 0. -1.
        2   -1    0    0  501    0  0.00000000000E+00  0.00000000000E+00 -0.44381806378E+03  0.44381806379E+03  0.25500000920E-02 0.  1.
    10030    2    1    2    0    0  0.00000000000E+00  0.00000000000E+00 -0.22319783815E+03  0.66443828943E+03  0.62582822364E+03 0.  0.
        4    1    3    3  502    0  0.27636389629E+03 -0.13897935196E+03 -0.16163801704E+03  0.34902825802E+03  0.12699999809E+01 0. -1.
       -4    1    3    3    0  502 -0.27636389629E+03  0.13897935196E+03 -0.61559821112E+02  0.31541003142E+03  0.12699999809E+01 0.  1.
</event>
<event>
 5   0  0.1166419E-01  0.6007522E+03  0.7818609E-02  0.9903847E-01
       -2   -1    0    0    0  501  0.00000000000E+00  0.00000000000E+00  0.56553303018E+03  0.56553303018E+03  0.25500000920E-02 0. -1.
        2   -1    0    0  501    0  0.00000000000E+00  0.00000000000E+00 -0.15954115219E+03  0.15954115221E+03  0.25500000920E-02 0.  1.
    10030    2    1    2    0    0  0.00000000000E+00  0.00000000000E+00  0.40599187799E+03  0.72507418239E+03  0.60075216602E+03 0.  0.
        1    1    3    3  502    0  0.11584564861E+03  0.27712177321E+03  0.19935510122E+03  0.36049847142E+03  0.50400001928E-02 0.  1.
       -1    1    3    3    0  502 -0.11584564861E+03 -0.27712177321E+03  0.20663677677E+03  0.36457571097E+03  0.50400001928E-02 0. -1.
</event>
<event>
 5   0  0.1166419E-01  0.5958402E+03  0.7818609E-02  0.9914074E-01
       -2   -1    0    0    0  501  0.00000000000E+00  0.00000000000E+00  0.61618238615E+02  0.61618238668E+02  0.25500000920E-02 0. -1.
        2   -1    0    0  501    0  0.00000000000E+00  0.00000000000E+00 -0.14404238144E+04  0.14404238144E+04  0.25500000920E-02 0.  1.
    10030    2    1    2    0    0  0.00000000000E+00  0.00000000000E+00 -0.13788055758E+04  0.15020420531E+04  0.59584017436E+03 0.  0.
        1    1    3    3  502    0 -0.13558859444E+03 -0.26353541869E+03 -0.61289106685E+03  0.68078678285E+03  0.50400001928E-02 0.  1.
       -1    1    3    3    0  502  0.13558859444E+03  0.26353541869E+03 -0.76591450894E+03  0.82125527023E+03  0.50400001928E-02 0. -1.
</event>
<event>
 5   0  0.7123340E-02  0.5820924E+03  0.7818609E-02  0.9943271E-01
       -1   -1    0    0    0  501  0.00000000000E+00  0.00000000000E+00  0.11688010792E+03  0.11688010803E+03  0.50400001928E-02 0.  1.
        1   -1    0    0  501    0  0.00000000000E+00  0.00000000000E+00 -0.72474171581E+03  0.72474171583E+03  0.50400001928E-02 0. -1.
    10030    2    1    2    0    0  0.00000000000E+00  0.00000000000E+00 -0.60786160790E+03  0.84162182386E+03  0.58209239820E+03 0.  0.
        2    1    3    3  502    0  0.15263411934E+03 -0.24169168938E+03 -0.22479289354E+03  0.36365353304E+03  0.25500000920E-02 0.  1.
       -2    1    3    3    0  502 -0.15263411934E+03  0.24169168938E+03 -0.38306871436E+03  0.47796829082E+03  0.25500000920E-02 0. -1.
</event>
<event>
 5   0  0.7221069E-02  0.6224373E+03  0.7818609E-02  0.9859919E-01
        1   -1    0    0  501    0  0.00000000000E+00  0.00000000000E+00  0.15940843397E+04  0.15940843397E+04  0.50400001928E-02 0. -1.
       -1   -1    0    0    0  501  0.00000000000E+00  0.00000000000E+00 -0.60760298221E+02  0.60760298430E+02  0.50400001928E-02 0.  1.
    10030    2    1    2    0    0  0.00000000000E+00  0.00000000000E+00  0.15333240415E+04  0.16548446381E+04  0.62243727410E+03 0.  0.
        5    1    3    3  502    0 -0.15387646611E+03 -0.26737819778E+03  0.65814850655E+03  0.72687730337E+03  0.46999998093E+01 0.  1.
       -5    1    3    3    0  502  0.15387646611E+03  0.26737819778E+03  0.87517553491E+03  0.92796733475E+03  0.46999998093E+01 0. -1.
</event>
<event>
 5   0  0.1206238E-01  0.6217691E+03  0.7818609E-02  0.9861244E-01
       -2   -1    0    0    0  501  0.00000000000E+00  0.00000000000E+00  0.86783113845E+02  0.86783113882E+02  0.25500000920E-02 0. -1.
        2   -1    0    0  501    0  0.00000000000E+00  0.00000000000E+00 -0.11136868891E+04  0.11136868891E+04  0.25500000920E-02 0.  1.
    10030    2    1    2    0    0  0.00000000000E+00  0.00000000000E+00 -0.10269037753E+04  0.12004700030E+04  0.62176914079E+03 0.  0.
        5    1    3    3  502    0 -0.26952485943E+03  0.37126860426E+02 -0.80373722587E+03  0.84855033549E+03  0.46999998093E+01 0.  1.
       -5    1    3    3    0  502  0.26952485943E+03 -0.37126860426E+02 -0.22316654942E+03  0.35191966753E+03  0.46999998093E+01 0. -1.
</event>
<event>
 5   0  0.7266519E-02  0.5845497E+03  0.7818609E-02  0.9937989E-01
        1   -1    0    0  501    0  0.00000000000E+00  0.00000000000E+00  0.14459866046E+04  0.14459866046E+04  0.50400001928E-02 0.  1.
       -1   -1    0    0    0  501  0.00000000000E+00  0.00000000000E+00 -0.59077020033E+02  0.59077020248E+02  0.50400001928E-02 0. -1.
    10030    2    1    2    0    0  0.00000000000E+00  0.00000000000E+00  0.13869095846E+04  0.15050636249E+04  0.58454967206E+03 0.  0.
        4    1    3    3  502    0  0.53421113945E+01 -0.27163084426E+03  0.41601396713E+03  0.49687129868E+03  0.12699999809E+01 0. -1.
       -4    1    3    3    0  502 -0.53421113945E+01  0.27163084426E+03  0.97089561745E+03  0.10081923262E+04  0.12699999809E+01 0.  1.
</event>
<event>
 5   0  0.1219020E-01  0.5990334E+03  0.7818609E-02  0.9907413E-01
        2   -1    0    0  501    0  0.00000000000E+00  0.00000000000E+00  0.95022611950E+03  0.95022611950E+03  0.25500000920E-02 0. -1.
       -2   -1    0    0    0  501  0.00000000000E+00  0.00000000000E+00 -0.94409371240E+02  0.94409371274E+02  0.25500000920E-02 0.  1.
    10030    2    1    2    0    0  0.00000000000E+00  0.00000000000E+00  0.85581674826E+03  0.10446354908E+04  0.59903338971E+03 0.  0.
        2    1    3    3  502    0  0.53597465031E+02 -0.50944435251E+02 -0.78240954613E+02  0.10765533301E+03  0.25500000920E-02 0.  1.
       -2    1    3    3    0  502 -0.53597465031E+02  0.50944435251E+02  0.93405770287E+03  0.93698015776E+03  0.25500000920E-02 0. -1.
</event>
<event>
 5   0  0.7263385E-02  0.5971100E+03  0.7818609E-02  0.9911420E-01
        1   -1    0    0  501    0  0.00000000000E+00  0.00000000000E+00  0.83438930068E+03  0.83438930069E+03  0.50400001928E-02 0.  1.
       -1   -1    0    0    0  501  0.00000000000E+00  0.00000000000E+00 -0.10682672423E+03  0.10682672435E+03  0.50400001928E-02 0. -1.
    10030    2    1    2    0    0  0.00000000000E+00  0.00000000000E+00  0.72756257645E+03  0.94121602504E+03  0.59710995900E+03 0.  0.
        1    1    3    3  502    0 -0.23927200045E+03 -0.49988315954E+01  0.82428612800E+02  0.25312162047E+03  0.50400001928E-02 0. -1.
       -1    1    3    3    0  502  0.23927200045E+03  0.49988315954E+01  0.64513396365E+03  0.68809440457E+03  0.50400001928E-02 0.  1.
</event>
<event>
 5   0  0.1175861E-01  0.6086202E+03  0.7818609E-02  0.9887681E-01
       -2   -1    0    0    0  501  0.00000000000E+00  0.00000000000E+00  0.16905373547E+03  0.16905373549E+03  0.25500000920E-02 0.  1.
        2   -1    0    0  501    0  0.00000000000E+00  0.00000000000E+00 -0.54778231159E+03  0.54778231159E+03  0.25500000920E-02 0. -1.
    10030    2    1    2    0    0  0.00000000000E+00  0.00000000000E+00 -0.37872857612E+03  0.71683604708E+03  0.60862022972E+03 0.  0.
        3    1    3    3  502    0  0.14371959260E+03  0.94404231582E+02 -0.48507820018E+03  0.51465362209E+03  0.10100000352E+00 0. -1.
       -3    1    3    3    0  502 -0.14371959260E+03 -0.94404231582E+02  0.10634962406E+03  0.20218242499E+03  0.10100000352E+00 0.  1.
</event>
<event>
 5   0  0.1206238E-01  0.6036499E+03  0.7818609E-02  0.9897862E-01
       -2   -1    0    0    0  501  0.00000000000E+00  0.00000000000E+00  0.10607958544E+03  0.10607958547E+03  0.25500000920E-02 0. -1.
        2   -1    0    0  501    0  0.00000000000E+00  0.00000000000E+00 -0.85877329630E+03  0.85877329630E+03  0.25500000920E-02 0.  1.
    10030    2    1    2    0    0  0.00000000000E+00  0.00000000000E+00 -0.75269371086E+03  0.96485288177E+03  0.60364994914E+03 0.  0.
        5    1    3    3  502    0 -0.19969825573E+02  0.26805908497E+03 -0.15706331923E+03  0.31136063208E+03  0.46999998093E+01 0.  1.
       -5    1    3    3    0  502  0.19969825573E+02 -0.26805908497E+03 -0.59563039163E+03  0.65349224969E+03  0.46999998093E+01 0. -1.
</event>
<event>
 5   0  0.7263385E-02  0.5985441E+03  0.7818609E-02  0.9908431E-01
        1   -1    0    0  501    0  0.00000000000E+00  0.00000000000E+00  0.14490306386E+03  0.14490306395E+03  0.50400001928E-02 0.  1.
       -1   -1    0    0    0  501  0.00000000000E+00  0.00000000000E+00 -0.61809422443E+03  0.61809422445E+03  0.50400001928E-02 0. -1.
    10030    2    1    2    0    0  0.00000000000E+00  0.00000000000E+00 -0.47319116057E+03  0.76299728840E+03  0.59854405658E+03 0.  0.
        1    1    3    3  502    0 -0.16013924868E+03  0.25178264434E+01 -0.55886633097E+03  0.58136261862E+03  0.50400001928E-02 0. -1.
       -1    1    3    3    0  502  0.16013924868E+03 -0.25178264434E+01  0.85675170401E+02  0.18163466978E+03  0.50400001928E-02 0.  1.
</event>
<event>
 5   0  0.7266519E-02  0.6069499E+03  0.7818609E-02  0.9891091E-01
        1   -1    0    0  501    0  0.00000000000E+00  0.00000000000E+00  0.79715521164E+03  0.79715521166E+03  0.50400001928E-02 0. -1.
       -1   -1    0    0    0  501  0.00000000000E+00  0.00000000000E+00 -0.11553212489E+03  0.11553212500E+03  0.50400001928E-02 0.  1.
    10030    2    1    2    0    0  0.00000000000E+00  0.00000000000E+00  0.68162308675E+03  0.91268733666E+03  0.60694986788E+03 0.  0.
        4    1    3    3  502    0  0.25129340154E+03 -0.15183609112E+03  0.45624505612E+03  0.54255298023E+03  0.12699999809E+01 0.  1.
       -4    1    3    3    0  502 -0.25129340154E+03  0.15183609112E+03  0.22537803063E+03  0.37013435643E+03  0.12699999809E+01 0. -1.
</event>
<event>
 5   0  0.7221069E-02  0.5984269E+03  0.7818609E-02  0.9908675E-01
       -1   -1    0    0    0  501  0.00000000000E+00  0.00000000000E+00  0.13859190318E+03  0.13859190327E+03  0.50400001928E-02 0. -1.
        1   -1    0    0  501    0  0.00000000000E+00  0.00000000000E+00 -0.64598796855E+03  0.64598796857E+03  0.50400001928E-02 0.  1.
    10030    2    1    2    0    0  0.00000000000E+00  0.00000000000E+00 -0.50739606537E+03  0.78457987184E+03  0.59842694471E+03 0.  0.
        5    1    3    3  502    0  0.13326152918E+03 -0.21245744787E+03 -0.39829491541E+02  0.25397889816E+03  0.46999998093E+01 0. -1.
       -5    1    3    3    0  502 -0.13326152918E+03  0.21245744787E+03 -0.46756657383E+03  0.53060097368E+03  0.46999998093E+01 0.  1.
</event>
<event>
 5   0  0.7221069E-02  0.6022845E+03  0.7818609E-02  0.9900678E-01
       -1   -1    0    0    0  501  0.00000000000E+00  0.00000000000E+00  0.16965320903E+03  0.16965320911E+03  0.50400001928E-02 0.  1.
        1   -1    0    0  501    0  0.00000000000E+00  0.00000000000E+00 -0.53454130118E+03  0.53454130120E+03  0.50400001928E-02 0. -1.
    10030    2    1    2    0    0  0.00000000000E+00  0.00000000000E+00 -0.36488809214E+03  0.70419451031E+03  0.60228447478E+03 0.  0.
        5    1    3    3  502    0 -0.48348989386E+01 -0.22993698669E+03 -0.40967390377E+03  0.46983953806E+03  0.46999998093E+01 0. -1.
       -5    1    3    3    0  502  0.48348989386E+01  0.22993698669E+03  0.44785811628E+02  0.23435497225E+03  0.46999998093E+01 0.  1.
</event>
<event>
 5   0  0.1206238E-01  0.6563025E+03  0.7818609E-02  0.9795024E-01
       -2   -1    0    0    0  501  0.00000000000E+00  0.00000000000E+00  0.13926274417E+03  0.13926274420E+03  0.25500000920E-02 0. -1.
        2   -1    0    0  501    0  0.00000000000E+00  0.00000000000E+00 -0.77323803183E+03  0.77323803183E+03  0.25500000920E-02 0.  1.
    10030    2    1    2    0    0  0.00000000000E+00  0.00000000000E+00 -0.63397528766E+03  0.91250077603E+03  0.65630252239E+03 0.  0.
        5    1    3    3  502    0 -0.14652322073E+03 -0.39029743370E+02  0.87579708513E+02  0.17517040396E+03  0.46999998093E+01 0. -1.
       -5    1    3    3    0  502  0.14652322073E+03  0.39029743370E+02 -0.72155499617E+03  0.73733037207E+03  0.46999998093E+01 0.  1.
</event>
<event>
 5   0  0.1206238E-01  0.7225764E+03  0.7818609E-02  0.9679384E-01
        2   -1    0    0  501    0  0.00000000000E+00  0.00000000000E+00  0.49921971813E+03  0.49921971813E+03  0.25500000920E-02 0.  1.
       -2   -1    0    0    0  501  0.00000000000E+00  0.00000000000E+00 -0.26146635753E+03  0.26146635754E+03  0.25500000920E-02 0. -1.
    10030    2    1    2    0    0  0.00000000000E+00  0.00000000000E+00  0.23775336060E+03  0.76068607567E+03  0.72257639406E+03 0.  0.
        5    1    3    3  502    0  0.21626303407E+00  0.21034795502E+03 -0.19031538711E+03  0.28370468011E+03  0.46999998093E+01 0. -1.
       -5    1    3    3    0  502 -0.21626303407E+00 -0.21034795502E+03  0.42806874771E+03  0.47698139556E+03  0.46999998093E+01 0.  1.
</event>
<event>
 5   0  0.1175861E-01  0.5696501E+03  0.7818609E-02  0.9970453E-01
       -2   -1    0    0    0  501  0.00000000000E+00  0.00000000000E+00  0.89517898449E+02  0.89517898485E+02  0.25500000920E-02 0.  1.
        2   -1    0    0  501    0  0.00000000000E+00  0.00000000000E+00 -0.90624676519E+03  0.90624676519E+03  0.25500000920E-02 0. -1.
    10030    2    1    2    0    0  0.00000000000E+00  0.00000000000E+00 -0.81672886674E+03  0.99576466368E+03  0.56965008879E+03 0.  0.
        3    1    3    3  502    0  0.25765172276E+03 -0.10665068693E+03 -0.50978800771E+03  0.58107022146E+03  0.10100000352E+00 0. -1.
       -3    1    3    3    0  502 -0.25765172276E+03  0.10665068693E+03 -0.30694085904E+03  0.41469444222E+03  0.10100000352E+00 0.  1.
</event>
<event>
 5   0  0.1206238E-01  0.5937191E+03  0.7818609E-02  0.9918523E-01
        2   -1    0    0  501    0  0.00000000000E+00  0.00000000000E+00  0.65471111716E+03  0.65471111717E+03  0.25500000920E-02 0. -1.
       -2   -1    0    0    0  501  0.00000000000E+00  0.00000000000E+00 -0.13460227329E+03  0.13460227332E+03  0.25500000920E-02 0.  1.
    10030    2    1    2    0    0  0.00000000000E+00  0.00000000000E+00  0.52010884387E+03  0.78931339049E+03  0.59371914145E+03 0.  0.
        5    1    3    3  502    0  0.21506011559E+03 -0.59604398198E+02 -0.12184444351E+00  0.22321658192E+03  0.46999998093E+01 0.  1.
       -5    1    3    3    0  502 -0.21506011559E+03  0.59604398198E+02  0.52023068832E+03  0.56609680856E+03  0.46999998093E+01 0. -1.
</event>
<event>
 5   0  0.7123340E-02  0.5925667E+03  0.7818609E-02  0.9920949E-01
       -1   -1    0    0    0  501  0.00000000000E+00  0.00000000000E+00  0.18066216429E+03  0.18066216436E+03  0.50400001928E-02 0.  1.
        1   -1    0    0  501    0  0.00000000000E+00  0.00000000000E+00 -0.48590049822E+03  0.48590049824E+03  0.50400001928E-02 0. -1.
    10030    2    1    2    0    0  0.00000000000E+00  0.00000000000E+00 -0.30523833392E+03  0.66656266261E+03  0.59256674112E+03 0.  0.
        2    1    3    3  502    0  0.73883783970E+02 -0.16826070212E+03 -0.41404849155E+03  0.45299738495E+03  0.25500000920E-02 0. -1.
       -2    1    3    3    0  502 -0.73883783970E+02  0.16826070212E+03  0.10881015762E+03  0.21356527766E+03  0.25500000920E-02 0.  1.
</event>
<event>
 5   0  0.1175861E-01  0.5976552E+03  0.7818609E-02  0.9910283E-01
       -2   -1    0    0    0  501  0.00000000000E+00  0.00000000000E+00  0.96447347885E+02  0.96447347918E+02  0.25500000920E-02 0. -1.
        2   -1    0    0  501    0  0.00000000000E+00  0.00000000000E+00 -0.92587229154E+03  0.92587229154E+03  0.25500000920E-02 0.  1.
    10030    2    1    2    0    0  0.00000000000E+00  0.00000000000E+00 -0.82942494365E+03  0.10223196395E+04  0.59765517489E+03 0.  0.
        3    1    3    3  502    0 -0.29299220212E+02  0.29693953787E+03 -0.38679413354E+03  0.48850920708E+03  0.10100000352E+00 0.  1.
       -3    1    3    3    0  502  0.29299220212E+02 -0.29693953787E+03 -0.44263081011E+03  0.53381043238E+03  0.10100000352E+00 0. -1.
</event>
<event>
 5   0  0.1146468E-01  0.6069416E+03  0.7818609E-02  0.9891108E-01
       -2   -1    0    0    0  501  0.00000000000E+00  0.00000000000E+00  0.56722255237E+02  0.56722255295E+02  0.25500000920E-02 0.  1.
        2   -1    0    0  501    0  0.00000000000E+00  0.00000000000E+00 -0.16236048032E+04  0.16236048032E+04  0.25500000920E-02 0. -1.
    10030    2    1    2    0    0  0.00000000000E+00  0.00000000000E+00 -0.15668825480E+04  0.16803270585E+04  0.60694159885E+03 0.  0.
        4    1    3    3  502    0  0.11431078267E+03  0.16349737132E+03 -0.14165454896E+04  0.14305247577E+04  0.12699999809E+01 0. -1.
       -4    1    3    3    0  502 -0.11431078267E+03 -0.16349737132E+03 -0.15033705841E+03  0.24980230081E+03  0.12699999809E+01 0.  1.
</event>
<event>
 5   0  0.1175861E-01  0.6183157E+03  0.7818609E-02  0.9868119E-01
       -2   -1    0    0    0  501  0.00000000000E+00  0.00000000000E+00  0.28693794064E+03  0.28693794066E+03  0.25500000920E-02 0. -1.
        2   -1    0    0  501    0  0.00000000000E+00  0.00000000000E+00 -0.33309845026E+03  0.33309845026E+03  0.25500000920E-02 0.  1.
    10030    2    1    2    0    0  0.00000000000E+00  0.00000000000E+00 -0.46160509611E+02  0.62003639092E+03  0.61831572309E+03 0.  0.
        3    1    3    3  502    0 -0.39043011153E+02 -0.37742657207E+02 -0.32827850373E+03  0.33273961457E+03  0.10100000352E+00 0.  1.
       -3    1    3    3    0  502  0.39043011153E+02  0.37742657207E+02  0.28211799412E+03  0.28729677635E+03  0.10100000352E+00 0. -1.
</event>
<event>
 5   0  0.4695625E-02  0.6018602E+03  0.7818609E-02  0.9901554E-01
        4   -1    0    0  501    0  0.00000000000E+00  0.00000000000E+00  0.29505593773E+03  0.29505867093E+03  0.12699999809E+01 0.  1.
       -4   -1    0    0    0  501  0.00000000000E+00  0.00000000000E+00 -0.30691579090E+03  0.30691841848E+03  0.12699999809E+01 0. -1.
    10030    2    1    2    0    0  0.00000000000E+00  0.00000000000E+00 -0.11859853167E+02  0.60197708940E+03  0.60186024960E+03 0.  0.
        5    1    3    3  502    0 -0.15980745774E+03  0.55123131959E+02  0.24303578551E+03  0.29608354609E+03  0.46999998093E+01 0.  1.
       -5    1    3    3    0  502  0.15980745774E+03 -0.55123131959E+02 -0.25489563868E+03  0.30589354332E+03  0.46999998093E+01 0. -1.
</event>
<event>
 5   0  0.1219020E-01  0.6171520E+03  0.7818609E-02  0.9870446E-01
        2   -1    0    0  501    0  0.00000000000E+00  0.00000000000E+00  0.21995911047E+04  0.21995911047E+04  0.25500000920E-02 0.  1.
       -2   -1    0    0    0  501  0.00000000000E+00  0.00000000000E+00 -0.43289476829E+02  0.43289476904E+02  0.25500000920E-02 0. -1.
    10030    2    1    2    0    0  0.00000000000E+00  0.00000000000E+00  0.21563016279E+04  0.22428805816E+04  0.61715200152E+03 0.  0.
        2    1    3    3  502    0  0.21752256580E+03 -0.19814229625E+03  0.74028906109E+03  0.79662056851E+03  0.25500000920E-02 0. -1.
       -2    1    3    3    0  502 -0.21752256580E+03  0.19814229625E+03  0.14160125668E+04  0.14462600131E+04  0.25500000920E-02 0.  1.
</event>
<event>
 5   0  0.7266519E-02  0.5779033E+03  0.7818609E-02  0.9952341E-01
       -1   -1    0    0    0  501  0.00000000000E+00  0.00000000000E+00  0.20111626977E+03  0.20111626983E+03  0.50400001928E-02 0. -1.
        1   -1    0    0  501    0  0.00000000000E+00  0.00000000000E+00 -0.41514818567E+03  0.41514818570E+03  0.50400001928E-02 0.  1.
    10030    2    1    2    0    0  0.00000000000E+00  0.00000000000E+00 -0.21403191590E+03  0.61626445553E+03  0.57790329479E+03 0.  0.
        4    1    3    3  502    0  0.11556250387E+03  0.16843885133E+03  0.11091489861E+03  0.23244368473E+03  0.12699999809E+01 0. -1.
       -4    1    3    3    0  502 -0.11556250387E+03 -0.16843885133E+03 -0.32494681451E+03  0.38382077080E+03  0.12699999809E+01 0.  1.
</event>
<event>
 5   0  0.7123340E-02  0.6149090E+03  0.7818609E-02  0.9874948E-01
       -1   -1    0    0    0  501  0.00000000000E+00  0.00000000000E+00  0.94949621592E+02  0.94949621726E+02  0.50400001928E-02 0. -1.
        1   -1    0    0  501    0  0.00000000000E+00  0.00000000000E+00 -0.99556237253E+03  0.99556237254E+03  0.50400001928E-02 0.  1.
    10030    2    1    2    0    0  0.00000000000E+00  0.00000000000E+00 -0.90061275094E+03  0.10905119943E+04  0.61490900342E+03 0.  0.
        2    1    3    3  502    0 -0.31318455340E+02  0.12391654671E+03  0.45601577565E+02  0.13570431119E+03  0.25500000920E-02 0. -1.
       -2    1    3    3    0  502  0.31318455340E+02 -0.12391654671E+03 -0.94621432850E+03  0.95480768308E+03  0.25500000920E-02 0.  1.
</event>
<event>
 5   0  0.1146468E-01  0.6021131E+03  0.7818609E-02  0.9901032E-01
       -2   -1    0    0    0  501  0.00000000000E+00  0.00000000000E+00  0.78942779489E+02  0.78942779530E+02  0.25500000920E-02 0. -1.
        2   -1    0    0  501    0  0.00000000000E+00  0.00000000000E+00 -0.11481106197E+04  0.11481106197E+04  0.25500000920E-02 0.  1.
    10030    2    1    2    0    0  0.00000000000E+00  0.00000000000E+00 -0.10691678402E+04  0.12270533992E+04  0.60211309073E+03 0.  0.
        4    1    3    3  502    0 -0.17807587246E+03 -0.15238663532E+03 -0.91963994872E+03  0.94903738133E+03  0.12699999809E+01 0.  1.
       -4    1    3    3    0  502  0.17807587246E+03  0.15238663532E+03 -0.14952789148E+03  0.27801601790E+03  0.12699999809E+01 0. -1.
</event>
<event>
 5   0  0.7424930E-02  0.6044937E+03  0.7818609E-02  0.9896127E-01
        1   -1    0    0  501    0  0.00000000000E+00  0.00000000000E+00  0.39433486416E+03  0.39433486419E+03  0.50400001928E-02 0. -1.
       -1   -1    0    0    0  501  0.00000000000E+00  0.00000000000E+00 -0.23166388140E+03  0.23166388145E+03  0.50400001928E-02 0.  1.
    10030    2    1    2    0    0  0.00000000000E+00  0.00000000000E+00  0.16267098276E+03  0.62599874564E+03  0.60449365664E+03 0.  0.
        3    1    3    3  502    0  0.10353053841E+03  0.23971480120E+03 -0.76301317335E+02  0.27203613644E+03  0.10100000352E+00 0.  1.
       -3    1    3    3    0  502 -0.10353053841E+03 -0.23971480120E+03  0.23897230010E+03  0.35396260920E+03  0.10100000352E+00 0. -1.
</event>
<event>
 5   0  0.4695625E-02  0.6148066E+03  0.7818609E-02  0.9875154E-01
       -4   -1    0    0    0  501  0.00000000000E+00  0.00000000000E+00  0.11308768269E+04  0.11308775400E+04  0.12699999809E+01 0.  1.
        4   -1    0    0  501    0  0.00000000000E+00  0.00000000000E+00 -0.83555068304E+02  0.83564719465E+02  0.12699999809E+01 0. -1.
    10030    2    1    2    0    0  0.00000000000E+00  0.00000000000E+00  0.10473217586E+04  0.12144422594E+04  0.61480658387E+03 0.  0.
        1    1    3    3  502    0  0.85829679152E+02 -0.75957349776E+02  0.10870977311E+04  0.10931229253E+04  0.50400001928E-02 0.  1.
       -1    1    3    3    0  502 -0.85829679152E+02  0.75957349776E+02 -0.39775972587E+02  0.12131933411E+03  0.50400001928E-02 0. -1.
</event>
<event>
 5   0  0.1175861E-01  0.6030134E+03  0.7818609E-02  0.9899174E-01
       -2   -1    0    0    0  501  0.00000000000E+00  0.00000000000E+00  0.13457228084E+03  0.13457228087E+03  0.25500000920E-02 0. -1.
        2   -1    0    0  501    0  0.00000000000E+00  0.00000000000E+00 -0.67552026146E+03  0.67552026147E+03  0.25500000920E-02 0.  1.
    10030    2    1    2    0    0  0.00000000000E+00  0.00000000000E+00 -0.54094798062E+03  0.81009254233E+03  0.60301344049E+03 0.  0.
        3    1    3    3  502    0  0.21956063658E+02 -0.14539743344E+03 -0.62408316304E+03  0.64117258751E+03  0.10100000352E+00 0.  1.
       -3    1    3    3    0  502 -0.21956063658E+02  0.14539743344E+03  0.83135182418E+02  0.16891995483E+03  0.10100000352E+00 0. -1.
</event>
<event>
 5   0  0.1175861E-01  0.5858096E+03  0.7818609E-02  0.9935292E-01
       -2   -1    0    0    0  501  0.00000000000E+00  0.00000000000E+00  0.69120638043E+03  0.69120638043E+03  0.25500000920E-02 0. -1.
        2   -1    0    0  501    0  0.00000000000E+00  0.00000000000E+00 -0.12412097797E+03  0.12412097800E+03  0.25500000920E-02 0.  1.
    10030    2    1    2    0    0  0.00000000000E+00  0.00000000000E+00  0.56708540246E+03  0.81532735843E+03  0.58580956609E+03 0.  0.
        3    1    3    3  502    0 -0.17977969407E+03 -0.19703687430E+03  0.11508977491E+03  0.29049945735E+03  0.10100000352E+00 0.  1.
       -3    1    3    3    0  502  0.17977969407E+03  0.19703687430E+03  0.45199562754E+03  0.52482790108E+03  0.10100000352E+00 0. -1.
</event>
<event>
 5   0  0.1146468E-01  0.5760396E+03  0.7818609E-02  0.9956402E-01
        2   -1    0    0  501    0  0.00000000000E+00  0.00000000000E+00  0.94052985805E+03  0.94052985805E+03  0.25500000920E-02 0. -1.
       -2   -1    0    0    0  501  0.00000000000E+00  0.00000000000E+00 -0.88200708076E+02  0.88200708112E+02  0.25500000920E-02 0.  1.
    10030    2    1    2    0    0  0.00000000000E+00  0.00000000000E+00  0.85232914997E+03  0.10287305662E+04  0.57603958012E+03 0.  0.
        4    1    3    3  502    0  0.27978548793E+03 -0.45626840317E+02  0.33524199733E+03  0.43903364050E+03  0.12699999809E+01 0.  1.
       -4    1    3    3    0  502 -0.27978548793E+03  0.45626840317E+02  0.51708715264E+03  0.58969692567E+03  0.12699999809E+01 0. -1.
</event>
<event>
 5   0  0.7263385E-02  0.5853324E+03  0.7818609E-02  0.9936313E-01
       -1   -1    0    0    0  501  0.00000000000E+00  0.00000000000E+00  0.10336287938E+03  0.10336287951E+03  0.50400001928E-02 0. -1.
        1   -1    0    0  501    0  0.00000000000E+00  0.00000000000E+00 -0.82866784905E+03  0.82866784907E+03  0.50400001928E-02 0.  1.
    10030    2    1    2    0    0  0.00000000000E+00  0.00000000000E+00 -0.72530496967E+03  0.93203072857E+03  0.58533236710E+03 0.  0.
        1    1    3    3  502    0 -0.11255511300E+03 -0.23516690442E+03 -0.57438406062E+03  0.63078457140E+03  0.50400001928E-02 0. -1.
       -1    1    3    3    0  502  0.11255511300E+03  0.23516690442E+03 -0.15092090905E+03  0.30124615718E+03  0.50400001928E-02 0.  1.
</event>
<event>
 5   0  0.1146468E-01  0.6025554E+03  0.7818609E-02  0.9900119E-01
        2   -1    0    0  501    0  0.00000000000E+00  0.00000000000E+00  0.12440810945E+04  0.12440810945E+04  0.25500000920E-02 0.  1.
       -2   -1    0    0    0  501  0.00000000000E+00  0.00000000000E+00 -0.72960080279E+02  0.72960080324E+02  0.25500000920E-02 0. -1.
    10030    2    1    2    0    0  0.00000000000E+00  0.00000000000E+00  0.11711210142E+04  0.13170411748E+04  0.60255541341E+03 0.  0.
        4    1    3    3  502    0 -0.20935421867E+03  0.10870273440E+03  0.99518587986E+03  0.10227619575E+04  0.12699999809E+01 0.  1.
       -4    1    3    3    0  502  0.20935421867E+03 -0.10870273440E+03  0.17593513435E+03  0.29427921731E+03  0.12699999809E+01 0. -1.
</event>
<event>
 5   0  0.7424930E-02  0.6433203E+03  0.7818609E-02  0.9819394E-01
        1   -1    0    0  501    0  0.00000000000E+00  0.00000000000E+00  0.31561299714E+03  0.31561299718E+03  0.50400001928E-02 0. -1.
       -1   -1    0    0    0  501  0.00000000000E+00  0.00000000000E+00 -0.32782319714E+03  0.32782319718E+03  0.50400001928E-02 0.  1.
    10030    2    1    2    0    0  0.00000000000E+00  0.00000000000E+00 -0.12210200005E+02  0.64343619436E+03  0.64332033019E+03 0.  0.
        3    1    3    3  502    0  0.89224980240E+02 -0.15966809187E+02 -0.31478540066E+03  0.32757578477E+03  0.10100000352E+00 0.  1.
       -3    1    3    3    0  502 -0.89224980240E+02  0.15966809187E+02  0.30257520066E+03  0.31586040960E+03  0.10100000352E+00 0. -1.
</event>
<event>
 5   0  0.1175861E-01  0.5970966E+03  0.7818609E-02  0.9911448E-01
        2   -1    0    0  501    0  0.00000000000E+00  0.00000000000E+00  0.51936527287E+03  0.51936527287E+03  0.25500000920E-02 0.  1.
       -2   -1    0    0    0  501  0.00000000000E+00  0.00000000000E+00 -0.17161543492E+03  0.17161543494E+03  0.25500000920E-02 0. -1.
    10030    2    1    2    0    0  0.00000000000E+00  0.00000000000E+00  0.34774983795E+03  0.69098070781E+03  0.59709663269E+03 0.  0.
        3    1    3    3  502    0  0.18666433794E+03 -0.12413629120E+03  0.40205174977E+03  0.46032489999E+03  0.10100000352E+00 0.  1.
       -3    1    3    3    0  502 -0.18666433794E+03  0.12413629120E+03 -0.54301911824E+02  0.23065580782E+03  0.10100000352E+00 0. -1.
</event>
<event>
 5   0  0.1175861E-01  0.6079474E+03  0.7818609E-02  0.9889054E-01
       -2   -1    0    0    0  501  0.00000000000E+00  0.00000000000E+00  0.18885828348E+03  0.18885828349E+03  0.25500000920E-02 0. -1.
        2   -1    0    0  501    0  0.00000000000E+00  0.00000000000E+00 -0.48925580735E+03  0.48925580736E+03  0.25500000920E-02 0.  1.
    10030    2    1    2    0    0  0.00000000000E+00  0.00000000000E+00 -0.30039752388E+03  0.67811409085E+03  0.60794740550E+03 0.  0.
        3    1    3    3  502    0  0.29403463700E+03  0.43239894321E+02 -0.79004602098E+02  0.30751876946E+03  0.10100000352E+00 0. -1.
       -3    1    3    3    0  502 -0.29403463700E+03 -0.43239894321E+02 -0.22139292178E+03  0.37059532139E+03  0.10100000352E+00 0.  1.
</event>
<event>
 5   0  0.7266519E-02  0.5998614E+03  0.7818609E-02  0.9905694E-01
       -1   -1    0    0    0  501  0.00000000000E+00  0.00000000000E+00  0.21283354099E+03  0.21283354105E+03  0.50400001928E-02 0.  1.
        1   -1    0    0  501    0  0.00000000000E+00  0.00000000000E+00 -0.42267038776E+03  0.42267038779E+03  0.50400001928E-02 0. -1.
    10030    2    1    2    0    0  0.00000000000E+00  0.00000000000E+00 -0.20983684677E+03  0.63550392883E+03  0.59986143508E+03 0.  0.
        4    1    3    3  502    0  0.62795279075E+02 -0.63666669807E+02 -0.40821577513E+03  0.41789762369E+03  0.12699999809E+01 0. -1.
       -4    1    3    3    0  502 -0.62795279075E+02  0.63666669807E+02  0.19837892836E+03  0.21760630514E+03  0.12699999809E+01 0.  1.
</event>
<event>
 5   0  0.7263385E-02  0.5789350E+03  0.7818609E-02  0.9950099E-01
       -1   -1    0    0    0  501  0.00000000000E+00  0.00000000000E+00  0.13052552228E+04  0.13052552228E+04  0.50400001928E-02 0. -1.
        1   -1    0    0  501    0  0.00000000000E+00  0.00000000000E+00 -0.64195434762E+02  0.64195434960E+02  0.50400001928E-02 0.  1.
    10030    2    1    2    0    0  0.00000000000E+00  0.00000000000E+00  0.12410597881E+04  0.13694506578E+04  0.57893497613E+03 0.  0.
        1    1    3    3  502    0 -0.12373437019E+03  0.25217291374E+03  0.78594433472E+03  0.83463157746E+03  0.50400001928E-02 0. -1.
       -1    1    3    3    0  502  0.12373437019E+03 -0.25217291374E+03  0.45511545335E+03  0.53481908034E+03  0.50400001928E-02 0.  1.
</event>
<event>
 5   0  0.1166419E-01  0.6013311E+03  0.7818609E-02  0.9902648E-01
       -2   -1    0    0    0  501  0.00000000000E+00  0.00000000000E+00  0.35397265638E+02  0.35397265730E+02  0.25500000920E-02 0.  1.
        2   -1    0    0  501    0  0.00000000000E+00  0.00000000000E+00 -0.25538632611E+04  0.25538632611E+04  0.25500000920E-02 0. -1.
    10030    2    1    2    0    0  0.00000000000E+00  0.00000000000E+00 -0.25184659954E+04  0.25892605268E+04  0.60133111137E+03 0.  0.
        1    1    3    3  502    0 -0.13490814940E+02  0.29267277242E+03 -0.15500130557E+04  0.15774599287E+04  0.50400001928E-02 0.  1.
       -1    1    3    3    0  502  0.13490814940E+02 -0.29267277242E+03 -0.96845293972E+03  0.10118005981E+04  0.50400001928E-02 0. -1.
</event>
<event>
 5   0  0.7123340E-02  0.5965195E+03  0.7818609E-02  0.9912653E-01
       -1   -1    0    0    0  501  0.00000000000E+00  0.00000000000E+00  0.54395134829E+02  0.54395135062E+02  0.50400001928E-02 0.  1.
        1   -1    0    0  501    0  0.00000000000E+00  0.00000000000E+00 -0.16354200021E+04  0.16354200022E+04  0.50400001928E-02 0. -1.
    10030    2    1    2    0    0  0.00000000000E+00  0.00000000000E+00 -0.15810248673E+04  0.16898151372E+04  0.59651954443E+03 0.  0.
        2    1    3    3  502    0 -0.27498813982E+03  0.10774230056E+03 -0.90840594003E+03  0.95521109304E+03  0.25500000920E-02 0. -1.
       -2    1    3    3    0  502  0.27498813982E+03 -0.10774230056E+03 -0.67261892729E+03  0.73460404418E+03  0.25500000920E-02 0.  1.
</event>
<event>
 5   0  0.1206238E-01  0.6050211E+03  0.7818609E-02  0.9895043E-01
       -2   -1    0    0    0  501  0.00000000000E+00  0.00000000000E+00  0.91840039508E+02  0.91840039544E+02  0.25500000920E-02 0. -1.
        2   -1    0    0  501    0  0.00000000000E+00  0.00000000000E+00 -0.99643494784E+03  0.99643494785E+03  0.25500000920E-02 0.  1.
    10030    2    1    2    0    0  0.00000000000E+00  0.00000000000E+00 -0.90459490833E+03  0.10882749874E+04  0.60502107401E+03 0.  0.
        5    1    3    3  502    0  0.54473474493E+02  0.27944387913E+03 -0.63603574827E+03  0.69686426518E+03  0.46999998093E+01 0.  1.
       -5    1    3    3    0  502 -0.54473474493E+02 -0.27944387913E+03 -0.26855916006E+03  0.39141072221E+03  0.46999998093E+01 0. -1.
</event>
<event>
 5   0  0.7123340E-02  0.5970727E+03  0.7818609E-02  0.9911498E-01
       -1   -1    0    0    0  501  0.00000000000E+00  0.00000000000E+00  0.50117593326E+02  0.50117593579E+02  0.50400001928E-02 0.  1.
        1   -1    0    0  501    0  0.00000000000E+00  0.00000000000E+00 -0.17782965704E+04  0.17782965704E+04  0.50400001928E-02 0. -1.
    10030    2    1    2    0    0  0.00000000000E+00  0.00000000000E+00 -0.17281789770E+04  0.18284141639E+04  0.59707267418E+03 0.  0.
        2    1    3    3  502    0  0.25873070012E+03 -0.91188911060E+02 -0.12246995878E+04  0.12550482354E+04  0.25500000920E-02 0.  1.
       -2    1    3    3    0  502 -0.25873070012E+03  0.91188911060E+02 -0.50347938921E+03  0.57336592857E+03  0.25500000920E-02 0. -1.
</event>
<event>
 5   0  0.7221069E-02  0.6217110E+03  0.7818609E-02  0.9861359E-01
        1   -1    0    0  501    0  0.00000000000E+00  0.00000000000E+00  0.18100547266E+03  0.18100547273E+03  0.50400001928E-02 0.  1.
       -1   -1    0    0    0  501  0.00000000000E+00  0.00000000000E+00 -0.53385751662E+03  0.53385751664E+03  0.50400001928E-02 0. -1.
    10030    2    1    2    0    0  0.00000000000E+00  0.00000000000E+00 -0.35285204396E+03  0.71486298937E+03  0.62171096873E+03 0.  0.
        5    1    3    3  502    0  0.11880235194E+03 -0.22247353561E+03  0.32453083640E+02  0.25433003265E+03  0.46999998093E+01 0.  1.
       -5    1    3    3    0  502 -0.11880235194E+03  0.22247353561E+03 -0.38530512760E+03  0.46053295672E+03  0.46999998093E+01 0. -1.
</event>
<event>
 5   0  0.7263385E-02  0.5958765E+03  0.7818609E-02  0.9913998E-01
        1   -1    0    0  501    0  0.00000000000E+00  0.00000000000E+00  0.18797961798E+04  0.18797961798E+04  0.50400001928E-02 0.  1.
       -1   -1    0    0    0  501  0.00000000000E+00  0.00000000000E+00 -0.47221709303E+02  0.47221709572E+02  0.50400001928E-02 0. -1.
    10030    2    1    2    0    0  0.00000000000E+00  0.00000000000E+00  0.18325744705E+04  0.19270178894E+04  0.59587646040E+03 0.  0.
        1    1    3    3  502    0  0.19541339281E+03  0.13609905851E+03  0.14953113530E+04  0.15141550087E+04  0.50400001928E-02 0.  1.
       -1    1    3    3    0  502 -0.19541339281E+03 -0.13609905851E+03  0.33726311747E+03  0.41286288069E+03  0.50400001928E-02 0. -1.
</event>
<event>
 5   0  0.1206238E-01  0.6159926E+03  0.7818609E-02  0.9872771E-01
       -2   -1    0    0    0  501  0.00000000000E+00  0.00000000000E+00  0.14972257899E+03  0.14972257901E+03  0.25500000920E-02 0. -1.
        2   -1    0    0  501    0  0.00000000000E+00  0.00000000000E+00 -0.63358331832E+03  0.63358331833E+03  0.25500000920E-02 0.  1.
    10030    2    1    2    0    0  0.00000000000E+00  0.00000000000E+00 -0.48386073933E+03  0.78330589734E+03  0.61599262474E+03 0.  0.
        5    1    3    3  502    0 -0.13983361207E+03 -0.25795973802E+03 -0.12302938511E+03  0.31820588477E+03  0.46999998093E+01 0. -1.
       -5    1    3    3    0  502  0.13983361207E+03  0.25795973802E+03 -0.36083135422E+03  0.46510001257E+03  0.46999998093E+01 0.  1.
</event>
<event>
 5   0  0.7123340E-02  0.6172231E+03  0.7818609E-02  0.9870304E-01
       -1   -1    0    0    0  501  0.00000000000E+00  0.00000000000E+00  0.20649379503E+03  0.20649379510E+03  0.50400001928E-02 0.  1.
        1   -1    0    0  501    0  0.00000000000E+00  0.00000000000E+00 -0.46122973352E+03  0.46122973355E+03  0.50400001928E-02 0. -1.
    10030    2    1    2    0    0  0.00000000000E+00  0.00000000000E+00 -0.25473593849E+03  0.66772352864E+03  0.61722306531E+03 0.  0.
        2    1    3    3  502    0  0.85435478466E+02 -0.24054850028E+03  0.60252839471E+02  0.26228459093E+03  0.25500000920E-02 0.  1.
       -2    1    3    3    0  502 -0.85435478466E+02  0.24054850028E+03 -0.31498877796E+03  0.40543893771E+03  0.25500000920E-02 0. -1.
</event>
<event>
 5   0  0.7424930E-02  0.6240917E+03  0.7818609E-02  0.9856647E-01
        1   -1    0    0  501    0  0.00000000000E+00  0.00000000000E+00  0.17719803247E+04  0.17719803247E+04  0.50400001928E-02 0.  1.
       -1   -1    0    0    0  501  0.00000000000E+00  0.00000000000E+00 -0.54951286495E+02  0.54951286727E+02  0.50400001928E-02 0. -1.
    10030    2    1    2    0    0  0.00000000000E+00  0.00000000000E+00  0.17170290382E+04  0.18269316115E+04  0.62409165579E+03 0.  0.
        3    1    3    3  502    0  0.26804260527E+03 -0.12193325445E+03  0.55630202240E+03  0.62943348108E+03  0.10100000352E+00 0. -1.
       -3    1    3    3    0  502 -0.26804260527E+03  0.12193325445E+03  0.11607270158E+04  0.11974981304E+04  0.10100000352E+00 0.  1.
</event>
<event>
 5   0  0.1175861E-01  0.6035820E+03  0.7818609E-02  0.9898002E-01
        2   -1    0    0  501    0  0.00000000000E+00  0.00000000000E+00  0.17368720329E+04  0.17368720329E+04  0.25500000920E-02 0. -1.
       -2   -1    0    0    0  501  0.00000000000E+00  0.00000000000E+00 -0.52437827280E+02  0.52437827342E+02  0.25500000920E-02 0.  1.
    10030    2    1    2    0    0  0.00000000000E+00  0.00000000000E+00  0.16844342056E+04  0.17893098603E+04  0.60358196039E+03 0.  0.
        3    1    3    3  502    0 -0.97416630886E+02 -0.12874988033E+03  0.86353253112E+02  0.18309403644E+03  0.10100000352E+00 0.  1.
       -3    1    3    3    0  502  0.97416630886E+02  0.12874988033E+03  0.15980809525E+04  0.16062158238E+04  0.10100000352E+00 0. -1.
</event>
<event>
 5   0  0.1206238E-01  0.5900060E+03  0.7818609E-02  0.9926360E-01
        2   -1    0    0  501    0  0.00000000000E+00  0.00000000000E+00  0.47054157893E+03  0.47054157893E+03  0.25500000920E-02 0.  1.
       -2   -1    0    0    0  501  0.00000000000E+00  0.00000000000E+00 -0.18495024924E+03  0.18495024925E+03  0.25500000920E-02 0. -1.
    10030    2    1    2    0    0  0.00000000000E+00  0.00000000000E+00  0.28559132969E+03  0.65549182819E+03  0.59000604169E+03 0.  0.
        5    1    3    3  502    0  0.28120156999E+03  0.84766062642E+02  0.11246978341E+03  0.31453322641E+03  0.46999998093E+01 0.  1.
       -5    1    3    3    0  502 -0.28120156999E+03 -0.84766062642E+02  0.17312154629E+03  0.34095860178E+03  0.46999998093E+01 0. -1.
</event>
<event>
 5   0  0.1166419E-01  0.6370143E+03  0.7818609E-02  0.9831456E-01
       -2   -1    0    0    0  501  0.00000000000E+00  0.00000000000E+00  0.60646408532E+02  0.60646408585E+02  0.25500000920E-02 0. -1.
        2   -1    0    0  501    0  0.00000000000E+00  0.00000000000E+00 -0.16727583941E+04  0.16727583941E+04  0.25500000920E-02 0.  1.
    10030    2    1    2    0    0  0.00000000000E+00  0.00000000000E+00 -0.16121119855E+04  0.17334048027E+04  0.63701425099E+03 0.  0.
        1    1    3    3  502    0  0.31555670056E+03 -0.15071142571E+02 -0.69573673312E+03  0.76410259288E+03  0.50400001928E-02 0. -1.
       -1    1    3    3    0  502 -0.31555670056E+03  0.15071142571E+02 -0.91637525242E+03  0.96930220978E+03  0.50400001928E-02 0.  1.
</event>
<event>
 5   0  0.7266519E-02  0.5935968E+03  0.7818609E-02  0.9918780E-01
       -1   -1    0    0    0  501  0.00000000000E+00  0.00000000000E+00  0.13431226505E+03  0.13431226515E+03  0.50400001928E-02 0.  1.
        1   -1    0    0  501    0  0.00000000000E+00  0.00000000000E+00 -0.65585442014E+03  0.65585442016E+03  0.50400001928E-02 0. -1.
    10030    2    1    2    0    0  0.00000000000E+00  0.00000000000E+00 -0.52154215509E+03  0.79016668531E+03  0.59359680848E+03 0.  0.
        4    1    3    3  502    0 -0.10108264519E+03 -0.18080342367E+03 -0.54371525102E+03  0.58183800689E+03  0.12699999809E+01 0. -1.
       -4    1    3    3    0  502  0.10108264519E+03  0.18080342367E+03  0.22173095923E+02  0.20832867842E+03  0.12699999809E+01 0.  1.
</event>
<event>
 5   0  0.7424930E-02  0.5968773E+03  0.7818609E-02  0.9911906E-01
        1   -1    0    0  501    0  0.00000000000E+00  0.00000000000E+00  0.45820287207E+03  0.45820287210E+03  0.50400001928E-02 0. -1.
       -1   -1    0    0    0  501  0.00000000000E+00  0.00000000000E+00 -0.19438035316E+03  0.19438035322E+03  0.50400001928E-02 0.  1.
    10030    2    1    2    0    0  0.00000000000E+00  0.00000000000E+00  0.26382251891E+03  0.65258322532E+03  0.59687732783E+03 0.  0.
        3    1    3    3  502    0  0.24719385261E+03  0.36747314815E+02  0.31026286136E+03  0.39839455224E+03  0.10100000352E+00 0. -1.
       -3    1    3    3    0  502 -0.24719385261E+03 -0.36747314815E+02 -0.46440342453E+02  0.25418867308E+03  0.10100000352E+00 0.  1.
</event>
<event>
 5   0  0.7263385E-02  0.5857472E+03  0.7818609E-02  0.9935425E-01
        1   -1    0    0  501    0  0.00000000000E+00  0.00000000000E+00  0.51562493574E+03  0.51562493577E+03  0.50400001928E-02 0.  1.
       -1   -1    0    0    0  501  0.00000000000E+00  0.00000000000E+00 -0.16635141945E+03  0.16635141953E+03  0.50400001928E-02 0. -1.
    10030    2    1    2    0    0  0.00000000000E+00  0.00000000000E+00  0.34927351629E+03  0.68197635529E+03  0.58574718096E+03 0.  0.
        1    1    3    3  502    0 -0.16051480211E+03  0.13998846084E+03 -0.59419665357E+02  0.22111641169E+03  0.50400001928E-02 0. -1.
       -1    1    3    3    0  502  0.16051480211E+03 -0.13998846084E+03  0.40869318165E+03  0.46085994360E+03  0.50400001928E-02 0.  1.
</event>
<event>
 5   0  0.1219020E-01  0.7386907E+03  0.7818609E-02  0.9653262E-01
        2   -1    0    0  501    0  0.00000000000E+00  0.00000000000E+00  0.61959446445E+03  0.61959446446E+03  0.25500000920E-02 0.  1.
       -2   -1    0    0    0  501  0.00000000000E+00  0.00000000000E+00 -0.22016981408E+03  0.22016981409E+03  0.25500000920E-02 0. -1.
    10030    2    1    2    0    0  0.00000000000E+00  0.00000000000E+00  0.39942465038E+03  0.83976427855E+03  0.73869072838E+03 0.  0.
        2    1    3    3  502    0  0.32928504507E+03  0.12659254175E+03  0.32404662096E+03  0.47902038067E+03  0.25500000920E-02 0.  1.
       -2    1    3    3    0  502 -0.32928504507E+03 -0.12659254175E+03  0.75378029413E+02  0.36074389788E+03  0.25500000920E-02 0. -1.
</event>
<event>
 5   0  0.7263385E-02  0.6044251E+03  0.7818609E-02  0.9896268E-01
        1   -1    0    0  501    0  0.00000000000E+00  0.00000000000E+00  0.72783352213E+03  0.72783352215E+03  0.50400001928E-02 0. -1.
       -1   -1    0    0    0  501  0.00000000000E+00  0.00000000000E+00 -0.12548534331E+03  0.12548534341E+03  0.50400001928E-02 0.  1.
    10030    2    1    2    0    0  0.00000000000E+00  0.00000000000E+00  0.60234817882E+03  0.85331886556E+03  0.60442514656E+03 0.  0.
        1    1    3    3  502    0 -0.16076510927E+03  0.13720890702E+03 -0.37871262147E+01  0.21139074453E+03  0.50400001928E-02 0.  1.
       -1    1    3    3    0  502  0.16076510927E+03 -0.13720890702E+03  0.60613530504E+03  0.64192812102E+03  0.50400001928E-02 0. -1.
</event>
<event>
 5   0  0.4695625E-02  0.6271368E+03  0.7818609E-02  0.9850652E-01
       -4   -1    0    0    0  501  0.00000000000E+00  0.00000000000E+00  0.31893413497E+03  0.31893666354E+03  0.12699999809E+01 0. -1.
        4   -1    0    0  501    0  0.00000000000E+00  0.00000000000E+00 -0.30828789471E+03  0.30829051060E+03  0.12699999809E+01 0.  1.
    10030    2    1    2    0    0  0.00000000000E+00  0.00000000000E+00  0.10646240257E+02  0.62722717414E+03  0.62713681565E+03 0.  0.
        1    1    3    3  502    0  0.30194132581E+03  0.48493246262E+02  0.74651122492E+02  0.31479032590E+03  0.50400001928E-02 0. -1.
       -1    1    3    3    0  502 -0.30194132581E+03 -0.48493246262E+02 -0.64004882235E+02  0.31243684824E+03  0.50400001928E-02 0.  1.
</event>
<event>
 5   0  0.7266519E-02  0.6199669E+03  0.7818609E-02  0.9864826E-01
        1   -1    0    0  501    0  0.00000000000E+00  0.00000000000E+00  0.11535259768E+04  0.11535259768E+04  0.50400001928E-02 0. -1.
       -1   -1    0    0    0  501  0.00000000000E+00  0.00000000000E+00 -0.83300891788E+02  0.83300891941E+02  0.50400001928E-02 0.  1.
    10030    2    1    2    0    0  0.00000000000E+00  0.00000000000E+00  0.10702250850E+04  0.12368268687E+04  0.61996691094E+03 0.  0.
        4    1    3    3  502    0  0.12323497758E+03  0.43302485476E+02 -0.25710505473E+02  0.13313379713E+03  0.12699999809E+01 0.  1.
       -4    1    3    3    0  502 -0.12323497758E+03 -0.43302485476E+02  0.10959355904E+04  0.11036930716E+04  0.12699999809E+01 0. -1.
</event>
<event>
 5   0  0.1166419E-01  0.5882545E+03  0.7818609E-02  0.9930078E-01
       -2   -1    0    0    0  501  0.00000000000E+00  0.00000000000E+00  0.16160581308E+03  0.16160581310E+03  0.25500000920E-02 0. -1.
        2   -1    0    0  501    0  0.00000000000E+00  0.00000000000E+00 -0.53532007007E+03  0.53532007008E+03  0.25500000920E-02 0.  1.
    10030    2    1    2    0    0  0.00000000000E+00  0.00000000000E+00 -0.37371425699E+03  0.69692588317E+03  0.58825448639E+03 0.  0.
        1    1    3    3  502    0  0.18602846763E+03  0.21787148060E+03 -0.26576674924E+03  0.39077683894E+03  0.50400001928E-02 0.  1.
       -1    1    3    3    0  502 -0.18602846763E+03 -0.21787148060E+03 -0.10794750776E+03  0.30614904423E+03  0.50400001928E-02 0. -1.
</event>
<event>
 5   0  0.1175861E-01  0.5685149E+03  0.7818609E-02  0.9972970E-01
        2   -1    0    0  501    0  0.00000000000E+00  0.00000000000E+00  0.29102284750E+03  0.29102284751E+03  0.25500000920E-02 0. -1.
       -2   -1    0    0    0  501  0.00000000000E+00  0.00000000000E+00 -0.27764933356E+03  0.27764933357E+03  0.25500000920E-02 0.  1.
    10030    2    1    2    0    0  0.00000000000E+00  0.00000000000E+00  0.13373513937E+02  0.56867218108E+03  0.56851490628E+03 0.  0.
        3    1    3    3  502    0 -0.15813026986E+03  0.13936087395E+03 -0.18409003105E+03  0.27984957596E+03  0.10100000352E+00 0. -1.
       -3    1    3    3    0  502  0.15813026986E+03 -0.13936087395E+03  0.19746354498E+03  0.28882260512E+03  0.10100000352E+00 0.  1.
</event>
<event>
 5   0  0.7123340E-02  0.6343447E+03  0.7818609E-02  0.9836607E-01
       -1   -1    0    0    0  501  0.00000000000E+00  0.00000000000E+00  0.13384041818E+03  0.13384041828E+03  0.50400001928E-02 0. -1.
        1   -1    0    0  501    0  0.00000000000E+00  0.00000000000E+00 -0.75162862880E+03  0.75162862881E+03  0.50400001928E-02 0.  1.
    10030    2    1    2    0    0  0.00000000000E+00  0.00000000000E+00 -0.61778821062E+03  0.88546904709E+03  0.63434466986E+03 0.  0.
        2    1    3    3  502    0  0.40522718136E+02 -0.52474334509E+02  0.12405973130E+03  0.14066436437E+03  0.25500000920E-02 0. -1.
       -2    1    3    3    0  502 -0.40522718136E+02  0.52474334509E+02 -0.74184794192E+03  0.74480468272E+03  0.25500000920E-02 0.  1.
</event>
<event>
 5   0  0.4695625E-02  0.5966778E+03  0.7818609E-02  0.9912323E-01
        3   -1    0    0  501    0  0.00000000000E+00  0.00000000000E+00  0.62498602459E+03  0.62498603275E+03  0.10100000352E+00 0.  1.
       -3   -1    0    0    0  501  0.00000000000E+00  0.00000000000E+00 -0.14241291687E+03  0.14241295268E+03  0.10100000352E+00 0. -1.
    10030    2    1    2    0    0  0.00000000000E+00  0.00000000000E+00  0.48257310772E+03  0.76739898543E+03  0.59667780129E+03 0.  0.
        4    1    3    3  502    0  0.15906790997E+03  0.13664349433E+03 -0.31632870069E+02  0.21207615588E+03  0.12699999809E+01 0. -1.
       -4    1    3    3    0  502 -0.15906790997E+03 -0.13664349433E+03  0.51420597779E+03  0.55532282955E+03  0.12699999809E+01 0.  1.
</event>
<event>
 5   0  0.7221069E-02  0.6047213E+03  0.7818609E-02  0.9895659E-01
        1   -1    0    0  501    0  0.00000000000E+00  0.00000000000E+00  0.18491572045E+03  0.18491572052E+03  0.50400001928E-02 0.  1.
       -1   -1    0    0    0  501  0.00000000000E+00  0.00000000000E+00 -0.49439798154E+03  0.49439798157E+03  0.50400001928E-02 0. -1.
    10030    2    1    2    0    0  0.00000000000E+00  0.00000000000E+00 -0.30948226109E+03  0.67931370209E+03  0.60472128780E+03 0.  0.
        5    1    3    3  502    0  0.70483105254E+02  0.28973510433E+03 -0.98735959024E+02  0.31414197175E+03  0.46999998093E+01 0.  1.
       -5    1    3    3    0  502 -0.70483105254E+02 -0.28973510433E+03 -0.21074630206E+03  0.36517173034E+03  0.46999998093E+01 0. -1.
</event>
<event>
 5   0  0.1206238E-01  0.6148858E+03  0.7818609E-02  0.9874995E-01
        2   -1    0    0  501    0  0.00000000000E+00  0.00000000000E+00  0.79767289522E+03  0.79767289523E+03  0.25500000920E-02 0.  1.
       -2   -1    0    0    0  501  0.00000000000E+00  0.00000000000E+00 -0.11849611146E+03  0.11849611149E+03  0.25500000920E-02 0. -1.
    10030    2    1    2    0    0  0.00000000000E+00  0.00000000000E+00  0.67917678376E+03  0.91616900671E+03  0.61488579855E+03 0.  0.
        5    1    3    3  502    0 -0.29286254855E+03  0.59190566942E+02  0.23186513088E+03  0.37822681617E+03  0.46999998093E+01 0. -1.
       -5    1    3    3    0  502  0.29286254855E+03 -0.59190566942E+02  0.44731165288E+03  0.53794219054E+03  0.46999998093E+01 0.  1.
</event>
<event>
 5   0  0.1166419E-01  0.5872051E+03  0.7818609E-02  0.9932313E-01
        2   -1    0    0  501    0  0.00000000000E+00  0.00000000000E+00  0.14527630444E+04  0.14527630444E+04  0.25500000920E-02 0.  1.
       -2   -1    0    0    0  501  0.00000000000E+00  0.00000000000E+00 -0.59336896731E+02  0.59336896786E+02  0.25500000920E-02 0. -1.
    10030    2    1    2    0    0  0.00000000000E+00  0.00000000000E+00  0.13934261477E+04  0.15120999412E+04  0.58720507759E+03 0.  0.
        1    1    3    3  502    0  0.73642872719E+00 -0.21108707778E+03  0.17121912880E+03  0.27179824654E+03  0.50400001928E-02 0.  1.
       -1    1    3    3    0  502 -0.73642872719E+00  0.21108707778E+03  0.12222070189E+04  0.12403016947E+04  0.50400001928E-02 0. -1.
</event>
<event>
 5   0  0.7221069E-02  0.6041794E+03  0.7818609E-02  0.9896773E-01
       -1   -1    0    0    0  501  0.00000000000E+00  0.00000000000E+00  0.23910358896E+03  0.23910358902E+03  0.50400001928E-02 0.  1.
        1   -1    0    0  501    0  0.00000000000E+00  0.00000000000E+00 -0.38166803470E+03  0.38166803474E+03  0.50400001928E-02 0. -1.
    10030    2    1    2    0    0  0.00000000000E+00  0.00000000000E+00 -0.14256444574E+03  0.62077162375E+03  0.60417943334E+03 0.  0.
        5    1    3    3  502    0 -0.26124408488E+03 -0.11608216234E+03  0.28928633775E+02  0.28737170381E+03  0.46999998093E+01 0.  1.
       -5    1    3    3    0  502  0.26124408488E+03  0.11608216234E+03 -0.17149307951E+03  0.33339991994E+03  0.46999998093E+01 0. -1.
</event>
<event>
 5   0  0.7123340E-02  0.6137895E+03  0.7818609E-02  0.9877203E-01
        1   -1    0    0  501    0  0.00000000000E+00  0.00000000000E+00  0.83856507102E+03  0.83856507103E+03  0.50400001928E-02 0.  1.
       -1   -1    0    0    0  501  0.00000000000E+00  0.00000000000E+00 -0.11231613081E+03  0.11231613092E+03  0.50400001928E-02 0. -1.
    10030    2    1    2    0    0  0.00000000000E+00  0.00000000000E+00  0.72624894021E+03  0.95088120195E+03  0.61378948922E+03 0.  0.
        2    1    3    3  502    0 -0.12641475768E+03  0.21892674631E+03  0.63267938996E+03  0.68131697593E+03  0.25500000920E-02 0.  1.
       -2    1    3    3    0  502  0.12641475768E+03 -0.21892674631E+03  0.93569550249E+02  0.26956422602E+03  0.25500000920E-02 0. -1.
</event>
<event>
 5   0  0.1146468E-01  0.5714013E+03  0.7818609E-02  0.9966582E-01
       -2   -1    0    0    0  501  0.00000000000E+00  0.00000000000E+00  0.13814675818E+03  0.13814675820E+03  0.25500000920E-02 0.  1.
        2   -1    0    0  501    0  0.00000000000E+00  0.00000000000E+00 -0.59085617596E+03  0.59085617596E+03  0.25500000920E-02 0. -1.
    10030    2    1    2    0    0  0.00000000000E+00  0.00000000000E+00 -0.45270941778E+03  0.72900293417E+03  0.57140131351E+03 0.  0.
        4    1    3    3  502    0 -0.26709890133E+03  0.10459753438E+02 -0.97680441242E+02  0.28459499475E+03  0.12699999809E+01 0. -1.
       -4    1    3    3    0  502  0.26709890133E+03 -0.10459753438E+02 -0.35502897654E+03  0.44440793942E+03  0.12699999809E+01 0.  1.
</event>
<event>
 5   0  0.1175861E-01  0.6018666E+03  0.7818609E-02  0.9901541E-01
        2   -1    0    0  501    0  0.00000000000E+00  0.00000000000E+00  0.40115164250E+03  0.40115164251E+03  0.25500000920E-02 0. -1.
       -2   -1    0    0    0  501  0.00000000000E+00  0.00000000000E+00 -0.22575219745E+03  0.22575219747E+03  0.25500000920E-02 0.  1.
    10030    2    1    2    0    0  0.00000000000E+00  0.00000000000E+00  0.17539944505E+03  0.62690383998E+03  0.60186664574E+03 0.  0.
        3    1    3    3  502    0 -0.15437052056E+03 -0.25338623393E+03  0.14004993913E+03  0.32809882172E+03  0.10100000352E+00 0. -1.
       -3    1    3    3    0  502  0.15437052056E+03  0.25338623393E+03  0.35349505914E+02  0.29880501825E+03  0.10100000352E+00 0.  1.
</event>
<event>
 5   0  0.1206238E-01  0.5936834E+03  0.7818609E-02  0.9918598E-01
       -2   -1    0    0    0  501  0.00000000000E+00  0.00000000000E+00  0.39049618585E+02  0.39049618668E+02  0.25500000920E-02 0.  1.
        2   -1    0    0  501    0  0.00000000000E+00  0.00000000000E+00 -0.22564876192E+04  0.22564876192E+04  0.25500000920E-02 0. -1.
    10030    2    1    2    0    0  0.00000000000E+00  0.00000000000E+00 -0.22174380007E+04  0.22955372379E+04  0.59368335321E+03 0.  0.
        5    1    3    3  502    0 -0.17011843436E+03 -0.96560993588E+02 -0.24560384455E+03  0.31401854348E+03  0.46999998093E+01 0.  1.
       -5    1    3    3    0  502  0.17011843436E+03  0.96560993588E+02 -0.19718341561E+04  0.19815186944E+04  0.46999998093E+01 0. -1.
</event>
<event>
 5   0  0.1206238E-01  0.5965972E+03  0.7818609E-02  0.9912491E-01
       -2   -1    0    0    0  501  0.00000000000E+00  0.00000000000E+00  0.27805403656E+03  0.27805403657E+03  0.25500000920E-02 0.  1.
        2   -1    0    0  501    0  0.00000000000E+00  0.00000000000E+00 -0.32001710806E+03  0.32001710807E+03  0.25500000920E-02 0. -1.
    10030    2    1    2    0    0  0.00000000000E+00  0.00000000000E+00 -0.41963071495E+02  0.59807114464E+03  0.59659717958E+03 0.  0.
        5    1    3    3  502    0  0.18485974092E+02 -0.15845296892E+03  0.23165475280E+03  0.28130959652E+03  0.46999998093E+01 0.  1.
       -5    1    3    3    0  502 -0.18485974092E+02  0.15845296892E+03 -0.27361782429E+03  0.31676154812E+03  0.46999998093E+01 0. -1.
</event>
<event>
 5   0  0.1206238E-01  0.5979002E+03  0.7818609E-02  0.9909772E-01
        2   -1    0    0  501    0  0.00000000000E+00  0.00000000000E+00  0.11169001123E+04  0.11169001123E+04  0.25500000920E-02 0.  1.
       -2   -1    0    0    0  501  0.00000000000E+00  0.00000000000E+00 -0.80017137308E+02  0.80017137349E+02  0.25500000920E-02 0. -1.
    10030    2    1    2    0    0  0.00000000000E+00  0.00000000000E+00  0.10368829750E+04  0.11969172496E+04  0.59790015778E+03 0.  0.
        5    1    3    3  502    0 -0.63469624782E+02  0.99264717887E+02 -0.31497519538E+02  0.12204942123E+03  0.46999998093E+01 0. -1.
       -5    1    3    3    0  502  0.63469624782E+02 -0.99264717887E+02  0.10683804945E+04  0.10748678284E+04  0.46999998093E+01 0.  1.
</event>
<event>
 5   0  0.7221069E-02  0.5772538E+03  0.7818609E-02  0.9953754E-01
       -1   -1    0    0    0  501  0.00000000000E+00  0.00000000000E+00  0.82013277083E+03  0.82013277085E+03  0.50400001928E-02 0. -1.
        1   -1    0    0  501    0  0.00000000000E+00  0.00000000000E+00 -0.10157559495E+03  0.10157559508E+03  0.50400001928E-02 0.  1.
    10030    2    1    2    0    0  0.00000000000E+00  0.00000000000E+00  0.71855717588E+03  0.92170836593E+03  0.57725375427E+03 0.  0.
        5    1    3    3  502    0  0.24560638571E+03 -0.50648379506E+02  0.13124683978E+03  0.28308228132E+03  0.46999998093E+01 0.  1.
       -5    1    3    3    0  502 -0.24560638571E+03  0.50648379506E+02  0.58731033610E+03  0.63862608460E+03  0.46999998093E+01 0. -1.
</event>
<event>
 5   0  0.1166419E-01  0.5999542E+03  0.7818609E-02  0.9905501E-01
        2   -1    0    0  501    0  0.00000000000E+00  0.00000000000E+00  0.66158052917E+03  0.66158052918E+03  0.25500000920E-02 0. -1.
       -2   -1    0    0    0  501  0.00000000000E+00  0.00000000000E+00 -0.13601710897E+03  0.13601710899E+03  0.25500000920E-02 0.  1.
    10030    2    1    2    0    0  0.00000000000E+00  0.00000000000E+00  0.52556342021E+03  0.79759763817E+03  0.59995423471E+03 0.  0.
        1    1    3    3  502    0 -0.26112598684E+03 -0.14720805898E+03  0.24766605965E+03  0.38883861789E+03  0.50400001928E-02 0. -1.
       -1    1    3    3    0  502  0.26112598684E+03  0.14720805898E+03  0.27789736056E+03  0.40875902028E+03  0.50400001928E-02 0.  1.
</event>
<event>
 5   0  0.7123340E-02  0.5950655E+03  0.7818609E-02  0.9915697E-01
        1   -1    0    0  501    0  0.00000000000E+00  0.00000000000E+00  0.16639115432E+04  0.16639115432E+04  0.50400001928E-02 0.  1.
       -1   -1    0    0    0  501  0.00000000000E+00  0.00000000000E+00 -0.53203390736E+02  0.53203390975E+02  0.50400001928E-02 0. -1.
    10030    2    1    2    0    0  0.00000000000E+00  0.00000000000E+00  0.16107081525E+04  0.17171149342E+04  0.59506549621E+03 0.  0.
        2    1    3    3  502    0  0.90306643045E+01  0.23057987485E+03  0.13473313332E+04  0.13669492870E+04  0.25500000920E-02 0.  1.
       -2    1    3    3    0  502 -0.90306643045E+01 -0.23057987485E+03  0.26337681923E+03  0.35016564722E+03  0.25500000920E-02 0. -1.
</event>
<event>
 5   0  0.7123340E-02  0.5963862E+03  0.7818609E-02  0.9912932E-01
       -1   -1    0    0    0  501  0.00000000000E+00  0.00000000000E+00  0.31266147357E+03  0.31266147361E+03  0.50400001928E-02 0.  1.
        1   -1    0    0  501    0  0.00000000000E+00  0.00000000000E+00 -0.28439429577E+03  0.28439429582E+03  0.50400001928E-02 0. -1.
    10030    2    1    2    0    0  0.00000000000E+00  0.00000000000E+00  0.28267177793E+02  0.59705576943E+03  0.59638624939E+03 0.  0.
        2    1    3    3  502    0 -0.67951716820E+01  0.21798626846E+03  0.21772105561E+03  0.30816658752E+03  0.25500000920E-02 0.  1.
       -2    1    3    3    0  502  0.67951716820E+01 -0.21798626846E+03 -0.18945387782E+03  0.28888918191E+03  0.25500000920E-02 0. -1.
</event>
<event>
 5   0  0.7424930E-02  0.6094264E+03  0.7818609E-02  0.9886040E-01
       -1   -1    0    0    0  501  0.00000000000E+00  0.00000000000E+00  0.28634649898E+03  0.28634649903E+03  0.50400001928E-02 0.  1.
        1   -1    0    0  501    0  0.00000000000E+00  0.00000000000E+00 -0.32425801705E+03  0.32425801709E+03  0.50400001928E-02 0. -1.
    10030    2    1    2    0    0  0.00000000000E+00  0.00000000000E+00 -0.37911518067E+02  0.61060451612E+03  0.60942644503E+03 0.  0.
        3    1    3    3  502    0  0.26957103733E+03  0.13633015837E+03 -0.58978960478E+02  0.30778723857E+03  0.10100000352E+00 0.  1.
       -3    1    3    3    0  502 -0.26957103733E+03 -0.13633015837E+03  0.21067442411E+02  0.30281727754E+03  0.10100000352E+00 0. -1.
</event>
<event>
 5   0  0.1166419E-01  0.5998001E+03  0.7818609E-02  0.9905821E-01
        2   -1    0    0  501    0  0.00000000000E+00  0.00000000000E+00  0.67128535053E+03  0.67128535054E+03  0.25500000920E-02 0.  1.
       -2   -1    0    0    0  501  0.00000000000E+00  0.00000000000E+00 -0.13398184805E+03  0.13398184808E+03  0.25500000920E-02 0. -1.
    10030    2    1    2    0    0  0.00000000000E+00  0.00000000000E+00  0.53730350248E+03  0.80526719861E+03  0.59980013954E+03 0.  0.
        1    1    3    3  502    0 -0.62167483534E+02 -0.26253157643E+03  0.92820430268E+02  0.28531256007E+03  0.50400001928E-02 0. -1.
       -1    1    3    3    0  502  0.62167483534E+02  0.26253157643E+03  0.44448307221E+03  0.51995463854E+03  0.50400001928E-02 0.  1.
</event>
<event>
 5   0  0.7266519E-02  0.6126165E+03  0.7818609E-02  0.9879571E-01
        1   -1    0    0  501    0  0.00000000000E+00  0.00000000000E+00  0.16185770140E+03  0.16185770148E+03  0.50400001928E-02 0. -1.
       -1   -1    0    0    0  501  0.00000000000E+00  0.00000000000E+00 -0.57967431352E+03  0.57967431355E+03  0.50400001928E-02 0.  1.
    10030    2    1    2    0    0  0.00000000000E+00  0.00000000000E+00 -0.41781661212E+03  0.74153201503E+03  0.61261652602E+03 0.  0.
        4    1    3    3  502    0 -0.21716442592E+03  0.16021222832E+03 -0.38429514366E+03  0.46958781535E+03  0.12699999809E+01 0.  1.
       -4    1    3    3    0  502  0.21716442592E+03 -0.16021222832E+03 -0.33521468460E+02  0.27194419967E+03  0.12699999809E+01 0. -1.
</event>
<event>
 5   0  0.7266519E-02  0.5974919E+03  0.7818609E-02  0.9910623E-01
        1   -1    0    0  501    0  0.00000000000E+00  0.00000000000E+00  0.51640633781E+03  0.51640633783E+03  0.50400001928E-02 0. -1.
       -1   -1    0    0    0  501  0.00000000000E+00  0.00000000000E+00 -0.17282736508E+03  0.17282736515E+03  0.50400001928E-02 0.  1.
    10030    2    1    2    0    0  0.00000000000E+00  0.00000000000E+00  0.34357897273E+03  0.68923370299E+03  0.59749191361E+03 0.  0.
        4    1    3    3  502    0 -0.24113301442E+03 -0.53278677148E+02  0.36572155944E+03  0.44129085649E+03  0.12699999809E+01 0. -1.
       -4    1    3    3    0  502  0.24113301442E+03  0.53278677148E+02 -0.22142586716E+02  0.24794284649E+03  0.12699999809E+01 0.  1.
</event>
<event>
 5   0  0.7221069E-02  0.6002113E+03  0.7818609E-02  0.9904968E-01
       -1   -1    0    0    0  501  0.00000000000E+00  0.00000000000E+00  0.14957150762E+03  0.14957150770E+03  0.50400001928E-02 0. -1.
        1   -1    0    0  501    0  0.00000000000E+00  0.00000000000E+00 -0.60214277315E+03  0.60214277317E+03  0.50400001928E-02 0.  1.
    10030    2    1    2    0    0  0.00000000000E+00  0.00000000000E+00 -0.45257126553E+03  0.75171428087E+03  0.60021130419E+03 0.  0.
        5    1    3    3  502    0  0.20347558383E+03 -0.20749960252E+03 -0.13270648073E+03  0.31951760247E+03  0.46999998093E+01 0. -1.
       -5    1    3    3    0  502 -0.20347558383E+03  0.20749960252E+03 -0.31986478480E+03  0.43219667840E+03  0.46999998093E+01 0.  1.
</event>
<event>
 5   0  0.1219020E-01  0.5706514E+03  0.7818609E-02  0.9968238E-01
        2   -1    0    0  501    0  0.00000000000E+00  0.00000000000E+00  0.42037651640E+03  0.42037651641E+03  0.25500000920E-02 0.  1.
       -2   -1    0    0    0  501  0.00000000000E+00  0.00000000000E+00 -0.19366150275E+03  0.19366150277E+03  0.25500000920E-02 0. -1.
    10030    2    1    2    0    0  0.00000000000E+00  0.00000000000E+00  0.22671501365E+03  0.61403801918E+03  0.57065137482E+03 0.  0.
        2    1    3    3  502    0  0.23499232471E+03 -0.85672057886E+01  0.28724861556E+03  0.37122305536E+03  0.25500000920E-02 0.  1.
       -2    1    3    3    0  502 -0.23499232471E+03  0.85672057886E+01 -0.60533601913E+02  0.24281496382E+03  0.25500000920E-02 0. -1.
</event>
<event>
 5   0  0.1146468E-01  0.5213864E+03  0.7818609E-02  0.1008343E+00
        2   -1    0    0  501    0  0.00000000000E+00  0.00000000000E+00  0.14339239612E+03  0.14339239614E+03  0.25500000920E-02 0.  1.
       -2   -1    0    0    0  501  0.00000000000E+00  0.00000000000E+00 -0.47395086486E+03  0.47395086487E+03  0.25500000920E-02 0. -1.
    10030    2    1    2    0    0  0.00000000000E+00  0.00000000000E+00 -0.33055846874E+03  0.61734326101E+03  0.52138642163E+03 0.  0.
        4    1    3    3  502    0 -0.25009317219E+03 -0.73555951741E+02 -0.16706099142E+03  0.30962567815E+03  0.12699999809E+01 0. -1.
       -4    1    3    3    0  502  0.25009317219E+03  0.73555951741E+02 -0.16349747732E+03  0.30771758286E+03  0.12699999809E+01 0.  1.
</event>
<event>
 5   0  0.1206238E-01  0.5921247E+03  0.7818609E-02  0.9921881E-01
       -2   -1    0    0    0  501  0.00000000000E+00  0.00000000000E+00  0.50291505061E+02  0.50291505126E+02  0.25500000920E-02 0. -1.
        2   -1    0    0  501    0  0.00000000000E+00  0.00000000000E+00 -0.17428969753E+04  0.17428969753E+04  0.25500000920E-02 0.  1.
    10030    2    1    2    0    0  0.00000000000E+00  0.00000000000E+00 -0.16926054703E+04  0.17931884805E+04  0.59212468996E+03 0.  0.
        5    1    3    3  502    0  0.14127541167E+03 -0.23725542259E+02 -0.61783254343E+02  0.15607979950E+03  0.46999998093E+01 0. -1.
       -5    1    3    3    0  502 -0.14127541167E+03  0.23725542259E+02 -0.16308222159E+04  0.16371086810E+04  0.46999998093E+01 0.  1.
</event>
<event>
 5   0  0.1175861E-01  0.6269859E+03  0.7818609E-02  0.9850948E-01
       -2   -1    0    0    0  501  0.00000000000E+00  0.00000000000E+00  0.54349839360E+02  0.54349839419E+02  0.25500000920E-02 0. -1.
        2   -1    0    0  501    0  0.00000000000E+00  0.00000000000E+00 -0.18082451587E+04  0.18082451587E+04  0.25500000920E-02 0.  1.
    10030    2    1    2    0    0  0.00000000000E+00  0.00000000000E+00 -0.17538953194E+04  0.18625949981E+04  0.62698591358E+03 0.  0.
        3    1    3    3  502    0 -0.27434904039E+03  0.14877838341E+03 -0.78905168527E+03  0.84853106929E+03  0.10100000352E+00 0.  1.
       -3    1    3    3    0  502  0.27434904039E+03 -0.14877838341E+03 -0.96484363408E+03  0.10140639288E+04  0.10100000352E+00 0. -1.
</event>
<event>
 5   0  0.1206238E-01  0.5370029E+03  0.7818609E-02  0.1004548E+00
        2   -1    0    0  501    0  0.00000000000E+00  0.00000000000E+00  0.35436948929E+03  0.35436948930E+03  0.25500000920E-02 0. -1.
       -2   -1    0    0    0  501  0.00000000000E+00  0.00000000000E+00 -0.20344031907E+03  0.20344031909E+03  0.25500000920E-02 0.  1.
    10030    2    1    2    0    0  0.00000000000E+00  0.00000000000E+00  0.15092917022E+03  0.55780980838E+03  0.53700294962E+03 0.  0.
        5    1    3    3  502    0  0.33532681788E+02 -0.25908899803E+03  0.11268701670E+02  0.26153512820E+03  0.46999998093E+01 0.  1.
       -5    1    3    3    0  502 -0.33532681788E+02  0.25908899803E+03  0.13966046855E+03  0.29627468019E+03  0.46999998093E+01 0. -1.
</event>
<event>
 5   0  0.1219020E-01  0.5928936E+03  0.7818609E-02  0.9920260E-01
       -2   -1    0    0    0  501  0.00000000000E+00  0.00000000000E+00  0.25619974952E+03  0.25619974953E+03  0.25500000920E-02 0. -1.
        2   -1    0    0  501    0  0.00000000000E+00  0.00000000000E+00 -0.34301631550E+03  0.34301631551E+03  0.25500000920E-02 0.  1.
    10030    2    1    2    0    0  0.00000000000E+00  0.00000000000E+00 -0.86816565985E+02  0.59921606504E+03  0.59289356252E+03 0.  0.
        2    1    3    3  502    0  0.60376777765E+02  0.20816853221E+03 -0.24780538962E+03  0.32922181615E+03  0.25500000920E-02 0.  1.
       -2    1    3    3    0  502 -0.60376777765E+02 -0.20816853221E+03  0.16098882364E+03  0.26999424890E+03  0.25500000920E-02 0. -1.
</event>
<event>
 5   0  0.7263385E-02  0.5996616E+03  0.7818609E-02  0.9906108E-01
        1   -1    0    0  501    0  0.00000000000E+00  0.00000000000E+00  0.39100242749E+03  0.39100242752E+03  0.50400001928E-02 0. -1.
       -1   -1    0    0    0  501  0.00000000000E+00  0.00000000000E+00 -0.22991806695E+03  0.22991806700E+03  0.50400001928E-02 0.  1.
    10030    2    1    2    0    0  0.00000000000E+00  0.00000000000E+00  0.16108436054E+03  0.62092049452E+03  0.59966164569E+03 0.  0.
        1    1    3    3  502    0 -0.24784691376E+03 -0.15368219774E+03  0.84148936557E+01  0.29174838649E+03  0.50400001928E-02 0.  1.
       -1    1    3    3    0  502  0.24784691376E+03  0.15368219774E+03  0.15266946689E+03  0.32917210803E+03  0.50400001928E-02 0. -1.
</event>
<event>
 5   0  0.7266519E-02  0.6282188E+03  0.7818609E-02  0.9848531E-01
       -1   -1    0    0    0  501  0.00000000000E+00  0.00000000000E+00  0.75702998986E+02  0.75702999154E+02  0.50400001928E-02 0. -1.
        1   -1    0    0  501    0  0.00000000000E+00  0.00000000000E+00 -0.13033131685E+04  0.13033131685E+04  0.50400001928E-02 0.  1.
    10030    2    1    2    0    0  0.00000000000E+00  0.00000000000E+00 -0.12276101696E+04  0.13790161677E+04  0.62821880137E+03 0.  0.
        4    1    3    3  502    0  0.10358098823E+02 -0.28284022065E+03 -0.91283518784E+03  0.95570684506E+03  0.12699999809E+01 0.  1.
       -4    1    3    3    0  502 -0.10358098823E+02  0.28284022065E+03 -0.31477498171E+03  0.42330932265E+03  0.12699999809E+01 0. -1.
</event>
<event>
 5   0  0.1146468E-01  0.6060866E+03  0.7818609E-02  0.9892858E-01
        2   -1    0    0  501    0  0.00000000000E+00  0.00000000000E+00  0.42493561391E+03  0.42493561392E+03  0.25500000920E-02 0. -1.
       -2   -1    0    0    0  501  0.00000000000E+00  0.00000000000E+00 -0.21611564523E+03  0.21611564524E+03  0.25500000920E-02 0.  1.
    10030    2    1    2    0    0  0.00000000000E+00  0.00000000000E+00  0.20881996868E+03  0.64105125916E+03  0.60608657595E+03 0.  0.
        4    1    3    3  502    0  0.65695829383E+02  0.29500610592E+03  0.12780087153E+03  0.32814512063E+03  0.12699999809E+01 0.  1.
       -4    1    3    3    0  502 -0.65695829383E+02 -0.29500610592E+03  0.81019097152E+02  0.31290613853E+03  0.12699999809E+01 0. -1.
</event>
<event>
 5   0  0.1146468E-01  0.6036267E+03  0.7818609E-02  0.9897910E-01
        2   -1    0    0  501    0  0.00000000000E+00  0.00000000000E+00  0.69803485884E+03  0.69803485885E+03  0.25500000920E-02 0. -1.
       -2   -1    0    0    0  501  0.00000000000E+00  0.00000000000E+00 -0.13049677048E+03  0.13049677051E+03  0.25500000920E-02 0.  1.
    10030    2    1    2    0    0  0.00000000000E+00  0.00000000000E+00  0.56753808836E+03  0.82853162936E+03  0.60362668853E+03 0.  0.
        4    1    3    3  502    0  0.10864137596E+03 -0.89778194084E+02 -0.82551937158E+02  0.16333862964E+03  0.12699999809E+01 0.  1.
       -4    1    3    3    0  502 -0.10864137596E+03  0.89778194084E+02  0.65009002552E+03  0.66519299972E+03  0.12699999809E+01 0. -1.
</event>
<event>
 5   0  0.7123340E-02  0.6022210E+03  0.7818609E-02  0.9900809E-01
        1   -1    0    0  501    0  0.00000000000E+00  0.00000000000E+00  0.15798380629E+04  0.15798380629E+04  0.50400001928E-02 0.  1.
       -1   -1    0    0    0  501  0.00000000000E+00  0.00000000000E+00 -0.57390405243E+02  0.57390405465E+02  0.50400001928E-02 0. -1.
    10030    2    1    2    0    0  0.00000000000E+00  0.00000000000E+00  0.15224476576E+04  0.16372284684E+04  0.60222104525E+03 0.  0.
        2    1    3    3  502    0 -0.25176925579E+02 -0.72497234029E+02  0.15528032267E+04  0.15546985519E+04  0.25500000920E-02 0.  1.
       -2    1    3    3    0  502  0.25176925579E+02  0.72497234029E+02 -0.30355569069E+02  0.82529916415E+02  0.25500000920E-02 0. -1.
</event>
<event>
 5   0  0.4695625E-02  0.5945030E+03  0.7818609E-02  0.9916877E-01
       -4   -1    0    0    0  501  0.00000000000E+00  0.00000000000E+00  0.17196642414E+03  0.17197111366E+03  0.12699999809E+01 0. -1.
        4   -1    0    0  501    0  0.00000000000E+00  0.00000000000E+00 -0.51379984183E+03  0.51380141141E+03  0.12699999809E+01 0.  1.
    10030    2    1    2    0    0  0.00000000000E+00  0.00000000000E+00 -0.34183341769E+03  0.68577252506E+03  0.59450304514E+03 0.  0.
        3    1    3    3  502    0 -0.27440233103E+03 -0.85735619773E+02 -0.25809141805E+03  0.38633978056E+03  0.10100000352E+00 0.  1.
       -3    1    3    3    0  502  0.27440233103E+03  0.85735619773E+02 -0.83741999638E+02  0.29943274450E+03  0.10100000352E+00 0. -1.
</event>
<event>
 5   0  0.1219020E-01  0.5938820E+03  0.7818609E-02  0.9918181E-01
        2   -1    0    0  501    0  0.00000000000E+00  0.00000000000E+00  0.50860576897E+03  0.50860576898E+03  0.25500000920E-02 0. -1.
       -2   -1    0    0    0  501  0.00000000000E+00  0.00000000000E+00 -0.17336407366E+03  0.17336407368E+03  0.25500000920E-02 0.  1.
    10030    2    1    2    0    0  0.00000000000E+00  0.00000000000E+00  0.33524169531E+03  0.68196984265E+03  0.59388203544E+03 0.  0.
        2    1    3    3  502    0  0.47381857520E+02  0.17465275461E+03 -0.10272467171E+03  0.20808888317E+03  0.25500000920E-02 0.  1.
       -2    1    3    3    0  502 -0.47381857520E+02 -0.17465275461E+03  0.43796636702E+03  0.47388095949E+03  0.25500000920E-02 0. -1.
</event>
<event>
 5   0  0.1175861E-01  0.5495338E+03  0.7818609E-02  0.1001602E+00
        2   -1    0    0  501    0  0.00000000000E+00  0.00000000000E+00  0.62910566815E+03  0.62910566815E+03  0.25500000920E-02 0.  1.
       -2   -1    0    0    0  501  0.00000000000E+00  0.00000000000E+00 -0.12000662991E+03  0.12000662994E+03  0.25500000920E-02 0. -1.
    10030    2    1    2    0    0  0.00000000000E+00  0.00000000000E+00  0.50909903824E+03  0.74911229809E+03  0.54953380643E+03 0.  0.
        3    1    3    3  502    0 -0.89754639006E+02  0.63512922848E+01 -0.99353620396E+02  0.13404247918E+03  0.10100000352E+00 0. -1.
       -3    1    3    3    0  502  0.89754639006E+02 -0.63512922848E+01  0.60845265863E+03  0.61506981891E+03  0.10100000352E+00 0.  1.
</event>
<event>
 5   0  0.4695625E-02  0.5941919E+03  0.7818609E-02  0.9917530E-01
       -3   -1    0    0    0  501  0.00000000000E+00  0.00000000000E+00  0.29768908056E+03  0.29768909769E+03  0.10100000352E+00 0. -1.
        3   -1    0    0  501    0  0.00000000000E+00  0.00000000000E+00 -0.29650400433E+03  0.29650402153E+03  0.10100000352E+00 0.  1.
    10030    2    1    2    0    0  0.00000000000E+00  0.00000000000E+00  0.11850762260E+01  0.59419311922E+03  0.59419193745E+03 0.  0.
        3    1    3    3  502    0 -0.22355370080E+03 -0.12277566672E+03 -0.15177535647E+03  0.29679267260E+03  0.10100000352E+00 0.  1.
       -3    1    3    3    0  502  0.22355370080E+03  0.12277566672E+03  0.15296043269E+03  0.29740044662E+03  0.10100000352E+00 0. -1.
</event>
<event>
 5   0  0.1219020E-01  0.5718681E+03  0.7818609E-02  0.9965553E-01
       -2   -1    0    0    0  501  0.00000000000E+00  0.00000000000E+00  0.52901647466E+03  0.52901647467E+03  0.25500000920E-02 0.  1.
        2   -1    0    0  501    0  0.00000000000E+00  0.00000000000E+00 -0.15454768235E+03  0.15454768237E+03  0.25500000920E-02 0. -1.
    10030    2    1    2    0    0  0.00000000000E+00  0.00000000000E+00  0.37446879231E+03  0.68356415704E+03  0.57186806204E+03 0.  0.
        2    1    3    3  502    0  0.19115674802E+02 -0.22212715988E+03 -0.26765528870E+02  0.22454905416E+03  0.25500000920E-02 0. -1.
       -2    1    3    3    0  502 -0.19115674802E+02  0.22212715988E+03  0.40123432118E+03  0.45901510289E+03  0.25500000920E-02 0.  1.
</event>
<event>
 5   0  0.1166419E-01  0.6002814E+03  0.7818609E-02  0.9904822E-01
        2   -1    0    0  501    0  0.00000000000E+00  0.00000000000E+00  0.25359211363E+03  0.25359211365E+03  0.25500000920E-02 0.  1.
       -2   -1    0    0    0  501  0.00000000000E+00  0.00000000000E+00 -0.35523358151E+03  0.35523358152E+03  0.25500000920E-02 0. -1.
    10030    2    1    2    0    0  0.00000000000E+00  0.00000000000E+00 -0.10164146788E+03  0.60882569517E+03  0.60028138327E+03 0.  0.
        1    1    3    3  502    0 -0.60166213449E+02  0.15192278135E+03 -0.30616592336E+03  0.34704189572E+03  0.50400001928E-02 0. -1.
       -1    1    3    3    0  502  0.60166213449E+02 -0.15192278135E+03  0.20452445548E+03  0.26178379944E+03  0.50400001928E-02 0.  1.
</event>
<event>
 5   0  0.7424930E-02  0.6005484E+03  0.7818609E-02  0.9904269E-01
       -1   -1    0    0    0  501  0.00000000000E+00  0.00000000000E+00  0.46218414468E+03  0.46218414471E+03  0.50400001928E-02 0.  1.
        1   -1    0    0  501    0  0.00000000000E+00  0.00000000000E+00 -0.19508367438E+03  0.19508367445E+03  0.50400001928E-02 0. -1.
    10030    2    1    2    0    0  0.00000000000E+00  0.00000000000E+00  0.26710047030E+03  0.65726781916E+03  0.60054835348E+03 0.  0.
        3    1    3    3  502    0 -0.28654493344E+03  0.41339833792E+02  0.46353779621E+02  0.29319901744E+03  0.10100000352E+00 0. -1.
       -3    1    3    3    0  502  0.28654493344E+03 -0.41339833792E+02  0.22074669068E+03  0.36406880172E+03  0.10100000352E+00 0.  1.
</event>
<event>
 5   0  0.1206238E-01  0.6454318E+03  0.7818609E-02  0.9815389E-01
       -2   -1    0    0    0  501  0.00000000000E+00  0.00000000000E+00  0.92792470692E+02  0.92792470727E+02  0.25500000920E-02 0.  1.
        2   -1    0    0  501    0  0.00000000000E+00  0.00000000000E+00 -0.11223490683E+04  0.11223490683E+04  0.25500000920E-02 0. -1.
    10030    2    1    2    0    0  0.00000000000E+00  0.00000000000E+00 -0.10295565976E+04  0.12151415390E+04  0.64543177192E+03 0.  0.
        5    1    3    3  502    0 -0.80206543058E+02  0.31230295956E+03 -0.53838510672E+03  0.62757218010E+03  0.46999998093E+01 0. -1.
       -5    1    3    3    0  502  0.80206543058E+02 -0.31230295956E+03 -0.49117149089E+03  0.58756935894E+03  0.46999998093E+01 0.  1.
</event>
<event>
 5   0  0.1146468E-01  0.5754824E+03  0.7818609E-02  0.9957620E-01
        2   -1    0    0  501    0  0.00000000000E+00  0.00000000000E+00  0.78013358043E+03  0.78013358043E+03  0.25500000920E-02 0.  1.
       -2   -1    0    0    0  501  0.00000000000E+00  0.00000000000E+00 -0.10612927537E+03  0.10612927540E+03  0.25500000920E-02 0. -1.
    10030    2    1    2    0    0  0.00000000000E+00  0.00000000000E+00  0.67400430506E+03  0.88626285583E+03  0.57548244663E+03 0.  0.
        4    1    3    3  502    0  0.61650004160E+02 -0.28059730980E+03  0.36173039957E+03  0.46193729894E+03  0.12699999809E+01 0. -1.
       -4    1    3    3    0  502 -0.61650004160E+02  0.28059730980E+03  0.31227390550E+03  0.42432555689E+03  0.12699999809E+01 0.  1.
</event>
<event>
 5   0  0.1219020E-01  0.5802799E+03  0.7818609E-02  0.9947185E-01
       -2   -1    0    0    0  501  0.00000000000E+00  0.00000000000E+00  0.72716193805E+02  0.72716193849E+02  0.25500000920E-02 0.  1.
        2   -1    0    0  501    0  0.00000000000E+00  0.00000000000E+00 -0.11576678993E+04  0.11576678993E+04  0.25500000920E-02 0. -1.
    10030    2    1    2    0    0  0.00000000000E+00  0.00000000000E+00 -0.10849517055E+04  0.12303840931E+04  0.58027994401E+03 0.  0.
        2    1    3    3  502    0 -0.14599250862E+03 -0.24859705226E+03 -0.61173294730E+03  0.67626289695E+03  0.25500000920E-02 0. -1.
       -2    1    3    3    0  502  0.14599250862E+03  0.24859705226E+03 -0.47321875817E+03  0.55412119618E+03  0.25500000920E-02 0.  1.
</event>
<event>
 5   0  0.7424930E-02  0.5983156E+03  0.7818609E-02  0.9908907E-01
        1   -1    0    0  501    0  0.00000000000E+00  0.00000000000E+00  0.52942511554E+03  0.52942511556E+03  0.50400001928E-02 0. -1.
       -1   -1    0    0    0  501  0.00000000000E+00  0.00000000000E+00 -0.16904260213E+03  0.16904260221E+03  0.50400001928E-02 0.  1.
    10030    2    1    2    0    0  0.00000000000E+00  0.00000000000E+00  0.36038251341E+03  0.69846771777E+03  0.59831563309E+03 0.  0.
        3    1    3    3  502    0  0.29203888614E+03 -0.42054351282E+02  0.12252514788E+03  0.31948036175E+03  0.10100000352E+00 0.  1.
       -3    1    3    3    0  502 -0.29203888614E+03  0.42054351282E+02  0.23785736553E+03  0.37898735602E+03  0.10100000352E+00 0. -1.
</event>
<event>
 5   0  0.7221069E-02  0.5764385E+03  0.7818609E-02  0.9955531E-01
        1   -1    0    0  501    0  0.00000000000E+00  0.00000000000E+00  0.64815255927E+03  0.64815255929E+03  0.50400001928E-02 0. -1.
       -1   -1    0    0    0  501  0.00000000000E+00  0.00000000000E+00 -0.12816480389E+03  0.12816480399E+03  0.50400001928E-02 0.  1.
    10030    2    1    2    0    0  0.00000000000E+00  0.00000000000E+00  0.51998775538E+03  0.77631736327E+03  0.57643853339E+03 0.  0.
        5    1    3    3  502    0  0.71945934002E+02  0.12935066367E+02 -0.11541972236E+03  0.13670163009E+03  0.46999998093E+01 0.  1.
       -5    1    3    3    0  502 -0.71945934002E+02 -0.12935066367E+02  0.63540747774E+03  0.63961573318E+03  0.46999998093E+01 0. -1.
</event>
<event>
 5   0  0.1166419E-01  0.6633639E+03  0.7818609E-02  0.9782021E-01
        2   -1    0    0  501    0  0.00000000000E+00  0.00000000000E+00  0.90964701948E+03  0.90964701948E+03  0.25500000920E-02 0.  1.
       -2   -1    0    0    0  501  0.00000000000E+00  0.00000000000E+00 -0.12094024316E+03  0.12094024319E+03  0.25500000920E-02 0. -1.
    10030    2    1    2    0    0  0.00000000000E+00  0.00000000000E+00  0.78870677632E+03  0.10305872627E+04  0.66336394760E+03 0.  0.
        1    1    3    3  502    0  0.21135051920E+03  0.23943777207E+03  0.25528049695E+03  0.40886137114E+03  0.50400001928E-02 0. -1.
       -1    1    3    3    0  502 -0.21135051920E+03 -0.23943777207E+03  0.53342627937E+03  0.62172589154E+03  0.50400001928E-02 0.  1.
</event>
<event>
 5   0  0.1206238E-01  0.6060465E+03  0.7818609E-02  0.9892940E-01
        2   -1    0    0  501    0  0.00000000000E+00  0.00000000000E+00  0.24515518273E+04  0.24515518273E+04  0.25500000920E-02 0.  1.
       -2   -1    0    0    0  501  0.00000000000E+00  0.00000000000E+00 -0.37455082577E+02  0.37455082664E+02  0.25500000920E-02 0. -1.
    10030    2    1    2    0    0  0.00000000000E+00  0.00000000000E+00  0.24140967447E+04  0.24890069099E+04  0.60604645447E+03 0.  0.
        5    1    3    3  502    0 -0.91455263993E+02  0.17408260480E+03  0.21537191136E+04  0.21626828082E+04  0.46999998093E+01 0.  1.
       -5    1    3    3    0  502  0.91455263993E+02 -0.17408260480E+03  0.26037763114E+03  0.32632410178E+03  0.46999998093E+01 0. -1.
</event>
<event>
 5   0  0.1206238E-01  0.5839396E+03  0.7818609E-02  0.9939298E-01
        2   -1    0    0  501    0  0.00000000000E+00  0.00000000000E+00  0.10606314368E+04  0.10606314368E+04  0.25500000920E-02 0.  1.
       -2   -1    0    0    0  501  0.00000000000E+00  0.00000000000E+00 -0.80373225654E+02  0.80373225695E+02  0.25500000920E-02 0. -1.
    10030    2    1    2    0    0  0.00000000000E+00  0.00000000000E+00  0.98025821112E+03  0.11410046625E+04  0.58393961958E+03 0.  0.
        5    1    3    3  502    0  0.37619433984E+02 -0.21381581250E+03  0.10876874865E+03  0.24286859445E+03  0.46999998093E+01 0. -1.
       -5    1    3    3    0  502 -0.37619433984E+02  0.21381581250E+03  0.87148946248E+03  0.89813606803E+03  0.46999998093E+01 0.  1.
</event>
<event>
 5   0  0.7266519E-02  0.6010042E+03  0.7818609E-02  0.9903325E-01
       -1   -1    0    0    0  501  0.00000000000E+00  0.00000000000E+00  0.12026183283E+03  0.12026183293E+03  0.50400001928E-02 0.  1.
        1   -1    0    0  501    0  0.00000000000E+00  0.00000000000E+00 -0.75087420505E+03  0.75087420506E+03  0.50400001928E-02 0. -1.
    10030    2    1    2    0    0  0.00000000000E+00  0.00000000000E+00 -0.63061237222E+03  0.87113603800E+03  0.60100418692E+03 0.  0.
        4    1    3    3  502    0  0.16217212080E+03  0.15807427902E+03 -0.29012977282E+02  0.22832135293E+03  0.12699999809E+01 0.  1.
       -4    1    3    3    0  502 -0.16217212080E+03 -0.15807427902E+03 -0.60159939494E+03  0.64281468507E+03  0.12699999809E+01 0. -1.
</event>
<event>
 5   0  0.7266519E-02  0.6041891E+03  0.7818609E-02  0.9896753E-01
       -1   -1    0    0    0  501  0.00000000000E+00  0.00000000000E+00  0.12812146847E+03  0.12812146857E+03  0.50400001928E-02 0. -1.
        1   -1    0    0  501    0  0.00000000000E+00  0.00000000000E+00 -0.71230144012E+03  0.71230144014E+03  0.50400001928E-02 0.  1.
    10030    2    1    2    0    0  0.00000000000E+00  0.00000000000E+00 -0.58417997165E+03  0.84042290871E+03  0.60418906495E+03 0.  0.
        4    1    3    3  502    0 -0.26954388476E+02 -0.19837384009E+03 -0.60677672822E+03  0.63895096079E+03  0.12699999809E+01 0.  1.
       -4    1    3    3    0  502  0.26954388476E+02  0.19837384009E+03  0.22596756567E+02  0.20147194792E+03  0.12699999809E+01 0. -1.
</event>
<event>
 5   0  0.7123340E-02  0.6090144E+03  0.7818609E-02  0.9886879E-01
        1   -1    0    0  501    0  0.00000000000E+00  0.00000000000E+00  0.72047435495E+02  0.72047435672E+02  0.50400001928E-02 0.  1.
       -1   -1    0    0    0  501  0.00000000000E+00  0.00000000000E+00 -0.12869940692E+04  0.12869940692E+04  0.50400001928E-02 0. -1.
    10030    2    1    2    0    0  0.00000000000E+00  0.00000000000E+00 -0.12149466337E+04  0.13590415049E+04  0.60901435882E+03 0.  0.
        2    1    3    3  502    0  0.59795278474E+02  0.92572256244E+02  0.25984263825E+02  0.11322667498E+03  0.25500000920E-02 0.  1.
       -2    1    3    3    0  502 -0.59795278474E+02 -0.92572256244E+02 -0.12409308976E+04  0.12458148299E+04  0.25500000920E-02 0. -1.
</event>
<event>
 5   0  0.1166419E-01  0.6032539E+03  0.7818609E-02  0.9898678E-01
        2   -1    0    0  501    0  0.00000000000E+00  0.00000000000E+00  0.23011476671E+04  0.23011476671E+04  0.25500000920E-02 0. -1.
       -2   -1    0    0    0  501  0.00000000000E+00  0.00000000000E+00 -0.39536280248E+02  0.39536280330E+02  0.25500000920E-02 0.  1.
    10030    2    1    2    0    0  0.00000000000E+00  0.00000000000E+00  0.22616113869E+04  0.23406839474E+04  0.60325390726E+03 0.  0.
        1    1    3    3  502    0 -0.22562967321E+03  0.15015934886E+02  0.19053162151E+04  0.19186881214E+04  0.50400001928E-02 0. -1.
       -1    1    3    3    0  502  0.22562967321E+03 -0.15015934886E+02  0.35629517178E+03  0.42199582604E+03  0.50400001928E-02 0.  1.
</event>
<event>
 5   0  0.1206238E-01  0.5680502E+03  0.7818609E-02  0.9974003E-01
       -2   -1    0    0    0  501  0.00000000000E+00  0.00000000000E+00  0.20528298143E+03  0.20528298145E+03  0.25500000920E-02 0.  1.
        2   -1    0    0  501    0  0.00000000000E+00  0.00000000000E+00 -0.39297098343E+03  0.39297098344E+03  0.25500000920E-02 0. -1.
    10030    2    1    2    0    0  0.00000000000E+00  0.00000000000E+00 -0.18768800200E+03  0.59825396488E+03  0.56805019180E+03 0.  0.
        5    1    3    3  502    0 -0.17398022197E+03 -0.61301682336E+02  0.13355595241E+03  0.22778563677E+03  0.46999998093E+01 0.  1.
       -5    1    3    3    0  502  0.17398022197E+03  0.61301682336E+02 -0.32124395441E+03  0.37046832812E+03  0.46999998093E+01 0. -1.
</event>
<event>
 5   0  0.1175861E-01  0.5956257E+03  0.7818609E-02  0.9914523E-01
        2   -1    0    0  501    0  0.00000000000E+00  0.00000000000E+00  0.32394328489E+03  0.32394328490E+03  0.25500000920E-02 0. -1.
       -2   -1    0    0    0  501  0.00000000000E+00  0.00000000000E+00 -0.27379019991E+03  0.27379019992E+03  0.25500000920E-02 0.  1.
    10030    2    1    2    0    0  0.00000000000E+00  0.00000000000E+00  0.50153084983E+02  0.59773348483E+03  0.59562571045E+03 0.  0.
        3    1    3    3  502    0  0.26769743380E+03  0.73686168283E+02 -0.83012171120E+02  0.28979751244E+03  0.10100000352E+00 0.  1.
       -3    1    3    3    0  502 -0.26769743380E+03 -0.73686168283E+02  0.13316525610E+03  0.30793597239E+03  0.10100000352E+00 0. -1.
</event>
<event>
 5   0  0.7266519E-02  0.6000419E+03  0.7818609E-02  0.9905319E-01
       -1   -1    0    0    0  501  0.00000000000E+00  0.00000000000E+00  0.64338159174E+03  0.64338159176E+03  0.50400001928E-02 0. -1.
        1   -1    0    0  501    0  0.00000000000E+00  0.00000000000E+00 -0.13990541976E+03  0.13990541986E+03  0.50400001928E-02 0.  1.
    10030    2    1    2    0    0  0.00000000000E+00  0.00000000000E+00  0.50347617198E+03  0.78328701162E+03  0.60004190422E+03 0.  0.
        4    1    3    3  502    0 -0.26367228025E+03  0.81580164973E+02  0.40526718119E+03  0.49032794714E+03  0.12699999809E+01 0. -1.
       -4    1    3    3    0  502  0.26367228025E+03 -0.81580164973E+02  0.98208990789E+02  0.29295906448E+03  0.12699999809E+01 0.  1.
</event>
<event>
 5   0  0.1166419E-01  0.6031352E+03  0.7818609E-02  0.9898923E-01
        2   -1    0    0  501    0  0.00000000000E+00  0.00000000000E+00  0.12131207108E+04  0.12131207108E+04  0.25500000920E-02 0. -1.
       -2   -1    0    0    0  501  0.00000000000E+00  0.00000000000E+00 -0.74966179527E+02  0.74966179571E+02  0.25500000920E-02 0.  1.
    10030    2    1    2    0    0  0.00000000000E+00  0.00000000000E+00  0.11381545313E+04  0.12880868904E+04  0.60313522539E+03 0.  0.
        1    1    3    3  502    0 -0.64123156531E+02  0.71011641508E+02  0.11798460518E+04  0.11837191974E+04  0.50400001928E-02 0. -1.
       -1    1    3    3    0  502  0.64123156531E+02 -0.71011641508E+02 -0.41691520473E+02  0.10436769298E+03  0.50400001928E-02 0.  1.
</event>
<event>
 5   0  0.7266519E-02  0.6067602E+03  0.7818609E-02  0.9891479E-01
       -1   -1    0    0    0  501  0.00000000000E+00  0.00000000000E+00  0.56839575653E+03  0.56839575655E+03  0.50400001928E-02 0.  1.
        1   -1    0    0  501    0  0.00000000000E+00  0.00000000000E+00 -0.16192850879E+03  0.16192850887E+03  0.50400001928E-02 0. -1.
    10030    2    1    2    0    0  0.00000000000E+00  0.00000000000E+00  0.40646724774E+03  0.73032426541E+03  0.60676017434E+03 0.  0.
        4    1    3    3  502    0  0.29511736241E+03 -0.12200964207E+02  0.28657896762E+03  0.41154858608E+03  0.12699999809E+01 0.  1.
       -4    1    3    3    0  502 -0.29511736241E+03  0.12200964207E+02  0.11988828012E+03  0.31877567933E+03  0.12699999809E+01 0. -1.
</event>
<event>
 5   0  0.1175861E-01  0.5365825E+03  0.7818609E-02  0.1004648E+00
        2   -1    0    0  501    0  0.00000000000E+00  0.00000000000E+00  0.22203287050E+04  0.22203287050E+04  0.25500000920E-02 0.  1.
       -2   -1    0    0    0  501  0.00000000000E+00  0.00000000000E+00 -0.32418715676E+02  0.32418715776E+02  0.25500000920E-02 0. -1.
    10030    2    1    2    0    0  0.00000000000E+00  0.00000000000E+00  0.21879099894E+04  0.22527474208E+04  0.53658253833E+03 0.  0.
        3    1    3    3  502    0  0.68332765427E+02  0.12841256316E+03  0.20404051502E+04  0.20455836185E+04  0.10100000352E+00 0.  1.
       -3    1    3    3    0  502 -0.68332765427E+02 -0.12841256316E+03  0.14750483920E+03  0.20716380233E+03  0.10100000352E+00 0. -1.
</event>
<event>
 5   0  0.1146468E-01  0.5998220E+03  0.7818609E-02  0.9905775E-01
       -2   -1    0    0    0  501  0.00000000000E+00  0.00000000000E+00  0.16974831049E+03  0.16974831051E+03  0.25500000920E-02 0.  1.
        2   -1    0    0  501    0  0.00000000000E+00  0.00000000000E+00 -0.52988226516E+03  0.52988226517E+03  0.25500000920E-02 0. -1.
    10030    2    1    2    0    0  0.00000000000E+00  0.00000000000E+00 -0.36013395467E+03  0.69963057568E+03  0.59982203788E+03 0.  0.
        4    1    3    3  502    0 -0.29352943040E+03  0.47338818780E+02 -0.13422719108E+03  0.32621931580E+03  0.12699999809E+01 0. -1.
       -4    1    3    3    0  502  0.29352943040E+03 -0.47338818780E+02 -0.22590676359E+03  0.37341125989E+03  0.12699999809E+01 0.  1.
</event>
<event>
 5   0  0.7263385E-02  0.5963878E+03  0.7818609E-02  0.9912929E-01
       -1   -1    0    0    0  501  0.00000000000E+00  0.00000000000E+00  0.18445951578E+03  0.18445951585E+03  0.50400001928E-02 0. -1.
        1   -1    0    0  501    0  0.00000000000E+00  0.00000000000E+00 -0.48205488223E+03  0.48205488226E+03  0.50400001928E-02 0.  1.
    10030    2    1    2    0    0  0.00000000000E+00  0.00000000000E+00 -0.29759536646E+03  0.66651439811E+03  0.59638782746E+03 0.  0.
        1    1    3    3  502    0 -0.24924129187E+03  0.64107045887E+02  0.19541545989E+02  0.25809456978E+03  0.50400001928E-02 0. -1.
       -1    1    3    3    0  502  0.24924129187E+03 -0.64107045887E+02 -0.31713691244E+03  0.40841982832E+03  0.50400001928E-02 0.  1.
</event>
<event>
 5   0  0.1166419E-01  0.4735859E+03  0.7818609E-02  0.1020913E+00
        2   -1    0    0  501    0  0.00000000000E+00  0.00000000000E+00  0.63794840161E+03  0.63794840161E+03  0.25500000920E-02 0. -1.
       -2   -1    0    0    0  501  0.00000000000E+00  0.00000000000E+00 -0.87892521464E+02  0.87892521501E+02  0.25500000920E-02 0.  1.
    10030    2    1    2    0    0  0.00000000000E+00  0.00000000000E+00  0.55005588014E+03  0.72584092311E+03  0.47358586802E+03 0.  0.
        1    1    3    3  502    0  0.11147769579E+03 -0.14377765746E+03  0.42733744199E+02  0.18688355830E+03  0.50400001928E-02 0.  1.
       -1    1    3    3    0  502 -0.11147769579E+03  0.14377765746E+03  0.50732213594E+03  0.53895736481E+03  0.50400001928E-02 0. -1.
</event>
<event>
 5   0  0.7221069E-02  0.6230619E+03  0.7818609E-02  0.9858682E-01
       -1   -1    0    0    0  501  0.00000000000E+00  0.00000000000E+00  0.25560039247E+03  0.25560039252E+03  0.50400001928E-02 0.  1.
        1   -1    0    0  501    0  0.00000000000E+00  0.00000000000E+00 -0.37970030909E+03  0.37970030912E+03  0.50400001928E-02 0. -1.
    10030    2    1    2    0    0  0.00000000000E+00  0.00000000000E+00 -0.12409991661E+03  0.63530070164E+03  0.62306194893E+03 0.  0.
        5    1    3    3  502    0  0.61472984759E+02  0.26008464982E+03 -0.22521355117E+03  0.34952279833E+03  0.46999998093E+01 0.  1.
       -5    1    3    3    0  502 -0.61472984759E+02 -0.26008464982E+03  0.10111363455E+03  0.28577790331E+03  0.46999998093E+01 0. -1.
</event>
<event>
 5   0  0.7221069E-02  0.6405232E+03  0.7818609E-02  0.9824726E-01
        1   -1    0    0  501    0  0.00000000000E+00  0.00000000000E+00  0.14687186765E+04  0.14687186765E+04  0.50400001928E-02 0.  1.
       -1   -1    0    0    0  501  0.00000000000E+00  0.00000000000E+00 -0.69834679982E+02  0.69834680164E+02  0.50400001928E-02 0. -1.
    10030    2    1    2    0    0  0.00000000000E+00  0.00000000000E+00  0.13988839965E+04  0.15385533567E+04  0.64052322020E+03 0.  0.
        5    1    3    3  502    0  0.93646285299E+02  0.52135483981E+02  0.14242716620E+04  0.14283065472E+04  0.46999998093E+01 0.  1.
       -5    1    3    3    0  502 -0.93646285299E+02 -0.52135483981E+02 -0.25387665535E+02  0.11024680948E+03  0.46999998093E+01 0. -1.
</event>
<event>
 5   0  0.7266519E-02  0.5888665E+03  0.7818609E-02  0.9928778E-01
       -1   -1    0    0    0  501  0.00000000000E+00  0.00000000000E+00  0.66807737192E+02  0.66807737382E+02  0.50400001928E-02 0. -1.
        1   -1    0    0  501    0  0.00000000000E+00  0.00000000000E+00 -0.12976182562E+04  0.12976182563E+04  0.50400001928E-02 0.  1.
    10030    2    1    2    0    0  0.00000000000E+00  0.00000000000E+00 -0.12308105191E+04  0.13644259936E+04  0.58886650295E+03 0.  0.
        4    1    3    3  502    0  0.76445578978E+01  0.25235287024E+03 -0.96641100457E+03  0.99884546004E+03  0.12699999809E+01 0.  1.
       -4    1    3    3    0  502 -0.76445578978E+01 -0.25235287024E+03 -0.26439951448E+03  0.36558053360E+03  0.12699999809E+01 0. -1.
</event>
<event>
 5   0  0.7424930E-02  0.6094867E+03  0.7818609E-02  0.9885917E-01
       -1   -1    0    0    0  501  0.00000000000E+00  0.00000000000E+00  0.21896654393E+03  0.21896654399E+03  0.50400001928E-02 0. -1.
        1   -1    0    0  501    0  0.00000000000E+00  0.00000000000E+00 -0.42412191046E+03  0.42412191049E+03  0.50400001928E-02 0.  1.
    10030    2    1    2    0    0  0.00000000000E+00  0.00000000000E+00 -0.20515536653E+03  0.64308845447E+03  0.60948669868E+03 0.  0.
        3    1    3    3  502    0  0.27231885225E+02 -0.30246815792E+03 -0.75886061204E+02  0.31302917854E+03  0.10100000352E+00 0.  1.
       -3    1    3    3    0  502 -0.27231885225E+02  0.30246815792E+03 -0.12926930532E+03  0.33005927593E+03  0.10100000352E+00 0. -1.
</event>
<event>
 5   0  0.7424930E-02  0.3969905E+03  0.7818609E-02  0.1044827E+00
        1   -1    0    0  501    0  0.00000000000E+00  0.00000000000E+00  0.14254198338E+04  0.14254198339E+04  0.50400001928E-02 0. -1.
       -1   -1    0    0    0  501  0.00000000000E+00  0.00000000000E+00 -0.27641239415E+02  0.27641239874E+02  0.50400001928E-02 0.  1.
    10030    2    1    2    0    0  0.00000000000E+00  0.00000000000E+00  0.13977785944E+04  0.14530610737E+04  0.39699053507E+03 0.  0.
        3    1    3    3  502    0 -0.89597901861E+02  0.28285912669E+02  0.58905350531E+02  0.11089511890E+03  0.10100000352E+00 0.  1.
       -3    1    3    3    0  502  0.89597901861E+02 -0.28285912669E+02  0.13388732439E+04  0.13421659548E+04  0.10100000352E+00 0. -1.
</event>
<event>
 5   0  0.7266519E-02  0.6044199E+03  0.7818609E-02  0.9896278E-01
       -1   -1    0    0    0  501  0.00000000000E+00  0.00000000000E+00  0.12061115516E+03  0.12061115527E+03  0.50400001928E-02 0.  1.
        1   -1    0    0  501    0  0.00000000000E+00  0.00000000000E+00 -0.75723399283E+03  0.75723399285E+03  0.50400001928E-02 0. -1.
    10030    2    1    2    0    0  0.00000000000E+00  0.00000000000E+00 -0.63662283767E+03  0.87784514812E+03  0.60441994228E+03 0.  0.
        4    1    3    3  502    0 -0.29042195262E+03  0.78314659575E+02 -0.27593892364E+03  0.40819358024E+03  0.12699999809E+01 0.  1.
       -4    1    3    3    0  502  0.29042195262E+03 -0.78314659575E+02 -0.36068391404E+03  0.46965156788E+03  0.12699999809E+01 0. -1.
</event>
<event>
 5   0  0.7424930E-02  0.5718955E+03  0.7818609E-02  0.9965493E-01
        1   -1    0    0  501    0  0.00000000000E+00  0.00000000000E+00  0.13094502955E+04  0.13094502955E+04  0.50400001928E-02 0. -1.
       -1   -1    0    0    0  501  0.00000000000E+00  0.00000000000E+00 -0.62443092242E+02  0.62443092446E+02  0.50400001928E-02 0.  1.
    10030    2    1    2    0    0  0.00000000000E+00  0.00000000000E+00  0.12470072033E+04  0.13718933880E+04  0.57189553500E+03 0.  0.
        3    1    3    3  502    0 -0.28563751881E+03 -0.85428220079E+01  0.64800757532E+03  0.70822002219E+03  0.10100000352E+00 0. -1.
       -3    1    3    3    0  502  0.28563751881E+03  0.85428220079E+01  0.59899962798E+03  0.66367336580E+03  0.10100000352E+00 0.  1.
</event>
<event>
 5   0  0.7263385E-02  0.6041755E+03  0.7818609E-02  0.9896781E-01
        1   -1    0    0  501    0  0.00000000000E+00  0.00000000000E+00  0.32329999797E+03  0.32329999801E+03  0.50400001928E-02 0.  1.
       -1   -1    0    0    0  501  0.00000000000E+00  0.00000000000E+00 -0.28226729189E+03  0.28226729193E+03  0.50400001928E-02 0. -1.
    10030    2    1    2    0    0  0.00000000000E+00  0.00000000000E+00  0.41032706088E+02  0.60556728994E+03  0.60417552059E+03 0.  0.
        1    1    3    3  502    0  0.19979881974E+03 -0.58056202207E+02 -0.19900168761E+03  0.28790929592E+03  0.50400001928E-02 0. -1.
       -1    1    3    3    0  502 -0.19979881974E+03  0.58056202207E+02  0.24003439370E+03  0.31765799402E+03  0.50400001928E-02 0.  1.
</event>
<event>
 5   0  0.7221069E-02  0.6050583E+03  0.7818609E-02  0.9894967E-01
       -1   -1    0    0    0  501  0.00000000000E+00  0.00000000000E+00  0.18317767360E+03  0.18317767367E+03  0.50400001928E-02 0.  1.
        1   -1    0    0  501    0  0.00000000000E+00  0.00000000000E+00 -0.49964536627E+03  0.49964536629E+03  0.50400001928E-02 0. -1.
    10030    2    1    2    0    0  0.00000000000E+00  0.00000000000E+00 -0.31646769267E+03  0.68282303996E+03  0.60505826447E+03 0.  0.
        5    1    3    3  502    0  0.40223897163E+02 -0.24017394682E+02  0.17901750020E+03  0.18510578739E+03  0.46999998093E+01 0.  1.
       -5    1    3    3    0  502 -0.40223897163E+02  0.24017394682E+02 -0.49548519287E+03  0.49771725256E+03  0.46999998093E+01 0. -1.
</event>
<event>
 5   0  0.1175861E-01  0.5975732E+03  0.7818609E-02  0.9910454E-01
       -2   -1    0    0    0  501  0.00000000000E+00  0.00000000000E+00  0.28100977371E+03  0.28100977373E+03  0.25500000920E-02 0.  1.
        2   -1    0    0  501    0  0.00000000000E+00  0.00000000000E+00 -0.31768798772E+03  0.31768798773E+03  0.25500000920E-02 0. -1.
    10030    2    1    2    0    0  0.00000000000E+00  0.00000000000E+00 -0.36678214008E+02  0.59869776146E+03  0.59757319066E+03 0.  0.
        3    1    3    3  502    0 -0.17996120851E+03 -0.58356598037E+02  0.21335762236E+03  0.28515436929E+03  0.10100000352E+00 0.  1.
       -3    1    3    3    0  502  0.17996120851E+03  0.58356598037E+02 -0.25003583637E+03  0.31354339217E+03  0.10100000352E+00 0. -1.
</event>
<event>
 5   0  0.1219020E-01  0.5888567E+03  0.7818609E-02  0.9928798E-01
        2   -1    0    0  501    0  0.00000000000E+00  0.00000000000E+00  0.12982852356E+04  0.12982852356E+04  0.25500000920E-02 0.  1.
       -2   -1    0    0    0  501  0.00000000000E+00  0.00000000000E+00 -0.66771190764E+02  0.66771190812E+02  0.25500000920E-02 0. -1.
    10030    2    1    2    0    0  0.00000000000E+00  0.00000000000E+00  0.12315140448E+04  0.13650564264E+04  0.58885669280E+03 0.  0.
        2    1    3    3  502    0  0.42553885351E+02  0.25795320000E+03  0.92967012879E+03  0.96573145072E+03  0.25500000920E-02 0.  1.
       -2    1    3    3    0  502 -0.42553885351E+02 -0.25795320000E+03  0.30184391603E+03  0.39932497567E+03  0.25500000920E-02 0. -1.
</event>
<event>
 5   0  0.7221069E-02  0.6007942E+03  0.7818609E-02  0.9903760E-01
        1   -1    0    0  501    0  0.00000000000E+00  0.00000000000E+00  0.56348822426E+03  0.56348822428E+03  0.50400001928E-02 0. -1.
       -1   -1    0    0    0  501  0.00000000000E+00  0.00000000000E+00 -0.16014248242E+03  0.16014248250E+03  0.50400001928E-02 0.  1.
    10030    2    1    2    0    0  0.00000000000E+00  0.00000000000E+00  0.40334574184E+03  0.72363070678E+03  0.60079415138E+03 0.  0.
        5    1    3    3  502    0 -0.80591067155E+02  0.34865377186E+02 -0.14429321412E+03  0.16897673293E+03  0.46999998093E+01 0.  1.
       -5    1    3    3    0  502  0.80591067155E+02 -0.34865377186E+02  0.54763895596E+03  0.55465397385E+03  0.46999998093E+01 0. -1.
</event>
<event>
 5   0  0.1175861E-01  0.6016685E+03  0.7818609E-02  0.9901951E-01
        2   -1    0    0  501    0  0.00000000000E+00  0.00000000000E+00  0.22203415118E+04  0.22203415118E+04  0.25500000920E-02 0. -1.
       -2   -1    0    0    0  501  0.00000000000E+00  0.00000000000E+00 -0.40760052135E+02  0.40760052215E+02  0.25500000920E-02 0.  1.
    10030    2    1    2    0    0  0.00000000000E+00  0.00000000000E+00  0.21795814597E+04  0.22611015640E+04  0.60166846641E+03 0.  0.
        3    1    3    3  502    0  0.40824604680E+02 -0.11444400250E+03  0.55560346514E+02  0.13360778556E+03  0.10100000352E+00 0.  1.
       -3    1    3    3    0  502 -0.40824604680E+02  0.11444400250E+03  0.21240211131E+04  0.21274937784E+04  0.10100000352E+00 0. -1.
</event>
<event>
 5   0  0.1166419E-01  0.5847009E+03  0.7818609E-02  0.9937665E-01
       -2   -1    0    0    0  501  0.00000000000E+00  0.00000000000E+00  0.27799372617E+03  0.27799372618E+03  0.25500000920E-02 0. -1.
        2   -1    0    0  501    0  0.00000000000E+00  0.00000000000E+00 -0.30744858371E+03  0.30744858372E+03  0.25500000920E-02 0.  1.
    10030    2    1    2    0    0  0.00000000000E+00  0.00000000000E+00 -0.29454857541E+02  0.58544230990E+03  0.58470087189E+03 0.  0.
        1    1    3    3  502    0  0.39304122939E+02  0.34623996571E+02  0.27325707896E+03  0.27823203705E+03  0.50400001928E-02 0. -1.
       -1    1    3    3    0  502 -0.39304122939E+02 -0.34623996571E+02 -0.30271193650E+03  0.30721027285E+03  0.50400001928E-02 0.  1.
</event>
<event>
 5   0  0.1146468E-01  0.6167754E+03  0.7818609E-02  0.9871201E-01
        2   -1    0    0  501    0  0.00000000000E+00  0.00000000000E+00  0.61364626024E+03  0.61364626025E+03  0.25500000920E-02 0. -1.
       -2   -1    0    0    0  501  0.00000000000E+00  0.00000000000E+00 -0.15498012398E+03  0.15498012400E+03  0.25500000920E-02 0.  1.
    10030    2    1    2    0    0  0.00000000000E+00  0.00000000000E+00  0.45866613626E+03  0.76862638425E+03  0.61677539997E+03 0.  0.
        4    1    3    3  502    0 -0.14906897971E+03 -0.22241982942E+03  0.42000278002E+03  0.49809245061E+03  0.12699999809E+01 0. -1.
       -4    1    3    3    0  502  0.14906897971E+03  0.22241982942E+03  0.38663356241E+02  0.27053393364E+03  0.12699999809E+01 0.  1.
</event>
<event>
 5   0  0.1219020E-01  0.6046707E+03  0.7818609E-02  0.9895763E-01
       -2   -1    0    0    0  501  0.00000000000E+00  0.00000000000E+00  0.58403468281E+02  0.58403468337E+02  0.25500000920E-02 0.  1.
        2   -1    0    0  501    0  0.00000000000E+00  0.00000000000E+00 -0.15650898448E+04  0.15650898448E+04  0.25500000920E-02 0. -1.
    10030    2    1    2    0    0  0.00000000000E+00  0.00000000000E+00 -0.15066863765E+04  0.16234933131E+04  0.60467073735E+03 0.  0.
        2    1    3    3  502    0  0.22456269941E+03  0.12173665993E+03 -0.31909541944E+03  0.40874210335E+03  0.25500000920E-02 0.  1.
       -2    1    3    3    0  502 -0.22456269941E+03 -0.12173665993E+03 -0.11875909570E+04  0.12147512097E+04  0.25500000920E-02 0. -1.
</event>
<event>
 5   0  0.7221069E-02  0.6031748E+03  0.7818609E-02  0.9898841E-01
       -1   -1    0    0    0  501  0.00000000000E+00  0.00000000000E+00  0.22667237638E+03  0.22667237643E+03  0.50400001928E-02 0. -1.
        1   -1    0    0  501    0  0.00000000000E+00  0.00000000000E+00 -0.40126172071E+03  0.40126172074E+03  0.50400001928E-02 0.  1.
    10030    2    1    2    0    0  0.00000000000E+00  0.00000000000E+00 -0.17458934433E+03  0.62793409717E+03  0.60317476011E+03 0.  0.
        5    1    3    3  502    0  0.87001977280E+02  0.77240757908E+02  0.20232898496E+03  0.23344075669E+03  0.46999998093E+01 0. -1.
       -5    1    3    3    0  502 -0.87001977280E+02 -0.77240757908E+02 -0.37691832929E+03  0.39449334048E+03  0.46999998093E+01 0.  1.
</event>
<event>
 5   0  0.1219020E-01  0.5969978E+03  0.7818609E-02  0.9911654E-01
       -2   -1    0    0    0  501  0.00000000000E+00  0.00000000000E+00  0.62052697058E+02  0.62052697110E+02  0.25500000920E-02 0. -1.
        2   -1    0    0  501    0  0.00000000000E+00  0.00000000000E+00 -0.14359019506E+04  0.14359019506E+04  0.25500000920E-02 0.  1.
    10030    2    1    2    0    0  0.00000000000E+00  0.00000000000E+00 -0.13738492536E+04  0.14979546478E+04  0.59699778488E+03 0.  0.
        2    1    3    3  502    0 -0.48751519997E+02  0.27212217459E+03 -0.40444335962E+03  0.48989960171E+03  0.25500000920E-02 0. -1.
       -2    1    3    3    0  502  0.48751519997E+02 -0.27212217459E+03 -0.96940589396E+03  0.10080550460E+04  0.25500000920E-02 0.  1.
</event>
<event>
 5   0  0.7221069E-02  0.5282887E+03  0.7818609E-02  0.1006648E+00
       -1   -1    0    0    0  501  0.00000000000E+00  0.00000000000E+00  0.12691187073E+03  0.12691187083E+03  0.50400001928E-02 0. -1.
        1   -1    0    0  501    0  0.00000000000E+00  0.00000000000E+00 -0.54976923648E+03  0.54976923650E+03  0.50400001928E-02 0.  1.
    10030    2    1    2    0    0  0.00000000000E+00  0.00000000000E+00 -0.42285736575E+03  0.67668110733E+03  0.52828871770E+03 0.  0.
        5    1    3    3  502    0 -0.20431664054E+03  0.26152376920E+01 -0.42575544366E+03  0.47227313800E+03  0.46999998093E+01 0.  1.
       -5    1    3    3    0  502  0.20431664054E+03 -0.26152376920E+01  0.28980779176E+01  0.20440796933E+03  0.46999998093E+01 0. -1.
</event>
<event>
 5   0  0.7123340E-02  0.6067007E+03  0.7818609E-02  0.9891601E-01
        1   -1    0    0  501    0  0.00000000000E+00  0.00000000000E+00  0.10531582291E+04  0.10531582291E+04  0.50400001928E-02 0.  1.
       -1   -1    0    0    0  501  0.00000000000E+00  0.00000000000E+00 -0.87376636939E+02  0.87376637085E+02  0.50400001928E-02 0. -1.
    10030    2    1    2    0    0  0.00000000000E+00  0.00000000000E+00  0.96578159217E+03  0.11405348662E+04  0.60670066529E+03 0.  0.
        2    1    3    3  502    0  0.21634066887E+03 -0.18877958488E+03  0.29888729392E+03  0.41445703173E+03  0.25500000920E-02 0. -1.
       -2    1    3    3    0  502 -0.21634066887E+03  0.18877958488E+03  0.66689429825E+03  0.72607783448E+03  0.25500000920E-02 0.  1.
</event>
<event>
 5   0  0.7123340E-02  0.5974278E+03  0.7818609E-02  0.9910757E-01
       -1   -1    0    0    0  501  0.00000000000E+00  0.00000000000E+00  0.31469895100E+03  0.31469895104E+03  0.50400001928E-02 0. -1.
        1   -1    0    0  501    0  0.00000000000E+00  0.00000000000E+00 -0.28354082383E+03  0.28354082388E+03  0.50400001928E-02 0.  1.
    10030    2    1    2    0    0  0.00000000000E+00  0.00000000000E+00  0.31158127171E+02  0.59823977492E+03  0.59742781941E+03 0.  0.
        2    1    3    3  502    0 -0.27470993391E+03  0.11507883717E+03 -0.72842535918E+01  0.29792909712E+03  0.25500000920E-02 0.  1.
       -2    1    3    3    0  502  0.27470993391E+03 -0.11507883717E+03  0.38442380763E+02  0.30031067780E+03  0.25500000920E-02 0. -1.
</event>
<event>
 5   0  0.7123340E-02  0.5845555E+03  0.7818609E-02  0.9937977E-01
        1   -1    0    0  501    0  0.00000000000E+00  0.00000000000E+00  0.42986326466E+03  0.42986326469E+03  0.50400001928E-02 0. -1.
       -1   -1    0    0    0  501  0.00000000000E+00  0.00000000000E+00 -0.19872900019E+03  0.19872900025E+03  0.50400001928E-02 0.  1.
    10030    2    1    2    0    0  0.00000000000E+00  0.00000000000E+00  0.23113426447E+03  0.62859226494E+03  0.58455554683E+03 0.  0.
        2    1    3    3  502    0  0.28045767181E+03  0.28647745760E+02  0.19850804325E+03  0.34479362270E+03  0.25500000920E-02 0.  1.
       -2    1    3    3    0  502 -0.28045767181E+03 -0.28647745760E+02  0.32626221223E+02  0.28379864224E+03  0.25500000920E-02 0. -1.
</event>
<event>
 5   0  0.1166419E-01  0.5853853E+03  0.7818609E-02  0.9936199E-01
        2   -1    0    0  501    0  0.00000000000E+00  0.00000000000E+00  0.14443420257E+03  0.14443420260E+03  0.25500000920E-02 0. -1.
       -2   -1    0    0    0  501  0.00000000000E+00  0.00000000000E+00 -0.59313510876E+03  0.59313510877E+03  0.25500000920E-02 0.  1.
    10030    2    1    2    0    0  0.00000000000E+00  0.00000000000E+00 -0.44870090619E+03  0.73756931137E+03  0.58538533109E+03 0.  0.
        1    1    3    3  502    0  0.20709592412E+03  0.15762058349E+03 -0.39309281322E+03  0.47143921131E+03  0.50400001928E-02 0.  1.
       -1    1    3    3    0  502 -0.20709592412E+03 -0.15762058349E+03 -0.55608092971E+02  0.26613010006E+03  0.50400001928E-02 0. -1.
</event>
<event>
 5   0  0.1146468E-01  0.6977875E+03  0.7818609E-02  0.9721023E-01
        2   -1    0    0  501    0  0.00000000000E+00  0.00000000000E+00  0.21293803451E+04  0.21293803451E+04  0.25500000920E-02 0. -1.
       -2   -1    0    0    0  501  0.00000000000E+00  0.00000000000E+00 -0.57165380520E+02  0.57165380577E+02  0.25500000920E-02 0.  1.
    10030    2    1    2    0    0  0.00000000000E+00  0.00000000000E+00  0.20722149646E+04  0.21865457257E+04  0.69778746840E+03 0.  0.
        4    1    3    3  502    0  0.15910841796E+03  0.15936101142E+03  0.18711465363E+04  0.18846491434E+04  0.12699999809E+01 0. -1.
       -4    1    3    3    0  502 -0.15910841796E+03 -0.15936101142E+03  0.20106842831E+03  0.30189658228E+03  0.12699999809E+01 0.  1.
</event>
<event>
 5   0  0.7424930E-02  0.5902677E+03  0.7818609E-02  0.9925806E-01
       -1   -1    0    0    0  501  0.00000000000E+00  0.00000000000E+00  0.15088699202E+03  0.15088699211E+03  0.50400001928E-02 0.  1.
        1   -1    0    0  501    0  0.00000000000E+00  0.00000000000E+00 -0.57727965802E+03  0.57727965804E+03  0.50400001928E-02 0. -1.
    10030    2    1    2    0    0  0.00000000000E+00  0.00000000000E+00 -0.42639266600E+03  0.72816665015E+03  0.59026770602E+03 0.  0.
        3    1    3    3  502    0 -0.13216997347E+02 -0.19442058413E+02  0.14973006188E+03  0.15156445588E+03  0.10100000352E+00 0.  1.
       -3    1    3    3    0  502  0.13216997347E+02  0.19442058413E+02 -0.57612272788E+03  0.57660219427E+03  0.10100000352E+00 0. -1.
</event>
<event>
 5   0  0.1175861E-01  0.5959148E+03  0.7818609E-02  0.9913918E-01
       -2   -1    0    0    0  501  0.00000000000E+00  0.00000000000E+00  0.30495704910E+03  0.30495704911E+03  0.25500000920E-02 0. -1.
        2   -1    0    0  501    0  0.00000000000E+00  0.00000000000E+00 -0.29111839197E+03  0.29111839198E+03  0.25500000920E-02 0.  1.
    10030    2    1    2    0    0  0.00000000000E+00  0.00000000000E+00  0.13838657125E+02  0.59607544109E+03  0.59591477834E+03 0.  0.
        3    1    3    3  502    0  0.28595291520E+03 -0.36575448337E+02  0.82250737217E+02  0.29978663597E+03  0.10100000352E+00 0.  1.
       -3    1    3    3    0  502 -0.28595291520E+03  0.36575448337E+02 -0.68412080092E+02  0.29628880512E+03  0.10100000352E+00 0. -1.
</event>
<event>
 5   0  0.7424930E-02  0.6001973E+03  0.7818609E-02  0.9904997E-01
        1   -1    0    0  501    0  0.00000000000E+00  0.00000000000E+00  0.23817341480E+03  0.23817341485E+03  0.50400001928E-02 0. -1.
       -1   -1    0    0    0  501  0.00000000000E+00  0.00000000000E+00 -0.37812451914E+03  0.37812451917E+03  0.50400001928E-02 0.  1.
    10030    2    1    2    0    0  0.00000000000E+00  0.00000000000E+00 -0.13995110434E+03  0.61629793403E+03  0.60019732745E+03 0.  0.
        3    1    3    3  502    0 -0.15524077608E+03 -0.14938566083E+03  0.14453865473E+03  0.25943632578E+03  0.10100000352E+00 0. -1.
       -3    1    3    3    0  502  0.15524077608E+03  0.14938566083E+03 -0.28448975908E+03  0.35686160825E+03  0.10100000352E+00 0.  1.
</event>
<event>
 5   0  0.7123340E-02  0.5676245E+03  0.7818609E-02  0.9974949E-01
        1   -1    0    0  501    0  0.00000000000E+00  0.00000000000E+00  0.88591867644E+03  0.88591867646E+03  0.50400001928E-02 0. -1.
       -1   -1    0    0    0  501  0.00000000000E+00  0.00000000000E+00 -0.90921870208E+02  0.90921870347E+02  0.50400001928E-02 0.  1.
    10030    2    1    2    0    0  0.00000000000E+00  0.00000000000E+00  0.79499680624E+03  0.97684054681E+03  0.56762446385E+03 0.  0.
        2    1    3    3  502    0  0.16675550873E+03 -0.18670611219E+03  0.16736457261E+03  0.30112700342E+03  0.25500000920E-02 0.  1.
       -2    1    3    3    0  502 -0.16675550873E+03  0.18670611219E+03  0.62763223363E+03  0.67571354338E+03  0.25500000920E-02 0. -1.
</event>
<event>
 5   0  0.1219020E-01  0.5973715E+03  0.7818609E-02  0.9910874E-01
       -2   -1    0    0    0  501  0.00000000000E+00  0.00000000000E+00  0.46855873343E+02  0.46855873413E+02  0.25500000920E-02 0.  1.
        2   -1    0    0  501    0  0.00000000000E+00  0.00000000000E+00 -0.19039913388E+04  0.19039913388E+04  0.25500000920E-02 0. -1.
    10030    2    1    2    0    0  0.00000000000E+00  0.00000000000E+00 -0.18571354654E+04  0.19508472122E+04  0.59737149944E+03 0.  0.
        2    1    3    3  502    0  0.89225451699E+02 -0.17882587309E+03 -0.16534785768E+04  0.16655123170E+04  0.25500000920E-02 0. -1.
       -2    1    3    3    0  502 -0.89225451699E+02  0.17882587309E+03 -0.20365688861E+03  0.28533489517E+03  0.25500000920E-02 0.  1.
</event>
<event>
 5   0  0.7221069E-02  0.6119198E+03  0.7818609E-02  0.9880980E-01
       -1   -1    0    0    0  501  0.00000000000E+00  0.00000000000E+00  0.32206700116E+03  0.32206700120E+03  0.50400001928E-02 0.  1.
        1   -1    0    0  501    0  0.00000000000E+00  0.00000000000E+00 -0.29065834644E+03  0.29065834648E+03  0.50400001928E-02 0. -1.
    10030    2    1    2    0    0  0.00000000000E+00  0.00000000000E+00  0.31408654717E+02  0.61272534768E+03  0.61191980528E+03 0.  0.
        5    1    3    3  502    0  0.78407566138E+01 -0.30491141666E+03 -0.79259457143E+01  0.30515137241E+03  0.46999998093E+01 0.  1.
       -5    1    3    3    0  502 -0.78407566138E+01  0.30491141666E+03  0.39334600431E+02  0.30757397527E+03  0.46999998093E+01 0. -1.
</event>
<event>
 5   0  0.7263385E-02  0.6021565E+03  0.7818609E-02  0.9900942E-01
       -1   -1    0    0    0  501  0.00000000000E+00  0.00000000000E+00  0.59055185252E+03  0.59055185254E+03  0.50400001928E-02 0. -1.
        1   -1    0    0  501    0  0.00000000000E+00  0.00000000000E+00 -0.15349729861E+03  0.15349729869E+03  0.50400001928E-02 0.  1.
    10030    2    1    2    0    0  0.00000000000E+00  0.00000000000E+00  0.43705455391E+03  0.74404915123E+03  0.60215650487E+03 0.  0.
        1    1    3    3  502    0 -0.24312093093E+03 -0.16725607804E+03  0.29231201745E+03  0.41536574037E+03  0.50400001928E-02 0. -1.
       -1    1    3    3    0  502  0.24312093093E+03  0.16725607804E+03  0.14474253646E+03  0.32868341087E+03  0.50400001928E-02 0.  1.
</event>
<event>
 5   0  0.1146468E-01  0.5771381E+03  0.7818609E-02  0.9954006E-01
       -2   -1    0    0    0  501  0.00000000000E+00  0.00000000000E+00  0.40184127984E+03  0.40184127985E+03  0.25500000920E-02 0. -1.
        2   -1    0    0  501    0  0.00000000000E+00  0.00000000000E+00 -0.20722637312E+03  0.20722637313E+03  0.25500000920E-02 0.  1.
    10030    2    1    2    0    0  0.00000000000E+00  0.00000000000E+00  0.19461490673E+03  0.60906765298E+03  0.57713814983E+03 0.  0.
        4    1    3    3  502    0  0.17022509763E+03  0.52964365922E+02  0.33677224822E+03  0.38104982350E+03  0.12699999809E+01 0. -1.
       -4    1    3    3    0  502 -0.17022509763E+03 -0.52964365922E+02 -0.14215734150E+03  0.22801782948E+03  0.12699999809E+01 0.  1.
</event>
<event>
 5   0  0.7263385E-02  0.6138472E+03  0.7818609E-02  0.9877087E-01
       -1   -1    0    0    0  501  0.00000000000E+00  0.00000000000E+00  0.22124874769E+03  0.22124874774E+03  0.50400001928E-02 0. -1.
        1   -1    0    0  501    0  0.00000000000E+00  0.00000000000E+00 -0.42577454451E+03  0.42577454454E+03  0.50400001928E-02 0.  1.
    10030    2    1    2    0    0  0.00000000000E+00  0.00000000000E+00 -0.20452579683E+03  0.64702329229E+03  0.61384716273E+03 0.  0.
        1    1    3    3  502    0 -0.25332632233E+03 -0.15419398527E+03 -0.18919401131E+02  0.29716654328E+03  0.50400001928E-02 0.  1.
       -1    1    3    3    0  502  0.25332632233E+03  0.15419398527E+03 -0.18560639570E+03  0.34985674901E+03  0.50400001928E-02 0. -1.
</event>
<event>
 5   0  0.1146468E-01  0.5877625E+03  0.7818609E-02  0.9931125E-01
       -2   -1    0    0    0  501  0.00000000000E+00  0.00000000000E+00  0.30600782433E+03  0.30600782434E+03  0.25500000920E-02 0. -1.
        2   -1    0    0  501    0  0.00000000000E+00  0.00000000000E+00 -0.28223526925E+03  0.28223526926E+03  0.25500000920E-02 0.  1.
    10030    2    1    2    0    0  0.00000000000E+00  0.00000000000E+00  0.23772555080E+02  0.58824309360E+03  0.58776253946E+03 0.  0.
        4    1    3    3  502    0  0.91560234593E+02  0.24140016611E+03  0.15238364233E+03  0.29979943980E+03  0.12699999809E+01 0. -1.
       -4    1    3    3    0  502 -0.91560234593E+02 -0.24140016611E+03 -0.12861108725E+03  0.28844365380E+03  0.12699999809E+01 0.  1.
</event>
<event>
 5   0  0.1206238E-01  0.4562615E+03  0.7818609E-02  0.1025871E+00
       -2   -1    0    0    0  501  0.00000000000E+00  0.00000000000E+00  0.73433847538E+03  0.73433847538E+03  0.25500000920E-02 0. -1.
        2   -1    0    0  501    0  0.00000000000E+00  0.00000000000E+00 -0.70871469363E+02  0.70871469409E+02  0.25500000920E-02 0.  1.
    10030    2    1    2    0    0  0.00000000000E+00  0.00000000000E+00  0.66346700602E+03  0.80520994479E+03  0.45626153369E+03 0.  0.
        5    1    3    3  502    0  0.15311544993E+02 -0.24434664245E+01 -0.69854832384E+02  0.71709145468E+02  0.46999998093E+01 0.  1.
       -5    1    3    3    0  502 -0.15311544993E+02  0.24434664245E+01  0.73332183840E+03  0.73350079932E+03  0.46999998093E+01 0. -1.
</event>
<event>
 5   0  0.7266519E-02  0.6041484E+03  0.7818609E-02  0.9896837E-01
       -1   -1    0    0    0  501  0.00000000000E+00  0.00000000000E+00  0.11823171281E+03  0.11823171292E+03  0.50400001928E-02 0. -1.
        1   -1    0    0  501    0  0.00000000000E+00  0.00000000000E+00 -0.77177946956E+03  0.77177946958E+03  0.50400001928E-02 0.  1.
    10030    2    1    2    0    0  0.00000000000E+00  0.00000000000E+00 -0.65354775675E+03  0.89001118250E+03  0.60414835482E+03 0.  0.
        4    1    3    3  502    0  0.13865593753E+03 -0.33091599369E+02  0.65560766432E+02  0.15690873129E+03  0.12699999809E+01 0. -1.
       -4    1    3    3    0  502 -0.13865593753E+03  0.33091599369E+02 -0.71910852318E+03  0.73310245121E+03  0.12699999809E+01 0.  1.
</event>
<event>
 5   0  0.1206238E-01  0.5975940E+03  0.7818609E-02  0.9910410E-01
        2   -1    0    0  501    0  0.00000000000E+00  0.00000000000E+00  0.11814901936E+04  0.11814901936E+04  0.25500000920E-02 0. -1.
       -2   -1    0    0    0  501  0.00000000000E+00  0.00000000000E+00 -0.75565281555E+02  0.75565281598E+02  0.25500000920E-02 0.  1.
    10030    2    1    2    0    0  0.00000000000E+00  0.00000000000E+00  0.11059249120E+04  0.12570554752E+04  0.59759397307E+03 0.  0.
        5    1    3    3  502    0 -0.70118229199E+02  0.14930024774E+03  0.10769495555E+04  0.10895180426E+04  0.46999998093E+01 0. -1.
       -5    1    3    3    0  502  0.70118229199E+02 -0.14930024774E+03  0.28975356546E+02  0.16753743261E+03  0.46999998093E+01 0.  1.
</event>
<event>
 5   0  0.4695625E-02  0.5897280E+03  0.7818609E-02  0.9926949E-01
       -4   -1    0    0    0  501  0.00000000000E+00  0.00000000000E+00  0.29190878845E+03  0.29191155112E+03  0.12699999809E+01 0.  1.
        4   -1    0    0  501    0  0.00000000000E+00  0.00000000000E+00 -0.29784363298E+03  0.29784634059E+03  0.12699999809E+01 0. -1.
    10030    2    1    2    0    0  0.00000000000E+00  0.00000000000E+00 -0.59348445248E+01  0.58975789171E+03  0.58972802922E+03 0.  0.
        1    1    3    3  502    0 -0.20664892580E+03 -0.19760488416E+03  0.69100908364E+02  0.29415370870E+03  0.50400001928E-02 0.  1.
       -1    1    3    3    0  502  0.20664892580E+03  0.19760488416E+03 -0.75035752888E+02  0.29560418301E+03  0.50400001928E-02 0. -1.
</event>
<event>
 5   0  0.1219020E-01  0.5988070E+03  0.7818609E-02  0.9907884E-01
        2   -1    0    0  501    0  0.00000000000E+00  0.00000000000E+00  0.31172321868E+03  0.31172321869E+03  0.25500000920E-02 0.  1.
       -2   -1    0    0    0  501  0.00000000000E+00  0.00000000000E+00 -0.28757070815E+03  0.28757070816E+03  0.25500000920E-02 0. -1.
    10030    2    1    2    0    0  0.00000000000E+00  0.00000000000E+00  0.24152510526E+02  0.59929392685E+03  0.59880703653E+03 0.  0.
        2    1    3    3  502    0  0.17175110373E+03 -0.21515981609E+02 -0.23241951270E+03  0.28979339017E+03  0.25500000920E-02 0. -1.
       -2    1    3    3    0  502 -0.17175110373E+03  0.21515981609E+02  0.25657202322E+03  0.30950053668E+03  0.25500000920E-02 0.  1.
</event>
<event>
 5   0  0.7424930E-02  0.5982313E+03  0.7818609E-02  0.9909082E-01
       -1   -1    0    0    0  501  0.00000000000E+00  0.00000000000E+00  0.29962459016E+03  0.29962459021E+03  0.50400001928E-02 0. -1.
        1   -1    0    0  501    0  0.00000000000E+00  0.00000000000E+00 -0.29860752935E+03  0.29860752939E+03  0.50400001928E-02 0.  1.
    10030    2    1    2    0    0  0.00000000000E+00  0.00000000000E+00  0.10170608177E+01  0.59823211959E+03  0.59823125503E+03 0.  0.
        3    1    3    3  502    0 -0.10865991707E+03 -0.19862373951E+03 -0.19497009092E+03  0.29878372450E+03  0.10100000352E+00 0.  1.
       -3    1    3    3    0  502  0.10865991707E+03  0.19862373951E+03  0.19598715174E+03  0.29944839509E+03  0.10100000352E+00 0. -1.
</event>
</LesHouchesEvents>
