<LesHouchesEvents version="3.0">
<header>
<!--
#*********************************************************************
#                                                                    *
#                        MadGraph5_aMC@NLO                           *
#                                                                    *
#                           Going Beyond                             *
#                                                                    *
#                   http://madgraph.hep.uiuc.edu                     *
#                   http://madgraph.phys.ucl.ac.be                   *
#                   http://amcatnlo.cern.ch                          *
#                                                                    *
#                     The MadGraph5_aMC@NLO team                     *
#                                                                    *
#....................................................................*
#                                                                    *
# This file contains all the information necessary to reproduce      *
# the events generated:                                              *
#                                                                    *
# 1. software version                                                *
# 2. proc_card          : code generation info including model       *
# 3. param_card         : model primary parameters in the LH format  *
# 4. run_card           : running parameters (collider and cuts)     *
# 5. pythia_card        : present only if pythia has been run        *
# 6. pgs_card           : present only if pgs has been run           *
# 7. delphes_cards      : present only if delphes has been run       *
#                                                                    *
#                                                                    *
#*********************************************************************
-->
<MGVersion>
#5.2.2.3
</MGVersion>
<MG5ProcCard>
#************************************************************
#*                     MadGraph5_aMC@NLO                    *
#*                                                          *
#*                *                       *                 *
#*                  *        * *        *                   *
#*                    * * * * 5 * * * *                     *
#*                  *        * *        *                   *
#*                *                       *                 *
#*                                                          *
#*                                                          *
#*         VERSION 2.2.3                 2015-02-10         *
#*                                                          *
#*    The MadGraph5_aMC@NLO Development Team - Find us at   *
#*    https://server06.fynu.ucl.ac.be/projects/madgraph     *
#*                                                          *
#************************************************************
#*                                                          *
#*               Command File for MadGraph5_aMC@NLO         *
#*                                                          *
#*     run as ./bin/mg5_aMC  filename                       *
#*                                                          *
#************************************************************
set group_subprocesses Auto
set ignore_six_quark_processes False
set loop_optimized_output True
set gauge unitary
set complex_mass_scheme False
import model sm
define p = g u c d s u~ c~ d~ s~
define j = g u c d s u~ c~ d~ s~
define l+ = e+ mu+
define l- = e- mu-
define vl = ve vm vt
define vl~ = ve~ vm~ vt~
import model Zprime_UFO
generate p p > zph, zph > j j
add process p p > zph, zph > b b~
output Dijet_signal
</MG5ProcCard>
<MGProcCard>
#*********************************************************************
#                        MadGraph/MadEvent                           *
#                   http://madgraph.hep.uiuc.edu                     *
#                                                                    *
#                          proc_card.dat                             *
#*********************************************************************
#                                                                    *
#            This Files is generated by MADGRAPH 5                   *
#                                                                    *
# WARNING: This Files is generated for MADEVENT (compatibility issue)*
#          This files is NOT a valid MG4 proc_card.dat               *
#          Running this in MG4 will NEVER reproduce the result of MG5*
#                                                                    *
#*********************************************************************
#*********************************************************************
# Process(es) requested : mg2 input                                  *
#*********************************************************************
# Begin PROCESS # This is TAG. Do not modify this line
p p > zph , zph > j j           #Process
# Be carefull the coupling are here in MG5 convention
          
end_coup           # End the couplings input

done               # this tells MG there are no more procs
# End PROCESS  # This is TAG. Do not modify this line
#*********************************************************************
# Model information                                                  *
#*********************************************************************
# Begin MODEL  # This is TAG. Do not modify this line
Zprime_UFO
# End   MODEL  # This is TAG. Do not modify this line
#*********************************************************************
# Start multiparticle definitions                                    *
#*********************************************************************
# Begin MULTIPARTICLES # This is TAG. Do not modify this line

# End  MULTIPARTICLES # This is TAG. Do not modify this line
</MGProcCard>
<MGRunCard>
#*********************************************************************
#                       MadGraph5_aMC@NLO                            *
#                                                                    *
#                     run_card.dat MadEvent                          *
#                                                                    *
#  This file is used to set the parameters of the run.               *
#                                                                    *
#  Some notation/conventions:                                        *
#                                                                    *
#   Lines starting with a '# ' are info or comments                  *
#                                                                    *
#   mind the format:   value    = variable     ! comment             *
#*********************************************************************
#
#*******************                                                 
# Running parameters
#*******************                                                 
#                                                                    
#*********************************************************************
# Tag name for the run (one word)                                    *
#*********************************************************************
  tag_1     = run_tag ! name of the run 
#*********************************************************************
# Run to generate the grid pack                                      *
#*********************************************************************
  .false.     = gridpack  !True = setting up the grid pack
#*********************************************************************
# Number of events and rnd seed                                      *
# Warning: Do not generate more than 1M events in a single run       *
# If you want to run Pythia, avoid more than 50k events in a run.    *
#*********************************************************************
  2000 = nevents ! Number of unweighted events requested 
 2100 = iseed   ! rnd seed (0=assigned automatically=default))
#*********************************************************************
# Collider type and energy                                           *
# lpp: 0=No PDF, 1=proton, -1=antiproton, 2=photon from proton,      *
#                                         3=photon from electron     *
#*********************************************************************
        1     = lpp1    ! beam 1 type 
        1     = lpp2    ! beam 2 type
     4000     = ebeam1  ! beam 1 total energy in GeV
     4000     = ebeam2  ! beam 2 total energy in GeV
#*********************************************************************
# Beam polarization from -100 (left-handed) to 100 (right-handed)    *
#*********************************************************************
        0     = polbeam1 ! beam polarization for beam 1
        0     = polbeam2 ! beam polarization for beam 2
#*********************************************************************
# PDF CHOICE: this automatically fixes also alpha_s and its evol.    *
#*********************************************************************
 'nn23lo1'    = pdlabel     ! PDF set                                     
 230000    = lhaid     ! if pdlabel=lhapdf, this is the lhapdf number
#*********************************************************************
# Renormalization and factorization scales                           *
#*********************************************************************
 F        = fixed_ren_scale  ! if .true. use fixed ren scale
 F        = fixed_fac_scale  ! if .true. use fixed fac scale
 91.1880  = scale            ! fixed ren scale
 91.1880  = dsqrt_q2fact1    ! fixed fact scale for pdf1
 91.1880  = dsqrt_q2fact2    ! fixed fact scale for pdf2
 1        = scalefact        ! scale factor for event-by-event scales
#*********************************************************************
# Matching - Warning! ickkw > 1 is still beta
#*********************************************************************
 0        = ickkw            ! 0 no matching, 1 MLM, 2 CKKW matching
 1        = highestmult      ! for ickkw=2, highest mult group
 1        = ktscheme         ! for ickkw=1, 1 Durham kT, 2 Pythia pTE
 1        = alpsfact         ! scale factor for QCD emission vx
 F        = chcluster        ! cluster only according to channel diag
 T        = pdfwgt           ! for ickkw=1, perform pdf reweighting
 5        = asrwgtflavor     ! highest quark flavor for a_s reweight
 T        = clusinfo         ! include clustering tag in output
 3.0      = lhe_version       ! Change the way clustering information pass to shower.        
#*********************************************************************
#**********************************************************
#
#**********************************************************
# Automatic ptj and mjj cuts if xqcut > 0
# (turn off for VBF and single top processes)
#**********************************************************
   T  = auto_ptj_mjj  ! Automatic setting of ptj and mjj
#**********************************************************
#                                                                    
#**********************************
# BW cutoff (M+/-bwcutoff*Gamma)
#**********************************
  15  = bwcutoff      ! (M+/-bwcutoff*Gamma)
#**********************************************************
# Apply pt/E/eta/dr/mij cuts on decay products or not
# (note that etmiss/ptll/ptheavy/ht/sorted cuts always apply)
#**********************************************************
   T  = cut_decays    ! Cut decay products 
#*************************************************************
# Number of helicities to sum per event (0 = all helicities)
# 0 gives more stable result, but longer run time (needed for
# long decay chains e.g.).
# Use >=2 if most helicities contribute, e.g. pure QCD.
#*************************************************************
   0  = nhel          ! Number of helicities used per event
#*******************                                                 
# Standard Cuts
#*******************                                                 
#                                                                    
#*********************************************************************
# Minimum and maximum pt's (for max, -1 means no cut)                *
#*********************************************************************
 20  = ptj       ! minimum pt for the jets 
  0  = ptb       ! minimum pt for the b 
 10  = pta       ! minimum pt for the photons 
 10  = ptl       ! minimum pt for the charged leptons 
  0  = misset    ! minimum missing Et (sum of neutrino's momenta)
  0  = ptheavy   ! minimum pt for one heavy final state
 1.0 = ptonium   ! minimum pt for the quarkonium states
 -1  = ptjmax    ! maximum pt for the jets
 -1  = ptbmax    ! maximum pt for the b
 -1  = ptamax    ! maximum pt for the photons
 -1  = ptlmax    ! maximum pt for the charged leptons
 -1  = missetmax ! maximum missing Et (sum of neutrino's momenta)
#*********************************************************************
# Minimum and maximum E's (in the center of mass frame)              *
#*********************************************************************
  0  = ej     ! minimum E for the jets 
  0  = eb     ! minimum E for the b 
  0  = ea     ! minimum E for the photons 
  0  = el     ! minimum E for the charged leptons 
 -1   = ejmax ! maximum E for the jets
 -1   = ebmax ! maximum E for the b
 -1   = eamax ! maximum E for the photons
 -1   = elmax ! maximum E for the charged leptons
#*********************************************************************
# Maximum and minimum absolute rapidity (for max, -1 means no cut)   *
#*********************************************************************
   5  = etaj    ! max rap for the jets 
  -1  = etab    ! max rap for the b
 2.5  = etaa    ! max rap for the photons 
 2.5  = etal    ! max rap for the charged leptons 
 0.6  = etaonium ! max rap for the quarkonium states
   0  = etajmin ! min rap for the jets
   0  = etabmin ! min rap for the b
   0  = etaamin ! min rap for the photons
   0  = etalmin ! main rap for the charged leptons
#*********************************************************************
# Minimum and maximum DeltaR distance                                *
#*********************************************************************
 0.4 = drjj    ! min distance between jets 
 0   = drbb    ! min distance between b's 
 0.4 = drll    ! min distance between leptons 
 0.4 = draa    ! min distance between gammas 
 0   = drbj    ! min distance between b and jet 
 0.4 = draj    ! min distance between gamma and jet 
 0.4 = drjl    ! min distance between jet and lepton 
 0   = drab    ! min distance between gamma and b 
 0   = drbl    ! min distance between b and lepton 
 0.4 = dral    ! min distance between gamma and lepton 
 -1  = drjjmax ! max distance between jets
 -1  = drbbmax ! max distance between b's
 -1  = drllmax ! max distance between leptons
 -1  = draamax ! max distance between gammas
 -1  = drbjmax ! max distance between b and jet
 -1  = drajmax ! max distance between gamma and jet
 -1  = drjlmax ! max distance between jet and lepton
 -1  = drabmax ! max distance between gamma and b
 -1  = drblmax ! max distance between b and lepton
 -1  = dralmax ! maxdistance between gamma and lepton
#*********************************************************************
# Minimum and maximum invariant mass for pairs                       *
# WARNING: for four lepton final state mmll cut require to have      *
#          different lepton masses for each flavor!                  *           
#*********************************************************************
 0   = mmjj    ! min invariant mass of a jet pair 
 0   = mmbb    ! min invariant mass of a b pair 
 0   = mmaa    ! min invariant mass of gamma gamma pair
 0   = mmll    ! min invariant mass of l+l- (same flavour) lepton pair
 -1  = mmjjmax ! max invariant mass of a jet pair
 -1  = mmbbmax ! max invariant mass of a b pair
 -1  = mmaamax ! max invariant mass of gamma gamma pair
 -1  = mmllmax ! max invariant mass of l+l- (same flavour) lepton pair
#*********************************************************************
# Minimum and maximum invariant mass for all letpons                 *
#*********************************************************************
 0   = mmnl    ! min invariant mass for all letpons (l+- and vl) 
 -1  = mmnlmax ! max invariant mass for all letpons (l+- and vl) 
#*********************************************************************
# Minimum and maximum pt for 4-momenta sum of leptons                *
#*********************************************************************
 0   = ptllmin  ! Minimum pt for 4-momenta sum of leptons(l and vl)
 -1  = ptllmax  ! Maximum pt for 4-momenta sum of leptons(l and vl)
#*********************************************************************
# Inclusive cuts                                                     *
#*********************************************************************
 0  = xptj ! minimum pt for at least one jet  
 0  = xptb ! minimum pt for at least one b 
 0  = xpta ! minimum pt for at least one photon 
 0  = xptl ! minimum pt for at least one charged lepton 
#*********************************************************************
# Control the pt's of the jets sorted by pt                          *
#*********************************************************************
 0   = ptj1min ! minimum pt for the leading jet in pt
 0   = ptj2min ! minimum pt for the second jet in pt
 0   = ptj3min ! minimum pt for the third jet in pt
 0   = ptj4min ! minimum pt for the fourth jet in pt
 -1  = ptj1max ! maximum pt for the leading jet in pt 
 -1  = ptj2max ! maximum pt for the second jet in pt
 -1  = ptj3max ! maximum pt for the third jet in pt
 -1  = ptj4max ! maximum pt for the fourth jet in pt
 0   = cutuse  ! reject event if fails any (0) / all (1) jet pt cuts
#*********************************************************************
# Control the pt's of leptons sorted by pt                           *
#*********************************************************************
 0   = ptl1min ! minimum pt for the leading lepton in pt
 0   = ptl2min ! minimum pt for the second lepton in pt
 0   = ptl3min ! minimum pt for the third lepton in pt
 0   = ptl4min ! minimum pt for the fourth lepton in pt
 -1  = ptl1max ! maximum pt for the leading lepton in pt 
 -1  = ptl2max ! maximum pt for the second lepton in pt
 -1  = ptl3max ! maximum pt for the third lepton in pt
 -1  = ptl4max ! maximum pt for the fourth lepton in pt
#*********************************************************************
# Control the Ht(k)=Sum of k leading jets                            *
#*********************************************************************
 0   = htjmin ! minimum jet HT=Sum(jet pt)
 -1  = htjmax ! maximum jet HT=Sum(jet pt)
 0   = ihtmin  !inclusive Ht for all partons (including b)
 -1  = ihtmax  !inclusive Ht for all partons (including b)
 0   = ht2min ! minimum Ht for the two leading jets
 0   = ht3min ! minimum Ht for the three leading jets
 0   = ht4min ! minimum Ht for the four leading jets
 -1  = ht2max ! maximum Ht for the two leading jets
 -1  = ht3max ! maximum Ht for the three leading jets
 -1  = ht4max ! maximum Ht for the four leading jets
#***********************************************************************
# Photon-isolation cuts, according to hep-ph/9801442                   *
# When ptgmin=0, all the other parameters are ignored                  *
# When ptgmin>0, pta and draj are not going to be used                 *
#***********************************************************************
   0 = ptgmin ! Min photon transverse momentum
 0.4 = R0gamma ! Radius of isolation code
 1.0 = xn ! n parameter of eq.(3.4) in hep-ph/9801442
 1.0 = epsgamma ! epsilon_gamma parameter of eq.(3.4) in hep-ph/9801442
 .true. = isoEM ! isolate photons from EM energy (photons and leptons)
#*********************************************************************
# WBF cuts                                                           *
#*********************************************************************
 0   = xetamin ! minimum rapidity for two jets in the WBF case  
 0   = deltaeta ! minimum rapidity for two jets in the WBF case 
#*********************************************************************
# KT DURHAM CUT                                                      *
#*********************************************************************
 -1    =  ktdurham        
 0.4  =  dparameter 
#*********************************************************************
# maximal pdg code for quark to be considered as a light jet         *
# (otherwise b cuts are applied)                                     *
#*********************************************************************
 4 = maxjetflavor    ! Maximum jet pdg code
#*********************************************************************
# Jet measure cuts                                                   *
#*********************************************************************
 0   = xqcut   ! minimum kt jet measure between partons
#*********************************************************************
#
#*********************************************************************
# Store info for systematics studies                                 *
# WARNING: If use_syst is T, matched Pythia output is                *
#          meaningful ONLY if plotted taking matchscale              *
#          reweighting into account!                                 *
#*********************************************************************
   F  = use_syst      ! Enable systematics studies
#
#**************************************
# Parameter of the systematics study
#  will be used by SysCalc (if installed)
#**************************************                                  
#
0.5 1 2 = sys_scalefact  # factorization/renormalization scale factor
0.5 1 2 = sys_alpsfact  # \alpha_s emission scale factors
30 50 = sys_matchscale # variation of merging scale
# PDF sets and number of members (0 or none for all members).
CT10nlo.LHgrid = sys_pdf # matching scales
# MSTW2008nlo68cl.LHgrid 1  = sys_pdf
</MGRunCard>
<slha>
######################################################################
## PARAM_CARD AUTOMATICALY GENERATED BY MG5 FOLLOWING UFO MODEL   ####
######################################################################
##                                                                  ##
##  Width set on Auto will be computed following the information    ##
##        present in the decay.py files of the model.               ##
##        See  arXiv:1402.1178 for more details.                    ##
##                                                                  ##
######################################################################

###################################
## INFORMATION FOR CKMBLOCK
###################################
Block ckmblock 
    1 2.277360e-01 # cabi 

###################################
## INFORMATION FOR FRBLOCK
###################################
Block frblock 
    1 1.000000e+00 # gz 

###################################
## INFORMATION FOR MASS
###################################
Block mass 
    1 5.040000e-03 # MD 
    2 2.550000e-03 # MU 
    3 1.010000e-01 # MS 
    4 1.270000e+00 # MC 
    5 4.700000e+00 # MB 
    6 1.720000e+02 # MT 
   11 5.110000e-04 # Me 
   13 1.056600e-01 # MM 
   15 1.777000e+00 # MTA 
   23 9.118760e+01 # MZ 
   25 1.200000e+02 # MH 
  10030 3.900000e+03 # MZph 
  10031 3.000000e+02 # MZpl 
## Dependent parameters, given by model restrictions.
## Those values should be edited following the 
## analytical expression. MG5 ignores those values 
## but they are important for interfacing the output of MG5
## to external program such as Pythia.
  12 0.000000 # ve : 0.0 
  14 0.000000 # vm : 0.0 
  16 0.000000 # vt : 0.0 
  21 0.000000 # g : 0.0 
  22 0.000000 # a : 0.0 
  24 79.824360 # w+ : cmath.sqrt(MZ__exp__2/2. + cmath.sqrt(MZ__exp__4/4. - (aEW*cmath.pi*MZ__exp__2)/(Gf*sqrt__2))) 

###################################
## INFORMATION FOR SMINPUTS
###################################
Block sminputs 
    1 1.279000e+02 # aEWM1 
    2 1.166370e-05 # Gf 
    3 1.184000e-01 # aS 

###################################
## INFORMATION FOR YUKAWA
###################################
Block yukawa 
    1 5.040000e-03 # ymdo 
    2 2.550000e-03 # ymup 
    3 1.010000e-01 # yms 
    4 1.270000e+00 # ymc 
    5 4.700000e+00 # ymb 
    6 1.720000e+02 # ymt 
   11 5.110000e-04 # yme 
   13 1.056600e-01 # ymm 
   15 1.777000e+00 # ymtau 

###################################
## INFORMATION FOR DECAY
###################################
DECAY   6 1.508336e+00 # WT 
DECAY  23 2.495200e+00 # WZ 
DECAY  24 2.085000e+00 # WW 
DECAY  25 5.753088e-03 # WH 
## Dependent parameters, given by model restrictions.
## Those values should be edited following the 
## analytical expression. MG5 ignores those values 
## but they are important for interfacing the output of MG5
## to external program such as Pythia.
DECAY  1 0.000000 # d : 0.0 
DECAY  2 0.000000 # u : 0.0 
DECAY  3 0.000000 # s : 0.0 
DECAY  4 0.000000 # c : 0.0 
DECAY  5 0.000000 # b : 0.0 
DECAY  11 0.000000 # e- : 0.0 
DECAY  12 0.000000 # ve : 0.0 
DECAY  13 0.000000 # mu- : 0.0 
DECAY  14 0.000000 # vm : 0.0 
DECAY  15 0.000000 # ta- : 0.0 
DECAY  16 0.000000 # vt : 0.0 
DECAY  21 0.000000 # g : 0.0 
DECAY  22 0.000000 # a : 0.0 
DECAY  10030 0.308725 # zph : (gz__exp__2*MZph*(5 + cmath.sqrt(1 - (4*MT__exp__2)/MZph__exp__2)))/(144.*cmath.pi) 
DECAY  10031 0.132629 # zpl : (5*gz__exp__2*MZpl)/(144.*cmath.pi) 
#===========================================================
# QUANTUM NUMBERS OF NEW STATE(S) (NON SM PDG CODE)
#===========================================================

Block QNUMBERS 10030  # zph 
        1 0  # 3 times electric charge
        2 3  # number of spin states (2S+1)
        3 1  # colour rep (1: singlet, 3: triplet, 8: octet)
        4 0  # Particle/Antiparticle distinction (0=own anti)
Block QNUMBERS 10031  # zpl 
        1 0  # 3 times electric charge
        2 3  # number of spin states (2S+1)
        3 1  # colour rep (1: singlet, 3: triplet, 8: octet)
        4 0  # Particle/Antiparticle distinction (0=own anti)
</slha>
## END BANNER##
<MGGenerationInfo>
#  Number of Events        :         3836
#  Integrated weight (pb)  :  0.61406E-04
#  Max wgt                 :  0.24863E-07
#  Average wgt             :  0.16008E-07
</MGGenerationInfo>
</header>
<init>
     2212     2212  0.40000000000E+04  0.40000000000E+04 0 0  247000  247000 2   1
  0.61462299806E-04  0.12179156174E-06  0.24862680000E-07   0
</init>
<event>
 5   0  0.2446281E-07  0.3988909E+04  0.7818609E-02  0.8006788E-01
       -2   -1    0    0    0  501  0.00000000000E+00  0.00000000000E+00  0.17957805778E+04  0.17957805778E+04  0.25500000920E-02 0. -1.
        2   -1    0    0  501    0  0.00000000000E+00  0.00000000000E+00 -0.22151081409E+04  0.22151081409E+04  0.25500000920E-02 0.  1.
    10030    2    1    2    0    0  0.00000000000E+00  0.00000000000E+00 -0.41932756312E+03  0.40108887186E+04  0.39889087114E+04 0.  0.
        1    1    3    3  502    0 -0.84506220681E+03  0.13201731706E+04  0.10303635416E+04  0.18758028579E+04  0.50400001928E-02 0. -1.
       -1    1    3    3    0  502  0.84506220681E+03 -0.13201731706E+04 -0.14496911047E+04  0.21350858608E+04  0.50400001928E-02 0.  1.
</event>
<event>
 5   0  0.2446281E-07  0.3920541E+04  0.7818609E-02  0.8020771E-01
        2   -1    0    0  501    0  0.00000000000E+00  0.00000000000E+00  0.25741646929E+04  0.25741646929E+04  0.25500000920E-02 0. -1.
       -2   -1    0    0    0  501  0.00000000000E+00  0.00000000000E+00 -0.14927795310E+04  0.14927795310E+04  0.25500000920E-02 0.  1.
    10030    2    1    2    0    0  0.00000000000E+00  0.00000000000E+00  0.10813851619E+04  0.40669442239E+04  0.39205409641E+04 0.  0.
        1    1    3    3  502    0  0.16099405073E+04  0.88394518937E+03  0.12513993391E+04  0.22224463639E+04  0.50400001928E-02 0.  1.
       -1    1    3    3    0  502 -0.16099405073E+04 -0.88394518937E+03 -0.17001417717E+03  0.18444978599E+04  0.50400001928E-02 0. -1.
</event>
<event>
 5   0  0.2395572E-07  0.3995241E+04  0.7818609E-02  0.8005507E-01
        2   -1    0    0  501    0  0.00000000000E+00  0.00000000000E+00  0.15394353098E+04  0.15394353098E+04  0.25500000920E-02 0. -1.
       -2   -1    0    0    0  501  0.00000000000E+00  0.00000000000E+00 -0.25921761785E+04  0.25921761785E+04  0.25500000920E-02 0.  1.
    10030    2    1    2    0    0  0.00000000000E+00  0.00000000000E+00 -0.10527408687E+04  0.41316114883E+04  0.39952409381E+04 0.  0.
        3    1    3    3  502    0 -0.14409425878E+04  0.21001129738E+03  0.88781093854E+03  0.17054701871E+04  0.10100000352E+00 0. -1.
       -3    1    3    3    0  502  0.14409425878E+04 -0.21001129738E+03 -0.19405518072E+04  0.24261413011E+04  0.10100000352E+00 0.  1.
</event>
<event>
 5   0  0.2446281E-07  0.3931333E+04  0.7818609E-02  0.8018544E-01
        2   -1    0    0  501    0  0.00000000000E+00  0.00000000000E+00  0.25236702451E+04  0.25236702452E+04  0.25500000920E-02 0.  1.
       -2   -1    0    0    0  501  0.00000000000E+00  0.00000000000E+00 -0.15310421651E+04  0.15310421651E+04  0.25500000920E-02 0. -1.
    10030    2    1    2    0    0  0.00000000000E+00  0.00000000000E+00  0.99262808004E+03  0.40547124103E+04  0.39313333902E+04 0.  0.
        1    1    3    3  502    0 -0.14047917304E+04  0.90503261047E+03  0.15638441595E+04  0.22886966568E+04  0.50400001928E-02 0.  1.
       -1    1    3    3    0  502  0.14047917304E+04 -0.90503261047E+03 -0.57121607946E+03  0.17660157534E+04  0.50400001928E-02 0. -1.
</event>
<event>
 5   0  0.2395572E-07  0.3913109E+04  0.7818609E-02  0.8022308E-01
        2   -1    0    0  501    0  0.00000000000E+00  0.00000000000E+00  0.22208381688E+04  0.22208381688E+04  0.25500000920E-02 0.  1.
       -2   -1    0    0    0  501  0.00000000000E+00  0.00000000000E+00 -0.17237212851E+04  0.17237212851E+04  0.25500000920E-02 0. -1.
    10030    2    1    2    0    0  0.00000000000E+00  0.00000000000E+00  0.49711688371E+03  0.39445594539E+04  0.39131092611E+04 0.  0.
        3    1    3    3  502    0  0.48139586493E+03  0.15648937418E+04 -0.83125195983E+03  0.18361955867E+04  0.10100000352E+00 0. -1.
       -3    1    3    3    0  502 -0.48139586493E+03 -0.15648937418E+04  0.13283688435E+04  0.21083638672E+04  0.10100000352E+00 0.  1.
</event>
<event>
 5   0  0.7675750E-08  0.3849543E+04  0.7818609E-02  0.8035606E-01
        1   -1    0    0  501    0  0.00000000000E+00  0.00000000000E+00  0.17435766186E+04  0.17435766187E+04  0.50400001928E-02 0.  1.
       -1   -1    0    0    0  501  0.00000000000E+00  0.00000000000E+00 -0.21247961477E+04  0.21247961477E+04  0.50400001928E-02 0. -1.
    10030    2    1    2    0    0  0.00000000000E+00  0.00000000000E+00 -0.38121952904E+03  0.38683727663E+04  0.38495427690E+04 0.  0.
        1    1    3    3  502    0  0.33628621570E+03  0.15315282666E+04  0.93112897401E+03  0.18236415263E+04  0.50400001928E-02 0.  1.
       -1    1    3    3    0  502 -0.33628621570E+03 -0.15315282666E+04 -0.13123485030E+04  0.20447312400E+04  0.50400001928E-02 0. -1.
</event>
<event>
 5   0  0.7731706E-08  0.3877274E+04  0.7818609E-02  0.8029772E-01
        1   -1    0    0  501    0  0.00000000000E+00  0.00000000000E+00  0.25817595685E+04  0.25817595685E+04  0.50400001928E-02 0.  1.
       -1   -1    0    0    0  501  0.00000000000E+00  0.00000000000E+00 -0.14557177756E+04  0.14557177756E+04  0.50400001928E-02 0. -1.
    10030    2    1    2    0    0  0.00000000000E+00  0.00000000000E+00  0.11260417929E+04  0.40374773440E+04  0.38772739372E+04 0.  0.
        3    1    3    3  502    0 -0.93574155244E+03  0.16976835434E+04  0.58791732884E+03  0.20256822214E+04  0.10100000352E+00 0. -1.
       -3    1    3    3    0  502  0.93574155244E+03 -0.16976835434E+04  0.53812446407E+03  0.20117951226E+04  0.10100000352E+00 0.  1.
</event>
<event>
 5   0  0.2446281E-07  0.3858011E+04  0.7818609E-02  0.8033819E-01
       -2   -1    0    0    0  501  0.00000000000E+00  0.00000000000E+00  0.18653655287E+04  0.18653655287E+04  0.25500000920E-02 0.  1.
        2   -1    0    0  501    0  0.00000000000E+00  0.00000000000E+00 -0.19948171448E+04  0.19948171449E+04  0.25500000920E-02 0. -1.
    10030    2    1    2    0    0  0.00000000000E+00  0.00000000000E+00 -0.12945161615E+03  0.38601826735E+04  0.38580114764E+04 0.  0.
        1    1    3    3  502    0  0.13243445729E+04 -0.10642286184E+04  0.84934841191E+03  0.18994377654E+04  0.50400001928E-02 0.  1.
       -1    1    3    3    0  502 -0.13243445729E+04  0.10642286184E+04 -0.97880002806E+03  0.19607449081E+04  0.50400001928E-02 0. -1.
</event>
<event>
 5   0  0.7675750E-08  0.3918979E+04  0.7818609E-02  0.8021093E-01
        1   -1    0    0  501    0  0.00000000000E+00  0.00000000000E+00  0.22658767894E+04  0.22658767894E+04  0.50400001928E-02 0.  1.
       -1   -1    0    0    0  501  0.00000000000E+00  0.00000000000E+00 -0.16945316512E+04  0.16945316512E+04  0.50400001928E-02 0. -1.
    10030    2    1    2    0    0  0.00000000000E+00  0.00000000000E+00  0.57134513826E+03  0.39604084406E+04  0.39189794270E+04 0.  0.
        2    1    3    3  502    0  0.10101272163E+04 -0.16607715099E+04  0.35914323095E+02  0.19441730478E+04  0.25500000920E-02 0. -1.
       -2    1    3    3    0  502 -0.10101272163E+04  0.16607715099E+04  0.53543081516E+03  0.20162353928E+04  0.25500000920E-02 0.  1.
</event>
<event>
 5   0  0.2446281E-07  0.3862014E+04  0.7818609E-02  0.8032976E-01
       -2   -1    0    0    0  501  0.00000000000E+00  0.00000000000E+00  0.25711316771E+04  0.25711316771E+04  0.25500000920E-02 0. -1.
        2   -1    0    0  501    0  0.00000000000E+00  0.00000000000E+00 -0.14502518169E+04  0.14502518169E+04  0.25500000920E-02 0.  1.
    10030    2    1    2    0    0  0.00000000000E+00  0.00000000000E+00  0.11208798602E+04  0.40213834940E+04  0.38620141823E+04 0.  0.
        1    1    3    3  502    0 -0.10537778232E+04  0.12268729229E+04 -0.53814416139E+03  0.17044835018E+04  0.50400001928E-02 0.  1.
       -1    1    3    3    0  502  0.10537778232E+04 -0.12268729229E+04  0.16590240216E+04  0.23168999922E+04  0.50400001928E-02 0. -1.
</event>
<event>
 5   0  0.7675750E-08  0.3874278E+04  0.7818609E-02  0.8030400E-01
       -1   -1    0    0    0  501  0.00000000000E+00  0.00000000000E+00  0.13964935582E+04  0.13964935582E+04  0.50400001928E-02 0. -1.
        1   -1    0    0  501    0  0.00000000000E+00  0.00000000000E+00 -0.26870921400E+04  0.26870921400E+04  0.50400001928E-02 0.  1.
    10030    2    1    2    0    0  0.00000000000E+00  0.00000000000E+00 -0.12905985818E+04  0.40835856982E+04  0.38742776688E+04 0.  0.
        2    1    3    3  502    0  0.55948362938E+03  0.97597009135E+03  0.10169110103E+04  0.15164588862E+04  0.25500000920E-02 0. -1.
       -2    1    3    3    0  502 -0.55948362938E+03 -0.97597009135E+03 -0.23075095921E+04  0.25671268119E+04  0.25500000920E-02 0.  1.
</event>
<event>
 5   0  0.2486268E-07  0.3746644E+04  0.7818609E-02  0.8057703E-01
       -2   -1    0    0    0  501  0.00000000000E+00  0.00000000000E+00  0.12127017446E+04  0.12127017446E+04  0.25500000920E-02 0.  1.
        2   -1    0    0  501    0  0.00000000000E+00  0.00000000000E+00 -0.28938150144E+04  0.28938150144E+04  0.25500000920E-02 0. -1.
    10030    2    1    2    0    0  0.00000000000E+00  0.00000000000E+00 -0.16811132699E+04  0.41065167590E+04  0.37466435734E+04 0.  0.
        5    1    3    3  502    0 -0.39257423756E+03  0.12002651059E+04 -0.23571386050E+04  0.26741120675E+04  0.46999998093E+01 0. -1.
       -5    1    3    3    0  502  0.39257423756E+03 -0.12002651059E+04  0.67602533514E+03  0.14324046915E+04  0.46999998093E+01 0.  1.
</event>
<event>
 5   0  0.7675750E-08  0.3892864E+04  0.7818609E-02  0.8026515E-01
       -1   -1    0    0    0  501  0.00000000000E+00  0.00000000000E+00  0.14950552686E+04  0.14950552686E+04  0.50400001928E-02 0. -1.
        1   -1    0    0  501    0  0.00000000000E+00  0.00000000000E+00 -0.25340848137E+04  0.25340848137E+04  0.50400001928E-02 0.  1.
    10030    2    1    2    0    0  0.00000000000E+00  0.00000000000E+00 -0.10390295451E+04  0.40291400824E+04  0.38928636513E+04 0.  0.
        5    1    3    3  502    0 -0.67174332432E+03  0.15557340635E+03  0.13644057712E+04  0.15287469957E+04  0.46999998093E+01 0. -1.
       -5    1    3    3    0  502  0.67174332432E+03 -0.15557340635E+03 -0.24034353162E+04  0.25003930867E+04  0.46999998093E+01 0.  1.
</event>
<event>
 5   0  0.7675750E-08  0.3886784E+04  0.7818609E-02  0.8027783E-01
        1   -1    0    0  501    0  0.00000000000E+00  0.00000000000E+00  0.17743106449E+04  0.17743106449E+04  0.50400001928E-02 0.  1.
       -1   -1    0    0    0  501  0.00000000000E+00  0.00000000000E+00 -0.21285859940E+04  0.21285859940E+04  0.50400001928E-02 0. -1.
    10030    2    1    2    0    0  0.00000000000E+00  0.00000000000E+00 -0.35427534917E+03  0.39028966389E+04  0.38867841657E+04 0.  0.
        1    1    3    3  502    0 -0.11191080218E+04  0.23187894856E+03  0.14011931379E+04  0.18081794216E+04  0.50400001928E-02 0.  1.
       -1    1    3    3    0  502  0.11191080218E+04 -0.23187894856E+03 -0.17554684870E+04  0.20947172173E+04  0.50400001928E-02 0. -1.
</event>
<event>
 5   0  0.7731706E-08  0.3855335E+04  0.7818609E-02  0.8034383E-01
        1   -1    0    0  501    0  0.00000000000E+00  0.00000000000E+00  0.17220601205E+04  0.17220601205E+04  0.50400001928E-02 0.  1.
       -1   -1    0    0    0  501  0.00000000000E+00  0.00000000000E+00 -0.21578236233E+04  0.21578236233E+04  0.50400001928E-02 0. -1.
    10030    2    1    2    0    0  0.00000000000E+00  0.00000000000E+00 -0.43576350283E+03  0.38798837439E+04  0.38553350095E+04 0.  0.
        3    1    3    3  502    0  0.16701156506E+04 -0.96246164387E+03 -0.20094316742E+03  0.19380394395E+04  0.10100000352E+00 0. -1.
       -3    1    3    3    0  502 -0.16701156506E+04  0.96246164387E+03 -0.23482033541E+03  0.19418443044E+04  0.10100000352E+00 0.  1.
</event>
<event>
 5   0  0.7731706E-08  0.3734060E+04  0.7818609E-02  0.8060455E-01
        1   -1    0    0  501    0  0.00000000000E+00  0.00000000000E+00  0.21040038377E+04  0.21040038378E+04  0.50400001928E-02 0.  1.
       -1   -1    0    0    0  501  0.00000000000E+00  0.00000000000E+00 -0.16567465478E+04  0.16567465478E+04  0.50400001928E-02 0. -1.
    10030    2    1    2    0    0  0.00000000000E+00  0.00000000000E+00  0.44725728998E+03  0.37607503855E+04  0.37340600395E+04 0.  0.
        3    1    3    3  502    0 -0.12484324590E+03  0.45475713183E+03  0.20430325054E+04  0.20967526591E+04  0.10100000352E+00 0.  1.
       -3    1    3    3    0  502  0.12484324590E+03 -0.45475713183E+03 -0.15957752155E+04  0.16639977264E+04  0.10100000352E+00 0. -1.
</event>
<event>
 5   0  0.2446281E-07  0.3954102E+04  0.7818609E-02  0.8013870E-01
       -2   -1    0    0    0  501  0.00000000000E+00  0.00000000000E+00  0.15993737310E+04  0.15993737310E+04  0.25500000920E-02 0.  1.
        2   -1    0    0  501    0  0.00000000000E+00  0.00000000000E+00 -0.24439137834E+04  0.24439137834E+04  0.25500000920E-02 0. -1.
    10030    2    1    2    0    0  0.00000000000E+00  0.00000000000E+00 -0.84454005248E+03  0.40432875144E+04  0.39541024296E+04 0.  0.
        1    1    3    3  502    0 -0.17747487618E+04 -0.83080838289E+03 -0.15414257328E+03  0.19656387434E+04  0.50400001928E-02 0.  1.
       -1    1    3    3    0  502  0.17747487618E+04  0.83080838289E+03 -0.69039747920E+03  0.20776487710E+04  0.50400001928E-02 0. -1.
</event>
<event>
 5   0  0.7675750E-08  0.3884590E+04  0.7818609E-02  0.8028242E-01
        1   -1    0    0  501    0  0.00000000000E+00  0.00000000000E+00  0.12716355353E+04  0.12716355353E+04  0.50400001928E-02 0.  1.
       -1   -1    0    0    0  501  0.00000000000E+00  0.00000000000E+00 -0.29666593167E+04  0.29666593167E+04  0.50400001928E-02 0. -1.
    10030    2    1    2    0    0  0.00000000000E+00  0.00000000000E+00 -0.16950237814E+04  0.42382948520E+04  0.38845897638E+04 0.  0.
        4    1    3    3  502    0 -0.15123662940E+04  0.12176255958E+04 -0.79141119980E+03  0.20967110433E+04  0.12699999809E+01 0.  1.
       -4    1    3    3    0  502  0.15123662940E+04 -0.12176255958E+04 -0.90361258162E+03  0.21415838087E+04  0.12699999809E+01 0. -1.
</event>
<event>
 5   0  0.7675750E-08  0.3902651E+04  0.7818609E-02  0.8024478E-01
       -1   -1    0    0    0  501  0.00000000000E+00  0.00000000000E+00  0.15948326748E+04  0.15948326748E+04  0.50400001928E-02 0. -1.
        1   -1    0    0  501    0  0.00000000000E+00  0.00000000000E+00 -0.23875050653E+04  0.23875050653E+04  0.50400001928E-02 0.  1.
    10030    2    1    2    0    0  0.00000000000E+00  0.00000000000E+00 -0.79267239056E+03  0.39823377401E+04  0.39026509398E+04 0.  0.
        1    1    3    3  502    0 -0.10544267488E+04  0.56795816594E+03  0.11756646109E+04  0.16782668215E+04  0.50400001928E-02 0. -1.
       -1    1    3    3    0  502  0.10544267488E+04 -0.56795816594E+03 -0.19683370014E+04  0.23040709186E+04  0.50400001928E-02 0.  1.
</event>
<event>
 5   0  0.2473224E-07  0.3854207E+04  0.7818609E-02  0.8034621E-01
       -2   -1    0    0    0  501  0.00000000000E+00  0.00000000000E+00  0.13137857526E+04  0.13137857526E+04  0.25500000920E-02 0. -1.
        2   -1    0    0  501    0  0.00000000000E+00  0.00000000000E+00 -0.28267379564E+04  0.28267379564E+04  0.25500000920E-02 0.  1.
    10030    2    1    2    0    0  0.00000000000E+00  0.00000000000E+00 -0.15129522038E+04  0.41405237090E+04  0.38542070797E+04 0.  0.
        2    1    3    3  502    0 -0.58484076163E+03  0.49181643414E+03 -0.26570245092E+04  0.27647244644E+04  0.25500000920E-02 0.  1.
       -2    1    3    3    0  502  0.58484076163E+03 -0.49181643414E+03  0.11440723054E+04  0.13757992446E+04  0.25500000920E-02 0. -1.
</event>
<event>
 5   0  0.7731706E-08  0.3886472E+04  0.7818609E-02  0.8027849E-01
       -1   -1    0    0    0  501  0.00000000000E+00  0.00000000000E+00  0.16611773558E+04  0.16611773558E+04  0.50400001928E-02 0. -1.
        1   -1    0    0  501    0  0.00000000000E+00  0.00000000000E+00 -0.22731863000E+04  0.22731863000E+04  0.50400001928E-02 0.  1.
    10030    2    1    2    0    0  0.00000000000E+00  0.00000000000E+00 -0.61200894423E+03  0.39343636558E+04  0.38864717197E+04 0.  0.
        3    1    3    3  502    0  0.12884795783E+03  0.14312397433E+04 -0.16302203461E+04  0.21731698935E+04  0.10100000352E+00 0.  1.
       -3    1    3    3    0  502 -0.12884795783E+03 -0.14312397433E+04  0.10182114019E+04  0.17611937623E+04  0.10100000352E+00 0. -1.
</event>
<event>
 5   0  0.2395572E-07  0.3899244E+04  0.7818609E-02  0.8025186E-01
        2   -1    0    0  501    0  0.00000000000E+00  0.00000000000E+00  0.22594356862E+04  0.22594356862E+04  0.25500000920E-02 0. -1.
       -2   -1    0    0    0  501  0.00000000000E+00  0.00000000000E+00 -0.16822899591E+04  0.16822899592E+04  0.25500000920E-02 0.  1.
    10030    2    1    2    0    0  0.00000000000E+00  0.00000000000E+00  0.57714572707E+03  0.39417256454E+04  0.38992440130E+04 0.  0.
        3    1    3    3  502    0  0.17080434036E+04 -0.69855712923E+03  0.92441818455E+03  0.20639630136E+04  0.10100000352E+00 0.  1.
       -3    1    3    3    0  502 -0.17080434036E+04  0.69855712923E+03 -0.34727245748E+03  0.18777626318E+04  0.10100000352E+00 0. -1.
</event>
<event>
 5   0  0.7675750E-08  0.3944014E+04  0.7818609E-02  0.8015937E-01
        1   -1    0    0  501    0  0.00000000000E+00  0.00000000000E+00  0.20458036285E+04  0.20458036285E+04  0.50400001928E-02 0.  1.
       -1   -1    0    0    0  501  0.00000000000E+00  0.00000000000E+00 -0.19008723474E+04  0.19008723474E+04  0.50400001928E-02 0. -1.
    10030    2    1    2    0    0  0.00000000000E+00  0.00000000000E+00  0.14493128116E+03  0.39466759759E+04  0.39440139683E+04 0.  0.
        1    1    3    3  502    0  0.10571144587E+03  0.19659472589E+03 -0.18881901523E+04  0.19013380676E+04  0.50400001928E-02 0. -1.
       -1    1    3    3    0  502 -0.10571144587E+03 -0.19659472589E+03  0.20331214334E+04  0.20453379083E+04  0.50400001928E-02 0.  1.
</event>
<event>
 5   0  0.2473224E-07  0.3857313E+04  0.7818609E-02  0.8033966E-01
       -2   -1    0    0    0  501  0.00000000000E+00  0.00000000000E+00  0.30747888149E+04  0.30747888149E+04  0.25500000920E-02 0.  1.
        2   -1    0    0  501    0  0.00000000000E+00  0.00000000000E+00 -0.12097467423E+04  0.12097467423E+04  0.25500000920E-02 0. -1.
    10030    2    1    2    0    0  0.00000000000E+00  0.00000000000E+00  0.18650420725E+04  0.42845355572E+04  0.38573129260E+04 0.  0.
        2    1    3    3  502    0 -0.35656855799E+03  0.17027611279E+04  0.18573078454E+04  0.25448239680E+04  0.25500000920E-02 0.  1.
       -2    1    3    3    0  502  0.35656855799E+03 -0.17027611279E+04  0.77342270921E+01  0.17397115892E+04  0.25500000920E-02 0. -1.
</event>
<event>
 5   0  0.7675750E-08  0.3874493E+04  0.7818609E-02  0.8030355E-01
       -1   -1    0    0    0  501  0.00000000000E+00  0.00000000000E+00  0.12791595998E+04  0.12791595998E+04  0.50400001928E-02 0. -1.
        1   -1    0    0  501    0  0.00000000000E+00  0.00000000000E+00 -0.29338987782E+04  0.29338987782E+04  0.50400001928E-02 0.  1.
    10030    2    1    2    0    0  0.00000000000E+00  0.00000000000E+00 -0.16547391783E+04  0.42130583780E+04  0.38744934054E+04 0.  0.
        2    1    3    3  502    0 -0.45068581772E+03 -0.13110006189E+04  0.64405069643E+03  0.15286077419E+04  0.25500000920E-02 0. -1.
       -2    1    3    3    0  502  0.45068581772E+03  0.13110006189E+04 -0.22987898747E+04  0.26844506361E+04  0.25500000920E-02 0.  1.
</event>
<event>
 5   0  0.2395572E-07  0.3864968E+04  0.7818609E-02  0.8032355E-01
        2   -1    0    0  501    0  0.00000000000E+00  0.00000000000E+00  0.29576291013E+04  0.29576291013E+04  0.25500000920E-02 0. -1.
       -2   -1    0    0    0  501  0.00000000000E+00  0.00000000000E+00 -0.12626646154E+04  0.12626646154E+04  0.25500000920E-02 0.  1.
    10030    2    1    2    0    0  0.00000000000E+00  0.00000000000E+00  0.16949644858E+04  0.42202937167E+04  0.38649675868E+04 0.  0.
        3    1    3    3  502    0  0.16209883749E+04 -0.79817479503E+03  0.15959217350E+04  0.24107369224E+04  0.10100000352E+00 0. -1.
       -3    1    3    3    0  502 -0.16209883749E+04  0.79817479503E+03  0.99042750869E+02  0.18095567942E+04  0.10100000352E+00 0.  1.
</event>
<event>
 5   0  0.2486268E-07  0.3896071E+04  0.7818609E-02  0.8025847E-01
       -2   -1    0    0    0  501  0.00000000000E+00  0.00000000000E+00  0.25455535821E+04  0.25455535821E+04  0.25500000920E-02 0. -1.
        2   -1    0    0  501    0  0.00000000000E+00  0.00000000000E+00 -0.14907727621E+04  0.14907727621E+04  0.25500000920E-02 0.  1.
    10030    2    1    2    0    0  0.00000000000E+00  0.00000000000E+00  0.10547808200E+04  0.40363263443E+04  0.38960708129E+04 0.  0.
        5    1    3    3  502    0 -0.16088465555E+03 -0.15502622006E+04  0.17380578335E+04  0.23345371887E+04  0.46999998093E+01 0. -1.
       -5    1    3    3    0  502  0.16088465555E+03  0.15502622006E+04 -0.68327701350E+03  0.17017891556E+04  0.46999998093E+01 0.  1.
</event>
<event>
 5   0  0.7675750E-08  0.3901789E+04  0.7818609E-02  0.8024657E-01
       -1   -1    0    0    0  501  0.00000000000E+00  0.00000000000E+00  0.28011925233E+04  0.28011925233E+04  0.50400001928E-02 0.  1.
        1   -1    0    0  501    0  0.00000000000E+00  0.00000000000E+00 -0.13587029207E+04  0.13587029207E+04  0.50400001928E-02 0. -1.
    10030    2    1    2    0    0  0.00000000000E+00  0.00000000000E+00  0.14424896026E+04  0.41598954439E+04  0.39017885451E+04 0.  0.
        2    1    3    3  502    0 -0.18646654136E+04  0.40773781133E+03  0.11513692951E+04  0.22290981318E+04  0.25500000920E-02 0.  1.
       -2    1    3    3    0  502  0.18646654136E+04 -0.40773781133E+03  0.29112030749E+03  0.19307973122E+04  0.25500000920E-02 0. -1.
</event>
<event>
 5   0  0.2395572E-07  0.3926513E+04  0.7818609E-02  0.8019537E-01
        2   -1    0    0  501    0  0.00000000000E+00  0.00000000000E+00  0.19624338535E+04  0.19624338535E+04  0.25500000920E-02 0.  1.
       -2   -1    0    0    0  501  0.00000000000E+00  0.00000000000E+00 -0.19640795801E+04  0.19640795801E+04  0.25500000920E-02 0. -1.
    10030    2    1    2    0    0  0.00000000000E+00  0.00000000000E+00 -0.16457266709E+01  0.39265134336E+04  0.39265130887E+04 0.  0.
        3    1    3    3  502    0  0.10885541593E+04  0.85482048656E+03 -0.13931979448E+04  0.19638403055E+04  0.10100000352E+00 0. -1.
       -3    1    3    3    0  502 -0.10885541593E+04 -0.85482048656E+03  0.13915522181E+04  0.19626731281E+04  0.10100000352E+00 0.  1.
</event>
<event>
 5   0  0.2446281E-07  0.3858836E+04  0.7818609E-02  0.8033645E-01
        2   -1    0    0  501    0  0.00000000000E+00  0.00000000000E+00  0.13480821473E+04  0.13480821473E+04  0.25500000920E-02 0.  1.
       -2   -1    0    0    0  501  0.00000000000E+00  0.00000000000E+00 -0.27614437136E+04  0.27614437136E+04  0.25500000920E-02 0. -1.
    10030    2    1    2    0    0  0.00000000000E+00  0.00000000000E+00 -0.14133615664E+04  0.41095258609E+04  0.38588355607E+04 0.  0.
        1    1    3    3  502    0 -0.12834650755E+04 -0.14216412581E+04 -0.45850387498E+03  0.19694091170E+04  0.50400001928E-02 0. -1.
       -1    1    3    3    0  502  0.12834650755E+04  0.14216412581E+04 -0.95485769138E+03  0.21401167439E+04  0.50400001928E-02 0.  1.
</event>
<event>
 5   0  0.7675750E-08  0.3277114E+04  0.7818609E-02  0.8168743E-01
       -1   -1    0    0    0  501  0.00000000000E+00  0.00000000000E+00  0.14672917026E+04  0.14672917026E+04  0.50400001928E-02 0. -1.
        1   -1    0    0  501    0  0.00000000000E+00  0.00000000000E+00 -0.18298125769E+04  0.18298125769E+04  0.50400001928E-02 0.  1.
    10030    2    1    2    0    0  0.00000000000E+00  0.00000000000E+00 -0.36252087429E+03  0.32971042796E+04  0.32771138592E+04 0.  0.
        5    1    3    3  502    0 -0.57868610674E+03 -0.15157963138E+04  0.48893920730E+02  0.16232463709E+04  0.46999998093E+01 0. -1.
       -5    1    3    3    0  502  0.57868610674E+03  0.15157963138E+04 -0.41141479502E+03  0.16738579087E+04  0.46999998093E+01 0.  1.
</event>
<event>
 5   0  0.2395572E-07  0.3790111E+04  0.7818609E-02  0.8048280E-01
        2   -1    0    0  501    0  0.00000000000E+00  0.00000000000E+00  0.19180389206E+04  0.19180389206E+04  0.25500000920E-02 0.  1.
       -2   -1    0    0    0  501  0.00000000000E+00  0.00000000000E+00 -0.18723470126E+04  0.18723470126E+04  0.25500000920E-02 0. -1.
    10030    2    1    2    0    0  0.00000000000E+00  0.00000000000E+00  0.45691907948E+02  0.37903859332E+04  0.37901105224E+04 0.  0.
        3    1    3    3  502    0 -0.10315805053E+04 -0.15114731610E+04 -0.46965808179E+03  0.18892559856E+04  0.10100000352E+00 0. -1.
       -3    1    3    3    0  502  0.10315805053E+04  0.15114731610E+04  0.51534998973E+03  0.19011299475E+04  0.10100000352E+00 0.  1.
</event>
<event>
 5   0  0.7675750E-08  0.3758175E+04  0.7818609E-02  0.8055190E-01
        1   -1    0    0  501    0  0.00000000000E+00  0.00000000000E+00  0.15739215906E+04  0.15739215906E+04  0.50400001928E-02 0.  1.
       -1   -1    0    0    0  501  0.00000000000E+00  0.00000000000E+00 -0.22434220780E+04  0.22434220780E+04  0.50400001928E-02 0. -1.
    10030    2    1    2    0    0  0.00000000000E+00  0.00000000000E+00 -0.66950048745E+03  0.38173436686E+04  0.37581753261E+04 0.  0.
        4    1    3    3  502    0  0.11090785672E+04 -0.20692101855E+03 -0.18611052135E+04  0.21763698686E+04  0.12699999809E+01 0. -1.
       -4    1    3    3    0  502 -0.11090785672E+04  0.20692101855E+03  0.11916047261E+04  0.16409738000E+04  0.12699999809E+01 0.  1.
</event>
<event>
 5   0  0.7675750E-08  0.3936138E+04  0.7818609E-02  0.8017555E-01
        1   -1    0    0  501    0  0.00000000000E+00  0.00000000000E+00  0.18594767405E+04  0.18594767405E+04  0.50400001928E-02 0.  1.
       -1   -1    0    0    0  501  0.00000000000E+00  0.00000000000E+00 -0.20830028395E+04  0.20830028395E+04  0.50400001928E-02 0. -1.
    10030    2    1    2    0    0  0.00000000000E+00  0.00000000000E+00 -0.22352609903E+03  0.39424795800E+04  0.39361378688E+04 0.  0.
        1    1    3    3  502    0 -0.17700040891E+04  0.73432291696E+03 -0.56098392940E+03  0.19967091904E+04  0.50400001928E-02 0.  1.
       -1    1    3    3    0  502  0.17700040891E+04 -0.73432291696E+03  0.33745783037E+03  0.19457703896E+04  0.50400001928E-02 0. -1.
</event>
<event>
 5   0  0.7675750E-08  0.4112368E+04  0.7818609E-02  0.7982254E-01
       -1   -1    0    0    0  501  0.00000000000E+00  0.00000000000E+00  0.16932766232E+04  0.16932766232E+04  0.50400001928E-02 0. -1.
        1   -1    0    0  501    0  0.00000000000E+00  0.00000000000E+00 -0.24968700223E+04  0.24968700223E+04  0.50400001928E-02 0.  1.
    10030    2    1    2    0    0  0.00000000000E+00  0.00000000000E+00 -0.80359339910E+03  0.41901466454E+04  0.41123675127E+04 0.  0.
        5    1    3    3  502    0 -0.46597615093E+03 -0.15317241862E+04 -0.17163754620E+04  0.23471854576E+04  0.46999998093E+01 0.  1.
       -5    1    3    3    0  502  0.46597615093E+03  0.15317241862E+04  0.91278206289E+03  0.18429611879E+04  0.46999998093E+01 0. -1.
</event>
<event>
 5   0  0.2384787E-07  0.3903008E+04  0.7818609E-02  0.8024404E-01
       -2   -1    0    0    0  501  0.00000000000E+00  0.00000000000E+00  0.21326228434E+04  0.21326228434E+04  0.25500000920E-02 0. -1.
        2   -1    0    0  501    0  0.00000000000E+00  0.00000000000E+00 -0.17857675617E+04  0.17857675617E+04  0.25500000920E-02 0.  1.
    10030    2    1    2    0    0  0.00000000000E+00  0.00000000000E+00  0.34685528174E+03  0.39183904051E+04  0.39030084269E+04 0.  0.
        4    1    3    3  502    0 -0.55878266609E+03  0.86082816044E+02  0.20486000137E+04  0.21251851562E+04  0.12699999809E+01 0. -1.
       -4    1    3    3    0  502  0.55878266609E+03 -0.86082816044E+02 -0.17017447320E+04  0.17932052489E+04  0.12699999809E+01 0.  1.
</event>
<event>
 5   0  0.2384787E-07  0.3886372E+04  0.7818609E-02  0.8027870E-01
        2   -1    0    0  501    0  0.00000000000E+00  0.00000000000E+00  0.21441001011E+04  0.21441001011E+04  0.25500000920E-02 0.  1.
       -2   -1    0    0    0  501  0.00000000000E+00  0.00000000000E+00 -0.17610987757E+04  0.17610987757E+04  0.25500000920E-02 0. -1.
    10030    2    1    2    0    0  0.00000000000E+00  0.00000000000E+00  0.38300132535E+03  0.39051988768E+04  0.38863721197E+04 0.  0.
        4    1    3    3  502    0 -0.11397113689E+03  0.16131021277E+04 -0.89116139354E+03  0.18464176496E+04  0.12699999809E+01 0. -1.
       -4    1    3    3    0  502  0.11397113689E+03 -0.16131021277E+04  0.12741627189E+04  0.20587812272E+04  0.12699999809E+01 0.  1.
</event>
<event>
 5   0  0.7675750E-08  0.3828673E+04  0.7818609E-02  0.8040030E-01
       -1   -1    0    0    0  501  0.00000000000E+00  0.00000000000E+00  0.29121846663E+04  0.29121846663E+04  0.50400001928E-02 0.  1.
        1   -1    0    0  501    0  0.00000000000E+00  0.00000000000E+00 -0.12583969980E+04  0.12583969981E+04  0.50400001928E-02 0. -1.
    10030    2    1    2    0    0  0.00000000000E+00  0.00000000000E+00  0.16537876683E+04  0.41705816644E+04  0.38286731080E+04 0.  0.
        2    1    3    3  502    0  0.12234556847E+04 -0.73285347673E+03 -0.56416090619E+03  0.15336869168E+04  0.25500000920E-02 0. -1.
       -2    1    3    3    0  502 -0.12234556847E+04  0.73285347673E+03  0.22179485745E+04  0.26368947476E+04  0.25500000920E-02 0.  1.
</event>
<event>
 5   0  0.7675750E-08  0.3889815E+04  0.7818609E-02  0.8027151E-01
       -1   -1    0    0    0  501  0.00000000000E+00  0.00000000000E+00  0.22561664161E+04  0.22561664161E+04  0.50400001928E-02 0.  1.
        1   -1    0    0  501    0  0.00000000000E+00  0.00000000000E+00 -0.16765894208E+04  0.16765894208E+04  0.50400001928E-02 0. -1.
    10030    2    1    2    0    0  0.00000000000E+00  0.00000000000E+00  0.57957699528E+03  0.39327558368E+04  0.38898147743E+04 0.  0.
        5    1    3    3  502    0  0.10698784672E+04  0.88075502901E+02 -0.13499183101E+04  0.17247315045E+04  0.46999998093E+01 0. -1.
       -5    1    3    3    0  502 -0.10698784672E+04 -0.88075502901E+02  0.19294953053E+04  0.22080243323E+04  0.46999998093E+01 0.  1.
</event>
<event>
 5   0  0.7675750E-08  0.3873398E+04  0.7818609E-02  0.8030585E-01
        1   -1    0    0  501    0  0.00000000000E+00  0.00000000000E+00  0.11551813794E+04  0.11551813794E+04  0.50400001928E-02 0.  1.
       -1   -1    0    0    0  501  0.00000000000E+00  0.00000000000E+00 -0.32469389537E+04  0.32469389537E+04  0.50400001928E-02 0. -1.
    10030    2    1    2    0    0  0.00000000000E+00  0.00000000000E+00 -0.20917575744E+04  0.44021203331E+04  0.38733982079E+04 0.  0.
        5    1    3    3  502    0  0.63630506664E+03 -0.74628651870E+03 -0.29438534433E+04  0.31029216702E+04  0.46999998093E+01 0. -1.
       -5    1    3    3    0  502 -0.63630506664E+03  0.74628651870E+03  0.85209586892E+03  0.12991986629E+04  0.46999998093E+01 0.  1.
</event>
<event>
 5   0  0.2473224E-07  0.3978413E+04  0.7818609E-02  0.8008916E-01
        2   -1    0    0  501    0  0.00000000000E+00  0.00000000000E+00  0.20557064501E+04  0.20557064501E+04  0.25500000920E-02 0.  1.
       -2   -1    0    0    0  501  0.00000000000E+00  0.00000000000E+00 -0.19248577658E+04  0.19248577658E+04  0.25500000920E-02 0. -1.
    10030    2    1    2    0    0  0.00000000000E+00  0.00000000000E+00  0.13084868432E+03  0.39805642160E+04  0.39784130126E+04 0.  0.
        2    1    3    3  502    0 -0.47134675974E+03  0.18049319649E+04 -0.62559761064E+03  0.19675669077E+04  0.25500000920E-02 0.  1.
       -2    1    3    3    0  502  0.47134675974E+03 -0.18049319649E+04  0.75644629495E+03  0.20129973082E+04  0.25500000920E-02 0. -1.
</event>
<event>
 5   0  0.2395572E-07  0.3802761E+04  0.7818609E-02  0.8045563E-01
       -2   -1    0    0    0  501  0.00000000000E+00  0.00000000000E+00  0.15099769678E+04  0.15099769678E+04  0.25500000920E-02 0.  1.
        2   -1    0    0  501    0  0.00000000000E+00  0.00000000000E+00 -0.23942398230E+04  0.23942398230E+04  0.25500000920E-02 0. -1.
    10030    2    1    2    0    0  0.00000000000E+00  0.00000000000E+00 -0.88426285512E+03  0.39042167908E+04  0.38027605700E+04 0.  0.
        3    1    3    3  502    0  0.64189795976E+02 -0.79074364273E+03  0.13319314926E+04  0.15503023413E+04  0.10100000352E+00 0.  1.
       -3    1    3    3    0  502 -0.64189795976E+02  0.79074364273E+03 -0.22161943477E+04  0.23539144495E+04  0.10100000352E+00 0. -1.
</event>
<event>
 5   0  0.2446281E-07  0.3900038E+04  0.7818609E-02  0.8025021E-01
        2   -1    0    0  501    0  0.00000000000E+00  0.00000000000E+00  0.21483116693E+04  0.21483116693E+04  0.25500000920E-02 0. -1.
       -2   -1    0    0    0  501  0.00000000000E+00  0.00000000000E+00 -0.17700290342E+04  0.17700290342E+04  0.25500000920E-02 0.  1.
    10030    2    1    2    0    0  0.00000000000E+00  0.00000000000E+00  0.37828263510E+03  0.39183407036E+04  0.39000379636E+04 0.  0.
        1    1    3    3  502    0 -0.46724773576E+03 -0.27864919902E+03 -0.16922406777E+04  0.17775388418E+04  0.50400001928E-02 0.  1.
       -1    1    3    3    0  502  0.46724773576E+03  0.27864919902E+03  0.20705233128E+04  0.21408018618E+04  0.50400001928E-02 0. -1.
</event>
<event>
 5   0  0.2473224E-07  0.3479049E+04  0.7818609E-02  0.8118773E-01
        2   -1    0    0  501    0  0.00000000000E+00  0.00000000000E+00  0.17701664300E+04  0.17701664300E+04  0.25500000920E-02 0.  1.
       -2   -1    0    0    0  501  0.00000000000E+00  0.00000000000E+00 -0.17094127883E+04  0.17094127883E+04  0.25500000920E-02 0. -1.
    10030    2    1    2    0    0  0.00000000000E+00  0.00000000000E+00  0.60753641723E+02  0.34795792184E+04  0.34790487970E+04 0.  0.
        2    1    3    3  502    0 -0.80254510993E+03 -0.67161826546E+03  0.14201193057E+04  0.17640545883E+04  0.25500000920E-02 0.  1.
       -2    1    3    3    0  502  0.80254510993E+03  0.67161826546E+03 -0.13593656640E+04  0.17155246301E+04  0.25500000920E-02 0. -1.
</event>
<event>
 5   0  0.2395572E-07  0.3882155E+04  0.7818609E-02  0.8028751E-01
       -2   -1    0    0    0  501  0.00000000000E+00  0.00000000000E+00  0.33311072054E+04  0.33311072054E+04  0.25500000920E-02 0. -1.
        2   -1    0    0  501    0  0.00000000000E+00  0.00000000000E+00 -0.11310900919E+04  0.11310900919E+04  0.25500000920E-02 0.  1.
    10030    2    1    2    0    0  0.00000000000E+00  0.00000000000E+00  0.22000171135E+04  0.44621972974E+04  0.38821552546E+04 0.  0.
        3    1    3    3  502    0 -0.93611496016E+03  0.47738953514E+03  0.29759010944E+04  0.31559783460E+04  0.10100000352E+00 0. -1.
       -3    1    3    3    0  502  0.93611496016E+03 -0.47738953514E+03 -0.77588398084E+03  0.13062189513E+04  0.10100000352E+00 0.  1.
</event>
<event>
 5   0  0.7675750E-08  0.3914431E+04  0.7818609E-02  0.8022035E-01
        1   -1    0    0  501    0  0.00000000000E+00  0.00000000000E+00  0.17518104759E+04  0.17518104759E+04  0.50400001928E-02 0.  1.
       -1   -1    0    0    0  501  0.00000000000E+00  0.00000000000E+00 -0.21867043235E+04  0.21867043235E+04  0.50400001928E-02 0. -1.
    10030    2    1    2    0    0  0.00000000000E+00  0.00000000000E+00 -0.43489384759E+03  0.39385147994E+04  0.39144305035E+04 0.  0.
        5    1    3    3  502    0 -0.13024072390E+03  0.19478047556E+04 -0.75999462254E+02  0.19536386617E+04  0.46999998093E+01 0.  1.
       -5    1    3    3    0  502  0.13024072390E+03 -0.19478047556E+04 -0.35889438534E+03  0.19848761377E+04  0.46999998093E+01 0. -1.
</event>
<event>
 5   0  0.2486268E-07  0.3863829E+04  0.7818609E-02  0.8032594E-01
       -2   -1    0    0    0  501  0.00000000000E+00  0.00000000000E+00  0.25062628163E+04  0.25062628163E+04  0.25500000920E-02 0. -1.
        2   -1    0    0  501    0  0.00000000000E+00  0.00000000000E+00 -0.14891871196E+04  0.14891871196E+04  0.25500000920E-02 0.  1.
    10030    2    1    2    0    0  0.00000000000E+00  0.00000000000E+00  0.10170756966E+04  0.39954499359E+04  0.38638293464E+04 0.  0.
        5    1    3    3  502    0  0.75377282981E+03  0.16886713250E+04 -0.69510751300E+02  0.18505777902E+04  0.46999998093E+01 0. -1.
       -5    1    3    3    0  502 -0.75377282981E+03 -0.16886713250E+04  0.10865864479E+04  0.21448721458E+04  0.46999998093E+01 0.  1.
</event>
<event>
 5   0  0.7675750E-08  0.3916324E+04  0.7818609E-02  0.8021643E-01
        1   -1    0    0  501    0  0.00000000000E+00  0.00000000000E+00  0.19488800000E+04  0.19488800000E+04  0.50400001928E-02 0.  1.
       -1   -1    0    0    0  501  0.00000000000E+00  0.00000000000E+00 -0.19674881438E+04  0.19674881438E+04  0.50400001928E-02 0. -1.
    10030    2    1    2    0    0  0.00000000000E+00  0.00000000000E+00 -0.18608143815E+02  0.39163681439E+04  0.39163239364E+04 0.  0.
        5    1    3    3  502    0 -0.74834774778E+03  0.11023702358E+04 -0.14442877661E+04  0.19650022213E+04  0.46999998093E+01 0. -1.
       -5    1    3    3    0  502  0.74834774778E+03 -0.11023702358E+04  0.14256796223E+04  0.19513659226E+04  0.46999998093E+01 0.  1.
</event>
<event>
 5   0  0.7731706E-08  0.3911083E+04  0.7818609E-02  0.8022728E-01
        1   -1    0    0  501    0  0.00000000000E+00  0.00000000000E+00  0.26191211727E+04  0.26191211728E+04  0.50400001928E-02 0. -1.
       -1   -1    0    0    0  501  0.00000000000E+00  0.00000000000E+00 -0.14600863370E+04  0.14600863370E+04  0.50400001928E-02 0.  1.
    10030    2    1    2    0    0  0.00000000000E+00  0.00000000000E+00  0.11590348358E+04  0.40792075097E+04  0.39110832460E+04 0.  0.
        3    1    3    3  502    0  0.13899469466E+04  0.80422014445E+03 -0.58443905318E+03  0.17088860618E+04  0.10100000352E+00 0.  1.
       -3    1    3    3    0  502 -0.13899469466E+04 -0.80422014445E+03  0.17434738889E+04  0.23703214480E+04  0.10100000352E+00 0. -1.
</event>
<event>
 5   0  0.2395572E-07  0.3917119E+04  0.7818609E-02  0.8021478E-01
       -2   -1    0    0    0  501  0.00000000000E+00  0.00000000000E+00  0.24839236584E+04  0.24839236584E+04  0.25500000920E-02 0. -1.
        2   -1    0    0  501    0  0.00000000000E+00  0.00000000000E+00 -0.15443125750E+04  0.15443125750E+04  0.25500000920E-02 0.  1.
    10030    2    1    2    0    0  0.00000000000E+00  0.00000000000E+00  0.93961108341E+03  0.40282362334E+04  0.39171186048E+04 0.  0.
        3    1    3    3  502    0 -0.57408517247E+03  0.96570093588E+03 -0.11800116120E+04  0.16292880339E+04  0.10100000352E+00 0.  1.
       -3    1    3    3    0  502  0.57408517247E+03 -0.96570093588E+03  0.21196226954E+04  0.23989481995E+04  0.10100000352E+00 0. -1.
</event>
<event>
 5   0  0.7675750E-08  0.3841779E+04  0.7818609E-02  0.8037248E-01
        1   -1    0    0  501    0  0.00000000000E+00  0.00000000000E+00  0.16610184418E+04  0.16610184418E+04  0.50400001928E-02 0.  1.
       -1   -1    0    0    0  501  0.00000000000E+00  0.00000000000E+00 -0.22214176670E+04  0.22214176670E+04  0.50400001928E-02 0. -1.
    10030    2    1    2    0    0  0.00000000000E+00  0.00000000000E+00 -0.56039922516E+03  0.38824361088E+04  0.38417786046E+04 0.  0.
        1    1    3    3  502    0 -0.13905523132E+04 -0.27929259471E+03  0.10289542397E+04  0.17522519558E+04  0.50400001928E-02 0.  1.
       -1    1    3    3    0  502  0.13905523132E+04  0.27929259471E+03 -0.15893534648E+04  0.21301841530E+04  0.50400001928E-02 0. -1.
</event>
<event>
 5   0  0.7675750E-08  0.3993975E+04  0.7818609E-02  0.8005763E-01
       -1   -1    0    0    0  501  0.00000000000E+00  0.00000000000E+00  0.15198284052E+04  0.15198284053E+04  0.50400001928E-02 0. -1.
        1   -1    0    0  501    0  0.00000000000E+00  0.00000000000E+00 -0.26239539059E+04  0.26239539059E+04  0.50400001928E-02 0.  1.
    10030    2    1    2    0    0  0.00000000000E+00  0.00000000000E+00 -0.11041255007E+04  0.41437823112E+04  0.39939753030E+04 0.  0.
        5    1    3    3  502    0 -0.52426486124E+03 -0.19192995716E+04 -0.72987695354E+03  0.21192703810E+04  0.46999998093E+01 0. -1.
       -5    1    3    3    0  502  0.52426486124E+03  0.19192995716E+04 -0.37424854713E+03  0.20245119302E+04  0.46999998093E+01 0.  1.
</event>
<event>
 5   0  0.7675750E-08  0.3891575E+04  0.7818609E-02  0.8026784E-01
       -1   -1    0    0    0  501  0.00000000000E+00  0.00000000000E+00  0.27578785631E+04  0.27578785631E+04  0.50400001928E-02 0. -1.
        1   -1    0    0  501    0  0.00000000000E+00  0.00000000000E+00 -0.13728268779E+04  0.13728268779E+04  0.50400001928E-02 0.  1.
    10030    2    1    2    0    0  0.00000000000E+00  0.00000000000E+00  0.13850516853E+04  0.41307054410E+04  0.38915754226E+04 0.  0.
        4    1    3    3  502    0  0.18036131325E+04  0.48694361497E+02 -0.80727812154E+02  0.18060758747E+04  0.12699999809E+01 0.  1.
       -4    1    3    3    0  502 -0.18036131325E+04 -0.48694361497E+02  0.14657794974E+04  0.23246295663E+04  0.12699999809E+01 0. -1.
</event>
<event>
 5   0  0.7675750E-08  0.3957284E+04  0.7818609E-02  0.8013220E-01
        1   -1    0    0  501    0  0.00000000000E+00  0.00000000000E+00  0.23502363249E+04  0.23502363249E+04  0.50400001928E-02 0.  1.
       -1   -1    0    0    0  501  0.00000000000E+00  0.00000000000E+00 -0.16658001422E+04  0.16658001422E+04  0.50400001928E-02 0. -1.
    10030    2    1    2    0    0  0.00000000000E+00  0.00000000000E+00  0.68443618268E+03  0.40160364671E+04  0.39572839191E+04 0.  0.
        5    1    3    3  502    0 -0.15264620217E+04  0.96963046037E+03  0.11570915615E+04  0.21468936874E+04  0.46999998093E+01 0.  1.
       -5    1    3    3    0  502  0.15264620217E+04 -0.96963046037E+03 -0.47265537882E+03  0.18691427796E+04  0.46999998093E+01 0. -1.
</event>
<event>
 5   0  0.2384787E-07  0.3950741E+04  0.7818609E-02  0.8014558E-01
       -2   -1    0    0    0  501  0.00000000000E+00  0.00000000000E+00  0.15643642246E+04  0.15643642246E+04  0.25500000920E-02 0.  1.
        2   -1    0    0  501    0  0.00000000000E+00  0.00000000000E+00 -0.24943602598E+04  0.24943602598E+04  0.25500000920E-02 0. -1.
    10030    2    1    2    0    0  0.00000000000E+00  0.00000000000E+00 -0.92999603514E+03  0.40587244844E+04  0.39507406667E+04 0.  0.
        4    1    3    3  502    0  0.84671288299E+03  0.15566500451E+04  0.43178990660E+03  0.18238766969E+04  0.12699999809E+01 0.  1.
       -4    1    3    3    0  502 -0.84671288299E+03 -0.15566500451E+04 -0.13617859417E+04  0.22348477875E+04  0.12699999809E+01 0. -1.
</event>
<event>
 5   0  0.2446281E-07  0.3852580E+04  0.7818609E-02  0.8034965E-01
       -2   -1    0    0    0  501  0.00000000000E+00  0.00000000000E+00  0.22022093305E+04  0.22022093305E+04  0.25500000920E-02 0. -1.
        2   -1    0    0  501    0  0.00000000000E+00  0.00000000000E+00 -0.16849409791E+04  0.16849409791E+04  0.25500000920E-02 0.  1.
    10030    2    1    2    0    0  0.00000000000E+00  0.00000000000E+00  0.51726835135E+03  0.38871503096E+04  0.38525797827E+04 0.  0.
        1    1    3    3  502    0  0.74689585462E+03 -0.77342800624E+03  0.18712717139E+04  0.21581710140E+04  0.50400001928E-02 0. -1.
       -1    1    3    3    0  502 -0.74689585462E+03  0.77342800624E+03 -0.13540033626E+04  0.17289792955E+04  0.50400001928E-02 0.  1.
</event>
<event>
 5   0  0.7675750E-08  0.3996158E+04  0.7818609E-02  0.8005322E-01
       -1   -1    0    0    0  501  0.00000000000E+00  0.00000000000E+00  0.19894571780E+04  0.19894571780E+04  0.50400001928E-02 0.  1.
        1   -1    0    0  501    0  0.00000000000E+00  0.00000000000E+00 -0.20067382083E+04  0.20067382083E+04  0.50400001928E-02 0. -1.
    10030    2    1    2    0    0  0.00000000000E+00  0.00000000000E+00 -0.17281030276E+02  0.39961953863E+04  0.39961580213E+04 0.  0.
        4    1    3    3  502    0 -0.95602022964E+03  0.34451168224E+03  0.17117403986E+04  0.19906581283E+04  0.12699999809E+01 0.  1.
       -4    1    3    3    0  502  0.95602022964E+03 -0.34451168224E+03 -0.17290214289E+04  0.20055372580E+04  0.12699999809E+01 0. -1.
</event>
<event>
 5   0  0.2473224E-07  0.3917480E+04  0.7818609E-02  0.8021403E-01
        2   -1    0    0  501    0  0.00000000000E+00  0.00000000000E+00  0.27021357164E+04  0.27021357164E+04  0.25500000920E-02 0. -1.
       -2   -1    0    0    0  501  0.00000000000E+00  0.00000000000E+00 -0.14198632019E+04  0.14198632019E+04  0.25500000920E-02 0.  1.
    10030    2    1    2    0    0  0.00000000000E+00  0.00000000000E+00  0.12822725146E+04  0.41219989183E+04  0.39174803485E+04 0.  0.
        2    1    3    3  502    0 -0.73503092421E+02 -0.14017895635E+04  0.20785623917E+04  0.25081543615E+04  0.25500000920E-02 0. -1.
       -2    1    3    3    0  502  0.73503092421E+02  0.14017895635E+04 -0.79628987712E+03  0.16138445568E+04  0.25500000920E-02 0.  1.
</event>
<event>
 5   0  0.7675750E-08  0.3845838E+04  0.7818609E-02  0.8036389E-01
       -1   -1    0    0    0  501  0.00000000000E+00  0.00000000000E+00  0.17862682100E+04  0.17862682100E+04  0.50400001928E-02 0.  1.
        1   -1    0    0  501    0  0.00000000000E+00  0.00000000000E+00 -0.20700232631E+04  0.20700232631E+04  0.50400001928E-02 0. -1.
    10030    2    1    2    0    0  0.00000000000E+00  0.00000000000E+00 -0.28375505306E+03  0.38562914732E+04  0.38458376195E+04 0.  0.
        5    1    3    3  502    0 -0.10141411377E+03  0.18771840891E+04 -0.54731524543E+03  0.19579788035E+04  0.46999998093E+01 0. -1.
       -5    1    3    3    0  502  0.10141411377E+03 -0.18771840891E+04  0.26356019237E+03  0.18983126697E+04  0.46999998093E+01 0.  1.
</event>
<event>
 5   0  0.2473224E-07  0.4022005E+04  0.7818609E-02  0.8000122E-01
        2   -1    0    0  501    0  0.00000000000E+00  0.00000000000E+00  0.23897710228E+04  0.23897710228E+04  0.25500000920E-02 0.  1.
       -2   -1    0    0    0  501  0.00000000000E+00  0.00000000000E+00 -0.16922670367E+04  0.16922670367E+04  0.25500000920E-02 0. -1.
    10030    2    1    2    0    0  0.00000000000E+00  0.00000000000E+00  0.69750398615E+03  0.40820380595E+04  0.40220048369E+04 0.  0.
        2    1    3    3  502    0 -0.12199932561E+04 -0.15127165595E+04  0.87361290030E+03  0.21307028028E+04  0.25500000920E-02 0.  1.
       -2    1    3    3    0  502  0.12199932561E+04  0.15127165595E+04 -0.17610891415E+03  0.19513352567E+04  0.25500000920E-02 0. -1.
</event>
<event>
 5   0  0.7675750E-08  0.3916148E+04  0.7818609E-02  0.8021679E-01
        1   -1    0    0  501    0  0.00000000000E+00  0.00000000000E+00  0.20099152678E+04  0.20099152678E+04  0.50400001928E-02 0.  1.
       -1   -1    0    0    0  501  0.00000000000E+00  0.00000000000E+00 -0.19075698113E+04  0.19075698113E+04  0.50400001928E-02 0. -1.
    10030    2    1    2    0    0  0.00000000000E+00  0.00000000000E+00  0.10234545655E+03  0.39174850791E+04  0.39161479482E+04 0.  0.
        4    1    3    3  502    0  0.64311697338E+03  0.59207647185E+02 -0.17979570275E+04  0.19104334777E+04  0.12699999809E+01 0. -1.
       -4    1    3    3    0  502 -0.64311697338E+03 -0.59207647185E+02  0.19003024841E+04  0.20070516014E+04  0.12699999809E+01 0.  1.
</event>
<event>
 5   0  0.7675750E-08  0.3868572E+04  0.7818609E-02  0.8031598E-01
        1   -1    0    0  501    0  0.00000000000E+00  0.00000000000E+00  0.16179224509E+04  0.16179224509E+04  0.50400001928E-02 0. -1.
       -1   -1    0    0    0  501  0.00000000000E+00  0.00000000000E+00 -0.23125097851E+04  0.23125097851E+04  0.50400001928E-02 0.  1.
    10030    2    1    2    0    0  0.00000000000E+00  0.00000000000E+00 -0.69458733419E+03  0.39304322360E+04  0.38685715706E+04 0.  0.
        4    1    3    3  502    0 -0.15075843635E+04 -0.94197925813E+03  0.42734457743E+03  0.18283217815E+04  0.12699999809E+01 0. -1.
       -4    1    3    3    0  502  0.15075843635E+04  0.94197925813E+03 -0.11219319116E+04  0.21021104545E+04  0.12699999809E+01 0.  1.
</event>
<event>
 5   0  0.7675750E-08  0.3921031E+04  0.7818609E-02  0.8020669E-01
        1   -1    0    0  501    0  0.00000000000E+00  0.00000000000E+00  0.17191719259E+04  0.17191719260E+04  0.50400001928E-02 0. -1.
       -1   -1    0    0    0  501  0.00000000000E+00  0.00000000000E+00 -0.22357398168E+04  0.22357398168E+04  0.50400001928E-02 0.  1.
    10030    2    1    2    0    0  0.00000000000E+00  0.00000000000E+00 -0.51656789086E+03  0.39549117428E+04  0.39210310515E+04 0.  0.
        4    1    3    3  502    0  0.14852623781E+04  0.12107660051E+04  0.15961585205E+03  0.19228721964E+04  0.12699999809E+01 0.  1.
       -4    1    3    3    0  502 -0.14852623781E+04 -0.12107660051E+04 -0.67618374290E+03  0.20320395463E+04  0.12699999809E+01 0. -1.
</event>
<event>
 5   0  0.2473224E-07  0.3841151E+04  0.7818609E-02  0.8037381E-01
       -2   -1    0    0    0  501  0.00000000000E+00  0.00000000000E+00  0.15922299626E+04  0.15922299626E+04  0.25500000920E-02 0. -1.
        2   -1    0    0  501    0  0.00000000000E+00  0.00000000000E+00 -0.23166320701E+04  0.23166320701E+04  0.25500000920E-02 0.  1.
    10030    2    1    2    0    0  0.00000000000E+00  0.00000000000E+00 -0.72440210759E+03  0.39088620327E+04  0.38411513869E+04 0.  0.
        2    1    3    3  502    0  0.37601251146E+03  0.23656976968E+02  0.15542558595E+04  0.15992674379E+04  0.25500000920E-02 0. -1.
       -2    1    3    3    0  502 -0.37601251146E+03 -0.23656976968E+02 -0.22786579671E+04  0.23095945948E+04  0.25500000920E-02 0.  1.
</event>
<event>
 5   0  0.2486268E-07  0.3933735E+04  0.7818609E-02  0.8018049E-01
        2   -1    0    0  501    0  0.00000000000E+00  0.00000000000E+00  0.12166385665E+04  0.12166385665E+04  0.25500000920E-02 0. -1.
       -2   -1    0    0    0  501  0.00000000000E+00  0.00000000000E+00 -0.31797183180E+04  0.31797183180E+04  0.25500000920E-02 0.  1.
    10030    2    1    2    0    0  0.00000000000E+00  0.00000000000E+00 -0.19630797515E+04  0.43963568844E+04  0.39337350883E+04 0.  0.
        5    1    3    3  502    0 -0.86972218945E+03 -0.38826137249E+03  0.94170713487E+03  0.13394021047E+04  0.46999998093E+01 0. -1.
       -5    1    3    3    0  502  0.86972218945E+03  0.38826137249E+03 -0.29047868864E+04  0.30569547797E+04  0.46999998093E+01 0.  1.
</event>
<event>
 5   0  0.2486268E-07  0.3886698E+04  0.7818609E-02  0.8027801E-01
        2   -1    0    0  501    0  0.00000000000E+00  0.00000000000E+00  0.23303785410E+04  0.23303785410E+04  0.25500000920E-02 0. -1.
       -2   -1    0    0    0  501  0.00000000000E+00  0.00000000000E+00 -0.16205973318E+04  0.16205973318E+04  0.25500000920E-02 0.  1.
    10030    2    1    2    0    0  0.00000000000E+00  0.00000000000E+00  0.70978120925E+03  0.39509758728E+04  0.38866979536E+04 0.  0.
        5    1    3    3  502    0  0.15165608985E+04  0.11981117755E+04  0.56111097614E+03  0.20125348204E+04  0.46999998093E+01 0.  1.
       -5    1    3    3    0  502 -0.15165608985E+04 -0.11981117755E+04  0.14867023311E+03  0.19384410524E+04  0.46999998093E+01 0. -1.
</event>
<event>
 5   0  0.2384787E-07  0.3820747E+04  0.7818609E-02  0.8041717E-01
       -2   -1    0    0    0  501  0.00000000000E+00  0.00000000000E+00  0.17683731640E+04  0.17683731640E+04  0.25500000920E-02 0.  1.
        2   -1    0    0  501    0  0.00000000000E+00  0.00000000000E+00 -0.20637759701E+04  0.20637759701E+04  0.25500000920E-02 0. -1.
    10030    2    1    2    0    0  0.00000000000E+00  0.00000000000E+00 -0.29540280607E+03  0.38321491341E+04  0.38207465460E+04 0.  0.
        4    1    3    3  502    0 -0.17564503297E+04 -0.73020006514E+03 -0.32490502615E+03  0.19297343819E+04  0.12699999809E+01 0. -1.
       -4    1    3    3    0  502  0.17564503297E+04  0.73020006514E+03  0.29502220076E+02  0.19024147523E+04  0.12699999809E+01 0.  1.
</event>
<event>
 5   0  0.7675750E-08  0.3873348E+04  0.7818609E-02  0.8030595E-01
       -1   -1    0    0    0  501  0.00000000000E+00  0.00000000000E+00  0.12916737321E+04  0.12916737321E+04  0.50400001928E-02 0.  1.
        1   -1    0    0  501    0  0.00000000000E+00  0.00000000000E+00 -0.29037565207E+04  0.29037565207E+04  0.50400001928E-02 0. -1.
    10030    2    1    2    0    0  0.00000000000E+00  0.00000000000E+00 -0.16120827886E+04  0.41954302529E+04  0.38733479174E+04 0.  0.
        4    1    3    3  502    0 -0.11638727271E+04  0.22993677014E+03 -0.24640920911E+04  0.27348166464E+04  0.12699999809E+01 0. -1.
       -4    1    3    3    0  502  0.11638727271E+04 -0.22993677014E+03  0.85200930246E+03  0.14606136065E+04  0.12699999809E+01 0.  1.
</event>
<event>
 5   0  0.7675750E-08  0.3890923E+04  0.7818609E-02  0.8026920E-01
       -1   -1    0    0    0  501  0.00000000000E+00  0.00000000000E+00  0.27423028511E+04  0.27423028511E+04  0.50400001928E-02 0.  1.
        1   -1    0    0  501    0  0.00000000000E+00  0.00000000000E+00 -0.13801614667E+04  0.13801614667E+04  0.50400001928E-02 0. -1.
    10030    2    1    2    0    0  0.00000000000E+00  0.00000000000E+00  0.13621413844E+04  0.41224643178E+04  0.38909231424E+04 0.  0.
        2    1    3    3  502    0 -0.50074905828E+03 -0.12048073962E+04 -0.84789530148E+03  0.15560324301E+04  0.25500000920E-02 0. -1.
       -2    1    3    3    0  502  0.50074905828E+03  0.12048073962E+04  0.22100366859E+04  0.25664318877E+04  0.25500000920E-02 0.  1.
</event>
<event>
 5   0  0.2473224E-07  0.3888625E+04  0.7818609E-02  0.8027399E-01
       -2   -1    0    0    0  501  0.00000000000E+00  0.00000000000E+00  0.15373239934E+04  0.15373239934E+04  0.25500000920E-02 0.  1.
        2   -1    0    0  501    0  0.00000000000E+00  0.00000000000E+00 -0.24590466952E+04  0.24590466952E+04  0.25500000920E-02 0. -1.
    10030    2    1    2    0    0  0.00000000000E+00  0.00000000000E+00 -0.92172270180E+03  0.39963706887E+04  0.38886251995E+04 0.  0.
        2    1    3    3  502    0 -0.64881285890E+03  0.77637628438E+03  0.12454535048E+04  0.16046409858E+04  0.25500000920E-02 0.  1.
       -2    1    3    3    0  502  0.64881285890E+03 -0.77637628438E+03 -0.21671762066E+04  0.23917297028E+04  0.25500000920E-02 0. -1.
</event>
<event>
 5   0  0.7675750E-08  0.3339817E+04  0.7818609E-02  0.8152837E-01
       -1   -1    0    0    0  501  0.00000000000E+00  0.00000000000E+00  0.22164899400E+04  0.22164899400E+04  0.50400001928E-02 0.  1.
        1   -1    0    0  501    0  0.00000000000E+00  0.00000000000E+00 -0.12581128125E+04  0.12581128125E+04  0.50400001928E-02 0. -1.
    10030    2    1    2    0    0  0.00000000000E+00  0.00000000000E+00  0.95837712757E+03  0.34746027525E+04  0.33398169964E+04 0.  0.
        2    1    3    3  502    0 -0.79250774784E+03 -0.78134695754E+03  0.17744323909E+04  0.20945600752E+04  0.25500000920E-02 0.  1.
       -2    1    3    3    0  502  0.79250774784E+03  0.78134695754E+03 -0.81605526337E+03  0.13800426774E+04  0.25500000920E-02 0. -1.
</event>
<event>
 5   0  0.2395572E-07  0.4192705E+04  0.7818609E-02  0.7966761E-01
       -2   -1    0    0    0  501  0.00000000000E+00  0.00000000000E+00  0.23256080640E+04  0.23256080640E+04  0.25500000920E-02 0. -1.
        2   -1    0    0  501    0  0.00000000000E+00  0.00000000000E+00 -0.18896964385E+04  0.18896964385E+04  0.25500000920E-02 0.  1.
    10030    2    1    2    0    0  0.00000000000E+00  0.00000000000E+00  0.43591162552E+03  0.42153045025E+04  0.41927047480E+04 0.  0.
        3    1    3    3  502    0  0.36279276071E+03  0.13961372312E+04  0.17472979932E+04  0.22658040610E+04  0.10100000352E+00 0. -1.
       -3    1    3    3    0  502 -0.36279276071E+03 -0.13961372312E+04 -0.13113863677E+04  0.19495004415E+04  0.10100000352E+00 0.  1.
</event>
<event>
 5   0  0.2486268E-07  0.3799508E+04  0.7818609E-02  0.8046260E-01
       -2   -1    0    0    0  501  0.00000000000E+00  0.00000000000E+00  0.15290303594E+04  0.15290303594E+04  0.25500000920E-02 0.  1.
        2   -1    0    0  501    0  0.00000000000E+00  0.00000000000E+00 -0.23603626283E+04  0.23603626283E+04  0.25500000920E-02 0. -1.
    10030    2    1    2    0    0  0.00000000000E+00  0.00000000000E+00 -0.83133226889E+03  0.38893929876E+04  0.37995084512E+04 0.  0.
        5    1    3    3  502    0 -0.12424967450E+04  0.10007378913E+04  0.64012542854E+03  0.17190279645E+04  0.46999998093E+01 0.  1.
       -5    1    3    3    0  502  0.12424967450E+04 -0.10007378913E+04 -0.14714576974E+04  0.21703650231E+04  0.46999998093E+01 0. -1.
</event>
<event>
 5   0  0.7675750E-08  0.3854873E+04  0.7818609E-02  0.8034481E-01
        1   -1    0    0  501    0  0.00000000000E+00  0.00000000000E+00  0.20743569108E+04  0.20743569108E+04  0.50400001928E-02 0. -1.
       -1   -1    0    0    0  501  0.00000000000E+00  0.00000000000E+00 -0.17909219497E+04  0.17909219497E+04  0.50400001928E-02 0.  1.
    10030    2    1    2    0    0  0.00000000000E+00  0.00000000000E+00  0.28343496110E+03  0.38652788604E+04  0.38548729281E+04 0.  0.
        5    1    3    3  502    0 -0.15885850873E+04  0.10829074864E+04  0.27882733905E+03  0.19426934855E+04  0.46999998093E+01 0.  1.
       -5    1    3    3    0  502  0.15885850873E+04 -0.10829074864E+04  0.46076220530E+01  0.19225853749E+04  0.46999998093E+01 0. -1.
</event>
<event>
 5   0  0.7731706E-08  0.3899600E+04  0.7818609E-02  0.8025112E-01
       -1   -1    0    0    0  501  0.00000000000E+00  0.00000000000E+00  0.17702847497E+04  0.17702847497E+04  0.50400001928E-02 0.  1.
        1   -1    0    0  501    0  0.00000000000E+00  0.00000000000E+00 -0.21475188942E+04  0.21475188942E+04  0.50400001928E-02 0. -1.
    10030    2    1    2    0    0  0.00000000000E+00  0.00000000000E+00 -0.37723414449E+03  0.39178036439E+04  0.38995999528E+04 0.  0.
        3    1    3    3  502    0 -0.27951324579E+03  0.16051115580E+04 -0.12646954728E+04  0.20625143436E+04  0.10100000352E+00 0. -1.
       -3    1    3    3    0  502  0.27951324579E+03 -0.16051115580E+04  0.88746132834E+03  0.18552893003E+04  0.10100000352E+00 0.  1.
</event>
<event>
 5   0  0.2395572E-07  0.3912383E+04  0.7818609E-02  0.8022459E-01
        2   -1    0    0  501    0  0.00000000000E+00  0.00000000000E+00  0.22778721252E+04  0.22778721252E+04  0.25500000920E-02 0. -1.
       -2   -1    0    0    0  501  0.00000000000E+00  0.00000000000E+00 -0.16799385408E+04  0.16799385408E+04  0.25500000920E-02 0.  1.
    10030    2    1    2    0    0  0.00000000000E+00  0.00000000000E+00  0.59793358439E+03  0.39578106660E+04  0.39123829946E+04 0.  0.
        3    1    3    3  502    0 -0.11063469283E+04 -0.14840394691E+04  0.93901259460E+03  0.20756014393E+04  0.10100000352E+00 0. -1.
       -3    1    3    3    0  502  0.11063469283E+04  0.14840394691E+04 -0.34107901021E+03  0.18822092267E+04  0.10100000352E+00 0.  1.
</event>
<event>
 5   0  0.2446281E-07  0.3904487E+04  0.7818609E-02  0.8024097E-01
       -2   -1    0    0    0  501  0.00000000000E+00  0.00000000000E+00  0.10612899386E+04  0.10612899386E+04  0.25500000920E-02 0.  1.
        2   -1    0    0  501    0  0.00000000000E+00  0.00000000000E+00 -0.35911523605E+04  0.35911523605E+04  0.25500000920E-02 0. -1.
    10030    2    1    2    0    0  0.00000000000E+00  0.00000000000E+00 -0.25298624219E+04  0.46524422991E+04  0.39044865825E+04 0.  0.
        1    1    3    3  502    0 -0.46980675622E+03  0.11228390634E+04  0.55382040032E+03  0.13372370719E+04  0.50400001928E-02 0.  1.
       -1    1    3    3    0  502  0.46980675622E+03 -0.11228390634E+04 -0.30836828222E+04  0.33152052272E+04  0.50400001928E-02 0. -1.
</event>
<event>
 5   0  0.2446281E-07  0.3890848E+04  0.7818609E-02  0.8026935E-01
        2   -1    0    0  501    0  0.00000000000E+00  0.00000000000E+00  0.12762566552E+04  0.12762566552E+04  0.25500000920E-02 0.  1.
       -2   -1    0    0    0  501  0.00000000000E+00  0.00000000000E+00 -0.29654492674E+04  0.29654492674E+04  0.25500000920E-02 0. -1.
    10030    2    1    2    0    0  0.00000000000E+00  0.00000000000E+00 -0.16891926122E+04  0.42417059225E+04  0.38908479091E+04 0.  0.
        1    1    3    3  502    0  0.14828776195E+04 -0.12336710513E+04 -0.56922386268E+03  0.20111902205E+04  0.50400001928E-02 0.  1.
       -1    1    3    3    0  502 -0.14828776195E+04  0.12336710513E+04 -0.11199687495E+04  0.22305157020E+04  0.50400001928E-02 0. -1.
</event>
<event>
 5   0  0.2473224E-07  0.3978856E+04  0.7818609E-02  0.8008826E-01
       -2   -1    0    0    0  501  0.00000000000E+00  0.00000000000E+00  0.24737537380E+04  0.24737537380E+04  0.25500000920E-02 0.  1.
        2   -1    0    0  501    0  0.00000000000E+00  0.00000000000E+00 -0.15999262797E+04  0.15999262797E+04  0.25500000920E-02 0. -1.
    10030    2    1    2    0    0  0.00000000000E+00  0.00000000000E+00  0.87382745837E+03  0.40736800177E+04  0.39788559235E+04 0.  0.
        2    1    3    3  502    0  0.14867419531E+04 -0.12091178695E+04 -0.11010003570E+03  0.19195024551E+04  0.25500000920E-02 0. -1.
       -2    1    3    3    0  502 -0.14867419531E+04  0.12091178695E+04  0.98392749408E+03  0.21541775626E+04  0.25500000920E-02 0.  1.
</event>
<event>
 5   0  0.7675750E-08  0.3897684E+04  0.7818609E-02  0.8025511E-01
       -1   -1    0    0    0  501  0.00000000000E+00  0.00000000000E+00  0.16141036238E+04  0.16141036238E+04  0.50400001928E-02 0. -1.
        1   -1    0    0  501    0  0.00000000000E+00  0.00000000000E+00 -0.23529993406E+04  0.23529993406E+04  0.50400001928E-02 0.  1.
    10030    2    1    2    0    0  0.00000000000E+00  0.00000000000E+00 -0.73889571683E+03  0.39671029644E+04  0.38976838058E+04 0.  0.
        1    1    3    3  502    0  0.35757724712E+03  0.13742361985E+04  0.98908999516E+03  0.17305160026E+04  0.50400001928E-02 0. -1.
       -1    1    3    3    0  502 -0.35757724712E+03 -0.13742361985E+04 -0.17279857120E+04  0.22365869618E+04  0.50400001928E-02 0.  1.
</event>
<event>
 5   0  0.2446281E-07  0.3875639E+04  0.7818609E-02  0.8030115E-01
       -2   -1    0    0    0  501  0.00000000000E+00  0.00000000000E+00  0.13124888221E+04  0.13124888221E+04  0.25500000920E-02 0.  1.
        2   -1    0    0  501    0  0.00000000000E+00  0.00000000000E+00 -0.28610866346E+04  0.28610866346E+04  0.25500000920E-02 0. -1.
    10030    2    1    2    0    0  0.00000000000E+00  0.00000000000E+00 -0.15485978125E+04  0.41735754567E+04  0.38756389032E+04 0.  0.
        1    1    3    3  502    0  0.29782775481E+03  0.14844693933E+04  0.52813732957E+03  0.16035210601E+04  0.50400001928E-02 0.  1.
       -1    1    3    3    0  502 -0.29782775481E+03 -0.14844693933E+04 -0.20767351420E+04  0.25700543966E+04  0.50400001928E-02 0. -1.
</event>
<event>
 5   0  0.2384787E-07  0.3760868E+04  0.7818609E-02  0.8054605E-01
       -2   -1    0    0    0  501  0.00000000000E+00  0.00000000000E+00  0.18948380065E+04  0.18948380065E+04  0.25500000920E-02 0. -1.
        2   -1    0    0  501    0  0.00000000000E+00  0.00000000000E+00 -0.18661391389E+04  0.18661391389E+04  0.25500000920E-02 0.  1.
    10030    2    1    2    0    0  0.00000000000E+00  0.00000000000E+00  0.28698867619E+02  0.37609771454E+04  0.37608676477E+04 0.  0.
        4    1    3    3  502    0  0.15019006111E+04  0.10385694776E+04  0.46347023313E+03  0.18839156763E+04  0.12699999809E+01 0. -1.
       -4    1    3    3    0  502 -0.15019006111E+04 -0.10385694776E+04 -0.43477136551E+03  0.18770614691E+04  0.12699999809E+01 0.  1.
</event>
<event>
 5   0  0.2395572E-07  0.3889546E+04  0.7818609E-02  0.8027207E-01
       -2   -1    0    0    0  501  0.00000000000E+00  0.00000000000E+00  0.14780742184E+04  0.14780742184E+04  0.25500000920E-02 0.  1.
        2   -1    0    0  501    0  0.00000000000E+00  0.00000000000E+00 -0.25588310734E+04  0.25588310734E+04  0.25500000920E-02 0. -1.
    10030    2    1    2    0    0  0.00000000000E+00  0.00000000000E+00 -0.10807568551E+04  0.40369052918E+04  0.38895461117E+04 0.  0.
        3    1    3    3  502    0 -0.14705532039E+04 -0.94371672083E+03 -0.14265496570E+04  0.22556976546E+04  0.10100000352E+00 0. -1.
       -3    1    3    3    0  502  0.14705532039E+04  0.94371672083E+03  0.34579280197E+03  0.17812076372E+04  0.10100000352E+00 0.  1.
</event>
<event>
 5   0  0.7675750E-08  0.3867257E+04  0.7818609E-02  0.8031874E-01
        1   -1    0    0  501    0  0.00000000000E+00  0.00000000000E+00  0.17175204397E+04  0.17175204398E+04  0.50400001928E-02 0.  1.
       -1   -1    0    0    0  501  0.00000000000E+00  0.00000000000E+00 -0.21769283793E+04  0.21769283793E+04  0.50400001928E-02 0. -1.
    10030    2    1    2    0    0  0.00000000000E+00  0.00000000000E+00 -0.45940793959E+03  0.38944488191E+04  0.38672569025E+04 0.  0.
        5    1    3    3  502    0 -0.34621740424E+03  0.20274079836E+02 -0.21453463175E+04  0.21732028072E+04  0.46999998093E+01 0. -1.
       -5    1    3    3    0  502  0.34621740424E+03 -0.20274079836E+02  0.16859383779E+04  0.17212460119E+04  0.46999998093E+01 0.  1.
</event>
<event>
 5   0  0.7675750E-08  0.3813389E+04  0.7818609E-02  0.8043288E-01
       -1   -1    0    0    0  501  0.00000000000E+00  0.00000000000E+00  0.15125122441E+04  0.15125122442E+04  0.50400001928E-02 0.  1.
        1   -1    0    0  501    0  0.00000000000E+00  0.00000000000E+00 -0.24036067667E+04  0.24036067667E+04  0.50400001928E-02 0. -1.
    10030    2    1    2    0    0  0.00000000000E+00  0.00000000000E+00 -0.89109452251E+03  0.39161190108E+04  0.38133893925E+04 0.  0.
        2    1    3    3  502    0  0.95390881199E+03  0.10594098724E+04  0.85473512861E+03  0.16621863432E+04  0.25500000920E-02 0.  1.
       -2    1    3    3    0  502 -0.95390881199E+03 -0.10594098724E+04 -0.17458296511E+04  0.22539326676E+04  0.25500000920E-02 0. -1.
</event>
<event>
 5   0  0.2446281E-07  0.3194315E+04  0.7818609E-02  0.8190320E-01
       -2   -1    0    0    0  501  0.00000000000E+00  0.00000000000E+00  0.18313230168E+04  0.18313230168E+04  0.25500000920E-02 0.  1.
        2   -1    0    0  501    0  0.00000000000E+00  0.00000000000E+00 -0.13929338544E+04  0.13929338544E+04  0.25500000920E-02 0. -1.
    10030    2    1    2    0    0  0.00000000000E+00  0.00000000000E+00  0.43838916239E+03  0.32242568712E+04  0.31943148426E+04 0.  0.
        1    1    3    3  502    0  0.11389246252E+04  0.11046904633E+04  0.40372370838E+03  0.16372181145E+04  0.50400001928E-02 0.  1.
       -1    1    3    3    0  502 -0.11389246252E+04 -0.11046904633E+04  0.34665454014E+02  0.15870387567E+04  0.50400001928E-02 0. -1.
</event>
<event>
 5   0  0.2384787E-07  0.3902745E+04  0.7818609E-02  0.8024459E-01
       -2   -1    0    0    0  501  0.00000000000E+00  0.00000000000E+00  0.17749189987E+04  0.17749189987E+04  0.25500000920E-02 0.  1.
        2   -1    0    0  501    0  0.00000000000E+00  0.00000000000E+00 -0.21453681750E+04  0.21453681750E+04  0.25500000920E-02 0. -1.
    10030    2    1    2    0    0  0.00000000000E+00  0.00000000000E+00 -0.37044917627E+03  0.39202871738E+04  0.39027450509E+04 0.  0.
        4    1    3    3  502    0 -0.11170152309E+03  0.18933499915E+04  0.27575175236E+03  0.19165834348E+04  0.12699999809E+01 0. -1.
       -4    1    3    3    0  502  0.11170152309E+03 -0.18933499915E+04 -0.64620092863E+03  0.20037037390E+04  0.12699999809E+01 0.  1.
</event>
<event>
 5   0  0.2395572E-07  0.3913177E+04  0.7818609E-02  0.8022294E-01
        2   -1    0    0  501    0  0.00000000000E+00  0.00000000000E+00  0.22121358624E+04  0.22121358624E+04  0.25500000920E-02 0. -1.
       -2   -1    0    0    0  501  0.00000000000E+00  0.00000000000E+00 -0.17305623033E+04  0.17305623033E+04  0.25500000920E-02 0.  1.
    10030    2    1    2    0    0  0.00000000000E+00  0.00000000000E+00  0.48157355913E+03  0.39426981657E+04  0.39131771916E+04 0.  0.
        3    1    3    3  502    0  0.14261435005E+03  0.17264373339E+04 -0.67564313495E+03  0.18594134497E+04  0.10100000352E+00 0.  1.
       -3    1    3    3    0  502 -0.14261435005E+03 -0.17264373339E+04  0.11572166941E+04  0.20832847160E+04  0.10100000352E+00 0. -1.
</event>
<event>
 5   0  0.7731706E-08  0.3865715E+04  0.7818609E-02  0.8032198E-01
        1   -1    0    0  501    0  0.00000000000E+00  0.00000000000E+00  0.20526020713E+04  0.20526020713E+04  0.50400001928E-02 0.  1.
       -1   -1    0    0    0  501  0.00000000000E+00  0.00000000000E+00 -0.18200984593E+04  0.18200984593E+04  0.50400001928E-02 0. -1.
    10030    2    1    2    0    0  0.00000000000E+00  0.00000000000E+00  0.23250361205E+03  0.38727005306E+04  0.38657148718E+04 0.  0.
        3    1    3    3  502    0 -0.85998039800E+03  0.17196395616E+04 -0.82124590450E+02  0.19244404292E+04  0.10100000352E+00 0.  1.
       -3    1    3    3    0  502  0.85998039800E+03 -0.17196395616E+04  0.31462820250E+03  0.19482601014E+04  0.10100000352E+00 0. -1.
</event>
<event>
 5   0  0.2473224E-07  0.3885955E+04  0.7818609E-02  0.8027957E-01
       -2   -1    0    0    0  501  0.00000000000E+00  0.00000000000E+00  0.15340389081E+04  0.15340389081E+04  0.25500000920E-02 0.  1.
        2   -1    0    0  501    0  0.00000000000E+00  0.00000000000E+00 -0.24609290681E+04  0.24609290681E+04  0.25500000920E-02 0. -1.
    10030    2    1    2    0    0  0.00000000000E+00  0.00000000000E+00 -0.92689015999E+03  0.39949679762E+04  0.38859546783E+04 0.  0.
        2    1    3    3  502    0 -0.51366923161E+03 -0.16762929965E+04  0.39751285882E+03  0.17977293351E+04  0.25500000920E-02 0.  1.
       -2    1    3    3    0  502  0.51366923161E+03  0.16762929965E+04 -0.13244030188E+04  0.21972386411E+04  0.25500000920E-02 0. -1.
</event>
<event>
 5   0  0.7675750E-08  0.3872157E+04  0.7818609E-02  0.8030845E-01
        1   -1    0    0  501    0  0.00000000000E+00  0.00000000000E+00  0.11677018199E+04  0.11677018199E+04  0.50400001928E-02 0.  1.
       -1   -1    0    0    0  501  0.00000000000E+00  0.00000000000E+00 -0.32100661817E+04  0.32100661817E+04  0.50400001928E-02 0. -1.
    10030    2    1    2    0    0  0.00000000000E+00  0.00000000000E+00 -0.20423643618E+04  0.43777680016E+04  0.38721570848E+04 0.  0.
        1    1    3    3  502    0 -0.39017627082E+02  0.80374662423E+03  0.96968135673E+03  0.12600844991E+04  0.50400001928E-02 0.  1.
       -1    1    3    3    0  502  0.39017627082E+02 -0.80374662423E+03 -0.30120457185E+04  0.31176835025E+04  0.50400001928E-02 0. -1.
</event>
<event>
 5   0  0.7675750E-08  0.3937060E+04  0.7818609E-02  0.8017365E-01
       -1   -1    0    0    0  501  0.00000000000E+00  0.00000000000E+00  0.17983297892E+04  0.17983297892E+04  0.50400001928E-02 0.  1.
        1   -1    0    0  501    0  0.00000000000E+00  0.00000000000E+00 -0.21548380807E+04  0.21548380807E+04  0.50400001928E-02 0. -1.
    10030    2    1    2    0    0  0.00000000000E+00  0.00000000000E+00 -0.35650829154E+03  0.39531678699E+04  0.39370595684E+04 0.  0.
        2    1    3    3  502    0  0.10947810843E+04 -0.43903993124E+03 -0.17607124175E+04  0.21192946706E+04  0.25500000920E-02 0. -1.
       -2    1    3    3    0  502 -0.10947810843E+04  0.43903993124E+03  0.14042041259E+04  0.18338731993E+04  0.25500000920E-02 0.  1.
</event>
<event>
 5   0  0.2486268E-07  0.3823346E+04  0.7818609E-02  0.8041163E-01
        2   -1    0    0  501    0  0.00000000000E+00  0.00000000000E+00  0.15142115909E+04  0.15142115909E+04  0.25500000920E-02 0.  1.
       -2   -1    0    0    0  501  0.00000000000E+00  0.00000000000E+00 -0.24134631119E+04  0.24134631119E+04  0.25500000920E-02 0. -1.
    10030    2    1    2    0    0  0.00000000000E+00  0.00000000000E+00 -0.89925152108E+03  0.39276747028E+04  0.38233460833E+04 0.  0.
        5    1    3    3  502    0 -0.11625857063E+04 -0.14464387437E+03  0.11022052454E+04  0.16085415344E+04  0.46999998093E+01 0.  1.
       -5    1    3    3    0  502  0.11625857063E+04  0.14464387437E+03 -0.20014567665E+04  0.23191331684E+04  0.46999998093E+01 0. -1.
</event>
<event>
 5   0  0.7675750E-08  0.3924423E+04  0.7818609E-02  0.8019969E-01
        1   -1    0    0  501    0  0.00000000000E+00  0.00000000000E+00  0.13297142117E+04  0.13297142117E+04  0.50400001928E-02 0.  1.
       -1   -1    0    0    0  501  0.00000000000E+00  0.00000000000E+00 -0.28955654977E+04  0.28955654977E+04  0.50400001928E-02 0. -1.
    10030    2    1    2    0    0  0.00000000000E+00  0.00000000000E+00 -0.15658512860E+04  0.42252797094E+04  0.39244233172E+04 0.  0.
        1    1    3    3  502    0 -0.10346171134E+04  0.28720165462E+03 -0.25511967480E+04  0.27679454851E+04  0.50400001928E-02 0. -1.
       -1    1    3    3    0  502  0.10346171134E+04 -0.28720165462E+03  0.98534546199E+03  0.14573342243E+04  0.50400001928E-02 0.  1.
</event>
<event>
 5   0  0.2384787E-07  0.3906827E+04  0.7818609E-02  0.8023611E-01
       -2   -1    0    0    0  501  0.00000000000E+00  0.00000000000E+00  0.13357005627E+04  0.13357005627E+04  0.25500000920E-02 0.  1.
        2   -1    0    0  501    0  0.00000000000E+00  0.00000000000E+00 -0.28567960217E+04  0.28567960217E+04  0.25500000920E-02 0. -1.
    10030    2    1    2    0    0  0.00000000000E+00  0.00000000000E+00 -0.15210954591E+04  0.41924965844E+04  0.39068268729E+04 0.  0.
        4    1    3    3  502    0  0.67351097005E+03 -0.15478004095E+04 -0.18155510290E+04  0.24790180085E+04  0.12699999809E+01 0. -1.
       -4    1    3    3    0  502 -0.67351097005E+03  0.15478004095E+04  0.29445556999E+03  0.17134785759E+04  0.12699999809E+01 0.  1.
</event>
<event>
 5   0  0.2395572E-07  0.3787915E+04  0.7818609E-02  0.8048753E-01
        2   -1    0    0  501    0  0.00000000000E+00  0.00000000000E+00  0.19690626150E+04  0.19690626150E+04  0.25500000920E-02 0.  1.
       -2   -1    0    0    0  501  0.00000000000E+00  0.00000000000E+00 -0.18217166462E+04  0.18217166462E+04  0.25500000920E-02 0. -1.
    10030    2    1    2    0    0  0.00000000000E+00  0.00000000000E+00  0.14734596883E+03  0.37907792612E+04  0.37879145413E+04 0.  0.
        3    1    3    3  502    0 -0.69170598844E+03 -0.10675659452E+04 -0.13305702789E+04  0.18408072954E+04  0.10100000352E+00 0. -1.
       -3    1    3    3    0  502  0.69170598844E+03  0.10675659452E+04  0.14779162477E+04  0.19499719657E+04  0.10100000352E+00 0.  1.
</event>
<event>
 5   0  0.2395572E-07  0.3858398E+04  0.7818609E-02  0.8033738E-01
        2   -1    0    0  501    0  0.00000000000E+00  0.00000000000E+00  0.22911897177E+04  0.22911897177E+04  0.25500000920E-02 0. -1.
       -2   -1    0    0    0  501  0.00000000000E+00  0.00000000000E+00 -0.16243997174E+04  0.16243997174E+04  0.25500000920E-02 0.  1.
    10030    2    1    2    0    0  0.00000000000E+00  0.00000000000E+00  0.66679000027E+03  0.39155894351E+04  0.38583975586E+04 0.  0.
        3    1    3    3  502    0  0.16734169006E+04 -0.95383643411E+03  0.44307031017E+03  0.19764714459E+04  0.10100000352E+00 0. -1.
       -3    1    3    3    0  502 -0.16734169006E+04  0.95383643411E+03  0.22371969010E+03  0.19391179893E+04  0.10100000352E+00 0.  1.
</event>
<event>
 5   0  0.7675750E-08  0.3870569E+04  0.7818609E-02  0.8031178E-01
       -1   -1    0    0    0  501  0.00000000000E+00  0.00000000000E+00  0.12780635610E+04  0.12780635610E+04  0.50400001928E-02 0.  1.
        1   -1    0    0  501    0  0.00000000000E+00  0.00000000000E+00 -0.29304697771E+04  0.29304697771E+04  0.50400001928E-02 0. -1.
    10030    2    1    2    0    0  0.00000000000E+00  0.00000000000E+00 -0.16524062161E+04  0.42085333381E+04  0.38705692804E+04 0.  0.
        5    1    3    3  502    0  0.71421583430E+03  0.14089039303E+04  0.38954593888E+03  0.16269242979E+04  0.46999998093E+01 0.  1.
       -5    1    3    3    0  502 -0.71421583430E+03 -0.14089039303E+04 -0.20419521550E+04  0.25816090401E+04  0.46999998093E+01 0. -1.
</event>
<event>
 5   0  0.2473224E-07  0.3902161E+04  0.7818609E-02  0.8024580E-01
       -2   -1    0    0    0  501  0.00000000000E+00  0.00000000000E+00  0.18001085326E+04  0.18001085326E+04  0.25500000920E-02 0. -1.
        2   -1    0    0  501    0  0.00000000000E+00  0.00000000000E+00 -0.21147144814E+04  0.21147144814E+04  0.25500000920E-02 0.  1.
    10030    2    1    2    0    0  0.00000000000E+00  0.00000000000E+00 -0.31460594878E+03  0.39148230140E+04  0.39021612380E+04 0.  0.
        2    1    3    3  502    0 -0.16853026817E+04 -0.82649184161E+03 -0.69136637163E+03  0.20003303110E+04  0.25500000920E-02 0.  1.
       -2    1    3    3    0  502  0.16853026817E+04  0.82649184161E+03  0.37676042286E+03  0.19144927029E+04  0.25500000920E-02 0. -1.
</event>
<event>
 5   0  0.2384787E-07  0.3899803E+04  0.7818609E-02  0.8025070E-01
        2   -1    0    0  501    0  0.00000000000E+00  0.00000000000E+00  0.17665705028E+04  0.17665705028E+04  0.25500000920E-02 0.  1.
       -2   -1    0    0    0  501  0.00000000000E+00  0.00000000000E+00 -0.21522579103E+04  0.21522579103E+04  0.25500000920E-02 0. -1.
    10030    2    1    2    0    0  0.00000000000E+00  0.00000000000E+00 -0.38568740741E+03  0.39188284131E+04  0.38998027328E+04 0.  0.
        4    1    3    3  502    0 -0.79514065611E+03  0.78640781116E+03 -0.17979553726E+04  0.21173877877E+04  0.12699999809E+01 0. -1.
       -4    1    3    3    0  502  0.79514065611E+03 -0.78640781116E+03  0.14122679652E+04  0.18014406254E+04  0.12699999809E+01 0.  1.
</event>
<event>
 5   0  0.2384787E-07  0.3888516E+04  0.7818609E-02  0.8027422E-01
        2   -1    0    0  501    0  0.00000000000E+00  0.00000000000E+00  0.12721071856E+04  0.12721071856E+04  0.25500000920E-02 0.  1.
       -2   -1    0    0    0  501  0.00000000000E+00  0.00000000000E+00 -0.29715572861E+04  0.29715572861E+04  0.25500000920E-02 0. -1.
    10030    2    1    2    0    0  0.00000000000E+00  0.00000000000E+00 -0.16994501005E+04  0.42436644717E+04  0.38885161057E+04 0.  0.
        4    1    3    3  502    0  0.35792032794E+03  0.11721302542E+04  0.79747930361E+03  0.14621802715E+04  0.12699999809E+01 0.  1.
       -4    1    3    3    0  502 -0.35792032794E+03 -0.11721302542E+04 -0.24969294041E+04  0.27814842002E+04  0.12699999809E+01 0. -1.
</event>
<event>
 5   0  0.7675750E-08  0.3858443E+04  0.7818609E-02  0.8033728E-01
        1   -1    0    0  501    0  0.00000000000E+00  0.00000000000E+00  0.13456466323E+04  0.13456466323E+04  0.50400001928E-02 0.  1.
       -1   -1    0    0    0  501  0.00000000000E+00  0.00000000000E+00 -0.27658789523E+04  0.27658789524E+04  0.50400001928E-02 0. -1.
    10030    2    1    2    0    0  0.00000000000E+00  0.00000000000E+00 -0.14202323200E+04  0.41115255847E+04  0.38584430527E+04 0.  0.
        4    1    3    3  502    0  0.12747592680E+04 -0.14073453693E+04 -0.10734531546E+04  0.21812692332E+04  0.12699999809E+01 0. -1.
       -4    1    3    3    0  502 -0.12747592680E+04  0.14073453693E+04 -0.34677916539E+03  0.19302563514E+04  0.12699999809E+01 0.  1.
</event>
<event>
 5   0  0.7675750E-08  0.3995222E+04  0.7818609E-02  0.8005511E-01
       -1   -1    0    0    0  501  0.00000000000E+00  0.00000000000E+00  0.31363101538E+04  0.31363101538E+04  0.50400001928E-02 0. -1.
        1   -1    0    0  501    0  0.00000000000E+00  0.00000000000E+00 -0.12723393017E+04  0.12723393017E+04  0.50400001928E-02 0.  1.
    10030    2    1    2    0    0  0.00000000000E+00  0.00000000000E+00  0.18639708521E+04  0.44086494555E+04  0.39952224824E+04 0.  0.
        5    1    3    3  502    0  0.19238815020E+04  0.16266766672E+03  0.36646087394E+03  0.19652217345E+04  0.46999998093E+01 0. -1.
       -5    1    3    3    0  502 -0.19238815020E+04 -0.16266766672E+03  0.14975099781E+04  0.24434277211E+04  0.46999998093E+01 0.  1.
</event>
<event>
 5   0  0.7675750E-08  0.3875900E+04  0.7818609E-02  0.8030060E-01
       -1   -1    0    0    0  501  0.00000000000E+00  0.00000000000E+00  0.16750712462E+04  0.16750712462E+04  0.50400001928E-02 0.  1.
        1   -1    0    0  501    0  0.00000000000E+00  0.00000000000E+00 -0.22420843995E+04  0.22420843995E+04  0.50400001928E-02 0. -1.
    10030    2    1    2    0    0  0.00000000000E+00  0.00000000000E+00 -0.56701315326E+03  0.39171556457E+04  0.38759004679E+04 0.  0.
        1    1    3    3  502    0 -0.10540954380E+04 -0.16261958727E+04 -0.27888623970E+03  0.19579090233E+04  0.50400001928E-02 0.  1.
       -1    1    3    3    0  502  0.10540954380E+04  0.16261958727E+04 -0.28812691356E+03  0.19592466224E+04  0.50400001928E-02 0. -1.
</event>
<event>
 5   0  0.7675750E-08  0.3794454E+04  0.7818609E-02  0.8047346E-01
        1   -1    0    0  501    0  0.00000000000E+00  0.00000000000E+00  0.20158834911E+04  0.20158834911E+04  0.50400001928E-02 0.  1.
       -1   -1    0    0    0  501  0.00000000000E+00  0.00000000000E+00 -0.17855546512E+04  0.17855546512E+04  0.50400001928E-02 0. -1.
    10030    2    1    2    0    0  0.00000000000E+00  0.00000000000E+00  0.23032883988E+03  0.38014381423E+04  0.37944539232E+04 0.  0.
        4    1    3    3  502    0 -0.69406677547E+03  0.37438951505E+03  0.18439049127E+04  0.20054633225E+04  0.12699999809E+01 0.  1.
       -4    1    3    3    0  502  0.69406677547E+03 -0.37438951505E+03 -0.16135760728E+04  0.17959748198E+04  0.12699999809E+01 0. -1.
</event>
<event>
 5   0  0.7675750E-08  0.3849112E+04  0.7818609E-02  0.8035697E-01
       -1   -1    0    0    0  501  0.00000000000E+00  0.00000000000E+00  0.19193050894E+04  0.19193050894E+04  0.50400001928E-02 0.  1.
        1   -1    0    0  501    0  0.00000000000E+00  0.00000000000E+00 -0.19298214787E+04  0.19298214787E+04  0.50400001928E-02 0. -1.
    10030    2    1    2    0    0  0.00000000000E+00  0.00000000000E+00 -0.10516389289E+02  0.38491265681E+04  0.38491122019E+04 0.  0.
        1    1    3    3  502    0 -0.11267409265E+04 -0.13894833724E+04  0.70446765946E+03  0.19226242069E+04  0.50400001928E-02 0.  1.
       -1    1    3    3    0  502  0.11267409265E+04  0.13894833724E+04 -0.71498404875E+03  0.19265023612E+04  0.50400001928E-02 0. -1.
</event>
<event>
 5   0  0.2473224E-07  0.3955634E+04  0.7818609E-02  0.8013557E-01
       -2   -1    0    0    0  501  0.00000000000E+00  0.00000000000E+00  0.13621480045E+04  0.13621480045E+04  0.25500000920E-02 0.  1.
        2   -1    0    0  501    0  0.00000000000E+00  0.00000000000E+00 -0.28717586015E+04  0.28717586015E+04  0.25500000920E-02 0. -1.
    10030    2    1    2    0    0  0.00000000000E+00  0.00000000000E+00 -0.15096105970E+04  0.42339066061E+04  0.39556340825E+04 0.  0.
        2    1    3    3  502    0 -0.29206413597E+03 -0.31950119562E+03  0.13108222970E+04  0.13804483213E+04  0.25500000920E-02 0.  1.
       -2    1    3    3    0  502  0.29206413597E+03  0.31950119562E+03 -0.28204328940E+04  0.28534582848E+04  0.25500000920E-02 0. -1.
</event>
<event>
 5   0  0.7675750E-08  0.3837494E+04  0.7818609E-02  0.8038156E-01
       -1   -1    0    0    0  501  0.00000000000E+00  0.00000000000E+00  0.17998371873E+04  0.17998371873E+04  0.50400001928E-02 0. -1.
        1   -1    0    0  501    0  0.00000000000E+00  0.00000000000E+00 -0.20455125915E+04  0.20455125915E+04  0.50400001928E-02 0.  1.
    10030    2    1    2    0    0  0.00000000000E+00  0.00000000000E+00 -0.24567540419E+03  0.38453497788E+04  0.38374937807E+04 0.  0.
        4    1    3    3  502    0 -0.11229556005E+04 -0.93718460334E+03  0.11215756880E+04  0.18431706101E+04  0.12699999809E+01 0. -1.
       -4    1    3    3    0  502  0.11229556005E+04  0.93718460334E+03 -0.13672510922E+04  0.20021791686E+04  0.12699999809E+01 0.  1.
</event>
<event>
 5   0  0.2473224E-07  0.3896236E+04  0.7818609E-02  0.8025812E-01
       -2   -1    0    0    0  501  0.00000000000E+00  0.00000000000E+00  0.20945383557E+04  0.20945383557E+04  0.25500000920E-02 0. -1.
        2   -1    0    0  501    0  0.00000000000E+00  0.00000000000E+00 -0.18119336117E+04  0.18119336117E+04  0.25500000920E-02 0.  1.
    10030    2    1    2    0    0  0.00000000000E+00  0.00000000000E+00  0.28260474397E+03  0.39064719674E+04  0.38962363623E+04 0.  0.
        2    1    3    3  502    0 -0.11106036703E+04  0.40750945936E+03  0.16931604657E+04  0.20655015939E+04  0.25500000920E-02 0. -1.
       -2    1    3    3    0  502  0.11106036703E+04 -0.40750945936E+03 -0.14105557217E+04  0.18409703735E+04  0.25500000920E-02 0.  1.
</event>
<event>
 5   0  0.7675750E-08  0.4080456E+04  0.7818609E-02  0.7988510E-01
        1   -1    0    0  501    0  0.00000000000E+00  0.00000000000E+00  0.20705547692E+04  0.20705547692E+04  0.50400001928E-02 0. -1.
       -1   -1    0    0    0  501  0.00000000000E+00  0.00000000000E+00 -0.20103450942E+04  0.20103450942E+04  0.50400001928E-02 0.  1.
    10030    2    1    2    0    0  0.00000000000E+00  0.00000000000E+00  0.60209675037E+02  0.40808998635E+04  0.40804556719E+04 0.  0.
        1    1    3    3  502    0  0.63878749016E+03  0.11710501531E+04 -0.15137994916E+04  0.20176711376E+04  0.50400001928E-02 0.  1.
       -1    1    3    3    0  502 -0.63878749016E+03 -0.11710501531E+04  0.15740091666E+04  0.20632287259E+04  0.50400001928E-02 0. -1.
</event>
<event>
 5   0  0.7675750E-08  0.3902616E+04  0.7818609E-02  0.8024485E-01
       -1   -1    0    0    0  501  0.00000000000E+00  0.00000000000E+00  0.23557815244E+04  0.23557815245E+04  0.50400001928E-02 0. -1.
        1   -1    0    0  501    0  0.00000000000E+00  0.00000000000E+00 -0.16162800559E+04  0.16162800560E+04  0.50400001928E-02 0.  1.
    10030    2    1    2    0    0  0.00000000000E+00  0.00000000000E+00  0.73950146850E+03  0.39720615804E+04  0.39026158889E+04 0.  0.
        5    1    3    3  502    0  0.18308395260E+03 -0.23875457382E+03  0.23320253339E+04  0.23513586983E+04  0.46999998093E+01 0. -1.
       -5    1    3    3    0  502 -0.18308395260E+03  0.23875457382E+03 -0.15925238654E+04  0.16207028821E+04  0.46999998093E+01 0.  1.
</event>
<event>
 5   0  0.2473224E-07  0.3929148E+04  0.7818609E-02  0.8018994E-01
       -2   -1    0    0    0  501  0.00000000000E+00  0.00000000000E+00  0.14143777523E+04  0.14143777523E+04  0.25500000920E-02 0. -1.
        2   -1    0    0  501    0  0.00000000000E+00  0.00000000000E+00 -0.27287971837E+04  0.27287971837E+04  0.25500000920E-02 0.  1.
    10030    2    1    2    0    0  0.00000000000E+00  0.00000000000E+00 -0.13144194315E+04  0.41431749360E+04  0.39291475041E+04 0.  0.
        2    1    3    3  502    0 -0.14016954671E+04  0.58077348554E+02 -0.21074157724E+04  0.25316643535E+04  0.25500000920E-02 0.  1.
       -2    1    3    3    0  502  0.14016954671E+04 -0.58077348554E+02  0.79299634092E+03  0.16115105825E+04  0.25500000920E-02 0. -1.
</event>
<event>
 5   0  0.2446281E-07  0.3881160E+04  0.7818609E-02  0.8028959E-01
        2   -1    0    0  501    0  0.00000000000E+00  0.00000000000E+00  0.22795709742E+04  0.22795709742E+04  0.25500000920E-02 0.  1.
       -2   -1    0    0    0  501  0.00000000000E+00  0.00000000000E+00 -0.16519997999E+04  0.16519998000E+04  0.25500000920E-02 0. -1.
    10030    2    1    2    0    0  0.00000000000E+00  0.00000000000E+00  0.62757117429E+03  0.39315707742E+04  0.38811600294E+04 0.  0.
        1    1    3    3  502    0 -0.56175306175E+03 -0.12951328458E+04 -0.10350174338E+04  0.17504846983E+04  0.50400001928E-02 0. -1.
       -1    1    3    3    0  502  0.56175306175E+03  0.12951328458E+04  0.16625886081E+04  0.21810860759E+04  0.50400001928E-02 0.  1.
</event>
<event>
 5   0  0.2486268E-07  0.3899770E+04  0.7818609E-02  0.8025077E-01
       -2   -1    0    0    0  501  0.00000000000E+00  0.00000000000E+00  0.19450221929E+04  0.19450221930E+04  0.25500000920E-02 0. -1.
        2   -1    0    0  501    0  0.00000000000E+00  0.00000000000E+00 -0.19547597013E+04  0.19547597013E+04  0.25500000920E-02 0.  1.
    10030    2    1    2    0    0  0.00000000000E+00  0.00000000000E+00 -0.97375083905E+01  0.38997818943E+04  0.38997697373E+04 0.  0.
        5    1    3    3  502    0 -0.56057134892E+03  0.14578736338E+04  0.11623508634E+04  0.19469764737E+04  0.46999998093E+01 0.  1.
       -5    1    3    3    0  502  0.56057134892E+03 -0.14578736338E+04 -0.11720883718E+04  0.19528054206E+04  0.46999998093E+01 0. -1.
</event>
<event>
 5   0  0.7675750E-08  0.3940145E+04  0.7818609E-02  0.8016731E-01
        1   -1    0    0  501    0  0.00000000000E+00  0.00000000000E+00  0.14518498128E+04  0.14518498128E+04  0.50400001928E-02 0.  1.
       -1   -1    0    0    0  501  0.00000000000E+00  0.00000000000E+00 -0.26732691680E+04  0.26732691680E+04  0.50400001928E-02 0. -1.
    10030    2    1    2    0    0  0.00000000000E+00  0.00000000000E+00 -0.12214193552E+04  0.41251189809E+04  0.39401448406E+04 0.  0.
        4    1    3    3  502    0  0.13206794282E+04 -0.50361210187E+03 -0.20474936482E+04  0.24879813411E+04  0.12699999809E+01 0. -1.
       -4    1    3    3    0  502 -0.13206794282E+04  0.50361210187E+03  0.82607429298E+03  0.16371376398E+04  0.12699999809E+01 0.  1.
</event>
<event>
 5   0  0.7675750E-08  0.3919959E+04  0.7818609E-02  0.8020891E-01
        1   -1    0    0  501    0  0.00000000000E+00  0.00000000000E+00  0.18547002501E+04  0.18547002501E+04  0.50400001928E-02 0. -1.
       -1   -1    0    0    0  501  0.00000000000E+00  0.00000000000E+00 -0.20712350524E+04  0.20712350524E+04  0.50400001928E-02 0.  1.
    10030    2    1    2    0    0  0.00000000000E+00  0.00000000000E+00 -0.21653480226E+03  0.39259353025E+04  0.39199592700E+04 0.  0.
        1    1    3    3  502    0 -0.10261264826E+04  0.55698336453E+03 -0.16849463392E+04  0.20499293141E+04  0.50400001928E-02 0.  1.
       -1    1    3    3    0  502  0.10261264826E+04 -0.55698336453E+03  0.14684115369E+04  0.18760059884E+04  0.50400001928E-02 0. -1.
</event>
<event>
 5   0  0.7675750E-08  0.3827706E+04  0.7818609E-02  0.8040235E-01
        1   -1    0    0  501    0  0.00000000000E+00  0.00000000000E+00  0.24159697651E+04  0.24159697651E+04  0.50400001928E-02 0.  1.
       -1   -1    0    0    0  501  0.00000000000E+00  0.00000000000E+00 -0.15160921427E+04  0.15160921427E+04  0.50400001928E-02 0. -1.
    10030    2    1    2    0    0  0.00000000000E+00  0.00000000000E+00  0.89987762233E+03  0.39320619078E+04  0.38277057243E+04 0.  0.
        5    1    3    3  502    0  0.10586270746E+04 -0.13147630157E+03 -0.11823543741E+04  0.15924701746E+04  0.46999998093E+01 0. -1.
       -5    1    3    3    0  502 -0.10586270746E+04  0.13147630157E+03  0.20822319965E+04  0.23395917332E+04  0.46999998093E+01 0.  1.
</event>
<event>
 5   0  0.2395572E-07  0.3604872E+04  0.7818609E-02  0.8089377E-01
        2   -1    0    0  501    0  0.00000000000E+00  0.00000000000E+00  0.15580734317E+04  0.15580734317E+04  0.25500000920E-02 0.  1.
       -2   -1    0    0    0  501  0.00000000000E+00  0.00000000000E+00 -0.20851238271E+04  0.20851238271E+04  0.25500000920E-02 0. -1.
    10030    2    1    2    0    0  0.00000000000E+00  0.00000000000E+00 -0.52705039541E+03  0.36431972588E+04  0.36048722789E+04 0.  0.
        3    1    3    3  502    0 -0.12991617096E+04 -0.30655399658E+03 -0.14875911853E+04  0.19986805761E+04  0.10100000352E+00 0. -1.
       -3    1    3    3    0  502  0.12991617096E+04  0.30655399658E+03  0.96054078988E+03  0.16445166827E+04  0.10100000352E+00 0.  1.
</event>
<event>
 5   0  0.2473224E-07  0.3902265E+04  0.7818609E-02  0.8024558E-01
       -2   -1    0    0    0  501  0.00000000000E+00  0.00000000000E+00  0.24215710491E+04  0.24215710491E+04  0.25500000920E-02 0. -1.
        2   -1    0    0  501    0  0.00000000000E+00  0.00000000000E+00 -0.15720856851E+04  0.15720856851E+04  0.25500000920E-02 0.  1.
    10030    2    1    2    0    0  0.00000000000E+00  0.00000000000E+00  0.84948536402E+03  0.39936567343E+04  0.39022645640E+04 0.  0.
        2    1    3    3  502    0  0.37739779887E+03 -0.80746355256E+03  0.22010449905E+04  0.23746632472E+04  0.25500000920E-02 0. -1.
       -2    1    3    3    0  502 -0.37739779887E+03  0.80746355256E+03 -0.13515596265E+04  0.16189934871E+04  0.25500000920E-02 0.  1.
</event>
<event>
 5   0  0.7675750E-08  0.3838839E+04  0.7818609E-02  0.8037871E-01
        1   -1    0    0  501    0  0.00000000000E+00  0.00000000000E+00  0.10158337944E+04  0.10158337944E+04  0.50400001928E-02 0.  1.
       -1   -1    0    0    0  501  0.00000000000E+00  0.00000000000E+00 -0.36267463242E+04  0.36267463242E+04  0.50400001928E-02 0. -1.
    10030    2    1    2    0    0  0.00000000000E+00  0.00000000000E+00 -0.26109125298E+04  0.46425801185E+04  0.38388391369E+04 0.  0.
        2    1    3    3  502    0 -0.14481477084E+04 -0.11944851188E+04 -0.17895748228E+04  0.25935505645E+04  0.25500000920E-02 0. -1.
       -2    1    3    3    0  502  0.14481477084E+04  0.11944851188E+04 -0.82133770700E+03  0.20490295540E+04  0.25500000920E-02 0.  1.
</event>
<event>
 5   0  0.7675750E-08  0.3834489E+04  0.7818609E-02  0.8038794E-01
       -1   -1    0    0    0  501  0.00000000000E+00  0.00000000000E+00  0.16165426167E+04  0.16165426167E+04  0.50400001928E-02 0. -1.
        1   -1    0    0  501    0  0.00000000000E+00  0.00000000000E+00 -0.22738820406E+04  0.22738820406E+04  0.50400001928E-02 0.  1.
    10030    2    1    2    0    0  0.00000000000E+00  0.00000000000E+00 -0.65733942385E+03  0.38904246573E+04  0.38344893918E+04 0.  0.
        2    1    3    3  502    0  0.13032050013E+03 -0.14335464781E+04  0.95621152470E+03  0.17281144110E+04  0.25500000920E-02 0. -1.
       -2    1    3    3    0  502 -0.13032050013E+03  0.14335464781E+04 -0.16135509486E+04  0.21623102463E+04  0.25500000920E-02 0.  1.
</event>
<event>
 5   0  0.2384787E-07  0.3892731E+04  0.7818609E-02  0.8026543E-01
        2   -1    0    0  501    0  0.00000000000E+00  0.00000000000E+00  0.28347139090E+04  0.28347139090E+04  0.25500000920E-02 0. -1.
       -2   -1    0    0    0  501  0.00000000000E+00  0.00000000000E+00 -0.13364092415E+04  0.13364092415E+04  0.25500000920E-02 0.  1.
    10030    2    1    2    0    0  0.00000000000E+00  0.00000000000E+00  0.14983046675E+04  0.41711231504E+04  0.38927305917E+04 0.  0.
        4    1    3    3  502    0 -0.80050693336E+03 -0.14025882498E+04 -0.41494568867E+03  0.16674071747E+04  0.12699999809E+01 0.  1.
       -4    1    3    3    0  502  0.80050693336E+03  0.14025882498E+04  0.19132503562E+04  0.25037159757E+04  0.12699999809E+01 0. -1.
</event>
<event>
 5   0  0.7731706E-08  0.3922482E+04  0.7818609E-02  0.8020370E-01
        1   -1    0    0  501    0  0.00000000000E+00  0.00000000000E+00  0.19591210190E+04  0.19591210190E+04  0.50400001928E-02 0.  1.
       -1   -1    0    0    0  501  0.00000000000E+00  0.00000000000E+00 -0.19633629092E+04  0.19633629092E+04  0.50400001928E-02 0. -1.
    10030    2    1    2    0    0  0.00000000000E+00  0.00000000000E+00 -0.42418901974E+01  0.39224839282E+04  0.39224816345E+04 0.  0.
        3    1    3    3  502    0 -0.16259526369E+04 -0.70366939300E+03  0.83906498468E+03  0.19603322807E+04  0.10100000352E+00 0.  1.
       -3    1    3    3    0  502  0.16259526369E+04  0.70366939300E+03 -0.84330687488E+03  0.19621516474E+04  0.10100000352E+00 0. -1.
</event>
<event>
 5   0  0.2446281E-07  0.3910200E+04  0.7818609E-02  0.8022911E-01
        2   -1    0    0  501    0  0.00000000000E+00  0.00000000000E+00  0.24817174789E+04  0.24817174789E+04  0.25500000920E-02 0. -1.
       -2   -1    0    0    0  501  0.00000000000E+00  0.00000000000E+00 -0.15402301137E+04  0.15402301137E+04  0.25500000920E-02 0.  1.
    10030    2    1    2    0    0  0.00000000000E+00  0.00000000000E+00  0.94148736518E+03  0.40219475926E+04  0.39101999922E+04 0.  0.
        1    1    3    3  502    0  0.28422045254E+03  0.70580174651E+03  0.23231785922E+04  0.24446055188E+04  0.50400001928E-02 0. -1.
       -1    1    3    3    0  502 -0.28422045254E+03 -0.70580174651E+03 -0.13816912270E+04  0.15773420738E+04  0.50400001928E-02 0.  1.
</event>
<event>
 5   0  0.7675750E-08  0.3909039E+04  0.7818609E-02  0.8023152E-01
        1   -1    0    0  501    0  0.00000000000E+00  0.00000000000E+00  0.18240293041E+04  0.18240293041E+04  0.50400001928E-02 0.  1.
       -1   -1    0    0    0  501  0.00000000000E+00  0.00000000000E+00 -0.20943452359E+04  0.20943452359E+04  0.50400001928E-02 0. -1.
    10030    2    1    2    0    0  0.00000000000E+00  0.00000000000E+00 -0.27031593182E+03  0.39183745401E+04  0.39090393108E+04 0.  0.
        2    1    3    3  502    0  0.63044969664E+03 -0.92341244631E+03  0.14717892106E+04  0.18483292040E+04  0.25500000920E-02 0.  1.
       -2    1    3    3    0  502 -0.63044969664E+03  0.92341244631E+03 -0.17421051424E+04  0.20700453360E+04  0.25500000920E-02 0. -1.
</event>
<event>
 5   0  0.7675750E-08  0.3938378E+04  0.7818609E-02  0.8017094E-01
       -1   -1    0    0    0  501  0.00000000000E+00  0.00000000000E+00  0.24139908600E+04  0.24139908600E+04  0.50400001928E-02 0. -1.
        1   -1    0    0  501    0  0.00000000000E+00  0.00000000000E+00 -0.16063464005E+04  0.16063464005E+04  0.50400001928E-02 0.  1.
    10030    2    1    2    0    0  0.00000000000E+00  0.00000000000E+00  0.80764445950E+03  0.40203372605E+04  0.39383781072E+04 0.  0.
        4    1    3    3  502    0 -0.16073992364E+04  0.10045171155E+04 -0.14106200309E+03  0.19007069848E+04  0.12699999809E+01 0.  1.
       -4    1    3    3    0  502  0.16073992364E+04 -0.10045171155E+04  0.94870646259E+03  0.21196302757E+04  0.12699999809E+01 0. -1.
</event>
<event>
 5   0  0.2384787E-07  0.3925547E+04  0.7818609E-02  0.8019737E-01
        2   -1    0    0  501    0  0.00000000000E+00  0.00000000000E+00  0.30212912244E+04  0.30212912244E+04  0.25500000920E-02 0. -1.
       -2   -1    0    0    0  501  0.00000000000E+00  0.00000000000E+00 -0.12751104812E+04  0.12751104812E+04  0.25500000920E-02 0.  1.
    10030    2    1    2    0    0  0.00000000000E+00  0.00000000000E+00  0.17461807432E+04  0.42964017056E+04  0.39255471501E+04 0.  0.
        4    1    3    3  502    0 -0.17016154910E+04 -0.69802385056E+03  0.16232197765E+04  0.24530749338E+04  0.12699999809E+01 0. -1.
       -4    1    3    3    0  502  0.17016154910E+04  0.69802385056E+03  0.12296096669E+03  0.18433267717E+04  0.12699999809E+01 0.  1.
</event>
<event>
 5   0  0.2473224E-07  0.3873705E+04  0.7818609E-02  0.8030520E-01
        2   -1    0    0  501    0  0.00000000000E+00  0.00000000000E+00  0.26658057706E+04  0.26658057706E+04  0.25500000920E-02 0. -1.
       -2   -1    0    0    0  501  0.00000000000E+00  0.00000000000E+00 -0.14072281388E+04  0.14072281388E+04  0.25500000920E-02 0.  1.
    10030    2    1    2    0    0  0.00000000000E+00  0.00000000000E+00  0.12585776318E+04  0.40730339094E+04  0.38737046315E+04 0.  0.
        2    1    3    3  502    0 -0.17548689157E+04  0.52785707408E+01 -0.23252381289E+03  0.17702147040E+04  0.25500000920E-02 0.  1.
       -2    1    3    3    0  502  0.17548689157E+04 -0.52785707408E+01  0.14911014447E+04  0.23028192055E+04  0.25500000920E-02 0. -1.
</event>
<event>
 5   0  0.7675750E-08  0.3901280E+04  0.7818609E-02  0.8024763E-01
       -1   -1    0    0    0  501  0.00000000000E+00  0.00000000000E+00  0.12283478419E+04  0.12283478419E+04  0.50400001928E-02 0. -1.
        1   -1    0    0  501    0  0.00000000000E+00  0.00000000000E+00 -0.30976531631E+04  0.30976531631E+04  0.50400001928E-02 0.  1.
    10030    2    1    2    0    0  0.00000000000E+00  0.00000000000E+00 -0.18693053211E+04  0.43260010050E+04  0.39012795736E+04 0.  0.
        5    1    3    3  502    0 -0.68152989199E+03  0.13638696746E+04 -0.22838073489E+04  0.27459828077E+04  0.46999998093E+01 0.  1.
       -5    1    3    3    0  502  0.68152989199E+03 -0.13638696746E+04  0.41450202780E+03  0.15800181974E+04  0.46999998093E+01 0. -1.
</event>
<event>
 5   0  0.2486268E-07  0.3988787E+04  0.7818609E-02  0.8006812E-01
       -2   -1    0    0    0  501  0.00000000000E+00  0.00000000000E+00  0.25958123114E+04  0.25958123114E+04  0.25500000920E-02 0.  1.
        2   -1    0    0  501    0  0.00000000000E+00  0.00000000000E+00 -0.15323159480E+04  0.15323159480E+04  0.25500000920E-02 0. -1.
    10030    2    1    2    0    0  0.00000000000E+00  0.00000000000E+00  0.10634963634E+04  0.41281282594E+04  0.39887865837E+04 0.  0.
        5    1    3    3  502    0  0.46188103126E+03 -0.22370914036E+03  0.25262993367E+04  0.25779042448E+04  0.46999998093E+01 0.  1.
       -5    1    3    3    0  502 -0.46188103126E+03  0.22370914036E+03 -0.14628029733E+04  0.15502240146E+04  0.46999998093E+01 0. -1.
</event>
<event>
 5   0  0.2473224E-07  0.3878241E+04  0.7818609E-02  0.8029570E-01
       -2   -1    0    0    0  501  0.00000000000E+00  0.00000000000E+00  0.17145354341E+04  0.17145354341E+04  0.25500000920E-02 0.  1.
        2   -1    0    0  501    0  0.00000000000E+00  0.00000000000E+00 -0.21931235137E+04  0.21931235137E+04  0.25500000920E-02 0. -1.
    10030    2    1    2    0    0  0.00000000000E+00  0.00000000000E+00 -0.47858807963E+03  0.39076589478E+04  0.38782408257E+04 0.  0.
        2    1    3    3  502    0 -0.14587676543E+04 -0.11549558543E+03 -0.15212839390E+04  0.21108403830E+04  0.25500000920E-02 0. -1.
       -2    1    3    3    0  502  0.14587676543E+04  0.11549558543E+03  0.10426958593E+04  0.17968185648E+04  0.25500000920E-02 0.  1.
</event>
<event>
 5   0  0.2486268E-07  0.3922660E+04  0.7818609E-02  0.8020333E-01
       -2   -1    0    0    0  501  0.00000000000E+00  0.00000000000E+00  0.27936690493E+04  0.27936690493E+04  0.25500000920E-02 0. -1.
        2   -1    0    0  501    0  0.00000000000E+00  0.00000000000E+00 -0.13769761583E+04  0.13769761583E+04  0.25500000920E-02 0.  1.
    10030    2    1    2    0    0  0.00000000000E+00  0.00000000000E+00  0.14166928910E+04  0.41706452076E+04  0.39226601561E+04 0.  0.
        5    1    3    3  502    0 -0.15470453768E+03  0.92251746834E+03 -0.11245331251E+04  0.14627264997E+04  0.46999998093E+01 0.  1.
       -5    1    3    3    0  502  0.15470453768E+03 -0.92251746834E+03  0.25412260161E+04  0.27079187079E+04  0.46999998093E+01 0. -1.
</event>
<event>
 5   0  0.7731706E-08  0.3724044E+04  0.7818609E-02  0.8062654E-01
        1   -1    0    0  501    0  0.00000000000E+00  0.00000000000E+00  0.24600936019E+04  0.24600936019E+04  0.50400001928E-02 0.  1.
       -1   -1    0    0    0  501  0.00000000000E+00  0.00000000000E+00 -0.14093468108E+04  0.14093468109E+04  0.50400001928E-02 0. -1.
    10030    2    1    2    0    0  0.00000000000E+00  0.00000000000E+00  0.10507467911E+04  0.38694404128E+04  0.37240435402E+04 0.  0.
        3    1    3    3  502    0  0.73015009974E+03 -0.90222459713E+03 -0.98749448524E+03  0.15239008368E+04  0.10100000352E+00 0. -1.
       -3    1    3    3    0  502 -0.73015009974E+03  0.90222459713E+03  0.20382412763E+04  0.23455395760E+04  0.10100000352E+00 0.  1.
</event>
<event>
 5   0  0.2446281E-07  0.3981942E+04  0.7818609E-02  0.8008199E-01
        2   -1    0    0  501    0  0.00000000000E+00  0.00000000000E+00  0.30481013127E+04  0.30481013127E+04  0.25500000920E-02 0. -1.
       -2   -1    0    0    0  501  0.00000000000E+00  0.00000000000E+00 -0.13004703281E+04  0.13004703281E+04  0.25500000920E-02 0.  1.
    10030    2    1    2    0    0  0.00000000000E+00  0.00000000000E+00  0.17476309845E+04  0.43485716408E+04  0.39819418952E+04 0.  0.
        1    1    3    3  502    0  0.57851987830E+02 -0.18413436476E+04  0.49266284539E+02  0.18429108627E+04  0.50400001928E-02 0.  1.
       -1    1    3    3    0  502 -0.57851987830E+02  0.18413436476E+04  0.16983647000E+04  0.25056607781E+04  0.50400001928E-02 0. -1.
</event>
<event>
 5   0  0.7731706E-08  0.3554312E+04  0.7818609E-02  0.8101038E-01
       -1   -1    0    0    0  501  0.00000000000E+00  0.00000000000E+00  0.14382716411E+04  0.14382716411E+04  0.50400001928E-02 0. -1.
        1   -1    0    0  501    0  0.00000000000E+00  0.00000000000E+00 -0.21958880999E+04  0.21958880999E+04  0.50400001928E-02 0.  1.
    10030    2    1    2    0    0  0.00000000000E+00  0.00000000000E+00 -0.75761645882E+03  0.36341597410E+04  0.35543120747E+04 0.  0.
        3    1    3    3  502    0 -0.61590692037E+02 -0.94070834423E+03 -0.19191571053E+04  0.21381977475E+04  0.10100000352E+00 0.  1.
       -3    1    3    3    0  502  0.61590692037E+02  0.94070834423E+03  0.11615406465E+04  0.14959619935E+04  0.10100000352E+00 0. -1.
</event>
<event>
 5   0  0.2473224E-07  0.3792740E+04  0.7818609E-02  0.8047715E-01
        2   -1    0    0  501    0  0.00000000000E+00  0.00000000000E+00  0.27753519489E+04  0.27753519489E+04  0.25500000920E-02 0.  1.
       -2   -1    0    0    0  501  0.00000000000E+00  0.00000000000E+00 -0.12957704703E+04  0.12957704703E+04  0.25500000920E-02 0. -1.
    10030    2    1    2    0    0  0.00000000000E+00  0.00000000000E+00  0.14795814786E+04  0.40711224192E+04  0.37927399595E+04 0.  0.
        2    1    3    3  502    0  0.70536530024E+02  0.31909050955E+03  0.27448999189E+04  0.27642846670E+04  0.25500000920E-02 0.  1.
       -2    1    3    3    0  502 -0.70536530024E+02 -0.31909050955E+03 -0.12653184403E+04  0.13068377522E+04  0.25500000920E-02 0. -1.
</event>
<event>
 5   0  0.2395572E-07  0.4029939E+04  0.7818609E-02  0.7998534E-01
        2   -1    0    0  501    0  0.00000000000E+00  0.00000000000E+00  0.30924560989E+04  0.30924560989E+04  0.25500000920E-02 0. -1.
       -2   -1    0    0    0  501  0.00000000000E+00  0.00000000000E+00 -0.13129054578E+04  0.13129054578E+04  0.25500000920E-02 0.  1.
    10030    2    1    2    0    0  0.00000000000E+00  0.00000000000E+00  0.17795506411E+04  0.44053615566E+04  0.40299392006E+04 0.  0.
        3    1    3    3  502    0  0.18826430051E+03 -0.10369442610E+04  0.27671472338E+04  0.29610472254E+04  0.10100000352E+00 0. -1.
       -3    1    3    3    0  502 -0.18826430051E+03  0.10369442610E+04 -0.98759659272E+03  0.14443143312E+04  0.10100000352E+00 0.  1.
</event>
<event>
 5   0  0.2446281E-07  0.3865997E+04  0.7818609E-02  0.8032139E-01
       -2   -1    0    0    0  501  0.00000000000E+00  0.00000000000E+00  0.16828306183E+04  0.16828306183E+04  0.25500000920E-02 0. -1.
        2   -1    0    0  501    0  0.00000000000E+00  0.00000000000E+00 -0.22203557914E+04  0.22203557914E+04  0.25500000920E-02 0.  1.
    10030    2    1    2    0    0  0.00000000000E+00  0.00000000000E+00 -0.53752517310E+03  0.39031864097E+04  0.38659967456E+04 0.  0.
        1    1    3    3  502    0  0.38445901976E+03  0.15605499720E+04 -0.13530385470E+04  0.21009136733E+04  0.50400001928E-02 0.  1.
       -1    1    3    3    0  502 -0.38445901976E+03 -0.15605499720E+04  0.81551337390E+03  0.18022727363E+04  0.50400001928E-02 0. -1.
</event>
<event>
 5   0  0.2486268E-07  0.3888756E+04  0.7818609E-02  0.8027372E-01
        2   -1    0    0  501    0  0.00000000000E+00  0.00000000000E+00  0.13593830500E+04  0.13593830500E+04  0.25500000920E-02 0.  1.
       -2   -1    0    0    0  501  0.00000000000E+00  0.00000000000E+00 -0.27811191576E+04  0.27811191576E+04  0.25500000920E-02 0. -1.
    10030    2    1    2    0    0  0.00000000000E+00  0.00000000000E+00 -0.14217361076E+04  0.41405022075E+04  0.38887562241E+04 0.  0.
        5    1    3    3  502    0  0.93500809331E+03  0.82210433373E+03  0.87929732533E+03  0.15242314609E+04  0.46999998093E+01 0.  1.
       -5    1    3    3    0  502 -0.93500809331E+03 -0.82210433373E+03 -0.23010334329E+04  0.26162707466E+04  0.46999998093E+01 0. -1.
</event>
<event>
 5   0  0.7675750E-08  0.3903892E+04  0.7818609E-02  0.8024220E-01
       -1   -1    0    0    0  501  0.00000000000E+00  0.00000000000E+00  0.16531625772E+04  0.16531625772E+04  0.50400001928E-02 0.  1.
        1   -1    0    0  501    0  0.00000000000E+00  0.00000000000E+00 -0.23047304543E+04  0.23047304544E+04  0.50400001928E-02 0. -1.
    10030    2    1    2    0    0  0.00000000000E+00  0.00000000000E+00 -0.65156787713E+03  0.39578930316E+04  0.39038924871E+04 0.  0.
        4    1    3    3  502    0  0.17428354679E+04  0.69232842937E+03  0.22327763767E+03  0.18885572903E+04  0.12699999809E+01 0. -1.
       -4    1    3    3    0  502 -0.17428354679E+04 -0.69232842937E+03 -0.87484551480E+03  0.20693357413E+04  0.12699999809E+01 0.  1.
</event>
<event>
 5   0  0.7675750E-08  0.3896862E+04  0.7818609E-02  0.8025682E-01
       -1   -1    0    0    0  501  0.00000000000E+00  0.00000000000E+00  0.29651704412E+04  0.29651704412E+04  0.50400001928E-02 0.  1.
        1   -1    0    0  501    0  0.00000000000E+00  0.00000000000E+00 -0.12803254616E+04  0.12803254616E+04  0.50400001928E-02 0. -1.
    10030    2    1    2    0    0  0.00000000000E+00  0.00000000000E+00  0.16848449795E+04  0.42454959028E+04  0.38968619241E+04 0.  0.
        5    1    3    3  502    0 -0.49350708835E+02 -0.74315307415E+02 -0.12780931820E+04  0.12812113523E+04  0.46999998093E+01 0. -1.
       -5    1    3    3    0  502  0.49350708835E+02  0.74315307415E+02  0.29629381615E+04  0.29642845505E+04  0.46999998093E+01 0.  1.
</event>
<event>
 5   0  0.2384787E-07  0.3881051E+04  0.7818609E-02  0.8028982E-01
        2   -1    0    0  501    0  0.00000000000E+00  0.00000000000E+00  0.23600634384E+04  0.23600634384E+04  0.25500000920E-02 0.  1.
       -2   -1    0    0    0  501  0.00000000000E+00  0.00000000000E+00 -0.15955670204E+04  0.15955670204E+04  0.25500000920E-02 0. -1.
    10030    2    1    2    0    0  0.00000000000E+00  0.00000000000E+00  0.76449641799E+03  0.39556304587E+04  0.38810510887E+04 0.  0.
        4    1    3    3  502    0  0.94575578442E+03 -0.34736272002E+03 -0.13080914700E+04  0.16511268182E+04  0.12699999809E+01 0. -1.
       -4    1    3    3    0  502 -0.94575578442E+03  0.34736272002E+03  0.20725878880E+04  0.23045036405E+04  0.12699999809E+01 0.  1.
</event>
<event>
 5   0  0.7675750E-08  0.3835085E+04  0.7818609E-02  0.8038667E-01
       -1   -1    0    0    0  501  0.00000000000E+00  0.00000000000E+00  0.13517654429E+04  0.13517654429E+04  0.50400001928E-02 0. -1.
        1   -1    0    0  501    0  0.00000000000E+00  0.00000000000E+00 -0.27201243219E+04  0.27201243219E+04  0.50400001928E-02 0.  1.
    10030    2    1    2    0    0  0.00000000000E+00  0.00000000000E+00 -0.13683588790E+04  0.40718897649E+04  0.38350854274E+04 0.  0.
        4    1    3    3  502    0  0.13172186486E+04  0.17353500564E+01  0.79538693517E+03  0.15387364847E+04  0.12699999809E+01 0. -1.
       -4    1    3    3    0  502 -0.13172186486E+04 -0.17353500564E+01 -0.21637458142E+04  0.25331532802E+04  0.12699999809E+01 0.  1.
</event>
<event>
 5   0  0.7731706E-08  0.3919057E+04  0.7818609E-02  0.8021077E-01
        1   -1    0    0  501    0  0.00000000000E+00  0.00000000000E+00  0.12897030294E+04  0.12897030294E+04  0.50400001928E-02 0.  1.
       -1   -1    0    0    0  501  0.00000000000E+00  0.00000000000E+00 -0.29772379624E+04  0.29772379624E+04  0.50400001928E-02 0. -1.
    10030    2    1    2    0    0  0.00000000000E+00  0.00000000000E+00 -0.16875349330E+04  0.42669409918E+04  0.39190574476E+04 0.  0.
        3    1    3    3  502    0 -0.53917604979E+03  0.17710120311E+04 -0.15430903103E+04  0.24100460873E+04  0.10100000352E+00 0. -1.
       -3    1    3    3    0  502  0.53917604979E+03 -0.17710120311E+04 -0.14444462269E+03  0.18568949045E+04  0.10100000352E+00 0.  1.
</event>
<event>
 5   0  0.2446281E-07  0.3976795E+04  0.7818609E-02  0.8009244E-01
        2   -1    0    0  501    0  0.00000000000E+00  0.00000000000E+00  0.19407889159E+04  0.19407889159E+04  0.25500000920E-02 0. -1.
       -2   -1    0    0    0  501  0.00000000000E+00  0.00000000000E+00 -0.20371740712E+04  0.20371740712E+04  0.25500000920E-02 0.  1.
    10030    2    1    2    0    0  0.00000000000E+00  0.00000000000E+00 -0.96385155302E+02  0.39779629871E+04  0.39767951203E+04 0.  0.
        1    1    3    3  502    0  0.17809004843E+03 -0.19249562132E+04 -0.51368111447E+03  0.20002601769E+04  0.50400001928E-02 0.  1.
       -1    1    3    3    0  502 -0.17809004843E+03  0.19249562132E+04  0.41729595916E+03  0.19777028102E+04  0.50400001928E-02 0. -1.
</event>
<event>
 5   0  0.7675750E-08  0.3917315E+04  0.7818609E-02  0.8021438E-01
       -1   -1    0    0    0  501  0.00000000000E+00  0.00000000000E+00  0.14659201971E+04  0.14659201971E+04  0.50400001928E-02 0.  1.
        1   -1    0    0  501    0  0.00000000000E+00  0.00000000000E+00 -0.26170180239E+04  0.26170180239E+04  0.50400001928E-02 0. -1.
    10030    2    1    2    0    0  0.00000000000E+00  0.00000000000E+00 -0.11510978268E+04  0.40829382210E+04  0.39173151915E+04 0.  0.
        5    1    3    3  502    0 -0.81568767900E+03  0.10885744825E+04  0.89328051674E+03  0.16273638085E+04  0.46999998093E+01 0.  1.
       -5    1    3    3    0  502  0.81568767900E+03 -0.10885744825E+04 -0.20443783435E+04  0.24555744125E+04  0.46999998093E+01 0. -1.
</event>
<event>
 5   0  0.2384787E-07  0.3915867E+04  0.7818609E-02  0.8021737E-01
        2   -1    0    0  501    0  0.00000000000E+00  0.00000000000E+00  0.19906662274E+04  0.19906662274E+04  0.25500000920E-02 0. -1.
       -2   -1    0    0    0  501  0.00000000000E+00  0.00000000000E+00 -0.19257393791E+04  0.19257393791E+04  0.25500000920E-02 0.  1.
    10030    2    1    2    0    0  0.00000000000E+00  0.00000000000E+00  0.64926848302E+02  0.39164056065E+04  0.39158673853E+04 0.  0.
        4    1    3    3  502    0  0.13528500579E+04 -0.91769243460E+03 -0.10452467682E+04  0.19403363376E+04  0.12699999809E+01 0.  1.
       -4    1    3    3    0  502 -0.13528500579E+04  0.91769243460E+03  0.11101736165E+04  0.19760692689E+04  0.12699999809E+01 0. -1.
</event>
<event>
 5   0  0.2446281E-07  0.3969969E+04  0.7818609E-02  0.8010632E-01
       -2   -1    0    0    0  501  0.00000000000E+00  0.00000000000E+00  0.32573048620E+04  0.32573048620E+04  0.25500000920E-02 0. -1.
        2   -1    0    0  501    0  0.00000000000E+00  0.00000000000E+00 -0.12096390433E+04  0.12096390433E+04  0.25500000920E-02 0.  1.
    10030    2    1    2    0    0  0.00000000000E+00  0.00000000000E+00  0.20476658187E+04  0.44669439054E+04  0.39699688347E+04 0.  0.
        1    1    3    3  502    0 -0.10331968702E+04  0.14511366550E+04  0.20091685939E+04  0.26851539626E+04  0.50400001928E-02 0.  1.
       -1    1    3    3    0  502  0.10331968702E+04 -0.14511366550E+04  0.38497224824E+02  0.17817899428E+04  0.50400001928E-02 0. -1.
</event>
<event>
 5   0  0.2395572E-07  0.3896010E+04  0.7818609E-02  0.8025860E-01
       -2   -1    0    0    0  501  0.00000000000E+00  0.00000000000E+00  0.33588534113E+04  0.33588534113E+04  0.25500000920E-02 0. -1.
        2   -1    0    0  501    0  0.00000000000E+00  0.00000000000E+00 -0.11297674420E+04  0.11297674420E+04  0.25500000920E-02 0.  1.
    10030    2    1    2    0    0  0.00000000000E+00  0.00000000000E+00  0.22290859693E+04  0.44886208533E+04  0.38960098698E+04 0.  0.
        3    1    3    3  502    0 -0.38401557637E+03  0.34277734371E+03 -0.10499959304E+04  0.11693826296E+04  0.10100000352E+00 0.  1.
       -3    1    3    3    0  502  0.38401557637E+03 -0.34277734371E+03  0.32790818998E+04  0.33192382237E+04  0.10100000352E+00 0. -1.
</event>
<event>
 5   0  0.2473224E-07  0.3887063E+04  0.7818609E-02  0.8027725E-01
       -2   -1    0    0    0  501  0.00000000000E+00  0.00000000000E+00  0.19272041831E+04  0.19272041831E+04  0.25500000920E-02 0.  1.
        2   -1    0    0  501    0  0.00000000000E+00  0.00000000000E+00 -0.19599972965E+04  0.19599972965E+04  0.25500000920E-02 0. -1.
    10030    2    1    2    0    0  0.00000000000E+00  0.00000000000E+00 -0.32793113403E+02  0.38872014796E+04  0.38870631530E+04 0.  0.
        2    1    3    3  502    0  0.17955529210E+04 -0.69058737690E+03  0.26000751106E+03  0.19412689466E+04  0.25500000920E-02 0.  1.
       -2    1    3    3    0  502 -0.17955529210E+04  0.69058737690E+03 -0.29280062447E+03  0.19459325330E+04  0.25500000920E-02 0. -1.
</event>
<event>
 5   0  0.2446281E-07  0.3938802E+04  0.7818609E-02  0.8017007E-01
       -2   -1    0    0    0  501  0.00000000000E+00  0.00000000000E+00  0.15056992966E+04  0.15056992966E+04  0.25500000920E-02 0. -1.
        2   -1    0    0  501    0  0.00000000000E+00  0.00000000000E+00 -0.25759068659E+04  0.25759068659E+04  0.25500000920E-02 0.  1.
    10030    2    1    2    0    0  0.00000000000E+00  0.00000000000E+00 -0.10702075693E+04  0.40816061625E+04  0.39388024353E+04 0.  0.
        1    1    3    3  502    0  0.37324343982E+03 -0.12615755506E+04  0.98351729142E+03  0.16426167532E+04  0.50400001928E-02 0. -1.
       -1    1    3    3    0  502 -0.37324343982E+03  0.12615755506E+04 -0.20537248607E+04  0.24389894093E+04  0.50400001928E-02 0.  1.
</event>
<event>
 5   0  0.2486268E-07  0.3885849E+04  0.7818609E-02  0.8027979E-01
       -2   -1    0    0    0  501  0.00000000000E+00  0.00000000000E+00  0.14280043779E+04  0.14280043779E+04  0.25500000920E-02 0. -1.
        2   -1    0    0  501    0  0.00000000000E+00  0.00000000000E+00 -0.26435175565E+04  0.26435175565E+04  0.25500000920E-02 0.  1.
    10030    2    1    2    0    0  0.00000000000E+00  0.00000000000E+00 -0.12155131786E+04  0.40715219345E+04  0.38858485014E+04 0.  0.
        5    1    3    3  502    0 -0.15676460596E+04  0.57009636812E+03 -0.16515538566E+04  0.23473764650E+04  0.46999998093E+01 0.  1.
       -5    1    3    3    0  502  0.15676460596E+04 -0.57009636812E+03  0.43604067804E+03  0.17241454695E+04  0.46999998093E+01 0. -1.
</event>
<event>
 5   0  0.2473224E-07  0.3671156E+04  0.7818609E-02  0.8074384E-01
        2   -1    0    0  501    0  0.00000000000E+00  0.00000000000E+00  0.12199175418E+04  0.12199175418E+04  0.25500000920E-02 0.  1.
       -2   -1    0    0    0  501  0.00000000000E+00  0.00000000000E+00 -0.27619458654E+04  0.27619458654E+04  0.25500000920E-02 0. -1.
    10030    2    1    2    0    0  0.00000000000E+00  0.00000000000E+00 -0.15420283236E+04  0.39818634072E+04  0.36711557911E+04 0.  0.
        2    1    3    3  502    0 -0.48821912023E+02  0.11276405235E+04  0.79904465807E+03  0.13829060326E+04  0.25500000920E-02 0.  1.
       -2    1    3    3    0  502  0.48821912023E+02 -0.11276405235E+04 -0.23410729817E+04  0.25989573746E+04  0.25500000920E-02 0. -1.
</event>
<event>
 5   0  0.7731706E-08  0.3970850E+04  0.7818609E-02  0.8010453E-01
       -1   -1    0    0    0  501  0.00000000000E+00  0.00000000000E+00  0.18582673711E+04  0.18582673711E+04  0.50400001928E-02 0.  1.
        1   -1    0    0  501    0  0.00000000000E+00  0.00000000000E+00 -0.21212834769E+04  0.21212834769E+04  0.50400001928E-02 0. -1.
    10030    2    1    2    0    0  0.00000000000E+00  0.00000000000E+00 -0.26301610584E+03  0.39795508480E+04  0.39708497176E+04 0.  0.
        3    1    3    3  502    0  0.19020631893E+04  0.20213823584E+03 -0.66484672154E+03  0.20250247938E+04  0.10100000352E+00 0. -1.
       -3    1    3    3    0  502 -0.19020631893E+04 -0.20213823584E+03  0.40183061570E+03  0.19545260541E+04  0.10100000352E+00 0.  1.
</event>
<event>
 5   0  0.7675750E-08  0.4129370E+04  0.7818609E-02  0.7978945E-01
       -1   -1    0    0    0  501  0.00000000000E+00  0.00000000000E+00  0.18664941249E+04  0.18664941249E+04  0.50400001928E-02 0. -1.
        1   -1    0    0  501    0  0.00000000000E+00  0.00000000000E+00 -0.22839207512E+04  0.22839207512E+04  0.50400001928E-02 0.  1.
    10030    2    1    2    0    0  0.00000000000E+00  0.00000000000E+00 -0.41742662629E+03  0.41504148761E+04  0.41293702492E+04 0.  0.
        1    1    3    3  502    0 -0.17830339569E+04  0.13319710779E+03 -0.12464348012E+04  0.21795759392E+04  0.50400001928E-02 0.  1.
       -1    1    3    3    0  502  0.17830339569E+04 -0.13319710779E+03  0.82900817490E+03  0.19708389369E+04  0.50400001928E-02 0. -1.
</event>
<event>
 5   0  0.2473224E-07  0.3905687E+04  0.7818609E-02  0.8023848E-01
       -2   -1    0    0    0  501  0.00000000000E+00  0.00000000000E+00  0.24556686116E+04  0.24556686116E+04  0.25500000920E-02 0. -1.
        2   -1    0    0  501    0  0.00000000000E+00  0.00000000000E+00 -0.15529770512E+04  0.15529770512E+04  0.25500000920E-02 0.  1.
    10030    2    1    2    0    0  0.00000000000E+00  0.00000000000E+00  0.90269156041E+03  0.40086456629E+04  0.39056866230E+04 0.  0.
        2    1    3    3  502    0  0.16165721380E+04  0.87100392665E+03 -0.23073574412E+03  0.18507275059E+04  0.25500000920E-02 0.  1.
       -2    1    3    3    0  502 -0.16165721380E+04 -0.87100392665E+03  0.11334273045E+04  0.21579181570E+04  0.25500000920E-02 0. -1.
</event>
<event>
 5   0  0.2486268E-07  0.3848959E+04  0.7818609E-02  0.8035729E-01
       -2   -1    0    0    0  501  0.00000000000E+00  0.00000000000E+00  0.17911605321E+04  0.17911605321E+04  0.25500000920E-02 0. -1.
        2   -1    0    0  501    0  0.00000000000E+00  0.00000000000E+00 -0.20677220251E+04  0.20677220251E+04  0.25500000920E-02 0.  1.
    10030    2    1    2    0    0  0.00000000000E+00  0.00000000000E+00 -0.27656149299E+03  0.38588825572E+04  0.38489593829E+04 0.  0.
        5    1    3    3  502    0  0.11402810765E+04  0.11910393506E+03 -0.16879608623E+04  0.20405049972E+04  0.46999998093E+01 0.  1.
       -5    1    3    3    0  502 -0.11402810765E+04 -0.11910393506E+03  0.14113993694E+04  0.18183775600E+04  0.46999998093E+01 0. -1.
</event>
<event>
 5   0  0.2486268E-07  0.3882690E+04  0.7818609E-02  0.8028639E-01
        2   -1    0    0  501    0  0.00000000000E+00  0.00000000000E+00  0.24551051344E+04  0.24551051344E+04  0.25500000920E-02 0.  1.
       -2   -1    0    0    0  501  0.00000000000E+00  0.00000000000E+00 -0.15350954788E+04  0.15350954788E+04  0.25500000920E-02 0. -1.
    10030    2    1    2    0    0  0.00000000000E+00  0.00000000000E+00  0.92000965558E+03  0.39902006131E+04  0.38826901971E+04 0.  0.
        5    1    3    3  502    0 -0.29468850145E+03  0.19169915151E+04  0.37340454780E+03  0.19751331166E+04  0.46999998093E+01 0.  1.
       -5    1    3    3    0  502  0.29468850145E+03 -0.19169915151E+04  0.54660510778E+03  0.20150674966E+04  0.46999998093E+01 0. -1.
</event>
<event>
 5   0  0.7675750E-08  0.3945352E+04  0.7818609E-02  0.8015662E-01
        1   -1    0    0  501    0  0.00000000000E+00  0.00000000000E+00  0.23375156735E+04  0.23375156735E+04  0.50400001928E-02 0.  1.
       -1   -1    0    0    0  501  0.00000000000E+00  0.00000000000E+00 -0.16647803821E+04  0.16647803822E+04  0.50400001928E-02 0. -1.
    10030    2    1    2    0    0  0.00000000000E+00  0.00000000000E+00  0.67273529139E+03  0.40022960557E+04  0.39453518151E+04 0.  0.
        4    1    3    3  502    0  0.16583251509E+04 -0.10483521431E+04  0.54516378934E+03  0.20362440159E+04  0.12699999809E+01 0.  1.
       -4    1    3    3    0  502 -0.16583251509E+04  0.10483521431E+04  0.12757150206E+03  0.19660520398E+04  0.12699999809E+01 0. -1.
</event>
<event>
 5   0  0.7675750E-08  0.3857288E+04  0.7818609E-02  0.8033972E-01
        3   -1    0    0  501    0  0.00000000000E+00  0.00000000000E+00  0.18379367187E+04  0.18379367215E+04  0.10100000352E+00 0. -1.
       -3   -1    0    0    0  501  0.00000000000E+00  0.00000000000E+00 -0.20238280920E+04  0.20238280945E+04  0.10100000352E+00 0.  1.
    10030    2    1    2    0    0  0.00000000000E+00  0.00000000000E+00 -0.18589137331E+03  0.38617648160E+04  0.38572881525E+04 0.  0.
        1    1    3    3  502    0 -0.15353082029E+04  0.86099904644E+03  0.69611705908E+03  0.18928997849E+04  0.50400001928E-02 0. -1.
       -1    1    3    3    0  502  0.15353082029E+04 -0.86099904644E+03 -0.88200843239E+03  0.19688650311E+04  0.50400001928E-02 0.  1.
</event>
<event>
 5   0  0.2446281E-07  0.3846481E+04  0.7818609E-02  0.8036253E-01
        2   -1    0    0  501    0  0.00000000000E+00  0.00000000000E+00  0.27756231939E+04  0.27756231939E+04  0.25500000920E-02 0.  1.
       -2   -1    0    0    0  501  0.00000000000E+00  0.00000000000E+00 -0.13326210054E+04  0.13326210054E+04  0.25500000920E-02 0. -1.
    10030    2    1    2    0    0  0.00000000000E+00  0.00000000000E+00  0.14430021885E+04  0.41082441993E+04  0.38464808702E+04 0.  0.
        1    1    3    3  502    0 -0.29922040428E+03  0.14713978198E+04 -0.56207845546E+03  0.16032705900E+04  0.50400001928E-02 0. -1.
       -1    1    3    3    0  502  0.29922040428E+03 -0.14713978198E+04  0.20050806439E+04  0.25049736093E+04  0.50400001928E-02 0.  1.
</event>
<event>
 5   0  0.2384787E-07  0.3871099E+04  0.7818609E-02  0.8031067E-01
        2   -1    0    0  501    0  0.00000000000E+00  0.00000000000E+00  0.28074012472E+04  0.28074012472E+04  0.25500000920E-02 0. -1.
       -2   -1    0    0    0  501  0.00000000000E+00  0.00000000000E+00 -0.13344554569E+04  0.13344554569E+04  0.25500000920E-02 0.  1.
    10030    2    1    2    0    0  0.00000000000E+00  0.00000000000E+00  0.14729457903E+04  0.41418567040E+04  0.38710990242E+04 0.  0.
        4    1    3    3  502    0  0.46468754234E+03 -0.15629761956E+04  0.18522556754E+04  0.24677280644E+04  0.12699999809E+01 0. -1.
       -4    1    3    3    0  502 -0.46468754234E+03  0.15629761956E+04 -0.37930988507E+03  0.16741286396E+04  0.12699999809E+01 0.  1.
</event>
<event>
 5   0  0.2473224E-07  0.3890928E+04  0.7818609E-02  0.8026919E-01
        2   -1    0    0  501    0  0.00000000000E+00  0.00000000000E+00  0.22664987104E+04  0.22664987104E+04  0.25500000920E-02 0.  1.
       -2   -1    0    0    0  501  0.00000000000E+00  0.00000000000E+00 -0.16699018142E+04  0.16699018142E+04  0.25500000920E-02 0. -1.
    10030    2    1    2    0    0  0.00000000000E+00  0.00000000000E+00  0.59659689621E+03  0.39364005247E+04  0.38909280685E+04 0.  0.
        2    1    3    3  502    0 -0.63372038544E+03 -0.92034538602E+03  0.19094531450E+04  0.22123852444E+04  0.25500000920E-02 0.  1.
       -2    1    3    3    0  502  0.63372038544E+03  0.92034538602E+03 -0.13128562488E+04  0.17240152803E+04  0.25500000920E-02 0. -1.
</event>
<event>
 5   0  0.2473224E-07  0.3926386E+04  0.7818609E-02  0.8019564E-01
       -2   -1    0    0    0  501  0.00000000000E+00  0.00000000000E+00  0.19936159072E+04  0.19936159072E+04  0.25500000920E-02 0. -1.
        2   -1    0    0  501    0  0.00000000000E+00  0.00000000000E+00 -0.19332345856E+04  0.19332345856E+04  0.25500000920E-02 0.  1.
    10030    2    1    2    0    0  0.00000000000E+00  0.00000000000E+00  0.60381321599E+02  0.39268504927E+04  0.39263862378E+04 0.  0.
        2    1    3    3  502    0 -0.13356709463E+04  0.13785689449E+04 -0.38175367102E+03  0.19570909733E+04  0.25500000920E-02 0. -1.
       -2    1    3    3    0  502  0.13356709463E+04 -0.13785689449E+04  0.44213499261E+03  0.19697595194E+04  0.25500000920E-02 0.  1.
</event>
<event>
 5   0  0.7675750E-08  0.3857119E+04  0.7818609E-02  0.8034007E-01
       -1   -1    0    0    0  501  0.00000000000E+00  0.00000000000E+00  0.29982744334E+04  0.29982744334E+04  0.50400001928E-02 0. -1.
        1   -1    0    0  501    0  0.00000000000E+00  0.00000000000E+00 -0.12404939145E+04  0.12404939145E+04  0.50400001928E-02 0.  1.
    10030    2    1    2    0    0  0.00000000000E+00  0.00000000000E+00  0.17577805189E+04  0.42387683478E+04  0.38571187114E+04 0.  0.
        2    1    3    3  502    0  0.89403196207E+03  0.11849847368E+04  0.22319161624E+04  0.26804722964E+04  0.25500000920E-02 0. -1.
       -2    1    3    3    0  502 -0.89403196207E+03 -0.11849847368E+04 -0.47413564347E+03  0.15582960515E+04  0.25500000920E-02 0.  1.
</event>
<event>
 5   0  0.7731706E-08  0.3924293E+04  0.7818609E-02  0.8019996E-01
       -1   -1    0    0    0  501  0.00000000000E+00  0.00000000000E+00  0.20094052552E+04  0.20094052552E+04  0.50400001928E-02 0.  1.
        1   -1    0    0  501    0  0.00000000000E+00  0.00000000000E+00 -0.19159992221E+04  0.19159992221E+04  0.50400001928E-02 0. -1.
    10030    2    1    2    0    0  0.00000000000E+00  0.00000000000E+00  0.93406033049E+02  0.39254044773E+04  0.39242930094E+04 0.  0.
        3    1    3    3  502    0  0.10470968013E+04  0.88734954985E+03 -0.13559130723E+04  0.19293266195E+04  0.10100000352E+00 0.  1.
       -3    1    3    3    0  502 -0.10470968013E+04 -0.88734954985E+03  0.14493191053E+04  0.19960778578E+04  0.10100000352E+00 0. -1.
</event>
<event>
 5   0  0.2486268E-07  0.3895679E+04  0.7818609E-02  0.8025928E-01
       -2   -1    0    0    0  501  0.00000000000E+00  0.00000000000E+00  0.18462896884E+04  0.18462896884E+04  0.25500000920E-02 0.  1.
        2   -1    0    0  501    0  0.00000000000E+00  0.00000000000E+00 -0.20549747278E+04  0.20549747278E+04  0.25500000920E-02 0. -1.
    10030    2    1    2    0    0  0.00000000000E+00  0.00000000000E+00 -0.20868503939E+03  0.39012644162E+04  0.38956789652E+04 0.  0.
        5    1    3    3  502    0 -0.10165413572E+04  0.60498160194E+03 -0.16540422436E+04  0.20335281909E+04  0.46999998093E+01 0. -1.
       -5    1    3    3    0  502  0.10165413572E+04 -0.60498160194E+03  0.14453572042E+04  0.18677362253E+04  0.46999998093E+01 0.  1.
</event>
<event>
 5   0  0.2446281E-07  0.3862074E+04  0.7818609E-02  0.8032964E-01
       -2   -1    0    0    0  501  0.00000000000E+00  0.00000000000E+00  0.27957606586E+04  0.27957606586E+04  0.25500000920E-02 0.  1.
        2   -1    0    0  501    0  0.00000000000E+00  0.00000000000E+00 -0.13337707203E+04  0.13337707203E+04  0.25500000920E-02 0. -1.
    10030    2    1    2    0    0  0.00000000000E+00  0.00000000000E+00  0.14619899383E+04  0.41295313789E+04  0.38620739027E+04 0.  0.
        1    1    3    3  502    0  0.21131556022E+03 -0.16155117001E+03  0.27760781853E+04  0.27887924157E+04  0.50400001928E-02 0.  1.
       -1    1    3    3    0  502 -0.21131556022E+03  0.16155117001E+03 -0.13140882471E+04  0.13407389633E+04  0.50400001928E-02 0. -1.
</event>
<event>
 5   0  0.7675750E-08  0.3856389E+04  0.7818609E-02  0.8034161E-01
       -1   -1    0    0    0  501  0.00000000000E+00  0.00000000000E+00  0.14846095320E+04  0.14846095320E+04  0.50400001928E-02 0.  1.
        1   -1    0    0  501    0  0.00000000000E+00  0.00000000000E+00 -0.25043174913E+04  0.25043174913E+04  0.50400001928E-02 0. -1.
    10030    2    1    2    0    0  0.00000000000E+00  0.00000000000E+00 -0.10197079593E+04  0.39889270233E+04  0.38563887867E+04 0.  0.
        4    1    3    3  502    0  0.17108978842E+02 -0.84512260356E+03 -0.23024497992E+04  0.24527131147E+04  0.12699999809E+01 0. -1.
       -4    1    3    3    0  502 -0.17108978842E+02  0.84512260356E+03  0.12827418399E+04  0.15362139086E+04  0.12699999809E+01 0.  1.
</event>
<event>
 5   0  0.7731706E-08  0.3735455E+04  0.7818609E-02  0.8060150E-01
       -1   -1    0    0    0  501  0.00000000000E+00  0.00000000000E+00  0.19736516415E+04  0.19736516415E+04  0.50400001928E-02 0.  1.
        1   -1    0    0  501    0  0.00000000000E+00  0.00000000000E+00 -0.17674878160E+04  0.17674878160E+04  0.50400001928E-02 0. -1.
    10030    2    1    2    0    0  0.00000000000E+00  0.00000000000E+00  0.20616382549E+03  0.37411394575E+04  0.37354545798E+04 0.  0.
        3    1    3    3  502    0 -0.88216590677E+03 -0.43685319224E+03  0.16927428506E+04  0.19581715367E+04  0.10100000352E+00 0.  1.
       -3    1    3    3    0  502  0.88216590677E+03  0.43685319224E+03 -0.14865790251E+04  0.17829679208E+04  0.10100000352E+00 0. -1.
</event>
<event>
 5   0  0.2486268E-07  0.3840249E+04  0.7818609E-02  0.8037572E-01
        2   -1    0    0  501    0  0.00000000000E+00  0.00000000000E+00  0.19852924255E+04  0.19852924255E+04  0.25500000920E-02 0. -1.
       -2   -1    0    0    0  501  0.00000000000E+00  0.00000000000E+00 -0.18570956114E+04  0.18570956114E+04  0.25500000920E-02 0.  1.
    10030    2    1    2    0    0  0.00000000000E+00  0.00000000000E+00  0.12819681406E+03  0.38423880369E+04  0.38402488726E+04 0.  0.
        5    1    3    3  502    0 -0.13621117369E+04  0.78286084891E+03  0.11686319284E+04  0.19580454965E+04  0.46999998093E+01 0. -1.
       -5    1    3    3    0  502  0.13621117369E+04 -0.78286084891E+03 -0.10404351143E+04  0.18843425404E+04  0.46999998093E+01 0.  1.
</event>
<event>
 5   0  0.2486268E-07  0.3911569E+04  0.7818609E-02  0.8022627E-01
        2   -1    0    0  501    0  0.00000000000E+00  0.00000000000E+00  0.14402259773E+04  0.14402259773E+04  0.25500000920E-02 0. -1.
       -2   -1    0    0    0  501  0.00000000000E+00  0.00000000000E+00 -0.26558984651E+04  0.26558984651E+04  0.25500000920E-02 0.  1.
    10030    2    1    2    0    0  0.00000000000E+00  0.00000000000E+00 -0.12156724878E+04  0.40961244424E+04  0.39115694868E+04 0.  0.
        5    1    3    3  502    0  0.34612930481E+03 -0.19133328247E+04 -0.38712201541E+03  0.19825573229E+04  0.46999998093E+01 0. -1.
       -5    1    3    3    0  502 -0.34612930481E+03  0.19133328247E+04 -0.82855047243E+03  0.21135671196E+04  0.46999998093E+01 0.  1.
</event>
<event>
 5   0  0.2473224E-07  0.3878954E+04  0.7818609E-02  0.8029421E-01
       -2   -1    0    0    0  501  0.00000000000E+00  0.00000000000E+00  0.18312476081E+04  0.18312476081E+04  0.25500000920E-02 0. -1.
        2   -1    0    0  501    0  0.00000000000E+00  0.00000000000E+00 -0.20541031297E+04  0.20541031297E+04  0.25500000920E-02 0.  1.
    10030    2    1    2    0    0  0.00000000000E+00  0.00000000000E+00 -0.22285552157E+03  0.38853507378E+04  0.38789542111E+04 0.  0.
        2    1    3    3  502    0  0.10532046392E+04  0.89619530575E+03  0.12506548747E+04  0.18645491824E+04  0.25500000920E-02 0.  1.
       -2    1    3    3    0  502 -0.10532046392E+04 -0.89619530575E+03 -0.14735103963E+04  0.20208015553E+04  0.25500000920E-02 0. -1.
</event>
<event>
 5   0  0.2384787E-07  0.4061809E+04  0.7818609E-02  0.7992192E-01
        2   -1    0    0  501    0  0.00000000000E+00  0.00000000000E+00  0.25242030433E+04  0.25242030433E+04  0.25500000920E-02 0. -1.
       -2   -1    0    0    0  501  0.00000000000E+00  0.00000000000E+00 -0.16340101200E+04  0.16340101200E+04  0.25500000920E-02 0.  1.
    10030    2    1    2    0    0  0.00000000000E+00  0.00000000000E+00  0.89019292333E+03  0.41582131633E+04  0.40618091130E+04 0.  0.
        4    1    3    3  502    0  0.62951467911E+03 -0.18289139083E+02  0.24217119324E+04  0.25022616810E+04  0.12699999809E+01 0. -1.
       -4    1    3    3    0  502 -0.62951467911E+03  0.18289139083E+02 -0.15315190090E+04  0.16559514823E+04  0.12699999809E+01 0.  1.
</event>
<event>
 5   0  0.7675750E-08  0.3781198E+04  0.7818609E-02  0.8050202E-01
       -1   -1    0    0    0  501  0.00000000000E+00  0.00000000000E+00  0.21850448828E+04  0.21850448828E+04  0.50400001928E-02 0.  1.
        1   -1    0    0  501    0  0.00000000000E+00  0.00000000000E+00 -0.16358314043E+04  0.16358314043E+04  0.50400001928E-02 0. -1.
    10030    2    1    2    0    0  0.00000000000E+00  0.00000000000E+00  0.54921347851E+03  0.38208762871E+04  0.37811982435E+04 0.  0.
        1    1    3    3  502    0  0.36004861575E+03 -0.17225585923E+04 -0.42367420279E+03  0.18100671092E+04  0.50400001928E-02 0.  1.
       -1    1    3    3    0  502 -0.36004861575E+03  0.17225585923E+04  0.97288768130E+03  0.20108091779E+04  0.50400001928E-02 0. -1.
</event>
<event>
 5   0  0.7675750E-08  0.3917505E+04  0.7818609E-02  0.8021398E-01
       -1   -1    0    0    0  501  0.00000000000E+00  0.00000000000E+00  0.15040855389E+04  0.15040855389E+04  0.50400001928E-02 0. -1.
        1   -1    0    0  501    0  0.00000000000E+00  0.00000000000E+00 -0.25508595859E+04  0.25508595859E+04  0.50400001928E-02 0.  1.
    10030    2    1    2    0    0  0.00000000000E+00  0.00000000000E+00 -0.10467740470E+04  0.40549451248E+04  0.39175048257E+04 0.  0.
        1    1    3    3  502    0  0.92126583439E+03  0.78912946054E+03 -0.21152820402E+04  0.24384163206E+04  0.50400001928E-02 0.  1.
       -1    1    3    3    0  502 -0.92126583439E+03 -0.78912946054E+03  0.10685079932E+04  0.16165288042E+04  0.50400001928E-02 0. -1.
</event>
<event>
 5   0  0.7675750E-08  0.3915194E+04  0.7818609E-02  0.8021876E-01
        1   -1    0    0  501    0  0.00000000000E+00  0.00000000000E+00  0.20181300815E+04  0.20181300816E+04  0.50400001928E-02 0. -1.
       -1   -1    0    0    0  501  0.00000000000E+00  0.00000000000E+00 -0.18988799906E+04  0.18988799906E+04  0.50400001928E-02 0.  1.
    10030    2    1    2    0    0  0.00000000000E+00  0.00000000000E+00  0.11925009093E+03  0.39170100722E+04  0.39151944168E+04 0.  0.
        5    1    3    3  502    0 -0.11788382915E+04 -0.25652096422E+03 -0.14827455003E+04  0.19115488566E+04  0.46999998093E+01 0.  1.
       -5    1    3    3    0  502  0.11788382915E+04  0.25652096422E+03  0.16019955912E+04  0.20054612155E+04  0.46999998093E+01 0. -1.
</event>
<event>
 5   0  0.2446281E-07  0.3887128E+04  0.7818609E-02  0.8027712E-01
       -2   -1    0    0    0  501  0.00000000000E+00  0.00000000000E+00  0.13089818466E+04  0.13089818466E+04  0.25500000920E-02 0. -1.
        2   -1    0    0  501    0  0.00000000000E+00  0.00000000000E+00 -0.28857860615E+04  0.28857860615E+04  0.25500000920E-02 0.  1.
    10030    2    1    2    0    0  0.00000000000E+00  0.00000000000E+00 -0.15768042149E+04  0.41947679082E+04  0.38871282808E+04 0.  0.
        1    1    3    3  502    0  0.18600603522E+02 -0.12181649835E+04  0.84576760488E+03  0.14831030817E+04  0.50400001928E-02 0. -1.
       -1    1    3    3    0  502 -0.18600603522E+02  0.12181649835E+04 -0.24225718198E+04  0.27116648265E+04  0.50400001928E-02 0.  1.
</event>
<event>
 5   0  0.2384787E-07  0.3915041E+04  0.7818609E-02  0.8021908E-01
        2   -1    0    0  501    0  0.00000000000E+00  0.00000000000E+00  0.18876039246E+04  0.18876039246E+04  0.25500000920E-02 0.  1.
       -2   -1    0    0    0  501  0.00000000000E+00  0.00000000000E+00 -0.20300268024E+04  0.20300268024E+04  0.25500000920E-02 0. -1.
    10030    2    1    2    0    0  0.00000000000E+00  0.00000000000E+00 -0.14242287785E+03  0.39176307270E+04  0.39150410262E+04 0.  0.
        4    1    3    3  502    0 -0.90000158718E+03 -0.12907637018E+03 -0.18059155783E+04  0.20218793869E+04  0.12699999809E+01 0. -1.
       -4    1    3    3    0  502  0.90000158718E+03  0.12907637018E+03  0.16634927004E+04  0.18957513401E+04  0.12699999809E+01 0.  1.
</event>
<event>
 5   0  0.7675750E-08  0.3894121E+04  0.7818609E-02  0.8026253E-01
       -1   -1    0    0    0  501  0.00000000000E+00  0.00000000000E+00  0.16012202402E+04  0.16012202402E+04  0.50400001928E-02 0. -1.
        1   -1    0    0  501    0  0.00000000000E+00  0.00000000000E+00 -0.23675976910E+04  0.23675976910E+04  0.50400001928E-02 0.  1.
    10030    2    1    2    0    0  0.00000000000E+00  0.00000000000E+00 -0.76637745075E+03  0.39688179312E+04  0.38941213866E+04 0.  0.
        4    1    3    3  502    0  0.96877474674E+03 -0.10785697956E+04 -0.17078140455E+04  0.22401936838E+04  0.12699999809E+01 0.  1.
       -4    1    3    3    0  502 -0.96877474674E+03  0.10785697956E+04  0.94143659476E+03  0.17286242474E+04  0.12699999809E+01 0. -1.
</event>
<event>
 5   0  0.7675750E-08  0.3898444E+04  0.7818609E-02  0.8025353E-01
        3   -1    0    0  501    0  0.00000000000E+00  0.00000000000E+00  0.16618543348E+04  0.16618543378E+04  0.10100000352E+00 0. -1.
       -3   -1    0    0    0  501  0.00000000000E+00  0.00000000000E+00 -0.22862808418E+04  0.22862808440E+04  0.10100000352E+00 0.  1.
    10030    2    1    2    0    0  0.00000000000E+00  0.00000000000E+00 -0.62442650701E+03  0.39481351818E+04  0.38984436576E+04 0.  0.
        4    1    3    3  502    0  0.12642154999E+04  0.12003702078E+04 -0.11952995513E+04  0.21137341593E+04  0.12699999809E+01 0.  1.
       -4    1    3    3    0  502 -0.12642154999E+04 -0.12003702078E+04  0.57087304424E+03  0.18344010226E+04  0.12699999809E+01 0. -1.
</event>
<event>
 5   0  0.2446281E-07  0.3893904E+04  0.7818609E-02  0.8026298E-01
        2   -1    0    0  501    0  0.00000000000E+00  0.00000000000E+00  0.18672935464E+04  0.18672935464E+04  0.25500000920E-02 0.  1.
       -2   -1    0    0    0  501  0.00000000000E+00  0.00000000000E+00 -0.20300086201E+04  0.20300086201E+04  0.25500000920E-02 0. -1.
    10030    2    1    2    0    0  0.00000000000E+00  0.00000000000E+00 -0.16271507368E+03  0.38973021664E+04  0.38939039512E+04 0.  0.
        1    1    3    3  502    0  0.14765928874E+04  0.62816618226E+03 -0.11849088516E+04  0.19947251175E+04  0.50400001928E-02 0. -1.
       -1    1    3    3    0  502 -0.14765928874E+04 -0.62816618226E+03  0.10221937780E+04  0.19025770490E+04  0.50400001928E-02 0.  1.
</event>
<event>
 5   0  0.7731706E-08  0.3897023E+04  0.7818609E-02  0.8025649E-01
        1   -1    0    0  501    0  0.00000000000E+00  0.00000000000E+00  0.21775083237E+04  0.21775083237E+04  0.50400001928E-02 0. -1.
       -1   -1    0    0    0  501  0.00000000000E+00  0.00000000000E+00 -0.17435967788E+04  0.17435967789E+04  0.50400001928E-02 0.  1.
    10030    2    1    2    0    0  0.00000000000E+00  0.00000000000E+00  0.43391154482E+03  0.39211051025E+04  0.38970227092E+04 0.  0.
        3    1    3    3  502    0  0.16305785234E+04  0.51569932150E+03  0.11565166360E+04  0.20645248486E+04  0.10100000352E+00 0. -1.
       -3    1    3    3    0  502 -0.16305785234E+04 -0.51569932150E+03 -0.72260509113E+03  0.18565802539E+04  0.10100000352E+00 0.  1.
</event>
<event>
 5   0  0.2473224E-07  0.3910604E+04  0.7818609E-02  0.8022827E-01
        2   -1    0    0  501    0  0.00000000000E+00  0.00000000000E+00  0.14648989166E+04  0.14648989166E+04  0.25500000920E-02 0. -1.
       -2   -1    0    0    0  501  0.00000000000E+00  0.00000000000E+00 -0.26098770137E+04  0.26098770138E+04  0.25500000920E-02 0.  1.
    10030    2    1    2    0    0  0.00000000000E+00  0.00000000000E+00 -0.11449780972E+04  0.40747759303E+04  0.39106040505E+04 0.  0.
        2    1    3    3  502    0 -0.88762741217E+02 -0.10959838161E+04  0.11122198152E+04  0.15639988066E+04  0.25500000920E-02 0. -1.
       -2    1    3    3    0  502  0.88762741217E+02  0.10959838161E+04 -0.22571979124E+04  0.25107771238E+04  0.25500000920E-02 0.  1.
</event>
<event>
 5   0  0.2473224E-07  0.3840844E+04  0.7818609E-02  0.8037446E-01
        2   -1    0    0  501    0  0.00000000000E+00  0.00000000000E+00  0.25334427155E+04  0.25334427155E+04  0.25500000920E-02 0. -1.
       -2   -1    0    0    0  501  0.00000000000E+00  0.00000000000E+00 -0.14557344204E+04  0.14557344204E+04  0.25500000920E-02 0.  1.
    10030    2    1    2    0    0  0.00000000000E+00  0.00000000000E+00  0.10777082951E+04  0.39891771359E+04  0.38408435340E+04 0.  0.
        2    1    3    3  502    0 -0.79285305745E+03  0.11484143292E+04 -0.83139565457E+03  0.16244045606E+04  0.25500000920E-02 0.  1.
       -2    1    3    3    0  502  0.79285305745E+03 -0.11484143292E+04  0.19091039497E+04  0.23647725753E+04  0.25500000920E-02 0. -1.
</event>
<event>
 5   0  0.2384787E-07  0.3903056E+04  0.7818609E-02  0.8024394E-01
       -2   -1    0    0    0  501  0.00000000000E+00  0.00000000000E+00  0.13625170180E+04  0.13625170180E+04  0.25500000920E-02 0. -1.
        2   -1    0    0  501    0  0.00000000000E+00  0.00000000000E+00 -0.27951663788E+04  0.27951663788E+04  0.25500000920E-02 0.  1.
    10030    2    1    2    0    0  0.00000000000E+00  0.00000000000E+00 -0.14326493608E+04  0.41576833968E+04  0.39030561150E+04 0.  0.
        4    1    3    3  502    0 -0.13185088317E+03 -0.15436498037E+04 -0.19804263162E+04  0.25144242639E+04  0.12699999809E+01 0.  1.
       -4    1    3    3    0  502  0.13185088317E+03  0.15436498037E+04  0.54777695549E+03  0.16432591329E+04  0.12699999809E+01 0. -1.
</event>
<event>
 5   0  0.2395572E-07  0.3480546E+04  0.7818609E-02  0.8118416E-01
        2   -1    0    0  501    0  0.00000000000E+00  0.00000000000E+00  0.12481662450E+04  0.12481662450E+04  0.25500000920E-02 0.  1.
       -2   -1    0    0    0  501  0.00000000000E+00  0.00000000000E+00 -0.24263999657E+04  0.24263999657E+04  0.25500000920E-02 0. -1.
    10030    2    1    2    0    0  0.00000000000E+00  0.00000000000E+00 -0.11782337207E+04  0.36745662107E+04  0.34805462411E+04 0.  0.
        3    1    3    3  502    0  0.92783857769E+03  0.11590289989E+04 -0.15476475634E+04  0.21446318186E+04  0.10100000352E+00 0. -1.
       -3    1    3    3    0  502 -0.92783857769E+03 -0.11590289989E+04  0.36941384276E+03  0.15299343921E+04  0.10100000352E+00 0.  1.
</event>
<event>
 5   0  0.2446281E-07  0.3885326E+04  0.7818609E-02  0.8028088E-01
        2   -1    0    0  501    0  0.00000000000E+00  0.00000000000E+00  0.26868069845E+04  0.26868069845E+04  0.25500000920E-02 0. -1.
       -2   -1    0    0    0  501  0.00000000000E+00  0.00000000000E+00 -0.14046190189E+04  0.14046190189E+04  0.25500000920E-02 0.  1.
    10030    2    1    2    0    0  0.00000000000E+00  0.00000000000E+00  0.12821879656E+04  0.40914260034E+04  0.38853263392E+04 0.  0.
        1    1    3    3  502    0  0.50374127968E+02 -0.18320440865E+04  0.13194851678E+04  0.22583100309E+04  0.50400001928E-02 0.  1.
       -1    1    3    3    0  502 -0.50374127968E+02  0.18320440865E+04 -0.37297202181E+02  0.18331159725E+04  0.50400001928E-02 0. -1.
</event>
<event>
 5   0  0.2486268E-07  0.3936616E+04  0.7818609E-02  0.8017457E-01
       -2   -1    0    0    0  501  0.00000000000E+00  0.00000000000E+00  0.15792537240E+04  0.15792537240E+04  0.25500000920E-02 0.  1.
        2   -1    0    0  501    0  0.00000000000E+00  0.00000000000E+00 -0.24532072919E+04  0.24532072919E+04  0.25500000920E-02 0. -1.
    10030    2    1    2    0    0  0.00000000000E+00  0.00000000000E+00 -0.87395356791E+03  0.40324610159E+04  0.39366161872E+04 0.  0.
        5    1    3    3  502    0 -0.17035426823E+04 -0.85886438646E+03 -0.93302834521E+03  0.21237395527E+04  0.46999998093E+01 0. -1.
       -5    1    3    3    0  502  0.17035426823E+04  0.85886438646E+03  0.59074777295E+02  0.19087214632E+04  0.46999998093E+01 0.  1.
</event>
<event>
 5   0  0.7675750E-08  0.3900243E+04  0.7818609E-02  0.8024979E-01
       -1   -1    0    0    0  501  0.00000000000E+00  0.00000000000E+00  0.20351987047E+04  0.20351987047E+04  0.50400001928E-02 0. -1.
        1   -1    0    0  501    0  0.00000000000E+00  0.00000000000E+00 -0.18686012334E+04  0.18686012334E+04  0.50400001928E-02 0.  1.
    10030    2    1    2    0    0  0.00000000000E+00  0.00000000000E+00  0.16659747129E+03  0.39037999381E+04  0.39002434846E+04 0.  0.
        4    1    3    3  502    0  0.14251416412E+04  0.10618881901E+04  0.88673734038E+03  0.19861872896E+04  0.12699999809E+01 0.  1.
       -4    1    3    3    0  502 -0.14251416412E+04 -0.10618881901E+04 -0.72013986909E+03  0.19176126485E+04  0.12699999809E+01 0. -1.
</event>
<event>
 5   0  0.7675750E-08  0.3874703E+04  0.7818609E-02  0.8030311E-01
        1   -1    0    0  501    0  0.00000000000E+00  0.00000000000E+00  0.30760417715E+04  0.30760417715E+04  0.50400001928E-02 0.  1.
       -1   -1    0    0    0  501  0.00000000000E+00  0.00000000000E+00 -0.12201817542E+04  0.12201817542E+04  0.50400001928E-02 0. -1.
    10030    2    1    2    0    0  0.00000000000E+00  0.00000000000E+00  0.18558600173E+04  0.42962235257E+04  0.38747025924E+04 0.  0.
        5    1    3    3  502    0 -0.10409320219E+04  0.15731782447E+04  0.43845483126E+03  0.19366708530E+04  0.46999998093E+01 0. -1.
       -5    1    3    3    0  502  0.10409320219E+04 -0.15731782447E+04  0.14174051860E+04  0.23595526727E+04  0.46999998093E+01 0.  1.
</event>
<event>
 5   0  0.2384787E-07  0.3961330E+04  0.7818609E-02  0.8012393E-01
       -2   -1    0    0    0  501  0.00000000000E+00  0.00000000000E+00  0.14023447936E+04  0.14023447936E+04  0.25500000920E-02 0. -1.
        2   -1    0    0  501    0  0.00000000000E+00  0.00000000000E+00 -0.27974816606E+04  0.27974816606E+04  0.25500000920E-02 0.  1.
    10030    2    1    2    0    0  0.00000000000E+00  0.00000000000E+00 -0.13951368670E+04  0.41998264542E+04  0.39613299999E+04 0.  0.
        4    1    3    3  502    0  0.19085580789E+04 -0.50211334241E+03 -0.87598723779E+03  0.21591820217E+04  0.12699999809E+01 0. -1.
       -4    1    3    3    0  502 -0.19085580789E+04  0.50211334241E+03 -0.51914962920E+03  0.20406444325E+04  0.12699999809E+01 0.  1.
</event>
<event>
 5   0  0.2473224E-07  0.3902946E+04  0.7818609E-02  0.8024417E-01
        2   -1    0    0  501    0  0.00000000000E+00  0.00000000000E+00  0.21443181851E+04  0.21443181851E+04  0.25500000920E-02 0.  1.
       -2   -1    0    0    0  501  0.00000000000E+00  0.00000000000E+00 -0.17759706109E+04  0.17759706109E+04  0.25500000920E-02 0. -1.
    10030    2    1    2    0    0  0.00000000000E+00  0.00000000000E+00  0.36834757415E+03  0.39202887960E+04  0.39029455939E+04 0.  0.
        2    1    3    3  502    0  0.17968404279E+04  0.13431948253E+03 -0.56853513050E+03  0.18894203982E+04  0.25500000920E-02 0. -1.
       -2    1    3    3    0  502 -0.17968404279E+04 -0.13431948253E+03  0.93688270465E+03  0.20308683977E+04  0.25500000920E-02 0.  1.
</event>
<event>
 5   0  0.7675750E-08  0.3791962E+04  0.7818609E-02  0.8047882E-01
       -1   -1    0    0    0  501  0.00000000000E+00  0.00000000000E+00  0.17046298484E+04  0.17046298484E+04  0.50400001928E-02 0.  1.
        1   -1    0    0  501    0  0.00000000000E+00  0.00000000000E+00 -0.21088117630E+04  0.21088117630E+04  0.50400001928E-02 0. -1.
    10030    2    1    2    0    0  0.00000000000E+00  0.00000000000E+00 -0.40418191465E+03  0.38134416114E+04  0.37919617487E+04 0.  0.
        5    1    3    3  502    0  0.14357594649E+04 -0.12320286309E+04 -0.77203784794E+02  0.18934841702E+04  0.46999998093E+01 0.  1.
       -5    1    3    3    0  502 -0.14357594649E+04  0.12320286309E+04 -0.32697812985E+03  0.19199574412E+04  0.46999998093E+01 0. -1.
</event>
<event>
 5   0  0.7675750E-08  0.3947082E+04  0.7818609E-02  0.8015308E-01
        1   -1    0    0  501    0  0.00000000000E+00  0.00000000000E+00  0.22928028992E+04  0.22928028993E+04  0.50400001928E-02 0. -1.
       -1   -1    0    0    0  501  0.00000000000E+00  0.00000000000E+00 -0.16987346392E+04  0.16987346392E+04  0.50400001928E-02 0.  1.
    10030    2    1    2    0    0  0.00000000000E+00  0.00000000000E+00  0.59406826004E+03  0.39915375385E+04  0.39470818111E+04 0.  0.
        4    1    3    3  502    0 -0.13074650317E+04 -0.14672988698E+04  0.47914939019E+03  0.20228733360E+04  0.12699999809E+01 0. -1.
       -4    1    3    3    0  502  0.13074650317E+04  0.14672988698E+04  0.11491886985E+03  0.19686642025E+04  0.12699999809E+01 0.  1.
</event>
<event>
 5   0  0.2486268E-07  0.3963799E+04  0.7818609E-02  0.8011889E-01
        2   -1    0    0  501    0  0.00000000000E+00  0.00000000000E+00  0.18340838604E+04  0.18340838604E+04  0.25500000920E-02 0. -1.
       -2   -1    0    0    0  501  0.00000000000E+00  0.00000000000E+00 -0.21416282088E+04  0.21416282088E+04  0.25500000920E-02 0.  1.
    10030    2    1    2    0    0  0.00000000000E+00  0.00000000000E+00 -0.30754434843E+03  0.39757120692E+04  0.39637990527E+04 0.  0.
        5    1    3    3  502    0 -0.93752042204E+03  0.11766402538E+04 -0.14477956927E+04  0.20879562463E+04  0.46999998093E+01 0.  1.
       -5    1    3    3    0  502  0.93752042204E+03 -0.11766402538E+04  0.11402513443E+04  0.18877558229E+04  0.46999998093E+01 0. -1.
</event>
<event>
 5   0  0.7675750E-08  0.3888983E+04  0.7818609E-02  0.8027324E-01
       -1   -1    0    0    0  501  0.00000000000E+00  0.00000000000E+00  0.18613214977E+04  0.18613214977E+04  0.50400001928E-02 0.  1.
        1   -1    0    0  501    0  0.00000000000E+00  0.00000000000E+00 -0.20313777082E+04  0.20313777082E+04  0.50400001928E-02 0. -1.
    10030    2    1    2    0    0  0.00000000000E+00  0.00000000000E+00 -0.17005621054E+03  0.38926992059E+04  0.38889828995E+04 0.  0.
        2    1    3    3  502    0 -0.90707589795E+03  0.13571086030E+04  0.97263510010E+03  0.19001445952E+04  0.25500000920E-02 0.  1.
       -2    1    3    3    0  502  0.90707589795E+03 -0.13571086030E+04 -0.11426913106E+04  0.19925546106E+04  0.25500000920E-02 0. -1.
</event>
<event>
 5   0  0.7731706E-08  0.3805760E+04  0.7818609E-02  0.8044920E-01
        1   -1    0    0  501    0  0.00000000000E+00  0.00000000000E+00  0.14760169329E+04  0.14760169329E+04  0.50400001928E-02 0. -1.
       -1   -1    0    0    0  501  0.00000000000E+00  0.00000000000E+00 -0.24531912160E+04  0.24531912160E+04  0.50400001928E-02 0.  1.
    10030    2    1    2    0    0  0.00000000000E+00  0.00000000000E+00 -0.97717428310E+03  0.39292081488E+04  0.38057597267E+04 0.  0.
        3    1    3    3  502    0 -0.95184874438E+03 -0.14968867022E+04  0.22242110008E+03  0.17877799046E+04  0.10100000352E+00 0.  1.
       -3    1    3    3    0  502  0.95184874438E+03  0.14968867022E+04 -0.11995953832E+04  0.21414282442E+04  0.10100000352E+00 0. -1.
</event>
<event>
 5   0  0.7675750E-08  0.3924764E+04  0.7818609E-02  0.8019898E-01
       -1   -1    0    0    0  501  0.00000000000E+00  0.00000000000E+00  0.30296244795E+04  0.30296244795E+04  0.50400001928E-02 0.  1.
        1   -1    0    0  501    0  0.00000000000E+00  0.00000000000E+00 -0.12710956231E+04  0.12710956231E+04  0.50400001928E-02 0. -1.
    10030    2    1    2    0    0  0.00000000000E+00  0.00000000000E+00  0.17585288565E+04  0.43007201026E+04  0.39247636441E+04 0.  0.
        1    1    3    3  502    0 -0.53019287413E+03  0.59266374379E+03 -0.10866306670E+04  0.13465218169E+04  0.50400001928E-02 0. -1.
       -1    1    3    3    0  502  0.53019287413E+03 -0.59266374379E+03  0.28451595235E+04  0.29541982857E+04  0.50400001928E-02 0.  1.
</event>
<event>
 5   0  0.2446281E-07  0.3935433E+04  0.7818609E-02  0.8017700E-01
        2   -1    0    0  501    0  0.00000000000E+00  0.00000000000E+00  0.27684354600E+04  0.27684354600E+04  0.25500000920E-02 0. -1.
       -2   -1    0    0    0  501  0.00000000000E+00  0.00000000000E+00 -0.13985909988E+04  0.13985909988E+04  0.25500000920E-02 0.  1.
    10030    2    1    2    0    0  0.00000000000E+00  0.00000000000E+00  0.13698444612E+04  0.41670264589E+04  0.39354333511E+04 0.  0.
        1    1    3    3  502    0 -0.53851150672E+03  0.13066689110E+04 -0.76478387117E+03  0.16069451314E+04  0.50400001928E-02 0.  1.
       -1    1    3    3    0  502  0.53851150672E+03 -0.13066689110E+04  0.21346283324E+04  0.25600813274E+04  0.50400001928E-02 0. -1.
</event>
<event>
 5   0  0.2395572E-07  0.4027847E+04  0.7818609E-02  0.7998952E-01
       -2   -1    0    0    0  501  0.00000000000E+00  0.00000000000E+00  0.23489028049E+04  0.23489028049E+04  0.25500000920E-02 0. -1.
        2   -1    0    0  501    0  0.00000000000E+00  0.00000000000E+00 -0.17267159063E+04  0.17267159063E+04  0.25500000920E-02 0.  1.
    10030    2    1    2    0    0  0.00000000000E+00  0.00000000000E+00  0.62218689852E+03  0.40756187112E+04  0.40278469860E+04 0.  0.
        3    1    3    3  502    0 -0.61783786983E+03 -0.10911286797E+04 -0.12835427505E+04  0.17943710407E+04  0.10100000352E+00 0.  1.
       -3    1    3    3    0  502  0.61783786983E+03  0.10911286797E+04  0.19057296490E+04  0.22812476705E+04  0.10100000352E+00 0. -1.
</event>
<event>
 5   0  0.2486268E-07  0.3952478E+04  0.7818609E-02  0.8014202E-01
        2   -1    0    0  501    0  0.00000000000E+00  0.00000000000E+00  0.14618404760E+04  0.14618404760E+04  0.25500000920E-02 0. -1.
       -2   -1    0    0    0  501  0.00000000000E+00  0.00000000000E+00 -0.26716458941E+04  0.26716458941E+04  0.25500000920E-02 0.  1.
    10030    2    1    2    0    0  0.00000000000E+00  0.00000000000E+00 -0.12098054181E+04  0.41334863701E+04  0.39524777573E+04 0.  0.
        5    1    3    3  502    0  0.33497759568E+03 -0.15992216114E+04  0.55766257818E+03  0.17264789003E+04  0.46999998093E+01 0. -1.
       -5    1    3    3    0  502 -0.33497759568E+03  0.15992216114E+04 -0.17674679963E+04  0.24070074698E+04  0.46999998093E+01 0.  1.
</event>
<event>
 5   0  0.2384787E-07  0.3903787E+04  0.7818609E-02  0.8024242E-01
        2   -1    0    0  501    0  0.00000000000E+00  0.00000000000E+00  0.29337645818E+04  0.29337645818E+04  0.25500000920E-02 0.  1.
       -2   -1    0    0    0  501  0.00000000000E+00  0.00000000000E+00 -0.12986346541E+04  0.12986346541E+04  0.25500000920E-02 0. -1.
    10030    2    1    2    0    0  0.00000000000E+00  0.00000000000E+00  0.16351299277E+04  0.42323992359E+04  0.39037870602E+04 0.  0.
        4    1    3    3  502    0  0.70339752439E+03 -0.14926841015E+04 -0.31279780171E+03  0.16794993247E+04  0.12699999809E+01 0. -1.
       -4    1    3    3    0  502 -0.70339752439E+03  0.14926841015E+04  0.19479277294E+04  0.25528999111E+04  0.12699999809E+01 0.  1.
</event>
<event>
 5   0  0.2446281E-07  0.3831380E+04  0.7818609E-02  0.8039454E-01
        2   -1    0    0  501    0  0.00000000000E+00  0.00000000000E+00  0.24718976015E+04  0.24718976015E+04  0.25500000920E-02 0.  1.
       -2   -1    0    0    0  501  0.00000000000E+00  0.00000000000E+00 -0.14846360349E+04  0.14846360349E+04  0.25500000920E-02 0. -1.
    10030    2    1    2    0    0  0.00000000000E+00  0.00000000000E+00  0.98726156658E+03  0.39565336363E+04  0.38313800405E+04 0.  0.
        1    1    3    3  502    0 -0.12870507132E+04 -0.16970781255E+03 -0.96113346354E+03  0.16152640078E+04  0.50400001928E-02 0. -1.
       -1    1    3    3    0  502  0.12870507132E+04  0.16970781255E+03  0.19483950301E+04  0.23412696285E+04  0.50400001928E-02 0.  1.
</event>
<event>
 5   0  0.7675750E-08  0.3965232E+04  0.7818609E-02  0.8011597E-01
       -1   -1    0    0    0  501  0.00000000000E+00  0.00000000000E+00  0.25121022745E+04  0.25121022746E+04  0.50400001928E-02 0.  1.
        1   -1    0    0  501    0  0.00000000000E+00  0.00000000000E+00 -0.15647315142E+04  0.15647315142E+04  0.50400001928E-02 0. -1.
    10030    2    1    2    0    0  0.00000000000E+00  0.00000000000E+00  0.94737076038E+03  0.40768337887E+04  0.39652316935E+04 0.  0.
        2    1    3    3  502    0  0.51959664773E+03  0.12289684841E+04  0.19813898490E+04  0.23887758256E+04  0.25500000920E-02 0.  1.
       -2    1    3    3    0  502 -0.51959664773E+03 -0.12289684841E+04 -0.10340190887E+04  0.16880579631E+04  0.25500000920E-02 0. -1.
</event>
<event>
 5   0  0.7731706E-08  0.4004580E+04  0.7818609E-02  0.8003623E-01
        1   -1    0    0  501    0  0.00000000000E+00  0.00000000000E+00  0.17057900275E+04  0.17057900275E+04  0.50400001928E-02 0.  1.
       -1   -1    0    0    0  501  0.00000000000E+00  0.00000000000E+00 -0.23503273534E+04  0.23503273534E+04  0.50400001928E-02 0. -1.
    10030    2    1    2    0    0  0.00000000000E+00  0.00000000000E+00 -0.64453732587E+03  0.40561173809E+04  0.40045798585E+04 0.  0.
        3    1    3    3  502    0 -0.16240113754E+04  0.40412563274E+03 -0.14357042796E+04  0.22049891753E+04  0.10100000352E+00 0. -1.
       -3    1    3    3    0  502  0.16240113754E+04 -0.40412563274E+03  0.79116695378E+03  0.18511282056E+04  0.10100000352E+00 0.  1.
</event>
<event>
 5   0  0.2395572E-07  0.3883151E+04  0.7818609E-02  0.8028543E-01
       -2   -1    0    0    0  501  0.00000000000E+00  0.00000000000E+00  0.21517324115E+04  0.21517324115E+04  0.25500000920E-02 0. -1.
        2   -1    0    0  501    0  0.00000000000E+00  0.00000000000E+00 -0.17519442214E+04  0.17519442214E+04  0.25500000920E-02 0.  1.
    10030    2    1    2    0    0  0.00000000000E+00  0.00000000000E+00  0.39978819008E+03  0.39036766330E+04  0.38831508673E+04 0.  0.
        3    1    3    3  502    0  0.17160326290E+04 -0.52248771781E+03  0.94675704777E+03  0.20283269748E+04  0.10100000352E+00 0. -1.
       -3    1    3    3    0  502 -0.17160326290E+04  0.52248771781E+03 -0.54696885769E+03  0.18753496582E+04  0.10100000352E+00 0.  1.
</event>
<event>
 5   0  0.2395572E-07  0.3682839E+04  0.7818609E-02  0.8071776E-01
       -2   -1    0    0    0  501  0.00000000000E+00  0.00000000000E+00  0.13971909495E+04  0.13971909495E+04  0.25500000920E-02 0. -1.
        2   -1    0    0  501    0  0.00000000000E+00  0.00000000000E+00 -0.24268873257E+04  0.24268873257E+04  0.25500000920E-02 0.  1.
    10030    2    1    2    0    0  0.00000000000E+00  0.00000000000E+00 -0.10296963763E+04  0.38240782752E+04  0.36828385829E+04 0.  0.
        3    1    3    3  502    0 -0.16736630420E+04  0.73890516248E+03 -0.29779517361E+03  0.18535940205E+04  0.10100000352E+00 0. -1.
       -3    1    3    3    0  502  0.16736630420E+04 -0.73890516248E+03 -0.73190120267E+03  0.19704842547E+04  0.10100000352E+00 0.  1.
</event>
<event>
 5   0  0.7675750E-08  0.3868531E+04  0.7818609E-02  0.8031606E-01
       -1   -1    0    0    0  501  0.00000000000E+00  0.00000000000E+00  0.16339639246E+04  0.16339639246E+04  0.50400001928E-02 0. -1.
        1   -1    0    0  501    0  0.00000000000E+00  0.00000000000E+00 -0.22897586938E+04  0.22897586938E+04  0.50400001928E-02 0.  1.
    10030    2    1    2    0    0  0.00000000000E+00  0.00000000000E+00 -0.65579476914E+03  0.39237226184E+04  0.38685310400E+04 0.  0.
        4    1    3    3  502    0 -0.74999298203E+03 -0.17460169267E+04  0.38247183050E+02  0.19006654206E+04  0.12699999809E+01 0.  1.
       -4    1    3    3    0  502  0.74999298203E+03  0.17460169267E+04 -0.69404195219E+03  0.20230571978E+04  0.12699999809E+01 0. -1.
</event>
<event>
 5   0  0.7675750E-08  0.3973499E+04  0.7818609E-02  0.8009914E-01
       -1   -1    0    0    0  501  0.00000000000E+00  0.00000000000E+00  0.17125720728E+04  0.17125720728E+04  0.50400001928E-02 0. -1.
        1   -1    0    0  501    0  0.00000000000E+00  0.00000000000E+00 -0.23048216623E+04  0.23048216623E+04  0.50400001928E-02 0.  1.
    10030    2    1    2    0    0  0.00000000000E+00  0.00000000000E+00 -0.59224958952E+03  0.40173937351E+04  0.39734988167E+04 0.  0.
        1    1    3    3  502    0  0.85820738176E+03 -0.43892166892E+03  0.14603058457E+04  0.17497614994E+04  0.50400001928E-02 0. -1.
       -1    1    3    3    0  502 -0.85820738176E+03  0.43892166892E+03 -0.20525554353E+04  0.22676322357E+04  0.50400001928E-02 0.  1.
</event>
<event>
 5   0  0.2486268E-07  0.3885801E+04  0.7818609E-02  0.8027989E-01
        2   -1    0    0  501    0  0.00000000000E+00  0.00000000000E+00  0.21640039914E+04  0.21640039914E+04  0.25500000920E-02 0.  1.
       -2   -1    0    0    0  501  0.00000000000E+00  0.00000000000E+00 -0.17443877235E+04  0.17443877235E+04  0.25500000920E-02 0. -1.
    10030    2    1    2    0    0  0.00000000000E+00  0.00000000000E+00  0.41961626787E+03  0.39083917149E+04  0.38858008164E+04 0.  0.
        5    1    3    3  502    0 -0.56508893401E+03 -0.19290682109E+03 -0.16498055051E+04  0.17545423448E+04  0.46999998093E+01 0. -1.
       -5    1    3    3    0  502  0.56508893401E+03  0.19290682109E+03  0.20694217730E+04  0.21538493702E+04  0.46999998093E+01 0.  1.
</event>
<event>
 5   0  0.7675750E-08  0.3958654E+04  0.7818609E-02  0.8012940E-01
        1   -1    0    0  501    0  0.00000000000E+00  0.00000000000E+00  0.21127716129E+04  0.21127716129E+04  0.50400001928E-02 0. -1.
       -1   -1    0    0    0  501  0.00000000000E+00  0.00000000000E+00 -0.18543109878E+04  0.18543109878E+04  0.50400001928E-02 0.  1.
    10030    2    1    2    0    0  0.00000000000E+00  0.00000000000E+00  0.25846062518E+03  0.39670826007E+04  0.39586541230E+04 0.  0.
        1    1    3    3  502    0  0.12883503895E+04  0.13844558978E+04 -0.45611154977E+03  0.19454055117E+04  0.50400001928E-02 0.  1.
       -1    1    3    3    0  502 -0.12883503895E+04 -0.13844558978E+04  0.71457217495E+03  0.20216770890E+04  0.50400001928E-02 0. -1.
</event>
<event>
 5   0  0.7675750E-08  0.3605382E+04  0.7818609E-02  0.8089260E-01
       -1   -1    0    0    0  501  0.00000000000E+00  0.00000000000E+00  0.15424066292E+04  0.15424066292E+04  0.50400001928E-02 0. -1.
        1   -1    0    0  501    0  0.00000000000E+00  0.00000000000E+00 -0.21068992798E+04  0.21068992798E+04  0.50400001928E-02 0.  1.
    10030    2    1    2    0    0  0.00000000000E+00  0.00000000000E+00 -0.56449265058E+03  0.36493059090E+04  0.36053823188E+04 0.  0.
        1    1    3    3  502    0  0.16581086942E+04 -0.46605205817E+03 -0.82086306470E+03  0.19079688503E+04  0.50400001928E-02 0.  1.
       -1    1    3    3    0  502 -0.16581086942E+04  0.46605205817E+03  0.25637041411E+03  0.17413370587E+04  0.50400001928E-02 0. -1.
</event>
<event>
 5   0  0.2384787E-07  0.3900551E+04  0.7818609E-02  0.8024915E-01
       -2   -1    0    0    0  501  0.00000000000E+00  0.00000000000E+00  0.13072203977E+04  0.13072203977E+04  0.25500000920E-02 0.  1.
        2   -1    0    0  501    0  0.00000000000E+00  0.00000000000E+00 -0.29096657557E+04  0.29096657557E+04  0.25500000920E-02 0. -1.
    10030    2    1    2    0    0  0.00000000000E+00  0.00000000000E+00 -0.16024453580E+04  0.42168861534E+04  0.39005509490E+04 0.  0.
        4    1    3    3  502    0 -0.71215437096E+03  0.17371260302E+04 -0.13720621008E+04  0.23253659313E+04  0.12699999809E+01 0. -1.
       -4    1    3    3    0  502  0.71215437096E+03 -0.17371260302E+04 -0.23038325717E+03  0.18915202222E+04  0.12699999809E+01 0.  1.
</event>
<event>
 5   0  0.7731706E-08  0.3800663E+04  0.7818609E-02  0.8046013E-01
       -1   -1    0    0    0  501  0.00000000000E+00  0.00000000000E+00  0.13966505060E+04  0.13966505060E+04  0.50400001928E-02 0.  1.
        1   -1    0    0  501    0  0.00000000000E+00  0.00000000000E+00 -0.25856571726E+04  0.25856571726E+04  0.50400001928E-02 0. -1.
    10030    2    1    2    0    0  0.00000000000E+00  0.00000000000E+00 -0.11890066666E+04  0.39823076786E+04  0.38006627835E+04 0.  0.
        3    1    3    3  502    0 -0.10107158322E+04  0.90850993686E+03 -0.19862637172E+04  0.24066949045E+04  0.10100000352E+00 0. -1.
       -3    1    3    3    0  502  0.10107158322E+04 -0.90850993686E+03  0.79725705064E+03  0.15756127741E+04  0.10100000352E+00 0.  1.
</event>
<event>
 5   0  0.7731706E-08  0.3924722E+04  0.7818609E-02  0.8019907E-01
       -1   -1    0    0    0  501  0.00000000000E+00  0.00000000000E+00  0.25050678040E+04  0.25050678040E+04  0.50400001928E-02 0.  1.
        1   -1    0    0  501    0  0.00000000000E+00  0.00000000000E+00 -0.15372278893E+04  0.15372278893E+04  0.50400001928E-02 0. -1.
    10030    2    1    2    0    0  0.00000000000E+00  0.00000000000E+00  0.96783991473E+03  0.40422956933E+04  0.39247216935E+04 0.  0.
        3    1    3    3  502    0  0.96470578684E+03  0.17077758960E+04  0.42123356747E+03  0.20061389520E+04  0.10100000352E+00 0. -1.
       -3    1    3    3    0  502 -0.96470578684E+03 -0.17077758960E+04  0.54660634725E+03  0.20361567413E+04  0.10100000352E+00 0.  1.
</event>
<event>
 5   0  0.7675750E-08  0.3914403E+04  0.7818609E-02  0.8022040E-01
       -1   -1    0    0    0  501  0.00000000000E+00  0.00000000000E+00  0.28068254378E+04  0.28068254378E+04  0.50400001928E-02 0.  1.
        1   -1    0    0  501    0  0.00000000000E+00  0.00000000000E+00 -0.13647581325E+04  0.13647581325E+04  0.50400001928E-02 0. -1.
    10030    2    1    2    0    0  0.00000000000E+00  0.00000000000E+00  0.14420673054E+04  0.41715835703E+04  0.39144030670E+04 0.  0.
        1    1    3    3  502    0 -0.15253076389E+04  0.12098671253E+04  0.50710630231E+03  0.20118396199E+04  0.50400001928E-02 0. -1.
       -1    1    3    3    0  502  0.15253076389E+04 -0.12098671253E+04  0.93496100306E+03  0.21597439504E+04  0.50400001928E-02 0.  1.
</event>
<event>
 5   0  0.7675750E-08  0.3902184E+04  0.7818609E-02  0.8024575E-01
       -1   -1    0    0    0  501  0.00000000000E+00  0.00000000000E+00  0.14815637533E+04  0.14815637533E+04  0.50400001928E-02 0.  1.
        1   -1    0    0  501    0  0.00000000000E+00  0.00000000000E+00 -0.25694209054E+04  0.25694209054E+04  0.50400001928E-02 0. -1.
    10030    2    1    2    0    0  0.00000000000E+00  0.00000000000E+00 -0.10878571521E+04  0.40509846587E+04  0.39021844551E+04 0.  0.
        5    1    3    3  502    0 -0.85359992558E+03  0.41664297977E+03 -0.23131801262E+04  0.25006096440E+04  0.46999998093E+01 0. -1.
       -5    1    3    3    0  502  0.85359992558E+03 -0.41664297977E+03  0.12253229741E+04  0.15503750147E+04  0.46999998093E+01 0.  1.
</event>
<event>
 5   0  0.7675750E-08  0.3856555E+04  0.7818609E-02  0.8034126E-01
       -1   -1    0    0    0  501  0.00000000000E+00  0.00000000000E+00  0.16174037543E+04  0.16174037543E+04  0.50400001928E-02 0. -1.
        1   -1    0    0  501    0  0.00000000000E+00  0.00000000000E+00 -0.22989025867E+04  0.22989025867E+04  0.50400001928E-02 0.  1.
    10030    2    1    2    0    0  0.00000000000E+00  0.00000000000E+00 -0.68149883242E+03  0.39163063410E+04  0.38565547705E+04 0.  0.
        5    1    3    3  502    0  0.35729596136E+03 -0.30026390782E+03  0.15591770028E+04  0.16275361238E+04  0.46999998093E+01 0. -1.
       -5    1    3    3    0  502 -0.35729596136E+03  0.30026390782E+03 -0.22406758352E+04  0.22887702171E+04  0.46999998093E+01 0.  1.
</event>
<event>
 5   0  0.7675750E-08  0.3897395E+04  0.7818609E-02  0.8025571E-01
        1   -1    0    0  501    0  0.00000000000E+00  0.00000000000E+00  0.17849290154E+04  0.17849290154E+04  0.50400001928E-02 0. -1.
       -1   -1    0    0    0  501  0.00000000000E+00  0.00000000000E+00 -0.21274920037E+04  0.21274920037E+04  0.50400001928E-02 0.  1.
    10030    2    1    2    0    0  0.00000000000E+00  0.00000000000E+00 -0.34256298828E+03  0.39124210190E+04  0.38973951338E+04 0.  0.
        2    1    3    3  502    0 -0.17219303991E+04 -0.88832341124E+03  0.37509381522E+02  0.19379292392E+04  0.25500000920E-02 0. -1.
       -2    1    3    3    0  502  0.17219303991E+04  0.88832341124E+03 -0.38007236980E+03  0.19744917798E+04  0.25500000920E-02 0.  1.
</event>
<event>
 5   0  0.7675750E-08  0.3831578E+04  0.7818609E-02  0.8039412E-01
        1   -1    0    0  501    0  0.00000000000E+00  0.00000000000E+00  0.23868255757E+04  0.23868255757E+04  0.50400001928E-02 0. -1.
       -1   -1    0    0    0  501  0.00000000000E+00  0.00000000000E+00 -0.15377107969E+04  0.15377107969E+04  0.50400001928E-02 0.  1.
    10030    2    1    2    0    0  0.00000000000E+00  0.00000000000E+00  0.84911477881E+03  0.39245363725E+04  0.38315779819E+04 0.  0.
        2    1    3    3  502    0  0.53398708242E+03 -0.58259568930E+03 -0.13629727007E+04  0.15755172244E+04  0.25500000920E-02 0.  1.
       -2    1    3    3    0  502 -0.53398708242E+03  0.58259568930E+03  0.22120874795E+04  0.23490191482E+04  0.25500000920E-02 0. -1.
</event>
<event>
 5   0  0.7675750E-08  0.3926039E+04  0.7818609E-02  0.8019635E-01
        1   -1    0    0  501    0  0.00000000000E+00  0.00000000000E+00  0.23561988663E+04  0.23561988663E+04  0.50400001928E-02 0.  1.
       -1   -1    0    0    0  501  0.00000000000E+00  0.00000000000E+00 -0.16354500954E+04  0.16354500954E+04  0.50400001928E-02 0. -1.
    10030    2    1    2    0    0  0.00000000000E+00  0.00000000000E+00  0.72074877094E+03  0.39916489618E+04  0.39260390527E+04 0.  0.
        2    1    3    3  502    0  0.11273680185E+04  0.10096503291E+03 -0.12702650833E+04  0.17013894230E+04  0.25500000920E-02 0. -1.
       -2    1    3    3    0  502 -0.11273680185E+04 -0.10096503291E+03  0.19910138542E+04  0.22902595387E+04  0.25500000920E-02 0.  1.
</event>
<event>
 5   0  0.2486268E-07  0.3899557E+04  0.7818609E-02  0.8025121E-01
        2   -1    0    0  501    0  0.00000000000E+00  0.00000000000E+00  0.21271908257E+04  0.21271908257E+04  0.25500000920E-02 0. -1.
       -2   -1    0    0    0  501  0.00000000000E+00  0.00000000000E+00 -0.17871629537E+04  0.17871629537E+04  0.25500000920E-02 0.  1.
    10030    2    1    2    0    0  0.00000000000E+00  0.00000000000E+00  0.34002787202E+03  0.39143537794E+04  0.38995572257E+04 0.  0.
        5    1    3    3  502    0  0.30303898847E+02 -0.89491698267E+03 -0.15685567854E+04  0.18061525991E+04  0.46999998093E+01 0.  1.
       -5    1    3    3    0  502 -0.30303898847E+02  0.89491698267E+03  0.19085846574E+04  0.21082011803E+04  0.46999998093E+01 0. -1.
</event>
<event>
 5   0  0.7675750E-08  0.3351324E+04  0.7818609E-02  0.8149957E-01
        1   -1    0    0  501    0  0.00000000000E+00  0.00000000000E+00  0.25100857789E+04  0.25100857789E+04  0.50400001928E-02 0.  1.
       -1   -1    0    0    0  501  0.00000000000E+00  0.00000000000E+00 -0.11186242976E+04  0.11186242976E+04  0.50400001928E-02 0. -1.
    10030    2    1    2    0    0  0.00000000000E+00  0.00000000000E+00  0.13914614813E+04  0.36287100766E+04  0.33513238826E+04 0.  0.
        1    1    3    3  502    0  0.64927002012E+03  0.13817214171E+04 -0.52193410520E+02  0.15275568027E+04  0.50400001928E-02 0. -1.
       -1    1    3    3    0  502 -0.64927002012E+03 -0.13817214171E+04  0.14436548918E+04  0.21011532738E+04  0.50400001928E-02 0.  1.
</event>
<event>
 5   0  0.2395572E-07  0.3477730E+04  0.7818609E-02  0.8119088E-01
       -2   -1    0    0    0  501  0.00000000000E+00  0.00000000000E+00  0.17763640617E+04  0.17763640617E+04  0.25500000920E-02 0. -1.
        2   -1    0    0  501    0  0.00000000000E+00  0.00000000000E+00 -0.17021576875E+04  0.17021576875E+04  0.25500000920E-02 0.  1.
    10030    2    1    2    0    0  0.00000000000E+00  0.00000000000E+00  0.74206374221E+02  0.34785217492E+04  0.34777301468E+04 0.  0.
        3    1    3    3  502    0  0.83526381857E+03 -0.15563029378E+02 -0.14882829191E+04  0.17067202207E+04  0.10100000352E+00 0.  1.
       -3    1    3    3    0  502 -0.83526381857E+03  0.15563029378E+02  0.15624892933E+04  0.17718015285E+04  0.10100000352E+00 0. -1.
</event>
<event>
 5   0  0.7675750E-08  0.3867692E+04  0.7818609E-02  0.8031782E-01
       -1   -1    0    0    0  501  0.00000000000E+00  0.00000000000E+00  0.17130884348E+04  0.17130884348E+04  0.50400001928E-02 0.  1.
        1   -1    0    0  501    0  0.00000000000E+00  0.00000000000E+00 -0.21830513252E+04  0.21830513252E+04  0.50400001928E-02 0. -1.
    10030    2    1    2    0    0  0.00000000000E+00  0.00000000000E+00 -0.46996289037E+03  0.38961397600E+04  0.38676918066E+04 0.  0.
        4    1    3    3  502    0 -0.24796635581E+03  0.18481884095E+04 -0.75106859271E+03  0.20103217042E+04  0.12699999809E+01 0.  1.
       -4    1    3    3    0  502  0.24796635581E+03 -0.18481884095E+04  0.28110570234E+03  0.18858180557E+04  0.12699999809E+01 0. -1.
</event>
<event>
 5   0  0.2384787E-07  0.3906040E+04  0.7818609E-02  0.8023774E-01
        2   -1    0    0  501    0  0.00000000000E+00  0.00000000000E+00  0.30422482219E+04  0.30422482219E+04  0.25500000920E-02 0.  1.
       -2   -1    0    0    0  501  0.00000000000E+00  0.00000000000E+00 -0.12537723546E+04  0.12537723546E+04  0.25500000920E-02 0. -1.
    10030    2    1    2    0    0  0.00000000000E+00  0.00000000000E+00  0.17884758673E+04  0.42960205766E+04  0.39060397933E+04 0.  0.
        4    1    3    3  502    0  0.24065549645E+03 -0.18958241560E+04  0.13372167575E+04  0.23324267551E+04  0.12699999809E+01 0. -1.
       -4    1    3    3    0  502 -0.24065549645E+03  0.18958241560E+04  0.45125910983E+03  0.19635938215E+04  0.12699999809E+01 0.  1.
</event>
<event>
 5   0  0.2446281E-07  0.3937345E+04  0.7818609E-02  0.8017307E-01
        2   -1    0    0  501    0  0.00000000000E+00  0.00000000000E+00  0.21986087946E+04  0.21986087946E+04  0.25500000920E-02 0.  1.
       -2   -1    0    0    0  501  0.00000000000E+00  0.00000000000E+00 -0.17627838120E+04  0.17627838120E+04  0.25500000920E-02 0. -1.
    10030    2    1    2    0    0  0.00000000000E+00  0.00000000000E+00  0.43582498260E+03  0.39613926066E+04  0.39373452945E+04 0.  0.
        1    1    3    3  502    0  0.16041117292E+04  0.98094014828E+03 -0.36896302176E+03  0.19161293604E+04  0.50400001928E-02 0. -1.
       -1    1    3    3    0  502 -0.16041117292E+04 -0.98094014828E+03  0.80478800436E+03  0.20452632462E+04  0.50400001928E-02 0.  1.
</event>
<event>
 5   0  0.7731706E-08  0.3891492E+04  0.7818609E-02  0.8026801E-01
       -1   -1    0    0    0  501  0.00000000000E+00  0.00000000000E+00  0.16571427937E+04  0.16571427937E+04  0.50400001928E-02 0.  1.
        1   -1    0    0  501    0  0.00000000000E+00  0.00000000000E+00 -0.22846113329E+04  0.22846113329E+04  0.50400001928E-02 0. -1.
    10030    2    1    2    0    0  0.00000000000E+00  0.00000000000E+00 -0.62746853921E+03  0.39417541266E+04  0.38914918511E+04 0.  0.
        3    1    3    3  502    0 -0.62681594000E+03 -0.96483381967E+03 -0.19031167658E+04  0.22238830807E+04  0.10100000352E+00 0. -1.
       -3    1    3    3    0  502  0.62681594000E+03  0.96483381967E+03  0.12756482266E+04  0.17178710459E+04  0.10100000352E+00 0.  1.
</event>
<event>
 5   0  0.2395572E-07  0.3897597E+04  0.7818609E-02  0.8025529E-01
       -2   -1    0    0    0  501  0.00000000000E+00  0.00000000000E+00  0.12259520997E+04  0.12259520997E+04  0.25500000920E-02 0. -1.
        2   -1    0    0  501    0  0.00000000000E+00  0.00000000000E+00 -0.30978496955E+04  0.30978496955E+04  0.25500000920E-02 0.  1.
    10030    2    1    2    0    0  0.00000000000E+00  0.00000000000E+00 -0.18718975959E+04  0.43238017952E+04  0.38975968692E+04 0.  0.
        3    1    3    3  502    0 -0.60433564632E+02  0.16338969738E+04  0.24045670111E+03  0.16526012743E+04  0.10100000352E+00 0. -1.
       -3    1    3    3    0  502  0.60433564632E+02 -0.16338969738E+04 -0.21123542970E+04  0.26712005209E+04  0.10100000352E+00 0.  1.
</event>
<event>
 5   0  0.7675750E-08  0.3892522E+04  0.7818609E-02  0.8026586E-01
        1   -1    0    0  501    0  0.00000000000E+00  0.00000000000E+00  0.30724062324E+04  0.30724062324E+04  0.50400001928E-02 0. -1.
       -1   -1    0    0    0  501  0.00000000000E+00  0.00000000000E+00 -0.12328876565E+04  0.12328876565E+04  0.50400001928E-02 0.  1.
    10030    2    1    2    0    0  0.00000000000E+00  0.00000000000E+00  0.18395185759E+04  0.43052938889E+04  0.38925219175E+04 0.  0.
        4    1    3    3  502    0  0.18937995647E+03 -0.89670313434E+03  0.28188016502E+04  0.29640488585E+04  0.12699999809E+01 0. -1.
       -4    1    3    3    0  502 -0.18937995647E+03  0.89670313434E+03 -0.97928307432E+03  0.13412450304E+04  0.12699999809E+01 0.  1.
</event>
<event>
 5   0  0.2473224E-07  0.3856469E+04  0.7818609E-02  0.8034144E-01
        2   -1    0    0  501    0  0.00000000000E+00  0.00000000000E+00  0.23057734522E+04  0.23057734522E+04  0.25500000920E-02 0. -1.
       -2   -1    0    0    0  501  0.00000000000E+00  0.00000000000E+00 -0.16125120929E+04  0.16125120929E+04  0.25500000920E-02 0.  1.
    10030    2    1    2    0    0  0.00000000000E+00  0.00000000000E+00  0.69326135928E+03  0.39182855452E+04  0.38564686309E+04 0.  0.
        2    1    3    3  502    0 -0.81122046008E+03 -0.63996331951E+03  0.20007489911E+04  0.22518055445E+04  0.25500000920E-02 0. -1.
       -2    1    3    3    0  502  0.81122046008E+03  0.63996331951E+03 -0.13074876318E+04  0.16664800006E+04  0.25500000920E-02 0.  1.
</event>
<event>
 5   0  0.7675750E-08  0.3894253E+04  0.7818609E-02  0.8026226E-01
        1   -1    0    0  501    0  0.00000000000E+00  0.00000000000E+00  0.22931226958E+04  0.22931226958E+04  0.50400001928E-02 0. -1.
       -1   -1    0    0    0  501  0.00000000000E+00  0.00000000000E+00 -0.16533358119E+04  0.16533358119E+04  0.50400001928E-02 0.  1.
    10030    2    1    2    0    0  0.00000000000E+00  0.00000000000E+00  0.63978688390E+03  0.39464585076E+04  0.38942531371E+04 0.  0.
        4    1    3    3  502    0 -0.13979939303E+04  0.53020830736E+03  0.15839286856E+04  0.21781504935E+04  0.12699999809E+01 0. -1.
       -4    1    3    3    0  502  0.13979939303E+04 -0.53020830736E+03 -0.94414180171E+03  0.17683080141E+04  0.12699999809E+01 0.  1.
</event>
<event>
 5   0  0.7675750E-08  0.3876194E+04  0.7818609E-02  0.8029999E-01
        1   -1    0    0  501    0  0.00000000000E+00  0.00000000000E+00  0.19840306622E+04  0.19840306622E+04  0.50400001928E-02 0. -1.
       -1   -1    0    0    0  501  0.00000000000E+00  0.00000000000E+00 -0.18932271834E+04  0.18932271834E+04  0.50400001928E-02 0.  1.
    10030    2    1    2    0    0  0.00000000000E+00  0.00000000000E+00  0.90803478732E+02  0.38772578456E+04  0.38761944133E+04 0.  0.
        4    1    3    3  502    0 -0.15137673166E+03 -0.17987220717E+04 -0.66041438393E+03  0.19220990551E+04  0.12699999809E+01 0.  1.
       -4    1    3    3    0  502  0.15137673166E+03  0.17987220717E+04  0.75121786267E+03  0.19551587905E+04  0.12699999809E+01 0. -1.
</event>
<event>
 5   0  0.7675750E-08  0.3934475E+04  0.7818609E-02  0.8017897E-01
       -1   -1    0    0    0  501  0.00000000000E+00  0.00000000000E+00  0.13833275209E+04  0.13833275209E+04  0.50400001928E-02 0. -1.
        1   -1    0    0  501    0  0.00000000000E+00  0.00000000000E+00 -0.27976192682E+04  0.27976192683E+04  0.50400001928E-02 0.  1.
    10030    2    1    2    0    0  0.00000000000E+00  0.00000000000E+00 -0.14142917473E+04  0.41809467892E+04  0.39344751756E+04 0.  0.
        2    1    3    3  502    0  0.13302207320E+04 -0.11509162391E+04  0.22890324451E+03  0.17738354153E+04  0.25500000920E-02 0. -1.
       -2    1    3    3    0  502 -0.13302207320E+04  0.11509162391E+04 -0.16431949918E+04  0.24071113739E+04  0.25500000920E-02 0.  1.
</event>
<event>
 5   0  0.2473224E-07  0.3643049E+04  0.7818609E-02  0.8080701E-01
       -2   -1    0    0    0  501  0.00000000000E+00  0.00000000000E+00  0.13450356137E+04  0.13450356137E+04  0.25500000920E-02 0.  1.
        2   -1    0    0  501    0  0.00000000000E+00  0.00000000000E+00 -0.24668125701E+04  0.24668125701E+04  0.25500000920E-02 0. -1.
    10030    2    1    2    0    0  0.00000000000E+00  0.00000000000E+00 -0.11217769564E+04  0.38118481838E+04  0.36430485910E+04 0.  0.
        2    1    3    3  502    0 -0.10559825525E+04 -0.43201438252E+02 -0.21132011295E+04  0.23627493581E+04  0.25500000920E-02 0. -1.
       -2    1    3    3    0  502  0.10559825525E+04  0.43201438252E+02  0.99142417317E+03  0.14490988257E+04  0.25500000920E-02 0.  1.
</event>
<event>
 5   0  0.2446281E-07  0.3194635E+04  0.7818609E-02  0.8190236E-01
        2   -1    0    0  501    0  0.00000000000E+00  0.00000000000E+00  0.20009271554E+04  0.20009271554E+04  0.25500000920E-02 0. -1.
       -2   -1    0    0    0  501  0.00000000000E+00  0.00000000000E+00 -0.12751202665E+04  0.12751202665E+04  0.25500000920E-02 0.  1.
    10030    2    1    2    0    0  0.00000000000E+00  0.00000000000E+00  0.72580688885E+03  0.32760474219E+04  0.31946347320E+04 0.  0.
        1    1    3    3  502    0  0.31522476292E+03  0.18265582958E+03 -0.12319447144E+04  0.12846857914E+04  0.50400001928E-02 0.  1.
       -1    1    3    3    0  502 -0.31522476292E+03 -0.18265582958E+03  0.19577516033E+04  0.19913616305E+04  0.50400001928E-02 0. -1.
</event>
<event>
 5   0  0.2486268E-07  0.3922245E+04  0.7818609E-02  0.8020418E-01
        2   -1    0    0  501    0  0.00000000000E+00  0.00000000000E+00  0.15819442999E+04  0.15819442999E+04  0.25500000920E-02 0.  1.
       -2   -1    0    0    0  501  0.00000000000E+00  0.00000000000E+00 -0.24311866918E+04  0.24311866918E+04  0.25500000920E-02 0. -1.
    10030    2    1    2    0    0  0.00000000000E+00  0.00000000000E+00 -0.84924239190E+03  0.40131309918E+04  0.39222452393E+04 0.  0.
        5    1    3    3  502    0  0.29308247257E+03 -0.73584968852E+03 -0.22602405022E+04  0.23950117573E+04  0.46999998093E+01 0. -1.
       -5    1    3    3    0  502 -0.29308247257E+03  0.73584968852E+03  0.14109981103E+04  0.16181192345E+04  0.46999998093E+01 0.  1.
</event>
<event>
 5   0  0.2446281E-07  0.3834684E+04  0.7818609E-02  0.8038752E-01
        2   -1    0    0  501    0  0.00000000000E+00  0.00000000000E+00  0.21714581491E+04  0.21714581491E+04  0.25500000920E-02 0. -1.
       -2   -1    0    0    0  501  0.00000000000E+00  0.00000000000E+00 -0.16929639464E+04  0.16929639464E+04  0.25500000920E-02 0.  1.
    10030    2    1    2    0    0  0.00000000000E+00  0.00000000000E+00  0.47849420268E+03  0.38644220955E+04  0.38346840066E+04 0.  0.
        1    1    3    3  502    0 -0.14024480526E+04  0.42473805862E+03 -0.10068440913E+04  0.17779195659E+04  0.50400001928E-02 0.  1.
       -1    1    3    3    0  502  0.14024480526E+04 -0.42473805862E+03  0.14853382940E+04  0.20865025296E+04  0.50400001928E-02 0. -1.
</event>
<event>
 5   0  0.7675750E-08  0.3868577E+04  0.7818609E-02  0.8031596E-01
       -1   -1    0    0    0  501  0.00000000000E+00  0.00000000000E+00  0.16975870656E+04  0.16975870656E+04  0.50400001928E-02 0.  1.
        1   -1    0    0  501    0  0.00000000000E+00  0.00000000000E+00 -0.22039943185E+04  0.22039943185E+04  0.50400001928E-02 0. -1.
    10030    2    1    2    0    0  0.00000000000E+00  0.00000000000E+00 -0.50640725293E+03  0.39015813841E+04  0.38685771275E+04 0.  0.
        1    1    3    3  502    0  0.25354047799E+03  0.10531439865E+04 -0.18693974758E+04  0.21605651929E+04  0.50400001928E-02 0. -1.
       -1    1    3    3    0  502 -0.25354047799E+03 -0.10531439865E+04  0.13629902229E+04  0.17410161912E+04  0.50400001928E-02 0.  1.
</event>
<event>
 5   0  0.2486268E-07  0.3934394E+04  0.7818609E-02  0.8017914E-01
       -2   -1    0    0    0  501  0.00000000000E+00  0.00000000000E+00  0.20333004971E+04  0.20333004971E+04  0.25500000920E-02 0. -1.
        2   -1    0    0  501    0  0.00000000000E+00  0.00000000000E+00 -0.19032426993E+04  0.19032426993E+04  0.25500000920E-02 0.  1.
    10030    2    1    2    0    0  0.00000000000E+00  0.00000000000E+00  0.13005779787E+03  0.39365431964E+04  0.39343941473E+04 0.  0.
        5    1    3    3  502    0  0.17014620979E+03 -0.16970163340E+04 -0.91582696214E+03  0.19358655132E+04  0.46999998093E+01 0.  1.
       -5    1    3    3    0  502 -0.17014620979E+03  0.16970163340E+04  0.10458847600E+04  0.20006776832E+04  0.46999998093E+01 0. -1.
</event>
<event>
 5   0  0.2384787E-07  0.3924208E+04  0.7818609E-02  0.8020013E-01
       -2   -1    0    0    0  501  0.00000000000E+00  0.00000000000E+00  0.20329770798E+04  0.20329770798E+04  0.25500000920E-02 0.  1.
        2   -1    0    0  501    0  0.00000000000E+00  0.00000000000E+00 -0.18937014797E+04  0.18937014797E+04  0.25500000920E-02 0. -1.
    10030    2    1    2    0    0  0.00000000000E+00  0.00000000000E+00  0.13927560005E+03  0.39266785595E+04  0.39242077948E+04 0.  0.
        4    1    3    3  502    0  0.17831781046E+04  0.46461519143E+03  0.74404929486E+03  0.19872600220E+04  0.12699999809E+01 0.  1.
       -4    1    3    3    0  502 -0.17831781046E+04 -0.46461519143E+03 -0.60477369481E+03  0.19394185375E+04  0.12699999809E+01 0. -1.
</event>
<event>
 5   0  0.2384787E-07  0.3930772E+04  0.7818609E-02  0.8018659E-01
        2   -1    0    0  501    0  0.00000000000E+00  0.00000000000E+00  0.22818867547E+04  0.22818867547E+04  0.25500000920E-02 0.  1.
       -2   -1    0    0    0  501  0.00000000000E+00  0.00000000000E+00 -0.16927844974E+04  0.16927844974E+04  0.25500000920E-02 0. -1.
    10030    2    1    2    0    0  0.00000000000E+00  0.00000000000E+00  0.58910225734E+03  0.39746712520E+04  0.39307722005E+04 0.  0.
        4    1    3    3  502    0  0.19552887392E+04 -0.19492224048E+03  0.25420341249E+03  0.19813555262E+04  0.12699999809E+01 0.  1.
       -4    1    3    3    0  502 -0.19552887392E+04  0.19492224048E+03  0.33489884486E+03  0.19933157258E+04  0.12699999809E+01 0. -1.
</event>
<event>
 5   0  0.7675750E-08  0.3933713E+04  0.7818609E-02  0.8018054E-01
       -1   -1    0    0    0  501  0.00000000000E+00  0.00000000000E+00  0.15105927109E+04  0.15105927109E+04  0.50400001928E-02 0.  1.
        1   -1    0    0  501    0  0.00000000000E+00  0.00000000000E+00 -0.25609315136E+04  0.25609315136E+04  0.50400001928E-02 0. -1.
    10030    2    1    2    0    0  0.00000000000E+00  0.00000000000E+00 -0.10503388027E+04  0.40715242244E+04  0.39337129928E+04 0.  0.
        2    1    3    3  502    0  0.10963745797E+04  0.14597407046E+04  0.23234799418E+03  0.18403439174E+04  0.25500000920E-02 0.  1.
       -2    1    3    3    0  502 -0.10963745797E+04 -0.14597407046E+04 -0.12826867969E+04  0.22311803071E+04  0.25500000920E-02 0. -1.
</event>
<event>
 5   0  0.7731706E-08  0.3917517E+04  0.7818609E-02  0.8021396E-01
        1   -1    0    0  501    0  0.00000000000E+00  0.00000000000E+00  0.18780292472E+04  0.18780292472E+04  0.50400001928E-02 0. -1.
       -1   -1    0    0    0  501  0.00000000000E+00  0.00000000000E+00 -0.20429578612E+04  0.20429578612E+04  0.50400001928E-02 0.  1.
    10030    2    1    2    0    0  0.00000000000E+00  0.00000000000E+00 -0.16492861404E+03  0.39209871084E+04  0.39175168738E+04 0.  0.
        3    1    3    3  502    0  0.52369644992E+03  0.15104964401E+04  0.10502966598E+04  0.19128461912E+04  0.10100000352E+00 0.  1.
       -3    1    3    3    0  502 -0.52369644992E+03 -0.15104964401E+04 -0.12152252738E+04  0.20081409173E+04  0.10100000352E+00 0. -1.
</event>
<event>
 5   0  0.7675750E-08  0.3857504E+04  0.7818609E-02  0.8033926E-01
       -1   -1    0    0    0  501  0.00000000000E+00  0.00000000000E+00  0.16668239937E+04  0.16668239937E+04  0.50400001928E-02 0.  1.
        1   -1    0    0  501    0  0.00000000000E+00  0.00000000000E+00 -0.22318397380E+04  0.22318397380E+04  0.50400001928E-02 0. -1.
    10030    2    1    2    0    0  0.00000000000E+00  0.00000000000E+00 -0.56501574426E+03  0.38986637317E+04  0.38575038692E+04 0.  0.
        5    1    3    3  502    0  0.46792668849E+03  0.14760013152E+04  0.87977443411E+03  0.17808875353E+04  0.46999998093E+01 0.  1.
       -5    1    3    3    0  502 -0.46792668849E+03 -0.14760013152E+04 -0.14447901784E+04  0.21177761964E+04  0.46999998093E+01 0. -1.
</event>
<event>
 5   0  0.2384787E-07  0.3880371E+04  0.7818609E-02  0.8029124E-01
       -2   -1    0    0    0  501  0.00000000000E+00  0.00000000000E+00  0.18012724550E+04  0.18012724550E+04  0.25500000920E-02 0.  1.
        2   -1    0    0  501    0  0.00000000000E+00  0.00000000000E+00 -0.20898111993E+04  0.20898111993E+04  0.25500000920E-02 0. -1.
    10030    2    1    2    0    0  0.00000000000E+00  0.00000000000E+00 -0.28853874430E+03  0.38910836543E+04  0.38803707810E+04 0.  0.
        4    1    3    3  502    0  0.13965422704E+04 -0.69013670100E+03 -0.13040517454E+04  0.20315441287E+04  0.12699999809E+01 0. -1.
       -4    1    3    3    0  502 -0.13965422704E+04  0.69013670100E+03  0.10155130011E+04  0.18595395257E+04  0.12699999809E+01 0.  1.
</event>
<event>
 5   0  0.2486268E-07  0.4014486E+04  0.7818609E-02  0.8001631E-01
       -2   -1    0    0    0  501  0.00000000000E+00  0.00000000000E+00  0.13022144396E+04  0.13022144396E+04  0.25500000920E-02 0.  1.
        2   -1    0    0  501    0  0.00000000000E+00  0.00000000000E+00 -0.30939796345E+04  0.30939796345E+04  0.25500000920E-02 0. -1.
    10030    2    1    2    0    0  0.00000000000E+00  0.00000000000E+00 -0.17917651949E+04  0.43961940741E+04  0.40144862465E+04 0.  0.
        5    1    3    3  502    0 -0.16567010112E+04  0.10223957273E+04 -0.14313002818E+04  0.24163182428E+04  0.46999998093E+01 0. -1.
       -5    1    3    3    0  502  0.16567010112E+04 -0.10223957273E+04 -0.36046491302E+03  0.19798758313E+04  0.46999998093E+01 0.  1.
</event>
<event>
 5   0  0.2446281E-07  0.3922148E+04  0.7818609E-02  0.8020439E-01
        2   -1    0    0  501    0  0.00000000000E+00  0.00000000000E+00  0.13604907814E+04  0.13604907815E+04  0.25500000920E-02 0.  1.
       -2   -1    0    0    0  501  0.00000000000E+00  0.00000000000E+00 -0.28267816552E+04  0.28267816552E+04  0.25500000920E-02 0. -1.
    10030    2    1    2    0    0  0.00000000000E+00  0.00000000000E+00 -0.14662908738E+04  0.41872724367E+04  0.39221475664E+04 0.  0.
        1    1    3    3  502    0  0.18564556255E+04 -0.31501339162E+03 -0.14825291363E+03  0.18888196983E+04  0.50400001928E-02 0.  1.
       -1    1    3    3    0  502 -0.18564556255E+04  0.31501339162E+03 -0.13180379601E+04  0.22984527384E+04  0.50400001928E-02 0. -1.
</event>
<event>
 5   0  0.2446281E-07  0.3921007E+04  0.7818609E-02  0.8020674E-01
        2   -1    0    0  501    0  0.00000000000E+00  0.00000000000E+00  0.13725894655E+04  0.13725894655E+04  0.25500000920E-02 0.  1.
       -2   -1    0    0    0  501  0.00000000000E+00  0.00000000000E+00 -0.28002353894E+04  0.28002353894E+04  0.25500000920E-02 0. -1.
    10030    2    1    2    0    0  0.00000000000E+00  0.00000000000E+00 -0.14276459239E+04  0.41728248549E+04  0.39210068077E+04 0.  0.
        1    1    3    3  502    0  0.53186267638E+03 -0.42192616192E+03  0.12435006407E+04  0.14167545434E+04  0.50400001928E-02 0.  1.
       -1    1    3    3    0  502 -0.53186267638E+03  0.42192616192E+03 -0.26711465646E+04  0.27560703116E+04  0.50400001928E-02 0. -1.
</event>
<event>
 5   0  0.2384787E-07  0.3907639E+04  0.7818609E-02  0.8023442E-01
       -2   -1    0    0    0  501  0.00000000000E+00  0.00000000000E+00  0.27678652063E+04  0.27678652063E+04  0.25500000920E-02 0.  1.
        2   -1    0    0  501    0  0.00000000000E+00  0.00000000000E+00 -0.13791894072E+04  0.13791894072E+04  0.25500000920E-02 0. -1.
    10030    2    1    2    0    0  0.00000000000E+00  0.00000000000E+00  0.13886757990E+04  0.41470546135E+04  0.39076388641E+04 0.  0.
        4    1    3    3  502    0 -0.16215535847E+04  0.10746763459E+04  0.88725389951E+03  0.21381268371E+04  0.12699999809E+01 0. -1.
       -4    1    3    3    0  502  0.16215535847E+04 -0.10746763459E+04  0.50142189951E+03  0.20089277764E+04  0.12699999809E+01 0.  1.
</event>
<event>
 5   0  0.7675750E-08  0.3921834E+04  0.7818609E-02  0.8020504E-01
        1   -1    0    0  501    0  0.00000000000E+00  0.00000000000E+00  0.13666404821E+04  0.13666404821E+04  0.50400001928E-02 0. -1.
       -1   -1    0    0    0  501  0.00000000000E+00  0.00000000000E+00 -0.28136108859E+04  0.28136108859E+04  0.50400001928E-02 0.  1.
    10030    2    1    2    0    0  0.00000000000E+00  0.00000000000E+00 -0.14469704039E+04  0.41802513680E+04  0.39218335189E+04 0.  0.
        4    1    3    3  502    0 -0.99418275241E+03 -0.15148789008E+04 -0.15225030428E+04  0.23667011973E+04  0.12699999809E+01 0. -1.
       -4    1    3    3    0  502  0.99418275241E+03  0.15148789008E+04  0.75532638947E+02  0.18135501707E+04  0.12699999809E+01 0.  1.
</event>
<event>
 5   0  0.2384787E-07  0.3856378E+04  0.7818609E-02  0.8034163E-01
        2   -1    0    0  501    0  0.00000000000E+00  0.00000000000E+00  0.20012451877E+04  0.20012451877E+04  0.25500000920E-02 0.  1.
       -2   -1    0    0    0  501  0.00000000000E+00  0.00000000000E+00 -0.18578002221E+04  0.18578002221E+04  0.25500000920E-02 0. -1.
    10030    2    1    2    0    0  0.00000000000E+00  0.00000000000E+00  0.14344496565E+03  0.38590454098E+04  0.38563784846E+04 0.  0.
        4    1    3    3  502    0 -0.83589202838E+03 -0.65110006797E+03 -0.15403743428E+04  0.18695992914E+04  0.12699999809E+01 0. -1.
       -4    1    3    3    0  502  0.83589202838E+03  0.65110006797E+03  0.16838193084E+04  0.19894461184E+04  0.12699999809E+01 0.  1.
</event>
<event>
 5   0  0.7731706E-08  0.3870248E+04  0.7818609E-02  0.8031246E-01
        1   -1    0    0  501    0  0.00000000000E+00  0.00000000000E+00  0.18167936457E+04  0.18167936458E+04  0.50400001928E-02 0.  1.
       -1   -1    0    0    0  501  0.00000000000E+00  0.00000000000E+00 -0.20611613340E+04  0.20611613340E+04  0.50400001928E-02 0. -1.
    10030    2    1    2    0    0  0.00000000000E+00  0.00000000000E+00 -0.24436768822E+03  0.38779549797E+04  0.38702479582E+04 0.  0.
        3    1    3    3  502    0 -0.25418696332E+03  0.90935706690E+02 -0.20422002064E+04  0.20599665066E+04  0.10100000352E+00 0. -1.
       -3    1    3    3    0  502  0.25418696332E+03 -0.90935706690E+02  0.17978325181E+04  0.18179884732E+04  0.10100000352E+00 0.  1.
</event>
<event>
 5   0  0.7675750E-08  0.3929070E+04  0.7818609E-02  0.8019010E-01
       -1   -1    0    0    0  501  0.00000000000E+00  0.00000000000E+00  0.16363871609E+04  0.16363871609E+04  0.50400001928E-02 0.  1.
        1   -1    0    0  501    0  0.00000000000E+00  0.00000000000E+00 -0.23584869226E+04  0.23584869226E+04  0.50400001928E-02 0. -1.
    10030    2    1    2    0    0  0.00000000000E+00  0.00000000000E+00 -0.72209976168E+03  0.39948740835E+04  0.39290699761E+04 0.  0.
        4    1    3    3  502    0 -0.65114619469E+03  0.35746834122E+03 -0.22101959132E+04  0.23316823474E+04  0.12699999809E+01 0. -1.
       -4    1    3    3    0  502  0.65114619469E+03 -0.35746834122E+03  0.14880961515E+04  0.16631917360E+04  0.12699999809E+01 0.  1.
</event>
<event>
 5   0  0.7675750E-08  0.3934390E+04  0.7818609E-02  0.8017914E-01
       -1   -1    0    0    0  501  0.00000000000E+00  0.00000000000E+00  0.14296498356E+04  0.14296498356E+04  0.50400001928E-02 0. -1.
        1   -1    0    0  501    0  0.00000000000E+00  0.00000000000E+00 -0.27068565642E+04  0.27068565642E+04  0.50400001928E-02 0.  1.
    10030    2    1    2    0    0  0.00000000000E+00  0.00000000000E+00 -0.12772067285E+04  0.41365063998E+04  0.39343904443E+04 0.  0.
        2    1    3    3  502    0  0.26698774064E+03  0.45868319393E+03  0.13529576482E+04  0.14533296679E+04  0.25500000920E-02 0. -1.
       -2    1    3    3    0  502 -0.26698774064E+03 -0.45868319393E+03 -0.26301643767E+04  0.26831767319E+04  0.25500000920E-02 0.  1.
</event>
<event>
 5   0  0.2446281E-07  0.3875981E+04  0.7818609E-02  0.8030043E-01
        2   -1    0    0  501    0  0.00000000000E+00  0.00000000000E+00  0.28418259165E+04  0.28418259165E+04  0.25500000920E-02 0.  1.
       -2   -1    0    0    0  501  0.00000000000E+00  0.00000000000E+00 -0.13216179515E+04  0.13216179515E+04  0.25500000920E-02 0. -1.
    10030    2    1    2    0    0  0.00000000000E+00  0.00000000000E+00  0.15202079650E+04  0.41634438680E+04  0.38759814996E+04 0.  0.
        1    1    3    3  502    0  0.77590449690E+03 -0.13059508181E+04 -0.53259143213E+03  0.16097170438E+04  0.50400001928E-02 0. -1.
       -1    1    3    3    0  502 -0.77590449690E+03  0.13059508181E+04  0.20527993971E+04  0.25537268241E+04  0.50400001928E-02 0.  1.
</event>
<event>
 5   0  0.7731706E-08  0.3895612E+04  0.7818609E-02  0.8025942E-01
       -1   -1    0    0    0  501  0.00000000000E+00  0.00000000000E+00  0.16091099034E+04  0.16091099034E+04  0.50400001928E-02 0. -1.
        1   -1    0    0  501    0  0.00000000000E+00  0.00000000000E+00 -0.23577932969E+04  0.23577932969E+04  0.50400001928E-02 0.  1.
    10030    2    1    2    0    0  0.00000000000E+00  0.00000000000E+00 -0.74868339351E+03  0.39669032003E+04  0.38956121697E+04 0.  0.
        3    1    3    3  502    0  0.15890114832E+04 -0.23031152903E+03  0.74853825062E+03  0.17715277071E+04  0.10100000352E+00 0. -1.
       -3    1    3    3    0  502 -0.15890114832E+04  0.23031152903E+03 -0.14972216441E+04  0.21953754932E+04  0.10100000352E+00 0.  1.
</event>
<event>
 5   0  0.2446281E-07  0.3820967E+04  0.7818609E-02  0.8041670E-01
       -2   -1    0    0    0  501  0.00000000000E+00  0.00000000000E+00  0.14035691424E+04  0.14035691424E+04  0.25500000920E-02 0.  1.
        2   -1    0    0  501    0  0.00000000000E+00  0.00000000000E+00 -0.26004750648E+04  0.26004750648E+04  0.25500000920E-02 0. -1.
    10030    2    1    2    0    0  0.00000000000E+00  0.00000000000E+00 -0.11969059224E+04  0.40040442072E+04  0.38209666612E+04 0.  0.
        1    1    3    3  502    0  0.12734509290E+04  0.90419292435E+03  0.55458786157E+03  0.16573502373E+04  0.50400001928E-02 0.  1.
       -1    1    3    3    0  502 -0.12734509290E+04 -0.90419292435E+03 -0.17514937840E+04  0.23466939699E+04  0.50400001928E-02 0. -1.
</event>
<event>
 5   0  0.2473224E-07  0.3906568E+04  0.7818609E-02  0.8023665E-01
       -2   -1    0    0    0  501  0.00000000000E+00  0.00000000000E+00  0.14294664381E+04  0.14294664381E+04  0.25500000920E-02 0.  1.
        2   -1    0    0  501    0  0.00000000000E+00  0.00000000000E+00 -0.26690502829E+04  0.26690502829E+04  0.25500000920E-02 0. -1.
    10030    2    1    2    0    0  0.00000000000E+00  0.00000000000E+00 -0.12395838448E+04  0.40985167211E+04  0.39065677013E+04 0.  0.
        2    1    3    3  502    0 -0.10596081579E+04 -0.98370686565E+03  0.75808185227E+03  0.16325246524E+04  0.25500000920E-02 0.  1.
       -2    1    3    3    0  502  0.10596081579E+04  0.98370686565E+03 -0.19976656970E+04  0.24659920687E+04  0.25500000920E-02 0. -1.
</event>
<event>
 5   0  0.2384787E-07  0.3899721E+04  0.7818609E-02  0.8025087E-01
        2   -1    0    0  501    0  0.00000000000E+00  0.00000000000E+00  0.12968684832E+04  0.12968684832E+04  0.25500000920E-02 0. -1.
       -2   -1    0    0    0  501  0.00000000000E+00  0.00000000000E+00 -0.29316429901E+04  0.29316429901E+04  0.25500000920E-02 0.  1.
    10030    2    1    2    0    0  0.00000000000E+00  0.00000000000E+00 -0.16347745069E+04  0.42285114733E+04  0.38997207069E+04 0.  0.
        4    1    3    3  502    0  0.10508053303E+04  0.14616827404E+03 -0.25912877612E+04  0.28000590853E+04  0.12699999809E+01 0.  1.
       -4    1    3    3    0  502 -0.10508053303E+04 -0.14616827404E+03  0.95651325431E+03  0.14284523881E+04  0.12699999809E+01 0. -1.
</event>
<event>
 5   0  0.7675750E-08  0.3904544E+04  0.7818609E-02  0.8024085E-01
        1   -1    0    0  501    0  0.00000000000E+00  0.00000000000E+00  0.22693187309E+04  0.22693187309E+04  0.50400001928E-02 0.  1.
       -1   -1    0    0    0  501  0.00000000000E+00  0.00000000000E+00 -0.16795198170E+04  0.16795198170E+04  0.50400001928E-02 0. -1.
    10030    2    1    2    0    0  0.00000000000E+00  0.00000000000E+00  0.58979891394E+03  0.39488385479E+04  0.39045439066E+04 0.  0.
        4    1    3    3  502    0  0.11294010029E+04  0.77616052476E+03 -0.11113393159E+04  0.17643833125E+04  0.12699999809E+01 0. -1.
       -4    1    3    3    0  502 -0.11294010029E+04 -0.77616052476E+03  0.17011382298E+04  0.21844552354E+04  0.12699999809E+01 0.  1.
</event>
<event>
 5   0  0.7675750E-08  0.3902125E+04  0.7818609E-02  0.8024587E-01
       -1   -1    0    0    0  501  0.00000000000E+00  0.00000000000E+00  0.25384023079E+04  0.25384023079E+04  0.50400001928E-02 0. -1.
        1   -1    0    0  501    0  0.00000000000E+00  0.00000000000E+00 -0.14996224106E+04  0.14996224106E+04  0.50400001928E-02 0.  1.
    10030    2    1    2    0    0  0.00000000000E+00  0.00000000000E+00  0.10387798973E+04  0.40380247185E+04  0.39021250559E+04 0.  0.
        1    1    3    3  502    0 -0.11381851034E+04 -0.92876399500E+03  0.18480761382E+04  0.23608162361E+04  0.50400001928E-02 0.  1.
       -1    1    3    3    0  502  0.11381851034E+04  0.92876399500E+03 -0.80929624088E+03  0.16772084824E+04  0.50400001928E-02 0. -1.
</event>
<event>
 5   0  0.2384787E-07  0.3980939E+04  0.7818609E-02  0.8008403E-01
       -2   -1    0    0    0  501  0.00000000000E+00  0.00000000000E+00  0.12180958424E+04  0.12180958424E+04  0.25500000920E-02 0. -1.
        2   -1    0    0  501    0  0.00000000000E+00  0.00000000000E+00 -0.32525917817E+04  0.32525917817E+04  0.25500000920E-02 0.  1.
    10030    2    1    2    0    0  0.00000000000E+00  0.00000000000E+00 -0.20344959394E+04  0.44706876241E+04  0.39809388472E+04 0.  0.
        4    1    3    3  502    0 -0.40524291205E+03  0.56531533900E+03 -0.31116682112E+04  0.31884610582E+04  0.12699999809E+01 0.  1.
       -4    1    3    3    0  502  0.40524291205E+03 -0.56531533900E+03  0.10771722718E+04  0.12822265659E+04  0.12699999809E+01 0. -1.
</event>
<event>
 5   0  0.2395572E-07  0.3915677E+04  0.7818609E-02  0.8021776E-01
       -2   -1    0    0    0  501  0.00000000000E+00  0.00000000000E+00  0.16739121184E+04  0.16739121184E+04  0.25500000920E-02 0.  1.
        2   -1    0    0  501    0  0.00000000000E+00  0.00000000000E+00 -0.22899245896E+04  0.22899245896E+04  0.25500000920E-02 0. -1.
    10030    2    1    2    0    0  0.00000000000E+00  0.00000000000E+00 -0.61601247116E+03  0.39638367080E+04  0.39156774743E+04 0.  0.
        3    1    3    3  502    0  0.16322074636E+04  0.86098618737E+03  0.35405136459E+03  0.18790292169E+04  0.10100000352E+00 0.  1.
       -3    1    3    3    0  502 -0.16322074636E+04 -0.86098618737E+03 -0.97006383575E+03  0.20848074910E+04  0.10100000352E+00 0. -1.
</event>
<event>
 5   0  0.7675750E-08  0.3993551E+04  0.7818609E-02  0.8005849E-01
        1   -1    0    0  501    0  0.00000000000E+00  0.00000000000E+00  0.30512825566E+04  0.30512825566E+04  0.50400001928E-02 0.  1.
       -1   -1    0    0    0  501  0.00000000000E+00  0.00000000000E+00 -0.13067003426E+04  0.13067003426E+04  0.50400001928E-02 0. -1.
    10030    2    1    2    0    0  0.00000000000E+00  0.00000000000E+00  0.17445822140E+04  0.43579828993E+04  0.39935507821E+04 0.  0.
        2    1    3    3  502    0  0.10547503721E+04  0.11566322334E+04  0.22251022606E+04  0.27205471033E+04  0.25500000920E-02 0.  1.
       -2    1    3    3    0  502 -0.10547503721E+04 -0.11566322334E+04 -0.48052004664E+03  0.16374357960E+04  0.25500000920E-02 0. -1.
</event>
<event>
 5   0  0.7731706E-08  0.3612153E+04  0.7818609E-02  0.8087714E-01
       -1   -1    0    0    0  501  0.00000000000E+00  0.00000000000E+00  0.14381801323E+04  0.14381801323E+04  0.50400001928E-02 0. -1.
        1   -1    0    0  501    0  0.00000000000E+00  0.00000000000E+00 -0.22680827347E+04  0.22680827347E+04  0.50400001928E-02 0.  1.
    10030    2    1    2    0    0  0.00000000000E+00  0.00000000000E+00 -0.82990260237E+03  0.37062628670E+04  0.36121525591E+04 0.  0.
        3    1    3    3  502    0  0.72953096841E+03 -0.12607114914E+01  0.12802729473E+04  0.14735385482E+04  0.10100000352E+00 0. -1.
       -3    1    3    3    0  502 -0.72953096841E+03  0.12607114914E+01 -0.21101755496E+04  0.22327243188E+04  0.10100000352E+00 0.  1.
</event>
<event>
 5   0  0.2473224E-07  0.3723194E+04  0.7818609E-02  0.8062841E-01
       -2   -1    0    0    0  501  0.00000000000E+00  0.00000000000E+00  0.20114362491E+04  0.20114362491E+04  0.25500000920E-02 0.  1.
        2   -1    0    0  501    0  0.00000000000E+00  0.00000000000E+00 -0.17229196494E+04  0.17229196494E+04  0.25500000920E-02 0. -1.
    10030    2    1    2    0    0  0.00000000000E+00  0.00000000000E+00  0.28851659972E+03  0.37343558986E+04  0.37231938103E+04 0.  0.
        2    1    3    3  502    0 -0.58334338473E+03 -0.10690501001E+03 -0.16256352715E+04  0.17304358473E+04  0.25500000920E-02 0. -1.
       -2    1    3    3    0  502  0.58334338473E+03  0.10690501001E+03  0.19141518712E+04  0.20039200513E+04  0.25500000920E-02 0.  1.
</event>
<event>
 5   0  0.2384787E-07  0.3855917E+04  0.7818609E-02  0.8034261E-01
       -2   -1    0    0    0  501  0.00000000000E+00  0.00000000000E+00  0.15545518218E+04  0.15545518218E+04  0.25500000920E-02 0. -1.
        2   -1    0    0  501    0  0.00000000000E+00  0.00000000000E+00 -0.23910579362E+04  0.23910579362E+04  0.25500000920E-02 0.  1.
    10030    2    1    2    0    0  0.00000000000E+00  0.00000000000E+00 -0.83650611437E+03  0.39456097579E+04  0.38559167370E+04 0.  0.
        4    1    3    3  502    0 -0.13682307118E+04  0.11055177655E+04 -0.12257850813E+04  0.21440092091E+04  0.12699999809E+01 0.  1.
       -4    1    3    3    0  502  0.13682307118E+04 -0.11055177655E+04  0.38927896693E+03  0.18016005488E+04  0.12699999809E+01 0. -1.
</event>
<event>
 5   0  0.7675750E-08  0.3550019E+04  0.7818609E-02  0.8102037E-01
        1   -1    0    0  501    0  0.00000000000E+00  0.00000000000E+00  0.10000435933E+04  0.10000435933E+04  0.50400001928E-02 0. -1.
       -1   -1    0    0    0  501  0.00000000000E+00  0.00000000000E+00 -0.31505209025E+04  0.31505209025E+04  0.50400001928E-02 0.  1.
    10030    2    1    2    0    0  0.00000000000E+00  0.00000000000E+00 -0.21504773092E+04  0.41505644957E+04  0.35500187290E+04 0.  0.
        1    1    3    3  502    0 -0.21248955860E+03  0.16482699537E+04 -0.18041770506E+04  0.24529574971E+04  0.50400001928E-02 0.  1.
       -1    1    3    3    0  502  0.21248955860E+03 -0.16482699537E+04 -0.34630025858E+03  0.16976069986E+04  0.50400001928E-02 0. -1.
</event>
<event>
 5   0  0.7675750E-08  0.3847534E+04  0.7818609E-02  0.8036030E-01
        1   -1    0    0  501    0  0.00000000000E+00  0.00000000000E+00  0.23925755124E+04  0.23925755124E+04  0.50400001928E-02 0. -1.
       -1   -1    0    0    0  501  0.00000000000E+00  0.00000000000E+00 -0.15468186421E+04  0.15468186421E+04  0.50400001928E-02 0.  1.
    10030    2    1    2    0    0  0.00000000000E+00  0.00000000000E+00  0.84575687030E+03  0.39393941545E+04  0.38475344860E+04 0.  0.
        1    1    3    3  502    0 -0.12318070948E+04 -0.91297068799E+03 -0.76676388818E+03  0.17142902485E+04  0.50400001928E-02 0.  1.
       -1    1    3    3    0  502  0.12318070948E+04  0.91297068799E+03  0.16125207585E+04  0.22251039060E+04  0.50400001928E-02 0. -1.
</event>
<event>
 5   0  0.2395572E-07  0.3923201E+04  0.7818609E-02  0.8020221E-01
        2   -1    0    0  501    0  0.00000000000E+00  0.00000000000E+00  0.25228509824E+04  0.25228509824E+04  0.25500000920E-02 0. -1.
       -2   -1    0    0    0  501  0.00000000000E+00  0.00000000000E+00 -0.15252095962E+04  0.15252095962E+04  0.25500000920E-02 0.  1.
    10030    2    1    2    0    0  0.00000000000E+00  0.00000000000E+00  0.99764138619E+03  0.40480605787E+04  0.39232010034E+04 0.  0.
        3    1    3    3  502    0  0.11683693010E+04 -0.20903505258E+03  0.21102850947E+04  0.24211744398E+04  0.10100000352E+00 0. -1.
       -3    1    3    3    0  502 -0.11683693010E+04  0.20903505258E+03 -0.11126437085E+04  0.16268861389E+04  0.10100000352E+00 0.  1.
</event>
<event>
 5   0  0.7675750E-08  0.3958826E+04  0.7818609E-02  0.8012904E-01
        1   -1    0    0  501    0  0.00000000000E+00  0.00000000000E+00  0.19953785940E+04  0.19953785940E+04  0.50400001928E-02 0. -1.
       -1   -1    0    0    0  501  0.00000000000E+00  0.00000000000E+00 -0.19635753867E+04  0.19635753867E+04  0.50400001928E-02 0.  1.
    10030    2    1    2    0    0  0.00000000000E+00  0.00000000000E+00  0.31803207335E+02  0.39589539807E+04  0.39588262373E+04 0.  0.
        4    1    3    3  502    0  0.36577355066E+03 -0.18349920613E+04 -0.62994314816E+03  0.19742887677E+04  0.12699999809E+01 0. -1.
       -4    1    3    3    0  502 -0.36577355066E+03  0.18349920613E+04  0.66174635549E+03  0.19846652129E+04  0.12699999809E+01 0.  1.
</event>
<event>
 5   0  0.7731706E-08  0.3906523E+04  0.7818609E-02  0.8023674E-01
       -1   -1    0    0    0  501  0.00000000000E+00  0.00000000000E+00  0.14177228412E+04  0.14177228412E+04  0.50400001928E-02 0.  1.
        1   -1    0    0  501    0  0.00000000000E+00  0.00000000000E+00 -0.26910979522E+04  0.26910979522E+04  0.50400001928E-02 0. -1.
    10030    2    1    2    0    0  0.00000000000E+00  0.00000000000E+00 -0.12733751110E+04  0.41088207933E+04  0.39065232802E+04 0.  0.
        3    1    3    3  502    0 -0.13727221243E+03 -0.18244932331E+04  0.82545297854E+02  0.18315111123E+04  0.10100000352E+00 0.  1.
       -3    1    3    3    0  502  0.13727221243E+03  0.18244932331E+04 -0.13559204088E+04  0.22773096810E+04  0.10100000352E+00 0. -1.
</event>
<event>
 5   0  0.7675750E-08  0.3639019E+04  0.7818609E-02  0.8081612E-01
       -1   -1    0    0    0  501  0.00000000000E+00  0.00000000000E+00  0.17574885826E+04  0.17574885826E+04  0.50400001928E-02 0. -1.
        1   -1    0    0  501    0  0.00000000000E+00  0.00000000000E+00 -0.18837187981E+04  0.18837187981E+04  0.50400001928E-02 0.  1.
    10030    2    1    2    0    0  0.00000000000E+00  0.00000000000E+00 -0.12623021550E+03  0.36412073807E+04  0.36390187031E+04 0.  0.
        1    1    3    3  502    0 -0.18068242313E+04  0.20948139180E+03 -0.17065432818E+02  0.18190072802E+04  0.50400001928E-02 0.  1.
       -1    1    3    3    0  502  0.18068242313E+04 -0.20948139180E+03 -0.10916478268E+03  0.18222001005E+04  0.50400001928E-02 0. -1.
</event>
<event>
 5   0  0.7731706E-08  0.3232568E+04  0.7818609E-02  0.8180269E-01
       -1   -1    0    0    0  501  0.00000000000E+00  0.00000000000E+00  0.14247585061E+04  0.14247585061E+04  0.50400001928E-02 0. -1.
        1   -1    0    0  501    0  0.00000000000E+00  0.00000000000E+00 -0.18335558394E+04  0.18335558394E+04  0.50400001928E-02 0.  1.
    10030    2    1    2    0    0  0.00000000000E+00  0.00000000000E+00 -0.40879733329E+03  0.32583143456E+04  0.32325681918E+04 0.  0.
        3    1    3    3  502    0 -0.60199524111E+03 -0.17336725988E+03  0.12974076507E+04  0.14407363046E+04  0.10100000352E+00 0. -1.
       -3    1    3    3    0  502  0.60199524111E+03  0.17336725988E+03 -0.17062049840E+04  0.18175780409E+04  0.10100000352E+00 0.  1.
</event>
<event>
 5   0  0.2486268E-07  0.3917513E+04  0.7818609E-02  0.8021397E-01
       -2   -1    0    0    0  501  0.00000000000E+00  0.00000000000E+00  0.17242219155E+04  0.17242219155E+04  0.25500000920E-02 0.  1.
        2   -1    0    0  501    0  0.00000000000E+00  0.00000000000E+00 -0.22251933791E+04  0.22251933791E+04  0.25500000920E-02 0. -1.
    10030    2    1    2    0    0  0.00000000000E+00  0.00000000000E+00 -0.50097146363E+03  0.39494152946E+04  0.39175130838E+04 0.  0.
        5    1    3    3  502    0  0.17180473816E+04 -0.37776372802E+03 -0.11190777628E+04  0.20848859366E+04  0.46999998093E+01 0.  1.
       -5    1    3    3    0  502 -0.17180473816E+04  0.37776372802E+03  0.61810629914E+03  0.18645293580E+04  0.46999998093E+01 0. -1.
</event>
<event>
 5   0  0.7675750E-08  0.3921996E+04  0.7818609E-02  0.8020470E-01
        1   -1    0    0  501    0  0.00000000000E+00  0.00000000000E+00  0.15986128509E+04  0.15986128509E+04  0.50400001928E-02 0. -1.
       -1   -1    0    0    0  501  0.00000000000E+00  0.00000000000E+00 -0.24055317438E+04  0.24055317438E+04  0.50400001928E-02 0.  1.
    10030    2    1    2    0    0  0.00000000000E+00  0.00000000000E+00 -0.80691889293E+03  0.40041445947E+04  0.39219964094E+04 0.  0.
        4    1    3    3  502    0 -0.13852521576E+04 -0.13767408929E+04 -0.58371725459E+03  0.20383980162E+04  0.12699999809E+01 0. -1.
       -4    1    3    3    0  502  0.13852521576E+04  0.13767408929E+04 -0.22320163834E+03  0.19657465784E+04  0.12699999809E+01 0.  1.
</event>
<event>
 5   0  0.7675750E-08  0.3938774E+04  0.7818609E-02  0.8017013E-01
       -1   -1    0    0    0  501  0.00000000000E+00  0.00000000000E+00  0.17347313619E+04  0.17347313619E+04  0.50400001928E-02 0.  1.
        1   -1    0    0  501    0  0.00000000000E+00  0.00000000000E+00 -0.22357839294E+04  0.22357839294E+04  0.50400001928E-02 0. -1.
    10030    2    1    2    0    0  0.00000000000E+00  0.00000000000E+00 -0.50105256753E+03  0.39705152913E+04  0.39387736674E+04 0.  0.
        1    1    3    3  502    0  0.15184983592E+03  0.19489464184E+04 -0.97838149723E+01  0.19548775506E+04  0.50400001928E-02 0.  1.
       -1    1    3    3    0  502 -0.15184983592E+03 -0.19489464184E+04 -0.49126875255E+03  0.20156377407E+04  0.50400001928E-02 0. -1.
</event>
<event>
 5   0  0.7731706E-08  0.3926384E+04  0.7818609E-02  0.8019564E-01
        1   -1    0    0  501    0  0.00000000000E+00  0.00000000000E+00  0.20880250587E+04  0.20880250587E+04  0.50400001928E-02 0. -1.
       -1   -1    0    0    0  501  0.00000000000E+00  0.00000000000E+00 -0.18458220130E+04  0.18458220130E+04  0.50400001928E-02 0.  1.
    10030    2    1    2    0    0  0.00000000000E+00  0.00000000000E+00  0.24220304569E+03  0.39338470718E+04  0.39263838922E+04 0.  0.
        3    1    3    3  502    0  0.14646085870E+04  0.32714196138E+00  0.14308905840E+04  0.20475659437E+04  0.10100000352E+00 0. -1.
       -3    1    3    3    0  502 -0.14646085870E+04 -0.32714196138E+00 -0.11886875383E+04  0.18862811281E+04  0.10100000352E+00 0.  1.
</event>
<event>
 5   0  0.2486268E-07  0.3881590E+04  0.7818609E-02  0.8028869E-01
       -2   -1    0    0    0  501  0.00000000000E+00  0.00000000000E+00  0.13797021561E+04  0.13797021561E+04  0.25500000920E-02 0.  1.
        2   -1    0    0  501    0  0.00000000000E+00  0.00000000000E+00 -0.27300716977E+04  0.27300716977E+04  0.25500000920E-02 0. -1.
    10030    2    1    2    0    0  0.00000000000E+00  0.00000000000E+00 -0.13503695416E+04  0.41097738538E+04  0.38815902966E+04 0.  0.
        5    1    3    3  502    0 -0.14007398412E+04  0.80385531621E+03  0.46438009623E+03  0.16804542350E+04  0.46999998093E+01 0.  1.
       -5    1    3    3    0  502  0.14007398412E+04 -0.80385531621E+03 -0.18147496378E+04  0.24293196188E+04  0.46999998093E+01 0. -1.
</event>
<event>
 5   0  0.2384787E-07  0.3885774E+04  0.7818609E-02  0.8027994E-01
       -2   -1    0    0    0  501  0.00000000000E+00  0.00000000000E+00  0.30269163208E+04  0.30269163208E+04  0.25500000920E-02 0. -1.
        2   -1    0    0  501    0  0.00000000000E+00  0.00000000000E+00 -0.12470813258E+04  0.12470813258E+04  0.25500000920E-02 0.  1.
    10030    2    1    2    0    0  0.00000000000E+00  0.00000000000E+00  0.17798349950E+04  0.42739976467E+04  0.38857744754E+04 0.  0.
        4    1    3    3  502    0 -0.53572327585E+03 -0.87560312944E+03  0.27043100220E+04  0.28925723114E+04  0.12699999809E+01 0. -1.
       -4    1    3    3    0  502  0.53572327585E+03  0.87560312944E+03 -0.92447502696E+03  0.13814253353E+04  0.12699999809E+01 0.  1.
</event>
<event>
 5   0  0.7675750E-08  0.3965948E+04  0.7818609E-02  0.8011451E-01
       -3   -1    0    0    0  501  0.00000000000E+00  0.00000000000E+00  0.19094958851E+04  0.19094958878E+04  0.10100000352E+00 0.  1.
        3   -1    0    0  501    0  0.00000000000E+00  0.00000000000E+00 -0.20592794261E+04  0.20592794286E+04  0.10100000352E+00 0. -1.
    10030    2    1    2    0    0  0.00000000000E+00  0.00000000000E+00 -0.14978354097E+03  0.39687753164E+04  0.39659478568E+04 0.  0.
        4    1    3    3  502    0 -0.10728911480E+02  0.29307784799E+03 -0.20374565073E+04  0.20584558208E+04  0.12699999809E+01 0. -1.
       -4    1    3    3    0  502  0.10728911480E+02 -0.29307784799E+03  0.18876729663E+04  0.19103194955E+04  0.12699999809E+01 0.  1.
</event>
<event>
 5   0  0.2384787E-07  0.3926232E+04  0.7818609E-02  0.8019596E-01
       -2   -1    0    0    0  501  0.00000000000E+00  0.00000000000E+00  0.19232700237E+04  0.19232700237E+04  0.25500000920E-02 0. -1.
        2   -1    0    0  501    0  0.00000000000E+00  0.00000000000E+00 -0.20037871786E+04  0.20037871786E+04  0.25500000920E-02 0.  1.
    10030    2    1    2    0    0  0.00000000000E+00  0.00000000000E+00 -0.80517154957E+02  0.39270572023E+04  0.39262316867E+04 0.  0.
        4    1    3    3  502    0  0.10730288450E+04 -0.67553784536E+02 -0.16831226598E+04  0.19972125367E+04  0.12699999809E+01 0.  1.
       -4    1    3    3    0  502 -0.10730288450E+04  0.67553784536E+02  0.16026055049E+04  0.19298446655E+04  0.12699999809E+01 0. -1.
</event>
<event>
 5   0  0.7675750E-08  0.3906964E+04  0.7818609E-02  0.8023582E-01
        1   -1    0    0  501    0  0.00000000000E+00  0.00000000000E+00  0.21819556997E+04  0.21819556997E+04  0.50400001928E-02 0. -1.
       -1   -1    0    0    0  501  0.00000000000E+00  0.00000000000E+00 -0.17489323288E+04  0.17489323288E+04  0.50400001928E-02 0.  1.
    10030    2    1    2    0    0  0.00000000000E+00  0.00000000000E+00  0.43302337089E+03  0.39308880285E+04  0.39069644806E+04 0.  0.
        5    1    3    3  502    0 -0.13618418494E+04  0.13971752586E+04  0.31384519658E+03  0.19761661933E+04  0.46999998093E+01 0. -1.
       -5    1    3    3    0  502  0.13618418494E+04 -0.13971752586E+04  0.11917817431E+03  0.19547218353E+04  0.46999998093E+01 0.  1.
</event>
<event>
 5   0  0.2473224E-07  0.3540601E+04  0.7818609E-02  0.8104235E-01
       -2   -1    0    0    0  501  0.00000000000E+00  0.00000000000E+00  0.18600809518E+04  0.18600809518E+04  0.25500000920E-02 0.  1.
        2   -1    0    0  501    0  0.00000000000E+00  0.00000000000E+00 -0.16848536587E+04  0.16848536587E+04  0.25500000920E-02 0. -1.
    10030    2    1    2    0    0  0.00000000000E+00  0.00000000000E+00  0.17522729304E+03  0.35449346105E+04  0.35406011903E+04 0.  0.
        2    1    3    3  502    0  0.16997143847E+04 -0.11375911635E+03 -0.39463349321E+03  0.17486296693E+04  0.25500000920E-02 0. -1.
       -2    1    3    3    0  502 -0.16997143847E+04  0.11375911635E+03  0.56986078625E+03  0.17963049413E+04  0.25500000920E-02 0.  1.
</event>
<event>
 5   0  0.2446281E-07  0.3894787E+04  0.7818609E-02  0.8026114E-01
        2   -1    0    0  501    0  0.00000000000E+00  0.00000000000E+00  0.17725463494E+04  0.17725463494E+04  0.25500000920E-02 0.  1.
       -2   -1    0    0    0  501  0.00000000000E+00  0.00000000000E+00 -0.21394878995E+04  0.21394878995E+04  0.25500000920E-02 0. -1.
    10030    2    1    2    0    0  0.00000000000E+00  0.00000000000E+00 -0.36694155011E+03  0.39120342489E+04  0.38947870113E+04 0.  0.
        1    1    3    3  502    0 -0.77607958115E+03  0.42182642876E+03  0.15597562355E+04  0.17925056671E+04  0.50400001928E-02 0.  1.
       -1    1    3    3    0  502  0.77607958115E+03 -0.42182642876E+03 -0.19266977856E+04  0.21195285819E+04  0.50400001928E-02 0. -1.
</event>
<event>
 5   0  0.7675750E-08  0.3949582E+04  0.7818609E-02  0.8014795E-01
        1   -1    0    0  501    0  0.00000000000E+00  0.00000000000E+00  0.14693309886E+04  0.14693309886E+04  0.50400001928E-02 0. -1.
       -1   -1    0    0    0  501  0.00000000000E+00  0.00000000000E+00 -0.26541325390E+04  0.26541325390E+04  0.50400001928E-02 0.  1.
    10030    2    1    2    0    0  0.00000000000E+00  0.00000000000E+00 -0.11848015504E+04  0.41234635276E+04  0.39495818449E+04 0.  0.
        4    1    3    3  502    0 -0.12106834217E+04 -0.15545304573E+04 -0.45437492240E+03  0.20220725687E+04  0.12699999809E+01 0.  1.
       -4    1    3    3    0  502  0.12106834217E+04  0.15545304573E+04 -0.73042662800E+03  0.21013909589E+04  0.12699999809E+01 0. -1.
</event>
<event>
 5   0  0.2446281E-07  0.3897406E+04  0.7818609E-02  0.8025569E-01
        2   -1    0    0  501    0  0.00000000000E+00  0.00000000000E+00  0.24064010047E+04  0.24064010047E+04  0.25500000920E-02 0. -1.
       -2   -1    0    0    0  501  0.00000000000E+00  0.00000000000E+00 -0.15780592406E+04  0.15780592406E+04  0.25500000920E-02 0.  1.
    10030    2    1    2    0    0  0.00000000000E+00  0.00000000000E+00  0.82834176412E+03  0.39844602453E+04  0.38974059794E+04 0.  0.
        1    1    3    3  502    0  0.40509320772E+03  0.15687803734E+04  0.15210695301E+04  0.22223467062E+04  0.50400001928E-02 0. -1.
       -1    1    3    3    0  502 -0.40509320772E+03 -0.15687803734E+04 -0.69272776595E+03  0.17621135391E+04  0.50400001928E-02 0.  1.
</event>
<event>
 5   0  0.7675750E-08  0.3893454E+04  0.7818609E-02  0.8026392E-01
       -1   -1    0    0    0  501  0.00000000000E+00  0.00000000000E+00  0.20391684214E+04  0.20391684214E+04  0.50400001928E-02 0. -1.
        1   -1    0    0  501    0  0.00000000000E+00  0.00000000000E+00 -0.18584766314E+04  0.18584766314E+04  0.50400001928E-02 0.  1.
    10030    2    1    2    0    0  0.00000000000E+00  0.00000000000E+00  0.18069179001E+03  0.38976450527E+04  0.38934544346E+04 0.  0.
        2    1    3    3  502    0  0.66088820889E+03  0.18031739720E+04 -0.22864619312E+03  0.19340343015E+04  0.25500000920E-02 0.  1.
       -2    1    3    3    0  502 -0.66088820889E+03 -0.18031739720E+04  0.40933798313E+03  0.19636107512E+04  0.25500000920E-02 0. -1.
</event>
<event>
 5   0  0.2384787E-07  0.3880410E+04  0.7818609E-02  0.8029116E-01
       -2   -1    0    0    0  501  0.00000000000E+00  0.00000000000E+00  0.18289259140E+04  0.18289259140E+04  0.25500000920E-02 0.  1.
        2   -1    0    0  501    0  0.00000000000E+00  0.00000000000E+00 -0.20582544847E+04  0.20582544847E+04  0.25500000920E-02 0. -1.
    10030    2    1    2    0    0  0.00000000000E+00  0.00000000000E+00 -0.22932857078E+03  0.38871803987E+04  0.38804097540E+04 0.  0.
        4    1    3    3  502    0  0.10016689418E+04 -0.13092728655E+04 -0.11396099444E+04  0.20040580190E+04  0.12699999809E+01 0. -1.
       -4    1    3    3    0  502 -0.10016689418E+04  0.13092728655E+04  0.91028137361E+03  0.18831223798E+04  0.12699999809E+01 0.  1.
</event>
<event>
 5   0  0.2395572E-07  0.3936180E+04  0.7818609E-02  0.8017546E-01
       -2   -1    0    0    0  501  0.00000000000E+00  0.00000000000E+00  0.14994074787E+04  0.14994074787E+04  0.25500000920E-02 0.  1.
        2   -1    0    0  501    0  0.00000000000E+00  0.00000000000E+00 -0.25832726776E+04  0.25832726776E+04  0.25500000920E-02 0. -1.
    10030    2    1    2    0    0  0.00000000000E+00  0.00000000000E+00 -0.10838651990E+04  0.40826801563E+04  0.39361800631E+04 0.  0.
        3    1    3    3  502    0 -0.21388784946E+03 -0.17683175998E+04  0.32629034358E+03  0.18108452569E+04  0.10100000352E+00 0.  1.
       -3    1    3    3    0  502  0.21388784946E+03  0.17683175998E+04 -0.14101555426E+04  0.22718348994E+04  0.10100000352E+00 0. -1.
</event>
<event>
 5   0  0.7675750E-08  0.3724477E+04  0.7818609E-02  0.8062559E-01
       -1   -1    0    0    0  501  0.00000000000E+00  0.00000000000E+00  0.16240705187E+04  0.16240705187E+04  0.50400001928E-02 0.  1.
        1   -1    0    0  501    0  0.00000000000E+00  0.00000000000E+00 -0.21353332047E+04  0.21353332047E+04  0.50400001928E-02 0. -1.
    10030    2    1    2    0    0  0.00000000000E+00  0.00000000000E+00 -0.51126268597E+03  0.37594037235E+04  0.37244767179E+04 0.  0.
        2    1    3    3  502    0  0.86975482483E+03  0.17723974591E+03 -0.19080675093E+04  0.21044260507E+04  0.25500000920E-02 0. -1.
       -2    1    3    3    0  502 -0.86975482483E+03 -0.17723974591E+03  0.13968048233E+04  0.16549776728E+04  0.25500000920E-02 0.  1.
</event>
<event>
 5   0  0.7675750E-08  0.3918486E+04  0.7818609E-02  0.8021195E-01
       -1   -1    0    0    0  501  0.00000000000E+00  0.00000000000E+00  0.12131684665E+04  0.12131684665E+04  0.50400001928E-02 0.  1.
        1   -1    0    0  501    0  0.00000000000E+00  0.00000000000E+00 -0.31641385402E+04  0.31641385402E+04  0.50400001928E-02 0. -1.
    10030    2    1    2    0    0  0.00000000000E+00  0.00000000000E+00 -0.19509700737E+04  0.43773070068E+04  0.39184859835E+04 0.  0.
        4    1    3    3  502    0  0.18694400429E+04 -0.57076427138E+03 -0.82538868385E+03  0.21217554100E+04  0.12699999809E+01 0.  1.
       -4    1    3    3    0  502 -0.18694400429E+04  0.57076427138E+03 -0.11255813899E+04  0.22555515968E+04  0.12699999809E+01 0. -1.
</event>
<event>
 5   0  0.7675750E-08  0.3893245E+04  0.7818609E-02  0.8026436E-01
       -1   -1    0    0    0  501  0.00000000000E+00  0.00000000000E+00  0.17325688908E+04  0.17325688908E+04  0.50400001928E-02 0. -1.
        1   -1    0    0  501    0  0.00000000000E+00  0.00000000000E+00 -0.21871222201E+04  0.21871222201E+04  0.50400001928E-02 0.  1.
    10030    2    1    2    0    0  0.00000000000E+00  0.00000000000E+00 -0.45455332928E+03  0.39196911108E+04  0.38932453911E+04 0.  0.
        5    1    3    3  502    0  0.63476263682E+03  0.15482660506E+04 -0.12286515809E+04  0.20759716197E+04  0.46999998093E+01 0.  1.
       -5    1    3    3    0  502 -0.63476263682E+03 -0.15482660506E+04  0.77409825165E+03  0.18437194911E+04  0.46999998093E+01 0. -1.
</event>
<event>
 5   0  0.7731706E-08  0.3904776E+04  0.7818609E-02  0.8024037E-01
       -1   -1    0    0    0  501  0.00000000000E+00  0.00000000000E+00  0.31783730366E+04  0.31783730366E+04  0.50400001928E-02 0. -1.
        1   -1    0    0  501    0  0.00000000000E+00  0.00000000000E+00 -0.11992986640E+04  0.11992986640E+04  0.50400001928E-02 0.  1.
    10030    2    1    2    0    0  0.00000000000E+00  0.00000000000E+00  0.19790743726E+04  0.43776717006E+04  0.39047758126E+04 0.  0.
        3    1    3    3  502    0 -0.38399794941E+03 -0.88097355950E+03 -0.91576757196E+03  0.13274784720E+04  0.10100000352E+00 0.  1.
       -3    1    3    3    0  502  0.38399794941E+03  0.88097355950E+03  0.28948419445E+04  0.30501932286E+04  0.10100000352E+00 0. -1.
</event>
<event>
 5   0  0.2446281E-07  0.3954386E+04  0.7818609E-02  0.8013812E-01
        2   -1    0    0  501    0  0.00000000000E+00  0.00000000000E+00  0.22891246662E+04  0.22891246662E+04  0.25500000920E-02 0.  1.
       -2   -1    0    0    0  501  0.00000000000E+00  0.00000000000E+00 -0.17077675509E+04  0.17077675509E+04  0.25500000920E-02 0. -1.
    10030    2    1    2    0    0  0.00000000000E+00  0.00000000000E+00  0.58135711524E+03  0.39968922171E+04  0.39543863366E+04 0.  0.
        1    1    3    3  502    0  0.57685307435E+03 -0.10935995175E+04  0.18501740830E+04  0.22252782998E+04  0.50400001928E-02 0.  1.
       -1    1    3    3    0  502 -0.57685307435E+03  0.10935995175E+04 -0.12688169678E+04  0.17716139173E+04  0.50400001928E-02 0. -1.
</event>
<event>
 5   0  0.2486268E-07  0.3829882E+04  0.7818609E-02  0.8039772E-01
        2   -1    0    0  501    0  0.00000000000E+00  0.00000000000E+00  0.20694330290E+04  0.20694330290E+04  0.25500000920E-02 0.  1.
       -2   -1    0    0    0  501  0.00000000000E+00  0.00000000000E+00 -0.17719829177E+04  0.17719829177E+04  0.25500000920E-02 0. -1.
    10030    2    1    2    0    0  0.00000000000E+00  0.00000000000E+00  0.29745011129E+03  0.38414159468E+04  0.38298824926E+04 0.  0.
        5    1    3    3  502    0 -0.39176529805E+02  0.76497814910E+03  0.19090748577E+04  0.20570161087E+04  0.46999998093E+01 0.  1.
       -5    1    3    3    0  502  0.39176529805E+02 -0.76497814910E+03 -0.16116247464E+04  0.17843998381E+04  0.46999998093E+01 0. -1.
</event>
<event>
 5   0  0.2473224E-07  0.3206729E+04  0.7818609E-02  0.8187042E-01
       -2   -1    0    0    0  501  0.00000000000E+00  0.00000000000E+00  0.21904584993E+04  0.21904584993E+04  0.25500000920E-02 0.  1.
        2   -1    0    0  501    0  0.00000000000E+00  0.00000000000E+00 -0.11736255882E+04  0.11736255882E+04  0.25500000920E-02 0. -1.
    10030    2    1    2    0    0  0.00000000000E+00  0.00000000000E+00  0.10168329111E+04  0.33640840874E+04  0.32067292649E+04 0.  0.
        2    1    3    3  502    0 -0.12222550954E+04 -0.68988454339E+03 -0.30481930902E+03  0.14362322279E+04  0.25500000920E-02 0. -1.
       -2    1    3    3    0  502  0.12222550954E+04  0.68988454339E+03  0.13216522201E+04  0.19278518595E+04  0.25500000920E-02 0.  1.
</event>
<event>
 5   0  0.7731706E-08  0.3821817E+04  0.7818609E-02  0.8041489E-01
        1   -1    0    0  501    0  0.00000000000E+00  0.00000000000E+00  0.13858547667E+04  0.13858547667E+04  0.50400001928E-02 0. -1.
       -1   -1    0    0    0  501  0.00000000000E+00  0.00000000000E+00 -0.26348867578E+04  0.26348867578E+04  0.50400001928E-02 0.  1.
    10030    2    1    2    0    0  0.00000000000E+00  0.00000000000E+00 -0.12490319911E+04  0.40207415246E+04  0.38218165174E+04 0.  0.
        3    1    3    3  502    0  0.77513963097E+03 -0.81636501230E+03 -0.22489971754E+04  0.25150112496E+04  0.10100000352E+00 0.  1.
       -3    1    3    3    0  502 -0.77513963097E+03  0.81636501230E+03  0.99996518428E+03  0.15057302749E+04  0.10100000352E+00 0. -1.
</event>
<event>
 5   0  0.2473224E-07  0.3915080E+04  0.7818609E-02  0.8021900E-01
       -2   -1    0    0    0  501  0.00000000000E+00  0.00000000000E+00  0.18293023808E+04  0.18293023808E+04  0.25500000920E-02 0. -1.
        2   -1    0    0  501    0  0.00000000000E+00  0.00000000000E+00 -0.20947677338E+04  0.20947677338E+04  0.25500000920E-02 0.  1.
    10030    2    1    2    0    0  0.00000000000E+00  0.00000000000E+00 -0.26546535296E+03  0.39240701146E+04  0.39150803836E+04 0.  0.
        2    1    3    3  502    0 -0.11137941653E+04  0.12503918051E+04 -0.11489376827E+04  0.20307818464E+04  0.25500000920E-02 0.  1.
       -2    1    3    3    0  502  0.11137941653E+04 -0.12503918051E+04  0.88347232972E+03  0.18932882682E+04  0.25500000920E-02 0. -1.
</event>
<event>
 5   0  0.7675750E-08  0.3879402E+04  0.7818609E-02  0.8029327E-01
        1   -1    0    0  501    0  0.00000000000E+00  0.00000000000E+00  0.21749306595E+04  0.21749306596E+04  0.50400001928E-02 0.  1.
       -1   -1    0    0    0  501  0.00000000000E+00  0.00000000000E+00 -0.17299123808E+04  0.17299123808E+04  0.50400001928E-02 0. -1.
    10030    2    1    2    0    0  0.00000000000E+00  0.00000000000E+00  0.44501827873E+03  0.39048430404E+04  0.38794017453E+04 0.  0.
        1    1    3    3  502    0 -0.13365719338E+04  0.53778797828E+03 -0.10847765174E+04  0.18034357590E+04  0.50400001928E-02 0. -1.
       -1    1    3    3    0  502  0.13365719338E+04 -0.53778797828E+03  0.15297947962E+04  0.21014072814E+04  0.50400001928E-02 0.  1.
</event>
<event>
 5   0  0.7675750E-08  0.3953341E+04  0.7818609E-02  0.8014026E-01
        3   -1    0    0  501    0  0.00000000000E+00  0.00000000000E+00  0.18578429170E+04  0.18578429197E+04  0.10100000352E+00 0.  1.
       -3   -1    0    0    0  501  0.00000000000E+00  0.00000000000E+00 -0.21030984026E+04  0.21030984050E+04  0.10100000352E+00 0. -1.
    10030    2    1    2    0    0  0.00000000000E+00  0.00000000000E+00 -0.24525548561E+03  0.39609413247E+04  0.39533411091E+04 0.  0.
        4    1    3    3  502    0  0.11634763486E+04  0.50004795092E+03 -0.16432740116E+04  0.20746267754E+04  0.12699999809E+01 0. -1.
       -4    1    3    3    0  502 -0.11634763486E+04 -0.50004795092E+03  0.13980185260E+04  0.18863145493E+04  0.12699999809E+01 0.  1.
</event>
<event>
 5   0  0.2384787E-07  0.3896905E+04  0.7818609E-02  0.8025673E-01
       -2   -1    0    0    0  501  0.00000000000E+00  0.00000000000E+00  0.16070819536E+04  0.16070819536E+04  0.25500000920E-02 0.  1.
        2   -1    0    0  501    0  0.00000000000E+00  0.00000000000E+00 -0.23623357309E+04  0.23623357309E+04  0.25500000920E-02 0. -1.
    10030    2    1    2    0    0  0.00000000000E+00  0.00000000000E+00 -0.75525377736E+03  0.39694176845E+04  0.38969049880E+04 0.  0.
        4    1    3    3  502    0 -0.38421519433E+03  0.63872251594E+03 -0.22113692045E+04  0.23336116085E+04  0.12699999809E+01 0. -1.
       -4    1    3    3    0  502  0.38421519433E+03 -0.63872251594E+03  0.14561154272E+04  0.16358060759E+04  0.12699999809E+01 0.  1.
</event>
<event>
 5   0  0.7731706E-08  0.3180000E+04  0.7818609E-02  0.8194119E-01
       -1   -1    0    0    0  501  0.00000000000E+00  0.00000000000E+00  0.16317145904E+04  0.16317145904E+04  0.50400001928E-02 0.  1.
        1   -1    0    0  501    0  0.00000000000E+00  0.00000000000E+00 -0.15493513741E+04  0.15493513741E+04  0.50400001928E-02 0. -1.
    10030    2    1    2    0    0  0.00000000000E+00  0.00000000000E+00  0.82363216221E+02  0.31810659645E+04  0.31799995238E+04 0.  0.
        3    1    3    3  502    0 -0.11735504380E+04  0.70716315360E+03 -0.76580999755E+03  0.15696385950E+04  0.10100000352E+00 0. -1.
       -3    1    3    3    0  502  0.11735504380E+04 -0.70716315360E+03  0.84817321377E+03  0.16114273695E+04  0.10100000352E+00 0.  1.
</event>
<event>
 5   0  0.7675750E-08  0.3857332E+04  0.7818609E-02  0.8033962E-01
        1   -1    0    0  501    0  0.00000000000E+00  0.00000000000E+00  0.15190498349E+04  0.15190498349E+04  0.50400001928E-02 0. -1.
       -1   -1    0    0    0  501  0.00000000000E+00  0.00000000000E+00 -0.24487358167E+04  0.24487358167E+04  0.50400001928E-02 0.  1.
    10030    2    1    2    0    0  0.00000000000E+00  0.00000000000E+00 -0.92968598182E+03  0.39677856515E+04  0.38573315844E+04 0.  0.
        1    1    3    3  502    0  0.71550091247E+03 -0.43289751234E+02  0.13769408807E+04  0.15523471735E+04  0.50400001928E-02 0. -1.
       -1    1    3    3    0  502 -0.71550091247E+03  0.43289751234E+02 -0.23066268625E+04  0.24154384780E+04  0.50400001928E-02 0.  1.
</event>
<event>
 5   0  0.7675750E-08  0.3878054E+04  0.7818609E-02  0.8029609E-01
        1   -1    0    0  501    0  0.00000000000E+00  0.00000000000E+00  0.16397632798E+04  0.16397632799E+04  0.50400001928E-02 0.  1.
       -1   -1    0    0    0  501  0.00000000000E+00  0.00000000000E+00 -0.22929081059E+04  0.22929081059E+04  0.50400001928E-02 0. -1.
    10030    2    1    2    0    0  0.00000000000E+00  0.00000000000E+00 -0.65314482607E+03  0.39326713858E+04  0.38780544175E+04 0.  0.
        2    1    3    3  502    0  0.80949130180E+03 -0.37874118524E+03  0.14184487454E+04  0.16765195783E+04  0.25500000920E-02 0.  1.
       -2    1    3    3    0  502 -0.80949130180E+03  0.37874118524E+03 -0.20715935715E+04  0.22561518075E+04  0.25500000920E-02 0. -1.
</event>
<event>
 5   0  0.7675750E-08  0.3939894E+04  0.7818609E-02  0.8016783E-01
        1   -1    0    0  501    0  0.00000000000E+00  0.00000000000E+00  0.14302256128E+04  0.14302256128E+04  0.50400001928E-02 0.  1.
       -1   -1    0    0    0  501  0.00000000000E+00  0.00000000000E+00 -0.27133423263E+04  0.27133423263E+04  0.50400001928E-02 0. -1.
    10030    2    1    2    0    0  0.00000000000E+00  0.00000000000E+00 -0.12831167135E+04  0.41435679391E+04  0.39398942582E+04 0.  0.
        4    1    3    3  502    0  0.12105757360E+04 -0.36878099695E+03 -0.22293036511E+04  0.25634526362E+04  0.12699999809E+01 0. -1.
       -4    1    3    3    0  502 -0.12105757360E+04  0.36878099695E+03  0.94618693767E+03  0.15801153028E+04  0.12699999809E+01 0.  1.
</event>
<event>
 5   0  0.2446281E-07  0.3910752E+04  0.7818609E-02  0.8022797E-01
       -2   -1    0    0    0  501  0.00000000000E+00  0.00000000000E+00  0.20991141756E+04  0.20991141756E+04  0.25500000920E-02 0.  1.
        2   -1    0    0  501    0  0.00000000000E+00  0.00000000000E+00 -0.18214800490E+04  0.18214800490E+04  0.25500000920E-02 0. -1.
    10030    2    1    2    0    0  0.00000000000E+00  0.00000000000E+00  0.27763412664E+03  0.39205942246E+04  0.39107516370E+04 0.  0.
        1    1    3    3  502    0 -0.55243547895E+03  0.18568609030E+04  0.40477179069E+03  0.19791305096E+04  0.50400001928E-02 0.  1.
       -1    1    3    3    0  502  0.55243547895E+03 -0.18568609030E+04 -0.12713766405E+03  0.19414637151E+04  0.50400001928E-02 0. -1.
</event>
<event>
 5   0  0.7675750E-08  0.3895946E+04  0.7818609E-02  0.8025873E-01
       -1   -1    0    0    0  501  0.00000000000E+00  0.00000000000E+00  0.18269902792E+04  0.18269902792E+04  0.50400001928E-02 0.  1.
        1   -1    0    0  501    0  0.00000000000E+00  0.00000000000E+00 -0.20769671719E+04  0.20769671719E+04  0.50400001928E-02 0. -1.
    10030    2    1    2    0    0  0.00000000000E+00  0.00000000000E+00 -0.24997689266E+03  0.39039574511E+04  0.38959460126E+04 0.  0.
        2    1    3    3  502    0 -0.10824446508E+04 -0.93296256994E+03  0.12015514712E+04  0.18670381670E+04  0.25500000920E-02 0.  1.
       -2    1    3    3    0  502  0.10824446508E+04  0.93296256994E+03 -0.14515283639E+04  0.20369192841E+04  0.25500000920E-02 0. -1.
</event>
<event>
 5   0  0.2395572E-07  0.3748833E+04  0.7818609E-02  0.8057225E-01
       -2   -1    0    0    0  501  0.00000000000E+00  0.00000000000E+00  0.29521457258E+04  0.29521457258E+04  0.25500000920E-02 0. -1.
        2   -1    0    0  501    0  0.00000000000E+00  0.00000000000E+00 -0.11901302877E+04  0.11901302877E+04  0.25500000920E-02 0.  1.
    10030    2    1    2    0    0  0.00000000000E+00  0.00000000000E+00  0.17620154381E+04  0.41422760135E+04  0.37488334410E+04 0.  0.
        3    1    3    3  502    0  0.11778748793E+04 -0.66876069900E+03 -0.55066382959E+03  0.14621425263E+04  0.10100000352E+00 0.  1.
       -3    1    3    3    0  502 -0.11778748793E+04  0.66876069900E+03  0.23126792677E+04  0.26801334872E+04  0.10100000352E+00 0. -1.
</event>
<event>
 5   0  0.7675750E-08  0.3914918E+04  0.7818609E-02  0.8021934E-01
       -1   -1    0    0    0  501  0.00000000000E+00  0.00000000000E+00  0.15260668474E+04  0.15260668474E+04  0.50400001928E-02 0. -1.
        1   -1    0    0  501    0  0.00000000000E+00  0.00000000000E+00 -0.25107979037E+04  0.25107979037E+04  0.50400001928E-02 0.  1.
    10030    2    1    2    0    0  0.00000000000E+00  0.00000000000E+00 -0.98473105626E+03  0.40368647511E+04  0.39149178491E+04 0.  0.
        4    1    3    3  502    0 -0.10359252779E+04 -0.47158429364E+03  0.11497574056E+04  0.16178617469E+04  0.12699999809E+01 0. -1.
       -4    1    3    3    0  502  0.10359252779E+04  0.47158429364E+03 -0.21344884619E+04  0.24190030042E+04  0.12699999809E+01 0.  1.
</event>
<event>
 5   0  0.2446281E-07  0.3913592E+04  0.7818609E-02  0.8022208E-01
        2   -1    0    0  501    0  0.00000000000E+00  0.00000000000E+00  0.28049559028E+04  0.28049559028E+04  0.25500000920E-02 0. -1.
       -2   -1    0    0    0  501  0.00000000000E+00  0.00000000000E+00 -0.13651018232E+04  0.13651018232E+04  0.25500000920E-02 0.  1.
    10030    2    1    2    0    0  0.00000000000E+00  0.00000000000E+00  0.14398540797E+04  0.41700577260E+04  0.39135919138E+04 0.  0.
        1    1    3    3  502    0 -0.30613453614E+03  0.10287931766E+04 -0.10234204245E+04  0.14830789324E+04  0.50400001928E-02 0.  1.
       -1    1    3    3    0  502  0.30613453614E+03 -0.10287931766E+04  0.24632745042E+04  0.26869787936E+04  0.50400001928E-02 0. -1.
</event>
<event>
 5   0  0.7731706E-08  0.3974980E+04  0.7818609E-02  0.8009613E-01
        1   -1    0    0  501    0  0.00000000000E+00  0.00000000000E+00  0.25515936145E+04  0.25515936145E+04  0.50400001928E-02 0. -1.
       -1   -1    0    0    0  501  0.00000000000E+00  0.00000000000E+00 -0.15480981450E+04  0.15480981450E+04  0.50400001928E-02 0.  1.
    10030    2    1    2    0    0  0.00000000000E+00  0.00000000000E+00  0.10034954695E+04  0.40996917595E+04  0.39749804233E+04 0.  0.
        3    1    3    3  502    0  0.90250975938E+03 -0.66748054391E+03 -0.11898513896E+04  0.16357874195E+04  0.10100000352E+00 0.  1.
       -3    1    3    3    0  502 -0.90250975938E+03  0.66748054391E+03  0.21933468591E+04  0.24639043400E+04  0.10100000352E+00 0. -1.
</event>
<event>
 5   0  0.2384787E-07  0.3904300E+04  0.7818609E-02  0.8024135E-01
       -2   -1    0    0    0  501  0.00000000000E+00  0.00000000000E+00  0.24758527863E+04  0.24758527863E+04  0.25500000920E-02 0. -1.
        2   -1    0    0  501    0  0.00000000000E+00  0.00000000000E+00 -0.15392232974E+04  0.15392232974E+04  0.25500000920E-02 0.  1.
    10030    2    1    2    0    0  0.00000000000E+00  0.00000000000E+00  0.93662948889E+03  0.40150760838E+04  0.39043003418E+04 0.  0.
        4    1    3    3  502    0  0.15121448195E+04 -0.11337560934E+04 -0.34331136754E+02  0.18902817446E+04  0.12699999809E+01 0.  1.
       -4    1    3    3    0  502 -0.15121448195E+04  0.11337560934E+04  0.97096062565E+03  0.21247943392E+04  0.12699999809E+01 0. -1.
</event>
<event>
 5   0  0.2384787E-07  0.3863032E+04  0.7818609E-02  0.8032762E-01
        2   -1    0    0  501    0  0.00000000000E+00  0.00000000000E+00  0.20885969041E+04  0.20885969041E+04  0.25500000920E-02 0.  1.
       -2   -1    0    0    0  501  0.00000000000E+00  0.00000000000E+00 -0.17862487003E+04  0.17862487003E+04  0.25500000920E-02 0. -1.
    10030    2    1    2    0    0  0.00000000000E+00  0.00000000000E+00  0.30234820374E+03  0.38748456044E+04  0.38630317138E+04 0.  0.
        4    1    3    3  502    0 -0.68639121576E+03 -0.14602127088E+04  0.12162111798E+04  0.20205259966E+04  0.12699999809E+01 0.  1.
       -4    1    3    3    0  502  0.68639121576E+03  0.14602127088E+04 -0.91386297608E+03  0.18543196078E+04  0.12699999809E+01 0. -1.
</event>
<event>
 5   0  0.2486268E-07  0.3911737E+04  0.7818609E-02  0.8022592E-01
        2   -1    0    0  501    0  0.00000000000E+00  0.00000000000E+00  0.14561047608E+04  0.14561047608E+04  0.25500000920E-02 0.  1.
       -2   -1    0    0    0  501  0.00000000000E+00  0.00000000000E+00 -0.26271613914E+04  0.26271613914E+04  0.25500000920E-02 0. -1.
    10030    2    1    2    0    0  0.00000000000E+00  0.00000000000E+00 -0.11710566306E+04  0.40832661522E+04  0.39117373170E+04 0.  0.
        5    1    3    3  502    0 -0.16972199397E+04  0.96129769504E+03 -0.73589826263E+03  0.20847582894E+04  0.46999998093E+01 0.  1.
       -5    1    3    3    0  502  0.16972199397E+04 -0.96129769504E+03 -0.43515836801E+03  0.19985078628E+04  0.46999998093E+01 0. -1.
</event>
<event>
 5   0  0.2473224E-07  0.3842418E+04  0.7818609E-02  0.8037113E-01
        2   -1    0    0  501    0  0.00000000000E+00  0.00000000000E+00  0.18006704699E+04  0.18006704699E+04  0.25500000920E-02 0. -1.
       -2   -1    0    0    0  501  0.00000000000E+00  0.00000000000E+00 -0.20498162332E+04  0.20498162332E+04  0.25500000920E-02 0.  1.
    10030    2    1    2    0    0  0.00000000000E+00  0.00000000000E+00 -0.24914576329E+03  0.38504867032E+04  0.38424177597E+04 0.  0.
        2    1    3    3  502    0 -0.41793144649E+03  0.81014814789E+03 -0.18192886137E+04  0.20348999423E+04  0.25500000920E-02 0.  1.
       -2    1    3    3    0  502  0.41793144649E+03 -0.81014814789E+03  0.15701428504E+04  0.18155867608E+04  0.25500000920E-02 0. -1.
</event>
<event>
 5   0  0.2395572E-07  0.3903085E+04  0.7818609E-02  0.8024388E-01
        2   -1    0    0  501    0  0.00000000000E+00  0.00000000000E+00  0.12901719459E+04  0.12901719459E+04  0.25500000920E-02 0.  1.
       -2   -1    0    0    0  501  0.00000000000E+00  0.00000000000E+00 -0.29519467406E+04  0.29519467406E+04  0.25500000920E-02 0. -1.
    10030    2    1    2    0    0  0.00000000000E+00  0.00000000000E+00 -0.16617747947E+04  0.42421186865E+04  0.39030853797E+04 0.  0.
        3    1    3    3  502    0 -0.15430998870E+04  0.27502937008E+01 -0.21293834001E+04  0.26297221337E+04  0.10100000352E+00 0. -1.
       -3    1    3    3    0  502  0.15430998870E+04 -0.27502937008E+01  0.46760860541E+03  0.16123965528E+04  0.10100000352E+00 0.  1.
</event>
<event>
 5   0  0.2395572E-07  0.3519938E+04  0.7818609E-02  0.8109081E-01
        2   -1    0    0  501    0  0.00000000000E+00  0.00000000000E+00  0.18836984829E+04  0.18836984829E+04  0.25500000920E-02 0. -1.
       -2   -1    0    0    0  501  0.00000000000E+00  0.00000000000E+00 -0.16443665830E+04  0.16443665830E+04  0.25500000920E-02 0.  1.
    10030    2    1    2    0    0  0.00000000000E+00  0.00000000000E+00  0.23933189986E+03  0.35280650660E+04  0.35199379755E+04 0.  0.
        3    1    3    3  502    0 -0.40627810420E+03  0.11384667375E+03  0.18322560323E+04  0.18802088025E+04  0.10100000352E+00 0. -1.
       -3    1    3    3    0  502  0.40627810420E+03 -0.11384667375E+03 -0.15929241324E+04  0.16478562634E+04  0.10100000352E+00 0.  1.
</event>
<event>
 5   0  0.2473224E-07  0.3916390E+04  0.7818609E-02  0.8021629E-01
        2   -1    0    0  501    0  0.00000000000E+00  0.00000000000E+00  0.19554061239E+04  0.19554061239E+04  0.25500000920E-02 0. -1.
       -2   -1    0    0    0  501  0.00000000000E+00  0.00000000000E+00 -0.19609875102E+04  0.19609875102E+04  0.25500000920E-02 0.  1.
    10030    2    1    2    0    0  0.00000000000E+00  0.00000000000E+00 -0.55813863328E+01  0.39163936341E+04  0.39163896570E+04 0.  0.
        2    1    3    3  502    0 -0.14150865203E+04  0.11883634592E+02  0.13506935610E+04  0.19562679204E+04  0.25500000920E-02 0. -1.
       -2    1    3    3    0  502  0.14150865203E+04 -0.11883634592E+02 -0.13562749473E+04  0.19601257137E+04  0.25500000920E-02 0.  1.
</event>
<event>
 5   0  0.2486268E-07  0.3868377E+04  0.7818609E-02  0.8031638E-01
        2   -1    0    0  501    0  0.00000000000E+00  0.00000000000E+00  0.20180072079E+04  0.20180072079E+04  0.25500000920E-02 0. -1.
       -2   -1    0    0    0  501  0.00000000000E+00  0.00000000000E+00 -0.18538515968E+04  0.18538515968E+04  0.25500000920E-02 0.  1.
    10030    2    1    2    0    0  0.00000000000E+00  0.00000000000E+00  0.16415561107E+03  0.38718588047E+04  0.38683773781E+04 0.  0.
        5    1    3    3  502    0 -0.14765937947E+03  0.71205794641E+03 -0.17118058079E+04  0.18598739273E+04  0.46999998093E+01 0.  1.
       -5    1    3    3    0  502  0.14765937947E+03 -0.71205794641E+03  0.18759614190E+04  0.20119848774E+04  0.46999998093E+01 0. -1.
</event>
<event>
 5   0  0.2395572E-07  0.4006899E+04  0.7818609E-02  0.8003156E-01
        2   -1    0    0  501    0  0.00000000000E+00  0.00000000000E+00  0.25061691771E+04  0.25061691771E+04  0.25500000920E-02 0.  1.
       -2   -1    0    0    0  501  0.00000000000E+00  0.00000000000E+00 -0.16015717395E+04  0.16015717395E+04  0.25500000920E-02 0. -1.
    10030    2    1    2    0    0  0.00000000000E+00  0.00000000000E+00  0.90459743755E+03  0.41077409166E+04  0.40068989148E+04 0.  0.
        3    1    3    3  502    0 -0.13291156117E+04  0.11678295352E+04 -0.51126868995E+03  0.18416758174E+04  0.10100000352E+00 0. -1.
       -3    1    3    3    0  502  0.13291156117E+04 -0.11678295352E+04  0.14158661275E+04  0.22660650992E+04  0.10100000352E+00 0.  1.
</event>
<event>
 5   0  0.7675750E-08  0.3867921E+04  0.7818609E-02  0.8031734E-01
       -1   -1    0    0    0  501  0.00000000000E+00  0.00000000000E+00  0.20560640327E+04  0.20560640327E+04  0.50400001928E-02 0.  1.
        1   -1    0    0  501    0  0.00000000000E+00  0.00000000000E+00 -0.18191086203E+04  0.18191086203E+04  0.50400001928E-02 0. -1.
    10030    2    1    2    0    0  0.00000000000E+00  0.00000000000E+00  0.23695541244E+03  0.38751726530E+04  0.38679213051E+04 0.  0.
        1    1    3    3  502    0  0.54507982829E+03 -0.40602393520E+03  0.19324621482E+04  0.20485061409E+04  0.50400001928E-02 0.  1.
       -1    1    3    3    0  502 -0.54507982829E+03  0.40602393520E+03 -0.16955067358E+04  0.18266665120E+04  0.50400001928E-02 0. -1.
</event>
<event>
 5   0  0.2446281E-07  0.3860978E+04  0.7818609E-02  0.8033194E-01
       -2   -1    0    0    0  501  0.00000000000E+00  0.00000000000E+00  0.20855937082E+04  0.20855937082E+04  0.25500000920E-02 0.  1.
        2   -1    0    0  501    0  0.00000000000E+00  0.00000000000E+00 -0.17869191584E+04  0.17869191584E+04  0.25500000920E-02 0. -1.
    10030    2    1    2    0    0  0.00000000000E+00  0.00000000000E+00  0.29867454988E+03  0.38725128666E+04  0.38609777797E+04 0.  0.
        1    1    3    3  502    0  0.83589938802E+03  0.15249729920E+04 -0.69132966332E+03  0.18714184772E+04  0.50400001928E-02 0.  1.
       -1    1    3    3    0  502 -0.83589938802E+03 -0.15249729920E+04  0.99000421321E+03  0.20010943894E+04  0.50400001928E-02 0. -1.
</event>
<event>
 5   0  0.2473224E-07  0.3888739E+04  0.7818609E-02  0.8027375E-01
        2   -1    0    0  501    0  0.00000000000E+00  0.00000000000E+00  0.21674318623E+04  0.21674318623E+04  0.25500000920E-02 0. -1.
       -2   -1    0    0    0  501  0.00000000000E+00  0.00000000000E+00 -0.17442638587E+04  0.17442638587E+04  0.25500000920E-02 0.  1.
    10030    2    1    2    0    0  0.00000000000E+00  0.00000000000E+00  0.42316800358E+03  0.39116957211E+04  0.38887391601E+04 0.  0.
        2    1    3    3  502    0  0.43674749142E+03 -0.68700474740E+03 -0.15645830204E+04  0.17637017668E+04  0.25500000920E-02 0.  1.
       -2    1    3    3    0  502 -0.43674749142E+03  0.68700474740E+03  0.19877510240E+04  0.21479939543E+04  0.25500000920E-02 0. -1.
</event>
<event>
 5   0  0.7675750E-08  0.3884928E+04  0.7818609E-02  0.8028171E-01
       -1   -1    0    0    0  501  0.00000000000E+00  0.00000000000E+00  0.12557164530E+04  0.12557164530E+04  0.50400001928E-02 0. -1.
        1   -1    0    0  501    0  0.00000000000E+00  0.00000000000E+00 -0.30047912600E+04  0.30047912600E+04  0.50400001928E-02 0.  1.
    10030    2    1    2    0    0  0.00000000000E+00  0.00000000000E+00 -0.17490748071E+04  0.42605077130E+04  0.38849277074E+04 0.  0.
        2    1    3    3  502    0  0.65366420777E+01 -0.80423499605E+03 -0.28136175748E+04  0.29263083422E+04  0.25500000920E-02 0.  1.
       -2    1    3    3    0  502 -0.65366420777E+01  0.80423499605E+03  0.10645427677E+04  0.13341993708E+04  0.25500000920E-02 0. -1.
</event>
<event>
 5   0  0.2486268E-07  0.3952135E+04  0.7818609E-02  0.8014273E-01
        2   -1    0    0  501    0  0.00000000000E+00  0.00000000000E+00  0.25617550852E+04  0.25617550852E+04  0.25500000920E-02 0. -1.
       -2   -1    0    0    0  501  0.00000000000E+00  0.00000000000E+00 -0.15242843386E+04  0.15242843386E+04  0.25500000920E-02 0.  1.
    10030    2    1    2    0    0  0.00000000000E+00  0.00000000000E+00  0.10374707466E+04  0.40860394239E+04  0.39521351980E+04 0.  0.
        5    1    3    3  502    0 -0.18409482702E+03 -0.15380542805E+04  0.17872195638E+04  0.23650957136E+04  0.46999998093E+01 0. -1.
       -5    1    3    3    0  502  0.18409482702E+03  0.15380542805E+04 -0.74974881723E+03  0.17209437103E+04  0.46999998093E+01 0.  1.
</event>
<event>
 5   0  0.7731706E-08  0.3915139E+04  0.7818609E-02  0.8021888E-01
       -1   -1    0    0    0  501  0.00000000000E+00  0.00000000000E+00  0.24560691990E+04  0.24560691990E+04  0.50400001928E-02 0. -1.
        1   -1    0    0  501    0  0.00000000000E+00  0.00000000000E+00 -0.15602488610E+04  0.15602488610E+04  0.50400001928E-02 0.  1.
    10030    2    1    2    0    0  0.00000000000E+00  0.00000000000E+00  0.89582033800E+03  0.40163180600E+04  0.39151394204E+04 0.  0.
        3    1    3    3  502    0  0.11679157143E+04  0.83699119242E+02 -0.11614037810E+04  0.16492093290E+04  0.10100000352E+00 0.  1.
       -3    1    3    3    0  502 -0.11679157143E+04 -0.83699119242E+02  0.20572241190E+04  0.23671087310E+04  0.10100000352E+00 0. -1.
</event>
<event>
 5   0  0.7675750E-08  0.3911501E+04  0.7818609E-02  0.8022642E-01
        1   -1    0    0  501    0  0.00000000000E+00  0.00000000000E+00  0.13968143853E+04  0.13968143853E+04  0.50400001928E-02 0. -1.
       -1   -1    0    0    0  501  0.00000000000E+00  0.00000000000E+00 -0.27383447929E+04  0.27383447929E+04  0.50400001928E-02 0.  1.
    10030    2    1    2    0    0  0.00000000000E+00  0.00000000000E+00 -0.13415304077E+04  0.41351591782E+04  0.39115006832E+04 0.  0.
        5    1    3    3  502    0 -0.92591447929E+03 -0.83822127562E+03  0.92028316536E+03  0.15514108818E+04  0.46999998093E+01 0. -1.
       -5    1    3    3    0  502  0.92591447929E+03  0.83822127562E+03 -0.22618135730E+04  0.25837482964E+04  0.46999998093E+01 0.  1.
</event>
<event>
 5   0  0.7675750E-08  0.3891610E+04  0.7818609E-02  0.8026776E-01
       -1   -1    0    0    0  501  0.00000000000E+00  0.00000000000E+00  0.18161196398E+04  0.18161196398E+04  0.50400001928E-02 0. -1.
        1   -1    0    0  501    0  0.00000000000E+00  0.00000000000E+00 -0.20847513416E+04  0.20847513416E+04  0.50400001928E-02 0.  1.
    10030    2    1    2    0    0  0.00000000000E+00  0.00000000000E+00 -0.26863170183E+03  0.39008709814E+04  0.38916103893E+04 0.  0.
        4    1    3    3  502    0 -0.12918831596E+04 -0.91806503157E+03 -0.12658735934E+04  0.20283596988E+04  0.12699999809E+01 0.  1.
       -4    1    3    3    0  502  0.12918831596E+04  0.91806503157E+03  0.99724189156E+03  0.18725112826E+04  0.12699999809E+01 0. -1.
</event>
<event>
 5   0  0.2384787E-07  0.3990048E+04  0.7818609E-02  0.8006557E-01
       -2   -1    0    0    0  501  0.00000000000E+00  0.00000000000E+00  0.20794614532E+04  0.20794614532E+04  0.25500000920E-02 0.  1.
        2   -1    0    0  501    0  0.00000000000E+00  0.00000000000E+00 -0.19140151515E+04  0.19140151515E+04  0.25500000920E-02 0. -1.
    10030    2    1    2    0    0  0.00000000000E+00  0.00000000000E+00  0.16544630170E+03  0.39934766048E+04  0.39900479840E+04 0.  0.
        4    1    3    3  502    0 -0.30022598297E+03  0.13715573655E+04 -0.13358210576E+04  0.19379692357E+04  0.12699999809E+01 0. -1.
       -4    1    3    3    0  502  0.30022598297E+03 -0.13715573655E+04  0.15012673593E+04  0.20555073691E+04  0.12699999809E+01 0.  1.
</event>
<event>
 5   0  0.2473224E-07  0.3876502E+04  0.7818609E-02  0.8029934E-01
       -2   -1    0    0    0  501  0.00000000000E+00  0.00000000000E+00  0.14443758819E+04  0.14443758819E+04  0.25500000920E-02 0.  1.
        2   -1    0    0  501    0  0.00000000000E+00  0.00000000000E+00 -0.26009972377E+04  0.26009972377E+04  0.25500000920E-02 0. -1.
    10030    2    1    2    0    0  0.00000000000E+00  0.00000000000E+00 -0.11566213559E+04  0.40453731196E+04  0.38765023818E+04 0.  0.
        2    1    3    3  502    0 -0.16753986366E+04  0.60644327734E+03  0.21786925133E+03  0.17950490386E+04  0.25500000920E-02 0.  1.
       -2    1    3    3    0  502  0.16753986366E+04 -0.60644327734E+03 -0.13744906072E+04  0.22503240810E+04  0.25500000920E-02 0. -1.
</event>
<event>
 5   0  0.2384787E-07  0.3908614E+04  0.7818609E-02  0.8023240E-01
        2   -1    0    0  501    0  0.00000000000E+00  0.00000000000E+00  0.28702296579E+04  0.28702296579E+04  0.25500000920E-02 0. -1.
       -2   -1    0    0    0  501  0.00000000000E+00  0.00000000000E+00 -0.13306656787E+04  0.13306656787E+04  0.25500000920E-02 0.  1.
    10030    2    1    2    0    0  0.00000000000E+00  0.00000000000E+00  0.15395639792E+04  0.42008953366E+04  0.39086141256E+04 0.  0.
        4    1    3    3  502    0  0.87019819326E+03 -0.14242706129E+04 -0.32286304599E+03  0.17000099510E+04  0.12699999809E+01 0.  1.
       -4    1    3    3    0  502 -0.87019819326E+03  0.14242706129E+04  0.18624270252E+04  0.25008853855E+04  0.12699999809E+01 0. -1.
</event>
<event>
 5   0  0.2446281E-07  0.3952729E+04  0.7818609E-02  0.8014151E-01
        2   -1    0    0  501    0  0.00000000000E+00  0.00000000000E+00  0.16042956163E+04  0.16042956163E+04  0.25500000920E-02 0.  1.
       -2   -1    0    0    0  501  0.00000000000E+00  0.00000000000E+00 -0.24347241481E+04  0.24347241481E+04  0.25500000920E-02 0. -1.
    10030    2    1    2    0    0  0.00000000000E+00  0.00000000000E+00 -0.83042853182E+03  0.40390197644E+04  0.39527293243E+04 0.  0.
        1    1    3    3  502    0 -0.10148097594E+04 -0.13083433139E+04 -0.15178524368E+04  0.22462139467E+04  0.50400001928E-02 0. -1.
       -1    1    3    3    0  502  0.10148097594E+04  0.13083433139E+04  0.68742390494E+03  0.17928058177E+04  0.50400001928E-02 0.  1.
</event>
<event>
 5   0  0.2395572E-07  0.3646132E+04  0.7818609E-02  0.8080006E-01
        2   -1    0    0  501    0  0.00000000000E+00  0.00000000000E+00  0.18067932309E+04  0.18067932310E+04  0.25500000920E-02 0. -1.
       -2   -1    0    0    0  501  0.00000000000E+00  0.00000000000E+00 -0.18394854393E+04  0.18394854393E+04  0.25500000920E-02 0.  1.
    10030    2    1    2    0    0  0.00000000000E+00  0.00000000000E+00 -0.32692208363E+02  0.36462786703E+04  0.36461321096E+04 0.  0.
        3    1    3    3  502    0  0.63149916027E+03 -0.16444046790E+04  0.45347262275E+03  0.18189269825E+04  0.10100000352E+00 0. -1.
       -3    1    3    3    0  502 -0.63149916027E+03  0.16444046790E+04 -0.48616483112E+03  0.18273516878E+04  0.10100000352E+00 0.  1.
</event>
<event>
 5   0  0.7675750E-08  0.3893072E+04  0.7818609E-02  0.8026472E-01
        1   -1    0    0  501    0  0.00000000000E+00  0.00000000000E+00  0.15676153825E+04  0.15676153825E+04  0.50400001928E-02 0. -1.
       -1   -1    0    0    0  501  0.00000000000E+00  0.00000000000E+00 -0.24170479649E+04  0.24170479649E+04  0.50400001928E-02 0.  1.
    10030    2    1    2    0    0  0.00000000000E+00  0.00000000000E+00 -0.84943258242E+03  0.39846633474E+04  0.38930715740E+04 0.  0.
        1    1    3    3  502    0 -0.21792925909E+03  0.15956809432E+04 -0.15437409501E+04  0.22308803095E+04  0.50400001928E-02 0.  1.
       -1    1    3    3    0  502  0.21792925909E+03 -0.15956809432E+04  0.69430836769E+03  0.17537830379E+04  0.50400001928E-02 0. -1.
</event>
<event>
 5   0  0.2473224E-07  0.3954230E+04  0.7818609E-02  0.8013844E-01
       -2   -1    0    0    0  501  0.00000000000E+00  0.00000000000E+00  0.22664263267E+04  0.22664263267E+04  0.25500000920E-02 0.  1.
        2   -1    0    0  501    0  0.00000000000E+00  0.00000000000E+00 -0.17247341393E+04  0.17247341393E+04  0.25500000920E-02 0. -1.
    10030    2    1    2    0    0  0.00000000000E+00  0.00000000000E+00  0.54169218738E+03  0.39911604659E+04  0.39542295633E+04 0.  0.
        2    1    3    3  502    0  0.60521016319E+03 -0.12418027678E+04  0.16984924265E+04  0.21893446460E+04  0.25500000920E-02 0.  1.
       -2    1    3    3    0  502 -0.60521016319E+03  0.12418027678E+04 -0.11568002391E+04  0.18018158200E+04  0.25500000920E-02 0. -1.
</event>
<event>
 5   0  0.7675750E-08  0.3893314E+04  0.7818609E-02  0.8026421E-01
        1   -1    0    0  501    0  0.00000000000E+00  0.00000000000E+00  0.23053386287E+04  0.23053386287E+04  0.50400001928E-02 0.  1.
       -1   -1    0    0    0  501  0.00000000000E+00  0.00000000000E+00 -0.16437814242E+04  0.16437814242E+04  0.50400001928E-02 0. -1.
    10030    2    1    2    0    0  0.00000000000E+00  0.00000000000E+00  0.66155720453E+03  0.39491200530E+04  0.38933136604E+04 0.  0.
        4    1    3    3  502    0 -0.32894620505E+03 -0.70389956009E+03 -0.14796841063E+04  0.16712710324E+04  0.12699999809E+01 0. -1.
       -4    1    3    3    0  502  0.32894620505E+03  0.70389956009E+03  0.21412413108E+04  0.22778490206E+04  0.12699999809E+01 0.  1.
</event>
<event>
 5   0  0.2384787E-07  0.3934715E+04  0.7818609E-02  0.8017848E-01
       -2   -1    0    0    0  501  0.00000000000E+00  0.00000000000E+00  0.16013292017E+04  0.16013292017E+04  0.25500000920E-02 0.  1.
        2   -1    0    0  501    0  0.00000000000E+00  0.00000000000E+00 -0.24170512490E+04  0.24170512490E+04  0.25500000920E-02 0. -1.
    10030    2    1    2    0    0  0.00000000000E+00  0.00000000000E+00 -0.81572204730E+03  0.40183804508E+04  0.39347146007E+04 0.  0.
        4    1    3    3  502    0  0.36342393518E+03  0.90409502157E+03  0.13375821053E+04  0.16548692595E+04  0.12699999809E+01 0.  1.
       -4    1    3    3    0  502 -0.36342393518E+03 -0.90409502157E+03 -0.21533041526E+04  0.23635111913E+04  0.12699999809E+01 0. -1.
</event>
<event>
 5   0  0.2384787E-07  0.3842501E+04  0.7818609E-02  0.8037095E-01
       -2   -1    0    0    0  501  0.00000000000E+00  0.00000000000E+00  0.18010947571E+04  0.18010947571E+04  0.25500000920E-02 0.  1.
        2   -1    0    0  501    0  0.00000000000E+00  0.00000000000E+00 -0.20494219001E+04  0.20494219001E+04  0.25500000920E-02 0. -1.
    10030    2    1    2    0    0  0.00000000000E+00  0.00000000000E+00 -0.24832714295E+03  0.38505166572E+04  0.38425007687E+04 0.  0.
        4    1    3    3  502    0  0.14370538175E+02 -0.29596200288E+03 -0.20263862948E+04  0.20479362901E+04  0.12699999809E+01 0. -1.
       -4    1    3    3    0  502 -0.14370538175E+02  0.29596200288E+03  0.17780591518E+04  0.18025803671E+04  0.12699999809E+01 0.  1.
</event>
<event>
 5   0  0.7675750E-08  0.3934237E+04  0.7818609E-02  0.8017946E-01
       -1   -1    0    0    0  501  0.00000000000E+00  0.00000000000E+00  0.16869766757E+04  0.16869766757E+04  0.50400001928E-02 0.  1.
        1   -1    0    0  501    0  0.00000000000E+00  0.00000000000E+00 -0.22937806813E+04  0.22937806813E+04  0.50400001928E-02 0. -1.
    10030    2    1    2    0    0  0.00000000000E+00  0.00000000000E+00 -0.60680400565E+03  0.39807573570E+04  0.39342366520E+04 0.  0.
        1    1    3    3  502    0 -0.12937878977E+04 -0.13081007590E+04 -0.10077218864E+04  0.20977411948E+04  0.50400001928E-02 0. -1.
       -1    1    3    3    0  502  0.12937878977E+04  0.13081007590E+04  0.40091788071E+03  0.18830161622E+04  0.50400001928E-02 0.  1.
</event>
<event>
 5   0  0.7675750E-08  0.3795835E+04  0.7818609E-02  0.8047049E-01
        1   -1    0    0  501    0  0.00000000000E+00  0.00000000000E+00  0.17317354243E+04  0.17317354243E+04  0.50400001928E-02 0. -1.
       -1   -1    0    0    0  501  0.00000000000E+00  0.00000000000E+00 -0.20800466075E+04  0.20800466075E+04  0.50400001928E-02 0.  1.
    10030    2    1    2    0    0  0.00000000000E+00  0.00000000000E+00 -0.34831118319E+03  0.38117820318E+04  0.37958347669E+04 0.  0.
        5    1    3    3  502    0  0.15184073759E+04 -0.55320143606E+03 -0.11735631544E+04  0.19972143990E+04  0.46999998093E+01 0.  1.
       -5    1    3    3    0  502 -0.15184073759E+04  0.55320143606E+03  0.82525197124E+03  0.18145676328E+04  0.46999998093E+01 0. -1.
</event>
<event>
 5   0  0.2395572E-07  0.3858071E+04  0.7818609E-02  0.8033807E-01
       -2   -1    0    0    0  501  0.00000000000E+00  0.00000000000E+00  0.16481782661E+04  0.16481782661E+04  0.25500000920E-02 0.  1.
        2   -1    0    0  501    0  0.00000000000E+00  0.00000000000E+00 -0.22577521238E+04  0.22577521238E+04  0.25500000920E-02 0. -1.
    10030    2    1    2    0    0  0.00000000000E+00  0.00000000000E+00 -0.60957385771E+03  0.39059303900E+04  0.38580710107E+04 0.  0.
        3    1    3    3  502    0 -0.38256726866E+03  0.77789349898E+03 -0.20494465714E+04  0.22252431934E+04  0.10100000352E+00 0. -1.
       -3    1    3    3    0  502  0.38256726866E+03 -0.77789349898E+03  0.14398727137E+04  0.16806871965E+04  0.10100000352E+00 0.  1.
</event>
<event>
 5   0  0.7675750E-08  0.3900744E+04  0.7818609E-02  0.8024875E-01
       -3   -1    0    0    0  501  0.00000000000E+00  0.00000000000E+00  0.14434458723E+04  0.14434458758E+04  0.10100000352E+00 0. -1.
        3   -1    0    0  501    0  0.00000000000E+00  0.00000000000E+00 -0.26353262264E+04  0.26353262284E+04  0.10100000352E+00 0.  1.
    10030    2    1    2    0    0  0.00000000000E+00  0.00000000000E+00 -0.11918803542E+04  0.40787721041E+04  0.39007439161E+04 0.  0.
        2    1    3    3  502    0  0.17059353804E+04 -0.93009625102E+03 -0.41893277623E+03  0.19876617492E+04  0.25500000920E-02 0. -1.
       -2    1    3    3    0  502 -0.17059353804E+04  0.93009625102E+03 -0.77294757793E+03  0.20911103549E+04  0.25500000920E-02 0.  1.
</event>
<event>
 5   0  0.7675750E-08  0.3912312E+04  0.7818609E-02  0.8022473E-01
        1   -1    0    0  501    0  0.00000000000E+00  0.00000000000E+00  0.20828985010E+04  0.20828985010E+04  0.50400001928E-02 0.  1.
       -1   -1    0    0    0  501  0.00000000000E+00  0.00000000000E+00 -0.18371259701E+04  0.18371259701E+04  0.50400001928E-02 0. -1.
    10030    2    1    2    0    0  0.00000000000E+00  0.00000000000E+00  0.24577253093E+03  0.39200244710E+04  0.39123123235E+04 0.  0.
        4    1    3    3  502    0  0.95081601709E+03  0.16968689043E+04  0.33097362181E+03  0.19730586225E+04  0.12699999809E+01 0. -1.
       -4    1    3    3    0  502 -0.95081601709E+03 -0.16968689043E+04 -0.85201090878E+02  0.19469658485E+04  0.12699999809E+01 0.  1.
</event>
<event>
 5   0  0.2384787E-07  0.4019620E+04  0.7818609E-02  0.8000600E-01
        2   -1    0    0  501    0  0.00000000000E+00  0.00000000000E+00  0.24268339703E+04  0.24268339703E+04  0.25500000920E-02 0.  1.
       -2   -1    0    0    0  501  0.00000000000E+00  0.00000000000E+00 -0.16644467647E+04  0.16644467647E+04  0.25500000920E-02 0. -1.
    10030    2    1    2    0    0  0.00000000000E+00  0.00000000000E+00  0.76238720561E+03  0.40912807351E+04  0.40196198579E+04 0.  0.
        4    1    3    3  502    0 -0.16888483394E+04 -0.84885601211E+03 -0.31404244454E+03  0.19160870316E+04  0.12699999809E+01 0. -1.
       -4    1    3    3    0  502  0.16888483394E+04  0.84885601211E+03  0.10764296501E+04  0.21751937034E+04  0.12699999809E+01 0.  1.
</event>
<event>
 5   0  0.2446281E-07  0.3852382E+04  0.7818609E-02  0.8035006E-01
       -2   -1    0    0    0  501  0.00000000000E+00  0.00000000000E+00  0.17291823203E+04  0.17291823203E+04  0.25500000920E-02 0.  1.
        2   -1    0    0  501    0  0.00000000000E+00  0.00000000000E+00 -0.21456454221E+04  0.21456454221E+04  0.25500000920E-02 0. -1.
    10030    2    1    2    0    0  0.00000000000E+00  0.00000000000E+00 -0.41646310179E+03  0.38748277424E+04  0.38523821875E+04 0.  0.
        1    1    3    3  502    0 -0.93489429365E+03 -0.62311739370E+03  0.13654639873E+04  0.17682744491E+04  0.50400001928E-02 0.  1.
       -1    1    3    3    0  502  0.93489429365E+03  0.62311739370E+03 -0.17819270891E+04  0.21065532933E+04  0.50400001928E-02 0. -1.
</event>
<event>
 5   0  0.7675750E-08  0.3730793E+04  0.7818609E-02  0.8061172E-01
       -1   -1    0    0    0  501  0.00000000000E+00  0.00000000000E+00  0.18357768962E+04  0.18357768962E+04  0.50400001928E-02 0.  1.
        1   -1    0    0  501    0  0.00000000000E+00  0.00000000000E+00 -0.18954938325E+04  0.18954938325E+04  0.50400001928E-02 0. -1.
    10030    2    1    2    0    0  0.00000000000E+00  0.00000000000E+00 -0.59716936266E+02  0.37312707287E+04  0.37307928297E+04 0.  0.
        2    1    3    3  502    0 -0.27387598924E+03  0.81255778152E+03  0.16269905678E+04  0.18391184066E+04  0.25500000920E-02 0.  1.
       -2    1    3    3    0  502  0.27387598924E+03 -0.81255778152E+03 -0.16867075040E+04  0.18921523221E+04  0.25500000920E-02 0. -1.
</event>
<event>
 5   0  0.2473224E-07  0.3953239E+04  0.7818609E-02  0.8014047E-01
       -2   -1    0    0    0  501  0.00000000000E+00  0.00000000000E+00  0.16281432374E+04  0.16281432374E+04  0.25500000920E-02 0.  1.
        2   -1    0    0  501    0  0.00000000000E+00  0.00000000000E+00 -0.23996816832E+04  0.23996816832E+04  0.25500000920E-02 0. -1.
    10030    2    1    2    0    0  0.00000000000E+00  0.00000000000E+00 -0.77153844578E+03  0.40278249206E+04  0.39532394334E+04 0.  0.
        2    1    3    3  502    0  0.16018894050E+04 -0.26525912958E+03  0.76271276138E+03  0.17939182891E+04  0.25500000920E-02 0.  1.
       -2    1    3    3    0  502 -0.16018894050E+04  0.26525912958E+03 -0.15342512072E+04  0.22339066315E+04  0.25500000920E-02 0. -1.
</event>
<event>
 5   0  0.2446281E-07  0.3939125E+04  0.7818609E-02  0.8016941E-01
       -2   -1    0    0    0  501  0.00000000000E+00  0.00000000000E+00  0.14682100718E+04  0.14682100718E+04  0.25500000920E-02 0.  1.
        2   -1    0    0  501    0  0.00000000000E+00  0.00000000000E+00 -0.26421123809E+04  0.26421123809E+04  0.25500000920E-02 0. -1.
    10030    2    1    2    0    0  0.00000000000E+00  0.00000000000E+00 -0.11739023092E+04  0.41103224527E+04  0.39391247802E+04 0.  0.
        1    1    3    3  502    0  0.86153752122E+03  0.32055990105E+03 -0.24045420682E+04  0.25742626339E+04  0.50400001928E-02 0. -1.
       -1    1    3    3    0  502 -0.86153752122E+03 -0.32055990105E+03  0.12306397590E+04  0.15360598188E+04  0.50400001928E-02 0.  1.
</event>
<event>
 5   0  0.2395572E-07  0.3813653E+04  0.7818609E-02  0.8043231E-01
       -2   -1    0    0    0  501  0.00000000000E+00  0.00000000000E+00  0.17512069394E+04  0.17512069394E+04  0.25500000920E-02 0. -1.
        2   -1    0    0  501    0  0.00000000000E+00  0.00000000000E+00 -0.20762745729E+04  0.20762745729E+04  0.25500000920E-02 0.  1.
    10030    2    1    2    0    0  0.00000000000E+00  0.00000000000E+00 -0.32506763342E+03  0.38274815123E+04  0.38136525485E+04 0.  0.
        3    1    3    3  502    0 -0.92737942301E+03  0.40548396435E+02  0.15091319383E+04  0.17717663458E+04  0.10100000352E+00 0. -1.
       -3    1    3    3    0  502  0.92737942301E+03 -0.40548396435E+02 -0.18341995717E+04  0.20557151665E+04  0.10100000352E+00 0.  1.
</event>
<event>
 5   0  0.2473224E-07  0.3944556E+04  0.7818609E-02  0.8015826E-01
        2   -1    0    0  501    0  0.00000000000E+00  0.00000000000E+00  0.12476760157E+04  0.12476760157E+04  0.25500000920E-02 0. -1.
       -2   -1    0    0    0  501  0.00000000000E+00  0.00000000000E+00 -0.31177001894E+04  0.31177001894E+04  0.25500000920E-02 0.  1.
    10030    2    1    2    0    0  0.00000000000E+00  0.00000000000E+00 -0.18700241737E+04  0.43653762051E+04  0.39445556152E+04 0.  0.
        2    1    3    3  502    0 -0.12879957253E+04  0.11526351043E+04 -0.19862913600E+04  0.26330313403E+04  0.25500000920E-02 0.  1.
       -2    1    3    3    0  502  0.12879957253E+04 -0.11526351043E+04  0.11626718631E+03  0.17323448648E+04  0.25500000920E-02 0. -1.
</event>
<event>
 5   0  0.7675750E-08  0.3724634E+04  0.7818609E-02  0.8062524E-01
       -1   -1    0    0    0  501  0.00000000000E+00  0.00000000000E+00  0.15187162559E+04  0.15187162559E+04  0.50400001928E-02 0.  1.
        1   -1    0    0  501    0  0.00000000000E+00  0.00000000000E+00 -0.22836554534E+04  0.22836554534E+04  0.50400001928E-02 0. -1.
    10030    2    1    2    0    0  0.00000000000E+00  0.00000000000E+00 -0.76493919749E+03  0.38023717093E+04  0.37246340276E+04 0.  0.
        5    1    3    3  502    0  0.13904119972E+04  0.85311141035E+02  0.87932024068E+03  0.16473462564E+04  0.46999998093E+01 0. -1.
       -5    1    3    3    0  502 -0.13904119972E+04 -0.85311141035E+02 -0.16442594382E+04  0.21550254529E+04  0.46999998093E+01 0.  1.
</event>
<event>
 5   0  0.2384787E-07  0.3733849E+04  0.7818609E-02  0.8060502E-01
        2   -1    0    0  501    0  0.00000000000E+00  0.00000000000E+00  0.21606761797E+04  0.21606761797E+04  0.25500000920E-02 0. -1.
       -2   -1    0    0    0  501  0.00000000000E+00  0.00000000000E+00 -0.16131094612E+04  0.16131094612E+04  0.25500000920E-02 0.  1.
    10030    2    1    2    0    0  0.00000000000E+00  0.00000000000E+00  0.54756671853E+03  0.37737856410E+04  0.37338490533E+04 0.  0.
        4    1    3    3  502    0  0.61021806642E+03  0.16827168346E+04 -0.26246058650E+03  0.18090851850E+04  0.12699999809E+01 0.  1.
       -4    1    3    3    0  502 -0.61021806642E+03 -0.16827168346E+04  0.81002730503E+03  0.19647004560E+04  0.12699999809E+01 0. -1.
</event>
<event>
 5   0  0.7731706E-08  0.3890037E+04  0.7818609E-02  0.8027105E-01
        1   -1    0    0  501    0  0.00000000000E+00  0.00000000000E+00  0.15364188307E+04  0.15364188307E+04  0.50400001928E-02 0. -1.
       -1   -1    0    0    0  501  0.00000000000E+00  0.00000000000E+00 -0.24622818693E+04  0.24622818694E+04  0.50400001928E-02 0.  1.
    10030    2    1    2    0    0  0.00000000000E+00  0.00000000000E+00 -0.92586303861E+03  0.39987007001E+04  0.38900366223E+04 0.  0.
        3    1    3    3  502    0 -0.19680824331E+02 -0.99866182779E+03 -0.21784985968E+04  0.23965744152E+04  0.10100000352E+00 0.  1.
       -3    1    3    3    0  502  0.19680824331E+02  0.99866182779E+03  0.12526355581E+04  0.16021262849E+04  0.10100000352E+00 0. -1.
</event>
<event>
 5   0  0.7731706E-08  0.3899605E+04  0.7818609E-02  0.8025111E-01
        1   -1    0    0  501    0  0.00000000000E+00  0.00000000000E+00  0.17471410095E+04  0.17471410095E+04  0.50400001928E-02 0. -1.
       -1   -1    0    0    0  501  0.00000000000E+00  0.00000000000E+00 -0.21759719361E+04  0.21759719361E+04  0.50400001928E-02 0.  1.
    10030    2    1    2    0    0  0.00000000000E+00  0.00000000000E+00 -0.42883092663E+03  0.39231129457E+04  0.38996050083E+04 0.  0.
        3    1    3    3  502    0 -0.12542843791E+04 -0.14494478560E+04 -0.57378223536E+03  0.20008384379E+04  0.10100000352E+00 0.  1.
       -3    1    3    3    0  502  0.12542843791E+04  0.14494478560E+04  0.14495130873E+03  0.19222745077E+04  0.10100000352E+00 0. -1.
</event>
<event>
 5   0  0.2395572E-07  0.3580734E+04  0.7818609E-02  0.8094919E-01
       -2   -1    0    0    0  501  0.00000000000E+00  0.00000000000E+00  0.15430362240E+04  0.15430362240E+04  0.25500000920E-02 0. -1.
        2   -1    0    0  501    0  0.00000000000E+00  0.00000000000E+00 -0.20773416371E+04  0.20773416371E+04  0.25500000920E-02 0.  1.
    10030    2    1    2    0    0  0.00000000000E+00  0.00000000000E+00 -0.53430541309E+03  0.36203778611E+04  0.35807336654E+04 0.  0.
        3    1    3    3  502    0 -0.12296934807E+04 -0.12820272745E+04 -0.49249556996E+03  0.18434456558E+04  0.10100000352E+00 0. -1.
       -3    1    3    3    0  502  0.12296934807E+04  0.12820272745E+04 -0.41809843128E+02  0.17769322053E+04  0.10100000352E+00 0.  1.
</event>
<event>
 5   0  0.7731706E-08  0.3881511E+04  0.7818609E-02  0.8028885E-01
        1   -1    0    0  501    0  0.00000000000E+00  0.00000000000E+00  0.15966193344E+04  0.15966193344E+04  0.50400001928E-02 0.  1.
       -1   -1    0    0    0  501  0.00000000000E+00  0.00000000000E+00 -0.23590675520E+04  0.23590675521E+04  0.50400001928E-02 0. -1.
    10030    2    1    2    0    0  0.00000000000E+00  0.00000000000E+00 -0.76244821763E+03  0.39556868865E+04  0.38815114916E+04 0.  0.
        3    1    3    3  502    0  0.59276352420E+03  0.15530619139E+04 -0.14019444590E+04  0.21745845995E+04  0.10100000352E+00 0.  1.
       -3    1    3    3    0  502 -0.59276352420E+03 -0.15530619139E+04  0.63949624134E+03  0.17811022870E+04  0.10100000352E+00 0. -1.
</event>
<event>
 5   0  0.7675750E-08  0.3921550E+04  0.7818609E-02  0.8020562E-01
        1   -1    0    0  501    0  0.00000000000E+00  0.00000000000E+00  0.26518916766E+04  0.26518916766E+04  0.50400001928E-02 0.  1.
       -1   -1    0    0    0  501  0.00000000000E+00  0.00000000000E+00 -0.14497719279E+04  0.14497719280E+04  0.50400001928E-02 0. -1.
    10030    2    1    2    0    0  0.00000000000E+00  0.00000000000E+00  0.12021197487E+04  0.41016636046E+04  0.39215497492E+04 0.  0.
        4    1    3    3  502    0 -0.13796718352E+04  0.17276670489E+03  0.20470523545E+04  0.24746247518E+04  0.12699999809E+01 0.  1.
       -4    1    3    3    0  502  0.13796718352E+04 -0.17276670489E+03 -0.84493260583E+03  0.16270388528E+04  0.12699999809E+01 0. -1.
</event>
<event>
 5   0  0.7675750E-08  0.3927734E+04  0.7818609E-02  0.8019286E-01
        3   -1    0    0  501    0  0.00000000000E+00  0.00000000000E+00  0.26033830072E+04  0.26033830092E+04  0.10100000352E+00 0.  1.
       -3   -1    0    0    0  501  0.00000000000E+00  0.00000000000E+00 -0.14814466253E+04  0.14814466287E+04  0.10100000352E+00 0. -1.
    10030    2    1    2    0    0  0.00000000000E+00  0.00000000000E+00  0.11219363819E+04  0.40848296379E+04  0.39277336882E+04 0.  0.
        2    1    3    3  502    0 -0.16558894664E+04  0.64411333204E+03 -0.30910632632E+03  0.18034407754E+04  0.25500000920E-02 0. -1.
       -2    1    3    3    0  502  0.16558894664E+04 -0.64411333204E+03  0.14310427082E+04  0.22813888625E+04  0.25500000920E-02 0.  1.
</event>
<event>
 5   0  0.7675750E-08  0.3947318E+04  0.7818609E-02  0.8015259E-01
        1   -1    0    0  501    0  0.00000000000E+00  0.00000000000E+00  0.24128344335E+04  0.24128344335E+04  0.50400001928E-02 0. -1.
       -1   -1    0    0    0  501  0.00000000000E+00  0.00000000000E+00 -0.16144206476E+04  0.16144206477E+04  0.50400001928E-02 0.  1.
    10030    2    1    2    0    0  0.00000000000E+00  0.00000000000E+00  0.79841378584E+03  0.40272550811E+04  0.39473179395E+04 0.  0.
        4    1    3    3  502    0  0.12431700874E+04  0.14607572356E+04 -0.75011818047E+02  0.19196124487E+04  0.12699999809E+01 0.  1.
       -4    1    3    3    0  502 -0.12431700874E+04 -0.14607572356E+04  0.87342560388E+03  0.21076426324E+04  0.12699999809E+01 0. -1.
</event>
<event>
 5   0  0.2395572E-07  0.3930589E+04  0.7818609E-02  0.8018697E-01
        2   -1    0    0  501    0  0.00000000000E+00  0.00000000000E+00  0.21678984273E+04  0.21678984273E+04  0.25500000920E-02 0. -1.
       -2   -1    0    0    0  501  0.00000000000E+00  0.00000000000E+00 -0.17816252727E+04  0.17816252727E+04  0.25500000920E-02 0.  1.
    10030    2    1    2    0    0  0.00000000000E+00  0.00000000000E+00  0.38627315462E+03  0.39495237000E+04  0.39305890789E+04 0.  0.
        3    1    3    3  502    0 -0.14561495792E+04  0.60944289150E+03 -0.98322524364E+03  0.18597107638E+04  0.10100000352E+00 0.  1.
       -3    1    3    3    0  502  0.14561495792E+04 -0.60944289150E+03  0.13694983983E+04  0.20898129362E+04  0.10100000352E+00 0. -1.
</event>
<event>
 5   0  0.7675750E-08  0.3925776E+04  0.7818609E-02  0.8019690E-01
       -1   -1    0    0    0  501  0.00000000000E+00  0.00000000000E+00  0.13717407488E+04  0.13717407488E+04  0.50400001928E-02 0. -1.
        1   -1    0    0  501    0  0.00000000000E+00  0.00000000000E+00 -0.28087878029E+04  0.28087878030E+04  0.50400001928E-02 0.  1.
    10030    2    1    2    0    0  0.00000000000E+00  0.00000000000E+00 -0.14370470542E+04  0.41805285517E+04  0.39257756859E+04 0.  0.
        1    1    3    3  502    0  0.14730660094E+04 -0.11707980424E+04 -0.13135660562E+04  0.22948087738E+04  0.50400001928E-02 0.  1.
       -1    1    3    3    0  502 -0.14730660094E+04  0.11707980424E+04 -0.12348099798E+03  0.18857197780E+04  0.50400001928E-02 0. -1.
</event>
<event>
 5   0  0.2395572E-07  0.3879889E+04  0.7818609E-02  0.8029225E-01
       -2   -1    0    0    0  501  0.00000000000E+00  0.00000000000E+00  0.16838360445E+04  0.16838360445E+04  0.25500000920E-02 0. -1.
        2   -1    0    0  501    0  0.00000000000E+00  0.00000000000E+00 -0.22350070897E+04  0.22350070897E+04  0.25500000920E-02 0.  1.
    10030    2    1    2    0    0  0.00000000000E+00  0.00000000000E+00 -0.55117104513E+03  0.39188431342E+04  0.38798894300E+04 0.  0.
        3    1    3    3  502    0  0.51600362166E+03 -0.12806014999E+04 -0.16520537089E+04  0.21530168152E+04  0.10100000352E+00 0.  1.
       -3    1    3    3    0  502 -0.51600362166E+03  0.12806014999E+04  0.11008826638E+04  0.17658263190E+04  0.10100000352E+00 0. -1.
</event>
<event>
 5   0  0.2384787E-07  0.3858252E+04  0.7818609E-02  0.8033768E-01
       -2   -1    0    0    0  501  0.00000000000E+00  0.00000000000E+00  0.19188177865E+04  0.19188177865E+04  0.25500000920E-02 0. -1.
        2   -1    0    0  501    0  0.00000000000E+00  0.00000000000E+00 -0.19394894385E+04  0.19394894385E+04  0.25500000920E-02 0.  1.
    10030    2    1    2    0    0  0.00000000000E+00  0.00000000000E+00 -0.20671651992E+02  0.38583072250E+04  0.38582518484E+04 0.  0.
        4    1    3    3  502    0  0.42598154182E+03  0.14518763724E+04  0.11863934892E+04  0.19227418961E+04  0.12699999809E+01 0. -1.
       -4    1    3    3    0  502 -0.42598154182E+03 -0.14518763724E+04 -0.12070651411E+04  0.19355653290E+04  0.12699999809E+01 0.  1.
</event>
<event>
 5   0  0.7675750E-08  0.3642359E+04  0.7818609E-02  0.8080857E-01
       -1   -1    0    0    0  501  0.00000000000E+00  0.00000000000E+00  0.21597547913E+04  0.21597547913E+04  0.50400001928E-02 0. -1.
        1   -1    0    0  501    0  0.00000000000E+00  0.00000000000E+00 -0.15356811297E+04  0.15356811297E+04  0.50400001928E-02 0.  1.
    10030    2    1    2    0    0  0.00000000000E+00  0.00000000000E+00  0.62407366158E+03  0.36954359210E+04  0.36423589487E+04 0.  0.
        1    1    3    3  502    0  0.35970394869E+03  0.30818561697E+03  0.20961639974E+04  0.21490157769E+04  0.50400001928E-02 0. -1.
       -1    1    3    3    0  502 -0.35970394869E+03 -0.30818561697E+03 -0.14720903359E+04  0.15464201441E+04  0.50400001928E-02 0.  1.
</event>
<event>
 5   0  0.7675750E-08  0.3836683E+04  0.7818609E-02  0.8038328E-01
        1   -1    0    0  501    0  0.00000000000E+00  0.00000000000E+00  0.27830070518E+04  0.27830070518E+04  0.50400001928E-02 0.  1.
       -1   -1    0    0    0  501  0.00000000000E+00  0.00000000000E+00 -0.13223232123E+04  0.13223232124E+04  0.50400001928E-02 0. -1.
    10030    2    1    2    0    0  0.00000000000E+00  0.00000000000E+00  0.14606838394E+04  0.41053302642E+04  0.38366833723E+04 0.  0.
        1    1    3    3  502    0 -0.88472999987E+03  0.59395842908E+03  0.24371844544E+04  0.26599627541E+04  0.50400001928E-02 0.  1.
       -1    1    3    3    0  502  0.88472999987E+03 -0.59395842908E+03 -0.97650061498E+03  0.14453675101E+04  0.50400001928E-02 0. -1.
</event>
<event>
 5   0  0.2473224E-07  0.3943363E+04  0.7818609E-02  0.8016070E-01
        2   -1    0    0  501    0  0.00000000000E+00  0.00000000000E+00  0.20468584086E+04  0.20468584086E+04  0.25500000920E-02 0. -1.
       -2   -1    0    0    0  501  0.00000000000E+00  0.00000000000E+00 -0.18992656520E+04  0.18992656520E+04  0.25500000920E-02 0.  1.
    10030    2    1    2    0    0  0.00000000000E+00  0.00000000000E+00  0.14759275658E+03  0.39461240607E+04  0.39433629659E+04 0.  0.
        2    1    3    3  502    0  0.13708275254E+04  0.62858790624E+02 -0.13429662857E+04  0.19200723362E+04  0.25500000920E-02 0.  1.
       -2    1    3    3    0  502 -0.13708275254E+04 -0.62858790624E+02  0.14905590422E+04  0.20260517245E+04  0.25500000920E-02 0. -1.
</event>
<event>
 5   0  0.2395572E-07  0.3912385E+04  0.7818609E-02  0.8022458E-01
        2   -1    0    0  501    0  0.00000000000E+00  0.00000000000E+00  0.16851513517E+04  0.16851513517E+04  0.25500000920E-02 0.  1.
       -2   -1    0    0    0  501  0.00000000000E+00  0.00000000000E+00 -0.22708284291E+04  0.22708284291E+04  0.25500000920E-02 0. -1.
    10030    2    1    2    0    0  0.00000000000E+00  0.00000000000E+00 -0.58567707740E+03  0.39559797808E+04  0.39123852555E+04 0.  0.
        3    1    3    3  502    0  0.18723766038E+04 -0.41312022664E+03  0.99071707677E+02  0.19199681460E+04  0.10100000352E+00 0.  1.
       -3    1    3    3    0  502 -0.18723766038E+04  0.41312022664E+03 -0.68474878508E+03  0.20360116348E+04  0.10100000352E+00 0. -1.
</event>
<event>
 5   0  0.7675750E-08  0.3867683E+04  0.7818609E-02  0.8031784E-01
        1   -1    0    0  501    0  0.00000000000E+00  0.00000000000E+00  0.19346900895E+04  0.19346900895E+04  0.50400001928E-02 0. -1.
       -1   -1    0    0    0  501  0.00000000000E+00  0.00000000000E+00 -0.19329936560E+04  0.19329936560E+04  0.50400001928E-02 0.  1.
    10030    2    1    2    0    0  0.00000000000E+00  0.00000000000E+00  0.16964335097E+01  0.38676837455E+04  0.38676833735E+04 0.  0.
        4    1    3    3  502    0 -0.76313973077E+03  0.15929125973E+04 -0.78654582970E+03  0.19334965080E+04  0.12699999809E+01 0. -1.
       -4    1    3    3    0  502  0.76313973077E+03 -0.15929125973E+04  0.78824226321E+03  0.19341872375E+04  0.12699999809E+01 0.  1.
</event>
<event>
 5   0  0.7675750E-08  0.4116230E+04  0.7818609E-02  0.7981501E-01
        1   -1    0    0  501    0  0.00000000000E+00  0.00000000000E+00  0.16577914662E+04  0.16577914662E+04  0.50400001928E-02 0.  1.
       -1   -1    0    0    0  501  0.00000000000E+00  0.00000000000E+00 -0.25551084819E+04  0.25551084819E+04  0.50400001928E-02 0. -1.
    10030    2    1    2    0    0  0.00000000000E+00  0.00000000000E+00 -0.89731701572E+03  0.42128999481E+04  0.41162298461E+04 0.  0.
        2    1    3    3  502    0 -0.33051823948E+03  0.12019449768E+04 -0.21247768569E+04  0.24634509790E+04  0.25500000920E-02 0. -1.
       -2    1    3    3    0  502  0.33051823948E+03 -0.12019449768E+04  0.12274598412E+04  0.17494489692E+04  0.25500000920E-02 0.  1.
</event>
<event>
 5   0  0.7675750E-08  0.3939713E+04  0.7818609E-02  0.8016820E-01
       -1   -1    0    0    0  501  0.00000000000E+00  0.00000000000E+00  0.26287181504E+04  0.26287181504E+04  0.50400001928E-02 0.  1.
        1   -1    0    0  501    0  0.00000000000E+00  0.00000000000E+00 -0.14761318836E+04  0.14761318836E+04  0.50400001928E-02 0. -1.
    10030    2    1    2    0    0  0.00000000000E+00  0.00000000000E+00  0.11525862668E+04  0.41048500340E+04  0.39397130224E+04 0.  0.
        1    1    3    3  502    0 -0.60659936687E+03 -0.11513180411E+04 -0.96448844684E+03  0.16197944276E+04  0.50400001928E-02 0.  1.
       -1    1    3    3    0  502  0.60659936687E+03  0.11513180411E+04  0.21170747136E+04  0.24850556064E+04  0.50400001928E-02 0. -1.
</event>
<event>
 5   0  0.2473224E-07  0.4142937E+04  0.7818609E-02  0.7976316E-01
        2   -1    0    0  501    0  0.00000000000E+00  0.00000000000E+00  0.24396251446E+04  0.24396251446E+04  0.25500000920E-02 0. -1.
       -2   -1    0    0    0  501  0.00000000000E+00  0.00000000000E+00 -0.17588691173E+04  0.17588691173E+04  0.25500000920E-02 0.  1.
    10030    2    1    2    0    0  0.00000000000E+00  0.00000000000E+00  0.68075602734E+03  0.41984942619E+04  0.41429367963E+04 0.  0.
        2    1    3    3  502    0  0.47245944725E+03 -0.20166865722E+04  0.36792086918E+03  0.21037130094E+04  0.25500000920E-02 0.  1.
       -2    1    3    3    0  502 -0.47245944725E+03  0.20166865722E+04  0.31283515816E+03  0.20947812525E+04  0.25500000920E-02 0. -1.
</event>
<event>
 5   0  0.7675750E-08  0.3906180E+04  0.7818609E-02  0.8023745E-01
       -1   -1    0    0    0  501  0.00000000000E+00  0.00000000000E+00  0.16577789466E+04  0.16577789466E+04  0.50400001928E-02 0. -1.
        1   -1    0    0  501    0  0.00000000000E+00  0.00000000000E+00 -0.23010063848E+04  0.23010063848E+04  0.50400001928E-02 0.  1.
    10030    2    1    2    0    0  0.00000000000E+00  0.00000000000E+00 -0.64322743821E+03  0.39587853315E+04  0.39061796891E+04 0.  0.
        5    1    3    3  502    0  0.37915604908E+03  0.18589113378E+04  0.14855993731E+03  0.19029983753E+04  0.46999998093E+01 0. -1.
       -5    1    3    3    0  502 -0.37915604908E+03 -0.18589113378E+04 -0.79178737551E+03  0.20557869562E+04  0.46999998093E+01 0.  1.
</event>
<event>
 5   0  0.7731706E-08  0.3894731E+04  0.7818609E-02  0.8026126E-01
       -1   -1    0    0    0  501  0.00000000000E+00  0.00000000000E+00  0.21832653596E+04  0.21832653596E+04  0.50400001928E-02 0.  1.
        1   -1    0    0  501    0  0.00000000000E+00  0.00000000000E+00 -0.17369543129E+04  0.17369543129E+04  0.50400001928E-02 0. -1.
    10030    2    1    2    0    0  0.00000000000E+00  0.00000000000E+00  0.44631104665E+03  0.39202196726E+04  0.38947308932E+04 0.  0.
        3    1    3    3  502    0  0.74642490937E+03 -0.16723216290E+04 -0.44331249539E+03  0.18842334661E+04  0.10100000352E+00 0. -1.
       -3    1    3    3    0  502 -0.74642490937E+03  0.16723216290E+04  0.88962354204E+03  0.20359862064E+04  0.10100000352E+00 0.  1.
</event>
<event>
 5   0  0.2395572E-07  0.3897982E+04  0.7818609E-02  0.8025449E-01
        2   -1    0    0  501    0  0.00000000000E+00  0.00000000000E+00  0.15810550178E+04  0.15810550178E+04  0.25500000920E-02 0. -1.
       -2   -1    0    0    0  501  0.00000000000E+00  0.00000000000E+00 -0.24025510876E+04  0.24025510876E+04  0.25500000920E-02 0.  1.
    10030    2    1    2    0    0  0.00000000000E+00  0.00000000000E+00 -0.82149606984E+03  0.39836061054E+04  0.38979817611E+04 0.  0.
        3    1    3    3  502    0 -0.78097462176E+03 -0.30711868003E+03 -0.22084568712E+04  0.23625251333E+04  0.10100000352E+00 0.  1.
       -3    1    3    3    0  502  0.78097462176E+03  0.30711868003E+03  0.13869608013E+04  0.16210809721E+04  0.10100000352E+00 0. -1.
</event>
<event>
 5   0  0.2395572E-07  0.3902221E+04  0.7818609E-02  0.8024567E-01
       -2   -1    0    0    0  501  0.00000000000E+00  0.00000000000E+00  0.25670528522E+04  0.25670528522E+04  0.25500000920E-02 0. -1.
        2   -1    0    0  501    0  0.00000000000E+00  0.00000000000E+00 -0.14829581674E+04  0.14829581674E+04  0.25500000920E-02 0.  1.
    10030    2    1    2    0    0  0.00000000000E+00  0.00000000000E+00  0.10840946848E+04  0.40500110196E+04  0.39022209026E+04 0.  0.
        3    1    3    3  502    0  0.17450241566E+04 -0.24918554719E+03  0.14101644795E+04  0.22573804761E+04  0.10100000352E+00 0.  1.
       -3    1    3    3    0  502 -0.17450241566E+04  0.24918554719E+03 -0.32606979477E+03  0.17926305435E+04  0.10100000352E+00 0. -1.
</event>
<event>
 5   0  0.7675750E-08  0.3893007E+04  0.7818609E-02  0.8026485E-01
       -1   -1    0    0    0  501  0.00000000000E+00  0.00000000000E+00  0.29133727558E+04  0.29133727558E+04  0.50400001928E-02 0.  1.
        1   -1    0    0  501    0  0.00000000000E+00  0.00000000000E+00 -0.13005121028E+04  0.13005121028E+04  0.50400001928E-02 0. -1.
    10030    2    1    2    0    0  0.00000000000E+00  0.00000000000E+00  0.16128606531E+04  0.42138848586E+04  0.38930073357E+04 0.  0.
        1    1    3    3  502    0 -0.16511629687E+04  0.19439578806E+02 -0.30912806613E+03  0.16799634543E+04  0.50400001928E-02 0. -1.
       -1    1    3    3    0  502  0.16511629687E+04 -0.19439578806E+02  0.19219887192E+04  0.25339214043E+04  0.50400001928E-02 0.  1.
</event>
<event>
 5   0  0.2446281E-07  0.3933120E+04  0.7818609E-02  0.8018176E-01
        2   -1    0    0  501    0  0.00000000000E+00  0.00000000000E+00  0.15278487579E+04  0.15278487579E+04  0.25500000920E-02 0. -1.
       -2   -1    0    0    0  501  0.00000000000E+00  0.00000000000E+00 -0.25312436317E+04  0.25312436317E+04  0.25500000920E-02 0.  1.
    10030    2    1    2    0    0  0.00000000000E+00  0.00000000000E+00 -0.10033948738E+04  0.40590923897E+04  0.39331195958E+04 0.  0.
        1    1    3    3  502    0  0.40015639655E+03 -0.98728362257E+03 -0.22076703657E+04  0.24512573379E+04  0.50400001928E-02 0.  1.
       -1    1    3    3    0  502 -0.40015639655E+03  0.98728362257E+03  0.12042754919E+04  0.16078350517E+04  0.50400001928E-02 0. -1.
</event>
<event>
 5   0  0.7675750E-08  0.3962301E+04  0.7818609E-02  0.8012195E-01
        1   -1    0    0  501    0  0.00000000000E+00  0.00000000000E+00  0.21259827028E+04  0.21259827028E+04  0.50400001928E-02 0.  1.
       -1   -1    0    0    0  501  0.00000000000E+00  0.00000000000E+00 -0.18461853734E+04  0.18461853734E+04  0.50400001928E-02 0. -1.
    10030    2    1    2    0    0  0.00000000000E+00  0.00000000000E+00  0.27979732937E+03  0.39721680762E+04  0.39623014373E+04 0.  0.
        4    1    3    3  502    0 -0.11633231717E+04  0.47268668214E+03  0.16760992604E+04  0.20942931611E+04  0.12699999809E+01 0.  1.
       -4    1    3    3    0  502  0.11633231717E+04 -0.47268668214E+03 -0.13963019310E+04  0.18778749151E+04  0.12699999809E+01 0. -1.
</event>
<event>
 5   0  0.7675750E-08  0.3899765E+04  0.7818609E-02  0.8025078E-01
       -1   -1    0    0    0  501  0.00000000000E+00  0.00000000000E+00  0.27562399946E+04  0.27562399946E+04  0.50400001928E-02 0.  1.
        1   -1    0    0  501    0  0.00000000000E+00  0.00000000000E+00 -0.13794307481E+04  0.13794307481E+04  0.50400001928E-02 0. -1.
    10030    2    1    2    0    0  0.00000000000E+00  0.00000000000E+00  0.13768092465E+04  0.41356707427E+04  0.38997652225E+04 0.  0.
        1    1    3    3  502    0 -0.65791007887E+03  0.12680610729E+04 -0.71898390583E+03  0.15993006013E+04  0.50400001928E-02 0. -1.
       -1    1    3    3    0  502  0.65791007887E+03 -0.12680610729E+04  0.20957931524E+04  0.25363701414E+04  0.50400001928E-02 0.  1.
</event>
<event>
 5   0  0.7675750E-08  0.3921000E+04  0.7818609E-02  0.8020676E-01
       -4   -1    0    0    0  501  0.00000000000E+00  0.00000000000E+00  0.15152076986E+04  0.15152082308E+04  0.12699999809E+01 0.  1.
        4   -1    0    0  501    0  0.00000000000E+00  0.00000000000E+00 -0.25366548191E+04  0.25366551370E+04  0.12699999809E+01 0. -1.
    10030    2    1    2    0    0  0.00000000000E+00  0.00000000000E+00 -0.10214471205E+04  0.40518633678E+04  0.39210001953E+04 0.  0.
        5    1    3    3  502    0 -0.95785249160E+03  0.13594327910E+04  0.56219617787E+03  0.17554559354E+04  0.46999998093E+01 0.  1.
       -5    1    3    3    0  502  0.95785249160E+03 -0.13594327910E+04 -0.15836432984E+04  0.22964074324E+04  0.46999998093E+01 0. -1.
</event>
<event>
 5   0  0.2446281E-07  0.3583915E+04  0.7818609E-02  0.8094186E-01
       -2   -1    0    0    0  501  0.00000000000E+00  0.00000000000E+00  0.13855131292E+04  0.13855131292E+04  0.25500000920E-02 0. -1.
        2   -1    0    0  501    0  0.00000000000E+00  0.00000000000E+00 -0.23176329287E+04  0.23176329287E+04  0.25500000920E-02 0.  1.
    10030    2    1    2    0    0  0.00000000000E+00  0.00000000000E+00 -0.93211979948E+03  0.37031460579E+04  0.35839145366E+04 0.  0.
        1    1    3    3  502    0  0.13271834482E+04  0.99033133469E+03  0.24151314170E+03  0.16734696457E+04  0.50400001928E-02 0. -1.
       -1    1    3    3    0  502 -0.13271834482E+04 -0.99033133469E+03 -0.11736329412E+04  0.20296764122E+04  0.50400001928E-02 0.  1.
</event>
<event>
 5   0  0.7675750E-08  0.3768266E+04  0.7818609E-02  0.8052999E-01
        1   -1    0    0  501    0  0.00000000000E+00  0.00000000000E+00  0.24421627876E+04  0.24421627876E+04  0.50400001928E-02 0.  1.
       -1   -1    0    0    0  501  0.00000000000E+00  0.00000000000E+00 -0.14536116864E+04  0.14536116864E+04  0.50400001928E-02 0. -1.
    10030    2    1    2    0    0  0.00000000000E+00  0.00000000000E+00  0.98855110123E+03  0.38957744741E+04  0.37682655789E+04 0.  0.
        4    1    3    3  502    0  0.12404413482E+04  0.13812836366E+04  0.82657920216E+03  0.20322091460E+04  0.12699999809E+01 0.  1.
       -4    1    3    3    0  502 -0.12404413482E+04 -0.13812836366E+04  0.16197189906E+03  0.18635653280E+04  0.12699999809E+01 0. -1.
</event>
<event>
 5   0  0.7675750E-08  0.3856423E+04  0.7818609E-02  0.8034154E-01
        1   -1    0    0  501    0  0.00000000000E+00  0.00000000000E+00  0.28409023746E+04  0.28409023746E+04  0.50400001928E-02 0. -1.
       -1   -1    0    0    0  501  0.00000000000E+00  0.00000000000E+00 -0.13087387224E+04  0.13087387225E+04  0.50400001928E-02 0.  1.
    10030    2    1    2    0    0  0.00000000000E+00  0.00000000000E+00  0.15321636522E+04  0.41496410971E+04  0.38564226658E+04 0.  0.
        2    1    3    3  502    0  0.62166750022E+03  0.13393047724E+04  0.21004466777E+04  0.25675054041E+04  0.25500000920E-02 0. -1.
       -2    1    3    3    0  502 -0.62166750022E+03 -0.13393047724E+04 -0.56828302549E+03  0.15821356930E+04  0.25500000920E-02 0.  1.
</event>
<event>
 5   0  0.2473224E-07  0.3881316E+04  0.7818609E-02  0.8028926E-01
       -2   -1    0    0    0  501  0.00000000000E+00  0.00000000000E+00  0.22885906583E+04  0.22885906583E+04  0.25500000920E-02 0. -1.
        2   -1    0    0  501    0  0.00000000000E+00  0.00000000000E+00 -0.16456214333E+04  0.16456214333E+04  0.25500000920E-02 0.  1.
    10030    2    1    2    0    0  0.00000000000E+00  0.00000000000E+00  0.64296922499E+03  0.39342120915E+04  0.38813161887E+04 0.  0.
        2    1    3    3  502    0  0.25242538139E+03  0.18785544221E+04 -0.10068708860E+03  0.18981104235E+04  0.25500000920E-02 0.  1.
       -2    1    3    3    0  502 -0.25242538139E+03 -0.18785544221E+04  0.74365631359E+03  0.20361016681E+04  0.25500000920E-02 0. -1.
</event>
<event>
 5   0  0.7731706E-08  0.3792040E+04  0.7818609E-02  0.8047865E-01
        1   -1    0    0  501    0  0.00000000000E+00  0.00000000000E+00  0.25415272045E+04  0.25415272045E+04  0.50400001928E-02 0. -1.
       -1   -1    0    0    0  501  0.00000000000E+00  0.00000000000E+00 -0.14144616209E+04  0.14144616209E+04  0.50400001928E-02 0.  1.
    10030    2    1    2    0    0  0.00000000000E+00  0.00000000000E+00  0.11270655836E+04  0.39559888254E+04  0.37920404477E+04 0.  0.
        3    1    3    3  502    0  0.17781578574E+04  0.39489592541E+03  0.11126991201E+04  0.21344525059E+04  0.10100000352E+00 0.  1.
       -3    1    3    3    0  502 -0.17781578574E+04 -0.39489592541E+03  0.14366463493E+02  0.18215363195E+04  0.10100000352E+00 0. -1.
</event>
<event>
 5   0  0.2486268E-07  0.3895396E+04  0.7818609E-02  0.8025987E-01
        2   -1    0    0  501    0  0.00000000000E+00  0.00000000000E+00  0.23516824706E+04  0.23516824706E+04  0.25500000920E-02 0. -1.
       -2   -1    0    0    0  501  0.00000000000E+00  0.00000000000E+00 -0.16131119717E+04  0.16131119717E+04  0.25500000920E-02 0.  1.
    10030    2    1    2    0    0  0.00000000000E+00  0.00000000000E+00  0.73857049891E+03  0.39647944423E+04  0.38953958191E+04 0.  0.
        5    1    3    3  502    0 -0.12391949479E+04  0.14512834754E+04  0.76568123796E+03  0.20562387247E+04  0.46999998093E+01 0. -1.
       -5    1    3    3    0  502  0.12391949479E+04 -0.14512834754E+04 -0.27110739048E+02  0.19085557176E+04  0.46999998093E+01 0.  1.
</event>
<event>
 5   0  0.7731706E-08  0.3687820E+04  0.7818609E-02  0.8070666E-01
        1   -1    0    0  501    0  0.00000000000E+00  0.00000000000E+00  0.27308137349E+04  0.27308137349E+04  0.50400001928E-02 0.  1.
       -1   -1    0    0    0  501  0.00000000000E+00  0.00000000000E+00 -0.12450519650E+04  0.12450519650E+04  0.50400001928E-02 0. -1.
    10030    2    1    2    0    0  0.00000000000E+00  0.00000000000E+00  0.14857617699E+04  0.39758656999E+04  0.36878204982E+04 0.  0.
        3    1    3    3  502    0 -0.40460089160E+03  0.30543776209E+03 -0.11684455871E+04  0.12736793977E+04  0.10100000352E+00 0. -1.
       -3    1    3    3    0  502  0.40460089160E+03 -0.30543776209E+03  0.26542073570E+04  0.27021863022E+04  0.10100000352E+00 0.  1.
</event>
<event>
 5   0  0.2473224E-07  0.3898274E+04  0.7818609E-02  0.8025388E-01
       -2   -1    0    0    0  501  0.00000000000E+00  0.00000000000E+00  0.28569821872E+04  0.28569821872E+04  0.25500000920E-02 0.  1.
        2   -1    0    0  501    0  0.00000000000E+00  0.00000000000E+00 -0.13297722610E+04  0.13297722610E+04  0.25500000920E-02 0. -1.
    10030    2    1    2    0    0  0.00000000000E+00  0.00000000000E+00  0.15272099261E+04  0.41867544482E+04  0.38982743171E+04 0.  0.
        2    1    3    3  502    0 -0.68256524484E+01 -0.15652030274E+04  0.20111259370E+04  0.25484376864E+04  0.25500000920E-02 0.  1.
       -2    1    3    3    0  502  0.68256524484E+01  0.15652030274E+04 -0.48391601091E+03  0.16383167619E+04  0.25500000920E-02 0. -1.
</event>
<event>
 5   0  0.2473224E-07  0.3964713E+04  0.7818609E-02  0.8011703E-01
       -2   -1    0    0    0  501  0.00000000000E+00  0.00000000000E+00  0.14147072913E+04  0.14147072913E+04  0.25500000920E-02 0.  1.
        2   -1    0    0  501    0  0.00000000000E+00  0.00000000000E+00 -0.27777740600E+04  0.27777740600E+04  0.25500000920E-02 0. -1.
    10030    2    1    2    0    0  0.00000000000E+00  0.00000000000E+00 -0.13630667687E+04  0.41924813513E+04  0.39647129613E+04 0.  0.
        2    1    3    3  502    0 -0.80815779747E+03 -0.76914644404E+03 -0.24142762401E+04  0.26595930218E+04  0.25500000920E-02 0. -1.
       -2    1    3    3    0  502  0.80815779747E+03  0.76914644404E+03  0.10512094714E+04  0.15328883295E+04  0.25500000920E-02 0.  1.
</event>
<event>
 5   0  0.7675750E-08  0.3892665E+04  0.7818609E-02  0.8026557E-01
        1   -1    0    0  501    0  0.00000000000E+00  0.00000000000E+00  0.20943303115E+04  0.20943303115E+04  0.50400001928E-02 0. -1.
       -1   -1    0    0    0  501  0.00000000000E+00  0.00000000000E+00 -0.18087928859E+04  0.18087928859E+04  0.50400001928E-02 0.  1.
    10030    2    1    2    0    0  0.00000000000E+00  0.00000000000E+00  0.28553742560E+03  0.39031231973E+04  0.38926647778E+04 0.  0.
        1    1    3    3  502    0 -0.23276476052E+03  0.21022696320E+03  0.20688238902E+04  0.20924643601E+04  0.50400001928E-02 0. -1.
       -1    1    3    3    0  502  0.23276476052E+03 -0.21022696320E+03 -0.17832864646E+04  0.18106588372E+04  0.50400001928E-02 0.  1.
</event>
<event>
 5   0  0.2395572E-07  0.3878891E+04  0.7818609E-02  0.8029434E-01
       -2   -1    0    0    0  501  0.00000000000E+00  0.00000000000E+00  0.14134239250E+04  0.14134239250E+04  0.25500000920E-02 0. -1.
        2   -1    0    0  501    0  0.00000000000E+00  0.00000000000E+00 -0.26612318752E+04  0.26612318752E+04  0.25500000920E-02 0.  1.
    10030    2    1    2    0    0  0.00000000000E+00  0.00000000000E+00 -0.12478079502E+04  0.40746558002E+04  0.38788909767E+04 0.  0.
        3    1    3    3  502    0  0.13571795338E+04  0.80338076707E+03  0.56182033422E+03  0.16742159484E+04  0.10100000352E+00 0. -1.
       -3    1    3    3    0  502 -0.13571795338E+04 -0.80338076707E+03 -0.18096282844E+04  0.24004398517E+04  0.10100000352E+00 0.  1.
</event>
<event>
 5   0  0.2473224E-07  0.3862400E+04  0.7818609E-02  0.8032895E-01
       -2   -1    0    0    0  501  0.00000000000E+00  0.00000000000E+00  0.18981871543E+04  0.18981871543E+04  0.25500000920E-02 0.  1.
        2   -1    0    0  501    0  0.00000000000E+00  0.00000000000E+00 -0.19647865533E+04  0.19647865533E+04  0.25500000920E-02 0. -1.
    10030    2    1    2    0    0  0.00000000000E+00  0.00000000000E+00 -0.66599399007E+02  0.38629737075E+04  0.38623995631E+04 0.  0.
        2    1    3    3  502    0  0.97100795832E+03  0.15222882350E+04  0.65186758522E+03  0.19196742625E+04  0.25500000920E-02 0. -1.
       -2    1    3    3    0  502 -0.97100795832E+03 -0.15222882350E+04 -0.71846698423E+03  0.19432994450E+04  0.25500000920E-02 0.  1.
</event>
<event>
 5   0  0.7731706E-08  0.3891019E+04  0.7818609E-02  0.8026900E-01
       -1   -1    0    0    0  501  0.00000000000E+00  0.00000000000E+00  0.15840606519E+04  0.15840606519E+04  0.50400001928E-02 0. -1.
        1   -1    0    0  501    0  0.00000000000E+00  0.00000000000E+00 -0.23894338525E+04  0.23894338525E+04  0.50400001928E-02 0.  1.
    10030    2    1    2    0    0  0.00000000000E+00  0.00000000000E+00 -0.80537320068E+03  0.39734945044E+04  0.38910194788E+04 0.  0.
        3    1    3    3  502    0  0.17262086865E+04  0.34877151784E+03 -0.12469943039E+04  0.21578769208E+04  0.10100000352E+00 0.  1.
       -3    1    3    3    0  502 -0.17262086865E+04 -0.34877151784E+03  0.44162110322E+03  0.18156175836E+04  0.10100000352E+00 0. -1.
</event>
<event>
 5   0  0.7675750E-08  0.3970477E+04  0.7818609E-02  0.8010529E-01
        1   -1    0    0  501    0  0.00000000000E+00  0.00000000000E+00  0.14816973433E+04  0.14816973433E+04  0.50400001928E-02 0.  1.
       -1   -1    0    0    0  501  0.00000000000E+00  0.00000000000E+00 -0.26599041099E+04  0.26599041099E+04  0.50400001928E-02 0. -1.
    10030    2    1    2    0    0  0.00000000000E+00  0.00000000000E+00 -0.11782067666E+04  0.41416014532E+04  0.39704774791E+04 0.  0.
        5    1    3    3  502    0 -0.13969659948E+03  0.12773414853E+03  0.14722566832E+04  0.14843830314E+04  0.46999998093E+01 0.  1.
       -5    1    3    3    0  502  0.13969659948E+03 -0.12773414853E+03 -0.26504634498E+04  0.26572184218E+04  0.46999998093E+01 0. -1.
</event>
<event>
 5   0  0.7675750E-08  0.3887222E+04  0.7818609E-02  0.8027692E-01
        1   -1    0    0  501    0  0.00000000000E+00  0.00000000000E+00  0.22252031368E+04  0.22252031368E+04  0.50400001928E-02 0.  1.
       -1   -1    0    0    0  501  0.00000000000E+00  0.00000000000E+00 -0.16976537540E+04  0.16976537540E+04  0.50400001928E-02 0. -1.
    10030    2    1    2    0    0  0.00000000000E+00  0.00000000000E+00  0.52754938284E+03  0.39228568908E+04  0.38872223803E+04 0.  0.
        4    1    3    3  502    0 -0.22138686149E+03 -0.12562296789E+04  0.17436753703E+04  0.21604468423E+04  0.12699999809E+01 0.  1.
       -4    1    3    3    0  502  0.22138686149E+03  0.12562296789E+04 -0.12161259875E+04  0.17624100485E+04  0.12699999809E+01 0. -1.
</event>
<event>
 5   0  0.2395572E-07  0.3750004E+04  0.7818609E-02  0.8056970E-01
       -2   -1    0    0    0  501  0.00000000000E+00  0.00000000000E+00  0.14974571340E+04  0.14974571340E+04  0.25500000920E-02 0.  1.
        2   -1    0    0  501    0  0.00000000000E+00  0.00000000000E+00 -0.23477355026E+04  0.23477355026E+04  0.25500000920E-02 0. -1.
    10030    2    1    2    0    0  0.00000000000E+00  0.00000000000E+00 -0.85027836869E+03  0.38451926366E+04  0.37500044144E+04 0.  0.
        3    1    3    3  502    0  0.17408051052E+04 -0.37269506348E+03 -0.10285747513E+04  0.20560326004E+04  0.10100000352E+00 0. -1.
       -3    1    3    3    0  502 -0.17408051052E+04  0.37269506348E+03  0.17829638263E+03  0.17891600362E+04  0.10100000352E+00 0.  1.
</event>
<event>
 5   0  0.2473224E-07  0.3960116E+04  0.7818609E-02  0.8012641E-01
        2   -1    0    0  501    0  0.00000000000E+00  0.00000000000E+00  0.17667553275E+04  0.17667553275E+04  0.25500000920E-02 0.  1.
       -2   -1    0    0    0  501  0.00000000000E+00  0.00000000000E+00 -0.22191126820E+04  0.22191126820E+04  0.25500000920E-02 0. -1.
    10030    2    1    2    0    0  0.00000000000E+00  0.00000000000E+00 -0.45235735453E+03  0.39858680095E+04  0.39601157323E+04 0.  0.
        2    1    3    3  502    0 -0.56008861350E+03  0.12426555257E+04 -0.16717415297E+04  0.21569913660E+04  0.25500000920E-02 0. -1.
       -2    1    3    3    0  502  0.56008861350E+03 -0.12426555257E+04  0.12193841752E+04  0.18288766436E+04  0.25500000920E-02 0.  1.
</event>
<event>
 5   0  0.2384787E-07  0.3925721E+04  0.7818609E-02  0.8019701E-01
        2   -1    0    0  501    0  0.00000000000E+00  0.00000000000E+00  0.13811241280E+04  0.13811241280E+04  0.25500000920E-02 0. -1.
       -2   -1    0    0    0  501  0.00000000000E+00  0.00000000000E+00 -0.27896276375E+04  0.27896276375E+04  0.25500000920E-02 0.  1.
    10030    2    1    2    0    0  0.00000000000E+00  0.00000000000E+00 -0.14085035095E+04  0.41707517655E+04  0.39257213545E+04 0.  0.
        4    1    3    3  502    0  0.13182394123E+04 -0.13072654687E+04 -0.13813057034E+04  0.23140235982E+04  0.12699999809E+01 0. -1.
       -4    1    3    3    0  502 -0.13182394123E+04  0.13072654687E+04 -0.27197806062E+02  0.18567281673E+04  0.12699999809E+01 0.  1.
</event>
<event>
 5   0  0.7675750E-08  0.3839839E+04  0.7818609E-02  0.8037659E-01
       -1   -1    0    0    0  501  0.00000000000E+00  0.00000000000E+00  0.15835202119E+04  0.15835202119E+04  0.50400001928E-02 0.  1.
        1   -1    0    0  501    0  0.00000000000E+00  0.00000000000E+00 -0.23277828665E+04  0.23277828665E+04  0.50400001928E-02 0. -1.
    10030    2    1    2    0    0  0.00000000000E+00  0.00000000000E+00 -0.74426265456E+03  0.39113030784E+04  0.38398391727E+04 0.  0.
        2    1    3    3  502    0  0.15089624389E+04 -0.10616424714E+04 -0.91308851312E+03  0.20585876255E+04  0.25500000920E-02 0.  1.
       -2    1    3    3    0  502 -0.15089624389E+04  0.10616424714E+04  0.16882585856E+03  0.18527154529E+04  0.25500000920E-02 0. -1.
</event>
<event>
 5   0  0.2446281E-07  0.3910298E+04  0.7818609E-02  0.8022891E-01
       -2   -1    0    0    0  501  0.00000000000E+00  0.00000000000E+00  0.14362092276E+04  0.14362092276E+04  0.25500000920E-02 0.  1.
        2   -1    0    0  501    0  0.00000000000E+00  0.00000000000E+00 -0.26615952534E+04  0.26615952534E+04  0.25500000920E-02 0. -1.
    10030    2    1    2    0    0  0.00000000000E+00  0.00000000000E+00 -0.12253860258E+04  0.40978044810E+04  0.39102980260E+04 0.  0.
        1    1    3    3  502    0  0.16000441651E+04 -0.81638144794E+03 -0.14217144132E+04  0.22908277699E+04  0.50400001928E-02 0. -1.
       -1    1    3    3    0  502 -0.16000441651E+04  0.81638144794E+03  0.19632838739E+03  0.18069767111E+04  0.50400001928E-02 0.  1.
</event>
<event>
 5   0  0.2473224E-07  0.3889028E+04  0.7818609E-02  0.8027315E-01
        2   -1    0    0  501    0  0.00000000000E+00  0.00000000000E+00  0.19389638932E+04  0.19389638932E+04  0.25500000920E-02 0.  1.
       -2   -1    0    0    0  501  0.00000000000E+00  0.00000000000E+00 -0.19500795023E+04  0.19500795023E+04  0.25500000920E-02 0. -1.
    10030    2    1    2    0    0  0.00000000000E+00  0.00000000000E+00 -0.11115609180E+02  0.38890433955E+04  0.38890275102E+04 0.  0.
        2    1    3    3  502    0  0.10208924697E+04  0.12256208995E+04  0.11065464276E+04  0.19413430971E+04  0.25500000920E-02 0.  1.
       -2    1    3    3    0  502 -0.10208924697E+04 -0.12256208995E+04 -0.11176620368E+04  0.19477002984E+04  0.25500000920E-02 0. -1.
</event>
<event>
 5   0  0.7675750E-08  0.3935751E+04  0.7818609E-02  0.8017635E-01
        1   -1    0    0  501    0  0.00000000000E+00  0.00000000000E+00  0.25693782080E+04  0.25693782080E+04  0.50400001928E-02 0. -1.
       -1   -1    0    0    0  501  0.00000000000E+00  0.00000000000E+00 -0.15071868500E+04  0.15071868500E+04  0.50400001928E-02 0.  1.
    10030    2    1    2    0    0  0.00000000000E+00  0.00000000000E+00  0.10621913580E+04  0.40765650580E+04  0.39357505245E+04 0.  0.
        1    1    3    3  502    0  0.53306442230E+03 -0.16306996865E+04  0.15295311258E+04  0.22984352527E+04  0.50400001928E-02 0. -1.
       -1    1    3    3    0  502 -0.53306442230E+03  0.16306996865E+04 -0.46733976777E+03  0.17781298053E+04  0.50400001928E-02 0.  1.
</event>
<event>
 5   0  0.7675750E-08  0.3883223E+04  0.7818609E-02  0.8028528E-01
       -1   -1    0    0    0  501  0.00000000000E+00  0.00000000000E+00  0.16044223773E+04  0.16044223773E+04  0.50400001928E-02 0. -1.
        1   -1    0    0  501    0  0.00000000000E+00  0.00000000000E+00 -0.23496649877E+04  0.23496649877E+04  0.50400001928E-02 0.  1.
    10030    2    1    2    0    0  0.00000000000E+00  0.00000000000E+00 -0.74524261045E+03  0.39540873650E+04  0.38832229323E+04 0.  0.
        5    1    3    3  502    0 -0.53456845804E+03 -0.11718408711E+03  0.15242584018E+04  0.16195312014E+04  0.46999998093E+01 0. -1.
       -5    1    3    3    0  502  0.53456845804E+03  0.11718408711E+03 -0.22695010123E+04  0.23345561637E+04  0.46999998093E+01 0.  1.
</event>
<event>
 5   0  0.7675750E-08  0.3872380E+04  0.7818609E-02  0.8030798E-01
        1   -1    0    0  501    0  0.00000000000E+00  0.00000000000E+00  0.17009788295E+04  0.17009788295E+04  0.50400001928E-02 0.  1.
       -1   -1    0    0    0  501  0.00000000000E+00  0.00000000000E+00 -0.22039267028E+04  0.22039267028E+04  0.50400001928E-02 0. -1.
    10030    2    1    2    0    0  0.00000000000E+00  0.00000000000E+00 -0.50294787335E+03  0.39049055323E+04  0.38723804892E+04 0.  0.
        4    1    3    3  502    0  0.99042493745E+03 -0.41221522508E+03  0.13738854953E+04  0.17431081193E+04  0.12699999809E+01 0.  1.
       -4    1    3    3    0  502 -0.99042493745E+03  0.41221522508E+03 -0.18768333686E+04  0.21617974130E+04  0.12699999809E+01 0. -1.
</event>
<event>
 5   0  0.7731706E-08  0.3938455E+04  0.7818609E-02  0.8017078E-01
       -1   -1    0    0    0  501  0.00000000000E+00  0.00000000000E+00  0.26118200810E+04  0.26118200810E+04  0.50400001928E-02 0. -1.
        1   -1    0    0  501    0  0.00000000000E+00  0.00000000000E+00 -0.14847339089E+04  0.14847339089E+04  0.50400001928E-02 0.  1.
    10030    2    1    2    0    0  0.00000000000E+00  0.00000000000E+00  0.11270861721E+04  0.40965539899E+04  0.39384554526E+04 0.  0.
        3    1    3    3  502    0 -0.36255220268E+03 -0.59457450355E+03  0.24794656319E+04  0.25754053603E+04  0.10100000352E+00 0. -1.
       -3    1    3    3    0  502  0.36255220268E+03  0.59457450355E+03 -0.13523794597E+04  0.15211486296E+04  0.10100000352E+00 0.  1.
</event>
<event>
 5   0  0.2395572E-07  0.3941755E+04  0.7818609E-02  0.8016401E-01
       -2   -1    0    0    0  501  0.00000000000E+00  0.00000000000E+00  0.22453666640E+04  0.22453666640E+04  0.25500000920E-02 0.  1.
        2   -1    0    0  501    0  0.00000000000E+00  0.00000000000E+00 -0.17299440281E+04  0.17299440281E+04  0.25500000920E-02 0. -1.
    10030    2    1    2    0    0  0.00000000000E+00  0.00000000000E+00  0.51542263589E+03  0.39753106920E+04  0.39417552695E+04 0.  0.
        3    1    3    3  502    0 -0.14323060872E+04  0.91631022343E+03 -0.74738364580E+03  0.18573388159E+04  0.10100000352E+00 0. -1.
       -3    1    3    3    0  502  0.14323060872E+04 -0.91631022343E+03  0.12628062817E+04  0.21179718761E+04  0.10100000352E+00 0.  1.
</event>
<event>
 5   0  0.7675750E-08  0.3913806E+04  0.7818609E-02  0.8022164E-01
        1   -1    0    0  501    0  0.00000000000E+00  0.00000000000E+00  0.19438047768E+04  0.19438047768E+04  0.50400001928E-02 0. -1.
       -1   -1    0    0    0  501  0.00000000000E+00  0.00000000000E+00 -0.19700893484E+04  0.19700893484E+04  0.50400001928E-02 0.  1.
    10030    2    1    2    0    0  0.00000000000E+00  0.00000000000E+00 -0.26284571528E+02  0.39138941252E+04  0.39138058645E+04 0.  0.
        4    1    3    3  502    0  0.16301624471E+04  0.58755853530E+03 -0.92245528391E+03  0.19630537435E+04  0.12699999809E+01 0.  1.
       -4    1    3    3    0  502 -0.16301624471E+04 -0.58755853530E+03  0.89617071238E+03  0.19508403817E+04  0.12699999809E+01 0. -1.
</event>
<event>
 5   0  0.2446281E-07  0.3933183E+04  0.7818609E-02  0.8018163E-01
        2   -1    0    0  501    0  0.00000000000E+00  0.00000000000E+00  0.26151701449E+04  0.26151701449E+04  0.25500000920E-02 0.  1.
       -2   -1    0    0    0  501  0.00000000000E+00  0.00000000000E+00 -0.14788645989E+04  0.14788645989E+04  0.25500000920E-02 0. -1.
    10030    2    1    2    0    0  0.00000000000E+00  0.00000000000E+00  0.11363055460E+04  0.40940347437E+04  0.39331832132E+04 0.  0.
        1    1    3    3  502    0 -0.15850650802E+04 -0.83242628553E+03 -0.27883073060E+03  0.18119358172E+04  0.50400001928E-02 0.  1.
       -1    1    3    3    0  502  0.15850650802E+04  0.83242628553E+03  0.14151362766E+04  0.22820989266E+04  0.50400001928E-02 0. -1.
</event>
<event>
 5   0  0.7675750E-08  0.3901219E+04  0.7818609E-02  0.8024776E-01
       -1   -1    0    0    0  501  0.00000000000E+00  0.00000000000E+00  0.19708627559E+04  0.19708627559E+04  0.50400001928E-02 0.  1.
        1   -1    0    0  501    0  0.00000000000E+00  0.00000000000E+00 -0.19305648565E+04  0.19305648565E+04  0.50400001928E-02 0. -1.
    10030    2    1    2    0    0  0.00000000000E+00  0.00000000000E+00  0.40297899416E+02  0.39014276125E+04  0.39012194881E+04 0.  0.
        2    1    3    3  502    0 -0.17014643432E+04  0.88702994364E+03  0.37098861895E+03  0.19543376340E+04  0.25500000920E-02 0. -1.
       -2    1    3    3    0  502  0.17014643432E+04 -0.88702994364E+03 -0.33069071953E+03  0.19470899785E+04  0.25500000920E-02 0.  1.
</event>
<event>
 5   0  0.7731706E-08  0.3893229E+04  0.7818609E-02  0.8026439E-01
        1   -1    0    0  501    0  0.00000000000E+00  0.00000000000E+00  0.16007595901E+04  0.16007595901E+04  0.50400001928E-02 0. -1.
       -1   -1    0    0    0  501  0.00000000000E+00  0.00000000000E+00 -0.23671933054E+04  0.23671933054E+04  0.50400001928E-02 0.  1.
    10030    2    1    2    0    0  0.00000000000E+00  0.00000000000E+00 -0.76643371524E+03  0.39679528955E+04  0.38932286782E+04 0.  0.
        3    1    3    3  502    0  0.93071134477E+02  0.19113829655E+04 -0.19634281498E+02  0.19137483095E+04  0.10100000352E+00 0.  1.
       -3    1    3    3    0  502 -0.93071134477E+02 -0.19113829655E+04 -0.74679943374E+03  0.20542045860E+04  0.10100000352E+00 0. -1.
</event>
<event>
 5   0  0.2384787E-07  0.3914708E+04  0.7818609E-02  0.8021977E-01
        2   -1    0    0  501    0  0.00000000000E+00  0.00000000000E+00  0.17128581387E+04  0.17128581387E+04  0.25500000920E-02 0. -1.
       -2   -1    0    0    0  501  0.00000000000E+00  0.00000000000E+00 -0.22367499962E+04  0.22367499962E+04  0.25500000920E-02 0.  1.
    10030    2    1    2    0    0  0.00000000000E+00  0.00000000000E+00 -0.52389185744E+03  0.39496081349E+04  0.39147083852E+04 0.  0.
        4    1    3    3  502    0 -0.18517318888E+04  0.21210267164E+03  0.34115854166E+03  0.18948058726E+04  0.12699999809E+01 0.  1.
       -4    1    3    3    0  502  0.18517318888E+04 -0.21210267164E+03 -0.86505039910E+03  0.20548022623E+04  0.12699999809E+01 0. -1.
</event>
<event>
 5   0  0.7675750E-08  0.3740453E+04  0.7818609E-02  0.8059056E-01
        1   -1    0    0  501    0  0.00000000000E+00  0.00000000000E+00  0.23964724066E+04  0.23964724066E+04  0.50400001928E-02 0. -1.
       -1   -1    0    0    0  501  0.00000000000E+00  0.00000000000E+00 -0.14595396013E+04  0.14595396013E+04  0.50400001928E-02 0.  1.
    10030    2    1    2    0    0  0.00000000000E+00  0.00000000000E+00  0.93693280532E+03  0.38560120079E+04  0.37404525827E+04 0.  0.
        4    1    3    3  502    0  0.10074849659E+04  0.13599055605E+03 -0.11498164679E+04  0.15347960485E+04  0.12699999809E+01 0.  1.
       -4    1    3    3    0  502 -0.10074849659E+04 -0.13599055605E+03  0.20867492732E+04  0.23212159594E+04  0.12699999809E+01 0. -1.
</event>
<event>
 5   0  0.2473224E-07  0.3901312E+04  0.7818609E-02  0.8024756E-01
       -2   -1    0    0    0  501  0.00000000000E+00  0.00000000000E+00  0.13966543078E+04  0.13966543079E+04  0.25500000920E-02 0. -1.
        2   -1    0    0  501    0  0.00000000000E+00  0.00000000000E+00 -0.27244093579E+04  0.27244093579E+04  0.25500000920E-02 0.  1.
    10030    2    1    2    0    0  0.00000000000E+00  0.00000000000E+00 -0.13277550500E+04  0.41210636657E+04  0.39013116082E+04 0.  0.
        2    1    3    3  502    0  0.11610631431E+04  0.67934581566E+03 -0.21560613971E+04  0.25412947699E+04  0.25500000920E-02 0.  1.
       -2    1    3    3    0  502 -0.11610631431E+04 -0.67934581566E+03  0.82830634706E+03  0.15797688958E+04  0.25500000920E-02 0. -1.
</event>
<event>
 5   0  0.7675750E-08  0.3944030E+04  0.7818609E-02  0.8015934E-01
       -1   -1    0    0    0  501  0.00000000000E+00  0.00000000000E+00  0.17840761559E+04  0.17840761560E+04  0.50400001928E-02 0. -1.
        1   -1    0    0  501    0  0.00000000000E+00  0.00000000000E+00 -0.21797513003E+04  0.21797513003E+04  0.50400001928E-02 0.  1.
    10030    2    1    2    0    0  0.00000000000E+00  0.00000000000E+00 -0.39567514437E+03  0.39638274563E+04  0.39440295743E+04 0.  0.
        5    1    3    3  502    0 -0.14309102629E+04 -0.10322934217E+04 -0.10829891565E+04  0.20702708740E+04  0.46999998093E+01 0.  1.
       -5    1    3    3    0  502  0.14309102629E+04  0.10322934217E+04  0.68731401215E+03  0.18935565822E+04  0.46999998093E+01 0. -1.
</event>
<event>
 5   0  0.2395572E-07  0.3857231E+04  0.7818609E-02  0.8033984E-01
        2   -1    0    0  501    0  0.00000000000E+00  0.00000000000E+00  0.18634364211E+04  0.18634364211E+04  0.25500000920E-02 0. -1.
       -2   -1    0    0    0  501  0.00000000000E+00  0.00000000000E+00 -0.19960745972E+04  0.19960745972E+04  0.25500000920E-02 0.  1.
    10030    2    1    2    0    0  0.00000000000E+00  0.00000000000E+00 -0.13263817610E+03  0.38595110183E+04  0.38572311850E+04 0.  0.
        3    1    3    3  502    0 -0.14654023712E+04 -0.19483461383E+03  0.11730386394E+04  0.18871630285E+04  0.10100000352E+00 0. -1.
       -3    1    3    3    0  502  0.14654023712E+04  0.19483461383E+03 -0.13056768155E+04  0.19723479898E+04  0.10100000352E+00 0.  1.
</event>
<event>
 5   0  0.7675750E-08  0.3490517E+04  0.7818609E-02  0.8116041E-01
        1   -1    0    0  501    0  0.00000000000E+00  0.00000000000E+00  0.29600437653E+04  0.29600437653E+04  0.50400001928E-02 0.  1.
       -1   -1    0    0    0  501  0.00000000000E+00  0.00000000000E+00 -0.10290141897E+04  0.10290141897E+04  0.50400001928E-02 0. -1.
    10030    2    1    2    0    0  0.00000000000E+00  0.00000000000E+00  0.19310295756E+04  0.39890579550E+04  0.34905168882E+04 0.  0.
        2    1    3    3  502    0 -0.13729884464E+04  0.10637932355E+04  0.77031629152E+03  0.19000369762E+04  0.25500000920E-02 0. -1.
       -2    1    3    3    0  502  0.13729884464E+04 -0.10637932355E+04  0.11607132841E+04  0.20890209788E+04  0.25500000920E-02 0.  1.
</event>
<event>
 5   0  0.2473224E-07  0.4010919E+04  0.7818609E-02  0.8002347E-01
       -2   -1    0    0    0  501  0.00000000000E+00  0.00000000000E+00  0.13362814125E+04  0.13362814125E+04  0.25500000920E-02 0. -1.
        2   -1    0    0  501    0  0.00000000000E+00  0.00000000000E+00 -0.30097460127E+04  0.30097460127E+04  0.25500000920E-02 0.  1.
    10030    2    1    2    0    0  0.00000000000E+00  0.00000000000E+00 -0.16734646002E+04  0.43460274252E+04  0.40109189237E+04 0.  0.
        2    1    3    3  502    0  0.15410301240E+03 -0.58382778379E+01  0.13298472312E+04  0.13387589336E+04  0.25500000920E-02 0. -1.
       -2    1    3    3    0  502 -0.15410301240E+03  0.58382778379E+01 -0.30033118314E+04  0.30072684916E+04  0.25500000920E-02 0.  1.
</event>
<event>
 5   0  0.2446281E-07  0.3980949E+04  0.7818609E-02  0.8008401E-01
       -2   -1    0    0    0  501  0.00000000000E+00  0.00000000000E+00  0.24185472835E+04  0.24185472835E+04  0.25500000920E-02 0.  1.
        2   -1    0    0  501    0  0.00000000000E+00  0.00000000000E+00 -0.16381688112E+04  0.16381688112E+04  0.25500000920E-02 0. -1.
    10030    2    1    2    0    0  0.00000000000E+00  0.00000000000E+00  0.78037847224E+03  0.40567160947E+04  0.39809489965E+04 0.  0.
        1    1    3    3  502    0 -0.19220869141E+04 -0.24885072898E+03  0.85229986413E+03  0.21172529016E+04  0.50400001928E-02 0.  1.
       -1    1    3    3    0  502  0.19220869141E+04  0.24885072898E+03 -0.71921391889E+02  0.19394631931E+04  0.50400001928E-02 0. -1.
</event>
<event>
 5   0  0.7731706E-08  0.3841795E+04  0.7818609E-02  0.8037245E-01
       -1   -1    0    0    0  501  0.00000000000E+00  0.00000000000E+00  0.26491994440E+04  0.26491994440E+04  0.50400001928E-02 0.  1.
        1   -1    0    0  501    0  0.00000000000E+00  0.00000000000E+00 -0.13928161687E+04  0.13928161687E+04  0.50400001928E-02 0. -1.
    10030    2    1    2    0    0  0.00000000000E+00  0.00000000000E+00  0.12563832753E+04  0.40420156127E+04  0.38417953197E+04 0.  0.
        3    1    3    3  502    0 -0.35503934252E+03 -0.44434541493E+03  0.25585748326E+04  0.26210305162E+04  0.10100000352E+00 0.  1.
       -3    1    3    3    0  502  0.35503934252E+03  0.44434541493E+03 -0.13021915573E+04  0.14209850965E+04  0.10100000352E+00 0. -1.
</event>
<event>
 5   0  0.7675750E-08  0.3891725E+04  0.7818609E-02  0.8026752E-01
       -1   -1    0    0    0  501  0.00000000000E+00  0.00000000000E+00  0.22199826198E+04  0.22199826198E+04  0.50400001928E-02 0. -1.
        1   -1    0    0  501    0  0.00000000000E+00  0.00000000000E+00 -0.17055903160E+04  0.17055903160E+04  0.50400001928E-02 0.  1.
    10030    2    1    2    0    0  0.00000000000E+00  0.00000000000E+00  0.51439230380E+03  0.39255729358E+04  0.38917249944E+04 0.  0.
        4    1    3    3  502    0  0.78345638118E+03 -0.55503341891E+03 -0.14500114061E+04  0.17390804145E+04  0.12699999809E+01 0.  1.
       -4    1    3    3    0  502 -0.78345638118E+03  0.55503341891E+03  0.19644037099E+04  0.21864925213E+04  0.12699999809E+01 0. -1.
</event>
<event>
 5   0  0.2473224E-07  0.3914039E+04  0.7818609E-02  0.8022116E-01
       -2   -1    0    0    0  501  0.00000000000E+00  0.00000000000E+00  0.15585328259E+04  0.15585328259E+04  0.25500000920E-02 0. -1.
        2   -1    0    0  501    0  0.00000000000E+00  0.00000000000E+00 -0.24573917793E+04  0.24573917793E+04  0.25500000920E-02 0.  1.
    10030    2    1    2    0    0  0.00000000000E+00  0.00000000000E+00 -0.89885895332E+03  0.40159246052E+04  0.39140392201E+04 0.  0.
        2    1    3    3  502    0 -0.17234371398E+04  0.90046327766E+03 -0.67621724069E+03  0.20587227705E+04  0.25500000920E-02 0.  1.
       -2    1    3    3    0  502  0.17234371398E+04 -0.90046327766E+03 -0.22264171263E+03  0.19572018347E+04  0.25500000920E-02 0. -1.
</event>
<event>
 5   0  0.2384787E-07  0.3421597E+04  0.7818609E-02  0.8132626E-01
       -2   -1    0    0    0  501  0.00000000000E+00  0.00000000000E+00  0.21741172796E+04  0.21741172796E+04  0.25500000920E-02 0.  1.
        2   -1    0    0  501    0  0.00000000000E+00  0.00000000000E+00 -0.13462162540E+04  0.13462162540E+04  0.25500000920E-02 0. -1.
    10030    2    1    2    0    0  0.00000000000E+00  0.00000000000E+00  0.82790102556E+03  0.35203335336E+04  0.34215972995E+04 0.  0.
        4    1    3    3  502    0  0.83736898690E+03  0.21873625024E+03 -0.11043709088E+04  0.14030926856E+04  0.12699999809E+01 0. -1.
       -4    1    3    3    0  502 -0.83736898690E+03 -0.21873625024E+03  0.19322719343E+04  0.21172408480E+04  0.12699999809E+01 0.  1.
</event>
<event>
 5   0  0.2395572E-07  0.3916495E+04  0.7818609E-02  0.8021607E-01
        2   -1    0    0  501    0  0.00000000000E+00  0.00000000000E+00  0.29299688157E+04  0.29299688157E+04  0.25500000920E-02 0.  1.
       -2   -1    0    0    0  501  0.00000000000E+00  0.00000000000E+00 -0.13087963822E+04  0.13087963822E+04  0.25500000920E-02 0. -1.
    10030    2    1    2    0    0  0.00000000000E+00  0.00000000000E+00  0.16211724335E+04  0.42387651979E+04  0.39164946501E+04 0.  0.
        3    1    3    3  502    0 -0.14397029009E+04  0.75902066086E+03  0.19891726021E+04  0.25701487228E+04  0.10100000352E+00 0.  1.
       -3    1    3    3    0  502  0.14397029009E+04 -0.75902066086E+03 -0.36800016856E+03  0.16686164751E+04  0.10100000352E+00 0. -1.
</event>
<event>
 5   0  0.2486268E-07  0.3301135E+04  0.7818609E-02  0.8162607E-01
        2   -1    0    0  501    0  0.00000000000E+00  0.00000000000E+00  0.15298555582E+04  0.15298555582E+04  0.25500000920E-02 0. -1.
       -2   -1    0    0    0  501  0.00000000000E+00  0.00000000000E+00 -0.17808041606E+04  0.17808041606E+04  0.25500000920E-02 0.  1.
    10030    2    1    2    0    0  0.00000000000E+00  0.00000000000E+00 -0.25094860247E+03  0.33106597188E+04  0.33011350431E+04 0.  0.
        5    1    3    3  502    0  0.10229761092E+04 -0.50750753568E+03  0.10697306206E+04  0.15647331112E+04  0.46999998093E+01 0. -1.
       -5    1    3    3    0  502 -0.10229761092E+04  0.50750753568E+03 -0.13206792230E+04  0.17459266076E+04  0.46999998093E+01 0.  1.
</event>
<event>
 5   0  0.7675750E-08  0.3901836E+04  0.7818609E-02  0.8024647E-01
        1   -1    0    0  501    0  0.00000000000E+00  0.00000000000E+00  0.30936768417E+04  0.30936768417E+04  0.50400001928E-02 0.  1.
       -1   -1    0    0    0  501  0.00000000000E+00  0.00000000000E+00 -0.12302778099E+04  0.12302778099E+04  0.50400001928E-02 0. -1.
    10030    2    1    2    0    0  0.00000000000E+00  0.00000000000E+00  0.18633990318E+04  0.43239546515E+04  0.39018364749E+04 0.  0.
        4    1    3    3  502    0  0.60230319472E+03 -0.78221973224E+03 -0.93303073758E+03  0.13583758015E+04  0.12699999809E+01 0. -1.
       -4    1    3    3    0  502 -0.60230319472E+03  0.78221973224E+03  0.27964297694E+04  0.29655788501E+04  0.12699999809E+01 0.  1.
</event>
<event>
 5   0  0.7675750E-08  0.3834942E+04  0.7818609E-02  0.8038698E-01
       -1   -1    0    0    0  501  0.00000000000E+00  0.00000000000E+00  0.13623349058E+04  0.13623349059E+04  0.50400001928E-02 0.  1.
        1   -1    0    0  501    0  0.00000000000E+00  0.00000000000E+00 -0.26988189025E+04  0.26988189025E+04  0.50400001928E-02 0. -1.
    10030    2    1    2    0    0  0.00000000000E+00  0.00000000000E+00 -0.13364839967E+04  0.40611538084E+04  0.38349420833E+04 0.  0.
        5    1    3    3  502    0  0.12576247357E+04  0.67849050211E+03  0.68573148874E+03  0.15849981394E+04  0.46999998093E+01 0.  1.
       -5    1    3    3    0  502 -0.12576247357E+04 -0.67849050211E+03 -0.20222154854E+04  0.24761556690E+04  0.46999998093E+01 0. -1.
</event>
<event>
 5   0  0.7675750E-08  0.3915160E+04  0.7818609E-02  0.8021884E-01
        1   -1    0    0  501    0  0.00000000000E+00  0.00000000000E+00  0.27372052707E+04  0.27372052707E+04  0.50400001928E-02 0.  1.
       -1   -1    0    0    0  501  0.00000000000E+00  0.00000000000E+00 -0.14000118714E+04  0.14000118714E+04  0.50400001928E-02 0. -1.
    10030    2    1    2    0    0  0.00000000000E+00  0.00000000000E+00  0.13371933994E+04  0.41372171421E+04  0.39151602130E+04 0.  0.
        1    1    3    3  502    0 -0.12717334696E+04 -0.59215038873E+03 -0.77418870625E+03  0.16022846980E+04  0.50400001928E-02 0. -1.
       -1    1    3    3    0  502  0.12717334696E+04  0.59215038873E+03  0.21113821056E+04  0.25349324441E+04  0.50400001928E-02 0.  1.
</event>
<event>
 5   0  0.2384787E-07  0.3929252E+04  0.7818609E-02  0.8018973E-01
       -2   -1    0    0    0  501  0.00000000000E+00  0.00000000000E+00  0.18259965568E+04  0.18259965568E+04  0.25500000920E-02 0.  1.
        2   -1    0    0  501    0  0.00000000000E+00  0.00000000000E+00 -0.21137800527E+04  0.21137800527E+04  0.25500000920E-02 0. -1.
    10030    2    1    2    0    0  0.00000000000E+00  0.00000000000E+00 -0.28778349595E+03  0.39397766095E+04  0.39292518871E+04 0.  0.
        4    1    3    3  502    0  0.60387564507E+03  0.13316419494E+04  0.11718034037E+04  0.18737825130E+04  0.12699999809E+01 0.  1.
       -4    1    3    3    0  502 -0.60387564507E+03 -0.13316419494E+04 -0.14595868997E+04  0.20659940965E+04  0.12699999809E+01 0. -1.
</event>
<event>
 5   0  0.2384787E-07  0.3868779E+04  0.7818609E-02  0.8031554E-01
       -2   -1    0    0    0  501  0.00000000000E+00  0.00000000000E+00  0.14241564579E+04  0.14241564579E+04  0.25500000920E-02 0. -1.
        2   -1    0    0  501    0  0.00000000000E+00  0.00000000000E+00 -0.26274237373E+04  0.26274237373E+04  0.25500000920E-02 0.  1.
    10030    2    1    2    0    0  0.00000000000E+00  0.00000000000E+00 -0.12032672794E+04  0.40515801952E+04  0.38687788684E+04 0.  0.
        4    1    3    3  502    0  0.45825433518E+03 -0.14932058237E+04 -0.17966928183E+04  0.23807073243E+04  0.12699999809E+01 0.  1.
       -4    1    3    3    0  502 -0.45825433518E+03  0.14932058237E+04  0.59342553889E+03  0.16708728709E+04  0.12699999809E+01 0. -1.
</event>
<event>
 5   0  0.2473224E-07  0.3940380E+04  0.7818609E-02  0.8016683E-01
        2   -1    0    0  501    0  0.00000000000E+00  0.00000000000E+00  0.29646990804E+04  0.29646990804E+04  0.25500000920E-02 0. -1.
       -2   -1    0    0    0  501  0.00000000000E+00  0.00000000000E+00 -0.13092893431E+04  0.13092893431E+04  0.25500000920E-02 0.  1.
    10030    2    1    2    0    0  0.00000000000E+00  0.00000000000E+00  0.16554097373E+04  0.42739884235E+04  0.39403801398E+04 0.  0.
        2    1    3    3  502    0  0.13643101501E+04  0.65609061009E+03 -0.53994064935E+03  0.16072750166E+04  0.25500000920E-02 0.  1.
       -2    1    3    3    0  502 -0.13643101501E+04 -0.65609061009E+03  0.21953503866E+04  0.26667134069E+04  0.25500000920E-02 0. -1.
</event>
<event>
 5   0  0.7675750E-08  0.3911023E+04  0.7818609E-02  0.8022741E-01
        1   -1    0    0  501    0  0.00000000000E+00  0.00000000000E+00  0.25036045782E+04  0.25036045782E+04  0.50400001928E-02 0.  1.
       -1   -1    0    0    0  501  0.00000000000E+00  0.00000000000E+00 -0.15274074592E+04  0.15274074592E+04  0.50400001928E-02 0. -1.
    10030    2    1    2    0    0  0.00000000000E+00  0.00000000000E+00  0.97619711893E+03  0.40310120374E+04  0.39110225301E+04 0.  0.
        2    1    3    3  502    0 -0.28452490026E+02  0.82770006202E+03  0.23139231867E+04  0.24576691093E+04  0.25500000920E-02 0.  1.
       -2    1    3    3    0  502  0.28452490026E+02 -0.82770006202E+03 -0.13377260678E+04  0.15733429281E+04  0.25500000920E-02 0. -1.
</event>
<event>
 5   0  0.7731706E-08  0.3910164E+04  0.7818609E-02  0.8022919E-01
       -1   -1    0    0    0  501  0.00000000000E+00  0.00000000000E+00  0.20278951074E+04  0.20278951075E+04  0.50400001928E-02 0. -1.
        1   -1    0    0  501    0  0.00000000000E+00  0.00000000000E+00 -0.18848829298E+04  0.18848829298E+04  0.50400001928E-02 0.  1.
    10030    2    1    2    0    0  0.00000000000E+00  0.00000000000E+00  0.14301217765E+03  0.39127780373E+04  0.39101636137E+04 0.  0.
        3    1    3    3  502    0 -0.82684297939E+03  0.10406933384E+04 -0.13632004067E+04  0.19039504447E+04  0.10100000352E+00 0.  1.
       -3    1    3    3    0  502  0.82684297939E+03 -0.10406933384E+04  0.15062125843E+04  0.20088275925E+04  0.10100000352E+00 0. -1.
</event>
<event>
 5   0  0.2486268E-07  0.3903770E+04  0.7818609E-02  0.8024246E-01
       -2   -1    0    0    0  501  0.00000000000E+00  0.00000000000E+00  0.18127698914E+04  0.18127698914E+04  0.25500000920E-02 0.  1.
        2   -1    0    0  501    0  0.00000000000E+00  0.00000000000E+00 -0.21016758533E+04  0.21016758533E+04  0.25500000920E-02 0. -1.
    10030    2    1    2    0    0  0.00000000000E+00  0.00000000000E+00 -0.28890596190E+03  0.39144457447E+04  0.39037698233E+04 0.  0.
        5    1    3    3  502    0 -0.66508440461E+03 -0.17325958791E+04  0.46185495264E+03  0.19124742698E+04  0.46999998093E+01 0. -1.
       -5    1    3    3    0  502  0.66508440461E+03  0.17325958791E+04 -0.75076091454E+03  0.20019714749E+04  0.46999998093E+01 0.  1.
</event>
<event>
 5   0  0.2446281E-07  0.3891033E+04  0.7818609E-02  0.8026897E-01
       -2   -1    0    0    0  501  0.00000000000E+00  0.00000000000E+00  0.19978481739E+04  0.19978481739E+04  0.25500000920E-02 0. -1.
        2   -1    0    0  501    0  0.00000000000E+00  0.00000000000E+00 -0.18945555885E+04  0.18945555885E+04  0.25500000920E-02 0.  1.
    10030    2    1    2    0    0  0.00000000000E+00  0.00000000000E+00  0.10329258532E+03  0.38924037624E+04  0.38910329851E+04 0.  0.
        1    1    3    3  502    0 -0.15662691277E+04  0.10645040673E+04 -0.39423097153E+03  0.19343696515E+04  0.50400001928E-02 0.  1.
       -1    1    3    3    0  502  0.15662691277E+04 -0.10645040673E+04  0.49752355686E+03  0.19580341109E+04  0.50400001928E-02 0. -1.
</event>
<event>
 5   0  0.7675750E-08  0.3899901E+04  0.7818609E-02  0.8025050E-01
        1   -1    0    0  501    0  0.00000000000E+00  0.00000000000E+00  0.26203049374E+04  0.26203049374E+04  0.50400001928E-02 0.  1.
       -1   -1    0    0    0  501  0.00000000000E+00  0.00000000000E+00 -0.14510934792E+04  0.14510934792E+04  0.50400001928E-02 0. -1.
    10030    2    1    2    0    0  0.00000000000E+00  0.00000000000E+00  0.11692114581E+04  0.40713984166E+04  0.38999012337E+04 0.  0.
        4    1    3    3  502    0  0.65354440764E+02 -0.73930825837E+03  0.24670800553E+04  0.25763022952E+04  0.12699999809E+01 0.  1.
       -4    1    3    3    0  502 -0.65354440764E+02  0.73930825837E+03 -0.12978685972E+04  0.14950961214E+04  0.12699999809E+01 0. -1.
</event>
<event>
 5   0  0.7675750E-08  0.3870457E+04  0.7818609E-02  0.8031202E-01
        1   -1    0    0  501    0  0.00000000000E+00  0.00000000000E+00  0.23208122228E+04  0.23208122228E+04  0.50400001928E-02 0. -1.
       -1   -1    0    0    0  501  0.00000000000E+00  0.00000000000E+00 -0.16137066219E+04  0.16137066219E+04  0.50400001928E-02 0.  1.
    10030    2    1    2    0    0  0.00000000000E+00  0.00000000000E+00  0.70710560088E+03  0.39345188448E+04  0.38704573643E+04 0.  0.
        4    1    3    3  502    0 -0.73035664337E+03 -0.34494655383E+03 -0.14341618663E+04  0.16459741259E+04  0.12699999809E+01 0.  1.
       -4    1    3    3    0  502  0.73035664337E+03  0.34494655383E+03  0.21412674672E+04  0.22885447189E+04  0.12699999809E+01 0. -1.
</event>
<event>
 5   0  0.7675750E-08  0.3914201E+04  0.7818609E-02  0.8022082E-01
        1   -1    0    0  501    0  0.00000000000E+00  0.00000000000E+00  0.16279805012E+04  0.16279805013E+04  0.50400001928E-02 0. -1.
       -1   -1    0    0    0  501  0.00000000000E+00  0.00000000000E+00 -0.23527563287E+04  0.23527563287E+04  0.50400001928E-02 0.  1.
    10030    2    1    2    0    0  0.00000000000E+00  0.00000000000E+00 -0.72477582742E+03  0.39807368299E+04  0.39142005198E+04 0.  0.
        5    1    3    3  502    0  0.94396539275E+03  0.10675430124E+04  0.10018697229E+04  0.17419769740E+04  0.46999998093E+01 0. -1.
       -5    1    3    3    0  502 -0.94396539275E+03 -0.10675430124E+04 -0.17266455504E+04  0.22387598560E+04  0.46999998093E+01 0.  1.
</event>
<event>
 5   0  0.2384787E-07  0.3717007E+04  0.7818609E-02  0.8064203E-01
        2   -1    0    0  501    0  0.00000000000E+00  0.00000000000E+00  0.22227852818E+04  0.22227852818E+04  0.25500000920E-02 0. -1.
       -2   -1    0    0    0  501  0.00000000000E+00  0.00000000000E+00 -0.15539219674E+04  0.15539219674E+04  0.25500000920E-02 0.  1.
    10030    2    1    2    0    0  0.00000000000E+00  0.00000000000E+00  0.66886331438E+03  0.37767072491E+04  0.37170067948E+04 0.  0.
        4    1    3    3  502    0 -0.64927210984E+03  0.83272113391E+03  0.18883927390E+04  0.21635636133E+04  0.12699999809E+01 0. -1.
       -4    1    3    3    0  502  0.64927210984E+03 -0.83272113391E+03 -0.12195294246E+04  0.16131436358E+04  0.12699999809E+01 0.  1.
</event>
<event>
 5   0  0.7675750E-08  0.3934072E+04  0.7818609E-02  0.8017980E-01
        3   -1    0    0  501    0  0.00000000000E+00  0.00000000000E+00  0.20602455685E+04  0.20602455709E+04  0.10100000352E+00 0. -1.
       -3   -1    0    0    0  501  0.00000000000E+00  0.00000000000E+00 -0.18780437340E+04  0.18780437367E+04  0.10100000352E+00 0.  1.
    10030    2    1    2    0    0  0.00000000000E+00  0.00000000000E+00  0.18220183445E+03  0.39382893076E+04  0.39340723382E+04 0.  0.
        4    1    3    3  502    0 -0.10332115395E+04 -0.82279554697E+03  0.15503022458E+04  0.20366534471E+04  0.12699999809E+01 0. -1.
       -4    1    3    3    0  502  0.10332115395E+04  0.82279554697E+03 -0.13681004113E+04  0.19016358605E+04  0.12699999809E+01 0.  1.
</event>
<event>
 5   0  0.2395572E-07  0.3938102E+04  0.7818609E-02  0.8017151E-01
        2   -1    0    0  501    0  0.00000000000E+00  0.00000000000E+00  0.24980608710E+04  0.24980608710E+04  0.25500000920E-02 0. -1.
       -2   -1    0    0    0  501  0.00000000000E+00  0.00000000000E+00 -0.15520688886E+04  0.15520688886E+04  0.25500000920E-02 0.  1.
    10030    2    1    2    0    0  0.00000000000E+00  0.00000000000E+00  0.94599198241E+03  0.40501297595E+04  0.39381023651E+04 0.  0.
        3    1    3    3  502    0  0.11364726673E+03  0.17229552970E+04 -0.50032571694E+03  0.17977253655E+04  0.10100000352E+00 0. -1.
       -3    1    3    3    0  502 -0.11364726673E+03 -0.17229552970E+04  0.14463176993E+04  0.22524043940E+04  0.10100000352E+00 0.  1.
</event>
<event>
 5   0  0.2395572E-07  0.4473061E+04  0.7818609E-02  0.7915370E-01
       -2   -1    0    0    0  501  0.00000000000E+00  0.00000000000E+00  0.20349883330E+04  0.20349883330E+04  0.25500000920E-02 0.  1.
        2   -1    0    0  501    0  0.00000000000E+00  0.00000000000E+00 -0.24580331917E+04  0.24580331917E+04  0.25500000920E-02 0. -1.
    10030    2    1    2    0    0  0.00000000000E+00  0.00000000000E+00 -0.42304485864E+03  0.44930215247E+04  0.44730610849E+04 0.  0.
        3    1    3    3  502    0 -0.93521515684E+03  0.16846284578E+04  0.92909243373E+03  0.21391150486E+04  0.10100000352E+00 0. -1.
       -3    1    3    3    0  502  0.93521515684E+03 -0.16846284578E+04 -0.13521372924E+04  0.23539064761E+04  0.10100000352E+00 0.  1.
</event>
<event>
 5   0  0.7675750E-08  0.3895786E+04  0.7818609E-02  0.8025906E-01
       -1   -1    0    0    0  501  0.00000000000E+00  0.00000000000E+00  0.15742240261E+04  0.15742240261E+04  0.50400001928E-02 0.  1.
        1   -1    0    0  501    0  0.00000000000E+00  0.00000000000E+00 -0.24102585158E+04  0.24102585158E+04  0.50400001928E-02 0. -1.
    10030    2    1    2    0    0  0.00000000000E+00  0.00000000000E+00 -0.83603448970E+03  0.39844825418E+04  0.38957858589E+04 0.  0.
        5    1    3    3  502    0 -0.14615289452E+04  0.91338540605E+03  0.51035189655E+03  0.17974484432E+04  0.46999998093E+01 0. -1.
       -5    1    3    3    0  502  0.14615289452E+04 -0.91338540605E+03 -0.13463863862E+04  0.21870340987E+04  0.46999998093E+01 0.  1.
</event>
<event>
 5   0  0.2395572E-07  0.3902870E+04  0.7818609E-02  0.8024433E-01
        2   -1    0    0  501    0  0.00000000000E+00  0.00000000000E+00  0.18456754661E+04  0.18456754661E+04  0.25500000920E-02 0.  1.
       -2   -1    0    0    0  501  0.00000000000E+00  0.00000000000E+00 -0.20632542129E+04  0.20632542129E+04  0.25500000920E-02 0. -1.
    10030    2    1    2    0    0  0.00000000000E+00  0.00000000000E+00 -0.21757874675E+03  0.39089296790E+04  0.39028695500E+04 0.  0.
        3    1    3    3  502    0 -0.45789518542E+03 -0.17201674698E+04 -0.90968942560E+03  0.19990445183E+04  0.10100000352E+00 0. -1.
       -3    1    3    3    0  502  0.45789518542E+03  0.17201674698E+04  0.69211067885E+03  0.19098851607E+04  0.10100000352E+00 0.  1.
</event>
<event>
 5   0  0.2473224E-07  0.3983115E+04  0.7818609E-02  0.8007961E-01
        2   -1    0    0  501    0  0.00000000000E+00  0.00000000000E+00  0.29741247157E+04  0.29741247157E+04  0.25500000920E-02 0. -1.
       -2   -1    0    0    0  501  0.00000000000E+00  0.00000000000E+00 -0.13336029270E+04  0.13336029270E+04  0.25500000920E-02 0.  1.
    10030    2    1    2    0    0  0.00000000000E+00  0.00000000000E+00  0.16405217887E+04  0.43077276426E+04  0.39831150754E+04 0.  0.
        2    1    3    3  502    0  0.16838885021E+04  0.94843845055E+03  0.30014570843E+03  0.19557871633E+04  0.25500000920E-02 0.  1.
       -2    1    3    3    0  502 -0.16838885021E+04 -0.94843845055E+03  0.13403760803E+04  0.23519404793E+04  0.25500000920E-02 0. -1.
</event>
<event>
 5   0  0.2446281E-07  0.3866638E+04  0.7818609E-02  0.8032004E-01
       -2   -1    0    0    0  501  0.00000000000E+00  0.00000000000E+00  0.16099576366E+04  0.16099576366E+04  0.25500000920E-02 0.  1.
        2   -1    0    0  501    0  0.00000000000E+00  0.00000000000E+00 -0.23216281299E+04  0.23216281299E+04  0.25500000920E-02 0. -1.
    10030    2    1    2    0    0  0.00000000000E+00  0.00000000000E+00 -0.71167049332E+03  0.39315857666E+04  0.38666383007E+04 0.  0.
        1    1    3    3  502    0 -0.82541657695E+03  0.16300352747E+04  0.28675738756E+03  0.18494748772E+04  0.50400001928E-02 0.  1.
       -1    1    3    3    0  502  0.82541657695E+03 -0.16300352747E+04 -0.99842788087E+03  0.20821108893E+04  0.50400001928E-02 0. -1.
</event>
<event>
 5   0  0.7731706E-08  0.3755682E+04  0.7818609E-02  0.8055733E-01
        1   -1    0    0  501    0  0.00000000000E+00  0.00000000000E+00  0.13005954259E+04  0.13005954260E+04  0.50400001928E-02 0.  1.
       -1   -1    0    0    0  501  0.00000000000E+00  0.00000000000E+00 -0.27112864376E+04  0.27112864376E+04  0.50400001928E-02 0. -1.
    10030    2    1    2    0    0  0.00000000000E+00  0.00000000000E+00 -0.14106910117E+04  0.40118818636E+04  0.37556819563E+04 0.  0.
        3    1    3    3  502    0 -0.11004672960E+04  0.11196992520E+03 -0.23263342813E+04  0.25759263834E+04  0.10100000352E+00 0. -1.
       -3    1    3    3    0  502  0.11004672960E+04 -0.11196992520E+03  0.91564326966E+03  0.14359554802E+04  0.10100000352E+00 0.  1.
</event>
<event>
 5   0  0.2384787E-07  0.3581399E+04  0.7818609E-02  0.8094766E-01
       -2   -1    0    0    0  501  0.00000000000E+00  0.00000000000E+00  0.99422837240E+03  0.99422837240E+03  0.25500000920E-02 0.  1.
        2   -1    0    0  501    0  0.00000000000E+00  0.00000000000E+00 -0.32252186237E+04  0.32252186237E+04  0.25500000920E-02 0. -1.
    10030    2    1    2    0    0  0.00000000000E+00  0.00000000000E+00 -0.22309902513E+04  0.42194469961E+04  0.35813985329E+04 0.  0.
        4    1    3    3  502    0  0.26059711470E+03  0.16076664992E+04 -0.23850058595E+03  0.16460214370E+04  0.12699999809E+01 0.  1.
       -4    1    3    3    0  502 -0.26059711470E+03 -0.16076664992E+04 -0.19924896654E+04  0.25734255591E+04  0.12699999809E+01 0. -1.
</event>
<event>
 5   0  0.2384787E-07  0.3759789E+04  0.7818609E-02  0.8054840E-01
        2   -1    0    0  501    0  0.00000000000E+00  0.00000000000E+00  0.20358686940E+04  0.20358686940E+04  0.25500000920E-02 0.  1.
       -2   -1    0    0    0  501  0.00000000000E+00  0.00000000000E+00 -0.17358699151E+04  0.17358699151E+04  0.25500000920E-02 0. -1.
    10030    2    1    2    0    0  0.00000000000E+00  0.00000000000E+00  0.29999877893E+03  0.37717386091E+04  0.37597889393E+04 0.  0.
        4    1    3    3  502    0  0.12416917218E+04 -0.14086500160E+04  0.60787536267E+02  0.18787735194E+04  0.12699999809E+01 0.  1.
       -4    1    3    3    0  502 -0.12416917218E+04  0.14086500160E+04  0.23921124267E+03  0.18929650898E+04  0.12699999809E+01 0. -1.
</event>
<event>
 5   0  0.2395572E-07  0.3618216E+04  0.7818609E-02  0.8086332E-01
       -2   -1    0    0    0  501  0.00000000000E+00  0.00000000000E+00  0.11991357759E+04  0.11991357759E+04  0.25500000920E-02 0.  1.
        2   -1    0    0  501    0  0.00000000000E+00  0.00000000000E+00 -0.27293583256E+04  0.27293583256E+04  0.25500000920E-02 0. -1.
    10030    2    1    2    0    0  0.00000000000E+00  0.00000000000E+00 -0.15302225497E+04  0.39284941015E+04  0.36182157004E+04 0.  0.
        3    1    3    3  502    0  0.10200510270E+03  0.77455215050E+03 -0.25367669706E+04  0.26543403603E+04  0.10100000352E+00 0. -1.
       -3    1    3    3    0  502 -0.10200510270E+03 -0.77455215050E+03  0.10065444210E+04  0.12741537413E+04  0.10100000352E+00 0.  1.
</event>
<event>
 5   0  0.7675750E-08  0.3916445E+04  0.7818609E-02  0.8021618E-01
        1   -1    0    0  501    0  0.00000000000E+00  0.00000000000E+00  0.12456863061E+04  0.12456863061E+04  0.50400001928E-02 0.  1.
       -1   -1    0    0    0  501  0.00000000000E+00  0.00000000000E+00 -0.30783309343E+04  0.30783309343E+04  0.50400001928E-02 0. -1.
    10030    2    1    2    0    0  0.00000000000E+00  0.00000000000E+00 -0.18326446282E+04  0.43240172403E+04  0.39164446583E+04 0.  0.
        4    1    3    3  502    0 -0.11803033357E+04 -0.43659836638E+03  0.74010897286E+03  0.14599647264E+04  0.12699999809E+01 0.  1.
       -4    1    3    3    0  502  0.11803033357E+04  0.43659836638E+03 -0.25727536011E+04  0.28640525139E+04  0.12699999809E+01 0. -1.
</event>
<event>
 5   0  0.7675750E-08  0.3809903E+04  0.7818609E-02  0.8044033E-01
        1   -1    0    0  501    0  0.00000000000E+00  0.00000000000E+00  0.15215773152E+04  0.15215773152E+04  0.50400001928E-02 0. -1.
       -1   -1    0    0    0  501  0.00000000000E+00  0.00000000000E+00 -0.23849197962E+04  0.23849197962E+04  0.50400001928E-02 0.  1.
    10030    2    1    2    0    0  0.00000000000E+00  0.00000000000E+00 -0.86334248094E+03  0.39064971114E+04  0.38099028126E+04 0.  0.
        2    1    3    3  502    0 -0.16173538421E+04  0.39838155207E+03  0.51604526523E+03  0.17438016021E+04  0.25500000920E-02 0.  1.
       -2    1    3    3    0  502  0.16173538421E+04 -0.39838155207E+03 -0.13793877462E+04  0.21626955093E+04  0.25500000920E-02 0. -1.
</event>
<event>
 5   0  0.2395572E-07  0.3927213E+04  0.7818609E-02  0.8019393E-01
        2   -1    0    0  501    0  0.00000000000E+00  0.00000000000E+00  0.24426938601E+04  0.24426938601E+04  0.25500000920E-02 0. -1.
       -2   -1    0    0    0  501  0.00000000000E+00  0.00000000000E+00 -0.15784831212E+04  0.15784831212E+04  0.25500000920E-02 0.  1.
    10030    2    1    2    0    0  0.00000000000E+00  0.00000000000E+00  0.86421073886E+03  0.40211769812E+04  0.39272132758E+04 0.  0.
        3    1    3    3  502    0  0.11222170532E+04 -0.11866309740E+03 -0.12132964070E+04  0.16569671774E+04  0.10100000352E+00 0.  1.
       -3    1    3    3    0  502 -0.11222170532E+04  0.11866309740E+03  0.20775071459E+04  0.23642098039E+04  0.10100000352E+00 0. -1.
</event>
<event>
 5   0  0.2384787E-07  0.3931808E+04  0.7818609E-02  0.8018446E-01
       -2   -1    0    0    0  501  0.00000000000E+00  0.00000000000E+00  0.24625801980E+04  0.24625801980E+04  0.25500000920E-02 0.  1.
        2   -1    0    0  501    0  0.00000000000E+00  0.00000000000E+00 -0.15694021684E+04  0.15694021684E+04  0.25500000920E-02 0. -1.
    10030    2    1    2    0    0  0.00000000000E+00  0.00000000000E+00  0.89317802967E+03  0.40319823664E+04  0.39318080841E+04 0.  0.
        4    1    3    3  502    0  0.44875648024E+03  0.79380662988E+03  0.22325893791E+04  0.24116318734E+04  0.12699999809E+01 0.  1.
       -4    1    3    3    0  502 -0.44875648024E+03 -0.79380662988E+03 -0.13394113495E+04  0.16203504930E+04  0.12699999809E+01 0. -1.
</event>
<event>
 5   0  0.2384787E-07  0.3813771E+04  0.7818609E-02  0.8043206E-01
        2   -1    0    0  501    0  0.00000000000E+00  0.00000000000E+00  0.14961191223E+04  0.14961191223E+04  0.25500000920E-02 0. -1.
       -2   -1    0    0    0  501  0.00000000000E+00  0.00000000000E+00 -0.24304290921E+04  0.24304290921E+04  0.25500000920E-02 0.  1.
    10030    2    1    2    0    0  0.00000000000E+00  0.00000000000E+00 -0.93430996985E+03  0.39265482144E+04  0.38137705438E+04 0.  0.
        4    1    3    3  502    0  0.10285224798E+04  0.14225821579E+04 -0.12338996220E+04  0.21457186156E+04  0.12699999809E+01 0. -1.
       -4    1    3    3    0  502 -0.10285224798E+04 -0.14225821579E+04  0.29958965217E+03  0.17808295988E+04  0.12699999809E+01 0.  1.
</event>
<event>
 5   0  0.7731706E-08  0.3887337E+04  0.7818609E-02  0.8027668E-01
       -1   -1    0    0    0  501  0.00000000000E+00  0.00000000000E+00  0.15546971428E+04  0.15546971428E+04  0.50400001928E-02 0.  1.
        1   -1    0    0  501    0  0.00000000000E+00  0.00000000000E+00 -0.24299574178E+04  0.24299574178E+04  0.50400001928E-02 0. -1.
    10030    2    1    2    0    0  0.00000000000E+00  0.00000000000E+00 -0.87526027502E+03  0.39846545606E+04  0.38873373173E+04 0.  0.
        3    1    3    3  502    0  0.40077242532E+03  0.82615777640E+03 -0.21936109295E+04  0.23780420788E+04  0.10100000352E+00 0. -1.
       -3    1    3    3    0  502 -0.40077242532E+03 -0.82615777640E+03  0.13183506544E+04  0.16066124818E+04  0.10100000352E+00 0.  1.
</event>
<event>
 5   0  0.7675750E-08  0.3847377E+04  0.7818609E-02  0.8036064E-01
       -1   -1    0    0    0  501  0.00000000000E+00  0.00000000000E+00  0.28619651984E+04  0.28619651984E+04  0.50400001928E-02 0.  1.
        1   -1    0    0  501    0  0.00000000000E+00  0.00000000000E+00 -0.12930198547E+04  0.12930198547E+04  0.50400001928E-02 0. -1.
    10030    2    1    2    0    0  0.00000000000E+00  0.00000000000E+00  0.15689453438E+04  0.41549850531E+04  0.38473771975E+04 0.  0.
        1    1    3    3  502    0 -0.16532992885E+04 -0.88964424175E+03  0.33177744257E+03  0.19065523034E+04  0.50400001928E-02 0. -1.
       -1    1    3    3    0  502  0.16532992885E+04  0.88964424175E+03  0.12371679012E+04  0.22484327497E+04  0.50400001928E-02 0.  1.
</event>
<event>
 5   0  0.7675750E-08  0.4011531E+04  0.7818609E-02  0.8002224E-01
       -1   -1    0    0    0  501  0.00000000000E+00  0.00000000000E+00  0.21436219464E+04  0.21436219464E+04  0.50400001928E-02 0.  1.
        1   -1    0    0  501    0  0.00000000000E+00  0.00000000000E+00 -0.18767743412E+04  0.18767743412E+04  0.50400001928E-02 0. -1.
    10030    2    1    2    0    0  0.00000000000E+00  0.00000000000E+00  0.26684760515E+03  0.40203962876E+04  0.40115307134E+04 0.  0.
        4    1    3    3  502    0 -0.11448778815E+04 -0.67630586022E+02 -0.15157443217E+04  0.19007371521E+04  0.12699999809E+01 0. -1.
       -4    1    3    3    0  502  0.11448778815E+04  0.67630586022E+02  0.17825919269E+04  0.21196591354E+04  0.12699999809E+01 0.  1.
</event>
<event>
 5   0  0.2446281E-07  0.3885972E+04  0.7818609E-02  0.8027953E-01
       -2   -1    0    0    0  501  0.00000000000E+00  0.00000000000E+00  0.14791070671E+04  0.14791070671E+04  0.25500000920E-02 0. -1.
        2   -1    0    0  501    0  0.00000000000E+00  0.00000000000E+00 -0.25523476135E+04  0.25523476135E+04  0.25500000920E-02 0.  1.
    10030    2    1    2    0    0  0.00000000000E+00  0.00000000000E+00 -0.10732405465E+04  0.40314546806E+04  0.38859724100E+04 0.  0.
        1    1    3    3  502    0 -0.99082055265E+03  0.69157952984E+03  0.10419182313E+04  0.15954940346E+04  0.50400001928E-02 0. -1.
       -1    1    3    3    0  502  0.99082055265E+03 -0.69157952984E+03 -0.21151587778E+04  0.24359606460E+04  0.50400001928E-02 0.  1.
</event>
<event>
 5   0  0.2384787E-07  0.3887554E+04  0.7818609E-02  0.8027623E-01
       -2   -1    0    0    0  501  0.00000000000E+00  0.00000000000E+00  0.22817920628E+04  0.22817920628E+04  0.25500000920E-02 0.  1.
        2   -1    0    0  501    0  0.00000000000E+00  0.00000000000E+00 -0.16558342293E+04  0.16558342293E+04  0.25500000920E-02 0. -1.
    10030    2    1    2    0    0  0.00000000000E+00  0.00000000000E+00  0.62595783348E+03  0.39376262922E+04  0.38875541935E+04 0.  0.
        4    1    3    3  502    0  0.86682340505E+03  0.11536160697E+04  0.16320797591E+04  0.21785083899E+04  0.12699999809E+01 0.  1.
       -4    1    3    3    0  502 -0.86682340505E+03 -0.11536160697E+04 -0.10061219256E+04  0.17591179023E+04  0.12699999809E+01 0. -1.
</event>
<event>
 5   0  0.7675750E-08  0.3876105E+04  0.7818609E-02  0.8030017E-01
       -1   -1    0    0    0  501  0.00000000000E+00  0.00000000000E+00  0.21445162840E+04  0.21445162840E+04  0.50400001928E-02 0.  1.
        1   -1    0    0  501    0  0.00000000000E+00  0.00000000000E+00 -0.17514665087E+04  0.17514665087E+04  0.50400001928E-02 0. -1.
    10030    2    1    2    0    0  0.00000000000E+00  0.00000000000E+00  0.39304977525E+03  0.38959827927E+04  0.38761054933E+04 0.  0.
        5    1    3    3  502    0  0.32116397986E+03 -0.30234735129E+03  0.20933873895E+04  0.21393580989E+04  0.46999998093E+01 0.  1.
       -5    1    3    3    0  502 -0.32116397986E+03  0.30234735129E+03 -0.17003376142E+04  0.17566246939E+04  0.46999998093E+01 0. -1.
</event>
<event>
 5   0  0.2446281E-07  0.3599880E+04  0.7818609E-02  0.8090519E-01
        2   -1    0    0  501    0  0.00000000000E+00  0.00000000000E+00  0.21272418825E+04  0.21272418825E+04  0.25500000920E-02 0. -1.
       -2   -1    0    0    0  501  0.00000000000E+00  0.00000000000E+00 -0.15229975924E+04  0.15229975924E+04  0.25500000920E-02 0.  1.
    10030    2    1    2    0    0  0.00000000000E+00  0.00000000000E+00  0.60424429011E+03  0.36502394749E+04  0.35998801455E+04 0.  0.
        1    1    3    3  502    0  0.10313158531E+04 -0.28229015490E+03  0.17703014800E+04  0.20681555673E+04  0.50400001928E-02 0. -1.
       -1    1    3    3    0  502 -0.10313158531E+04  0.28229015490E+03 -0.11660571899E+04  0.15820839076E+04  0.50400001928E-02 0.  1.
</event>
<event>
 5   0  0.7731706E-08  0.3876469E+04  0.7818609E-02  0.8029941E-01
       -1   -1    0    0    0  501  0.00000000000E+00  0.00000000000E+00  0.19626515448E+04  0.19626515448E+04  0.50400001928E-02 0.  1.
        1   -1    0    0  501    0  0.00000000000E+00  0.00000000000E+00 -0.19141208420E+04  0.19141208420E+04  0.50400001928E-02 0. -1.
    10030    2    1    2    0    0  0.00000000000E+00  0.00000000000E+00  0.48530702880E+02  0.38767723868E+04  0.38764686133E+04 0.  0.
        3    1    3    3  502    0  0.14507029886E+04 -0.57224206400E+03  0.11753342933E+04  0.19527956504E+04  0.10100000352E+00 0.  1.
       -3    1    3    3    0  502 -0.14507029886E+04  0.57224206400E+03 -0.11268035904E+04  0.19239767365E+04  0.10100000352E+00 0. -1.
</event>
<event>
 5   0  0.7675750E-08  0.3316424E+04  0.7818609E-02  0.8158729E-01
       -1   -1    0    0    0  501  0.00000000000E+00  0.00000000000E+00  0.15120089254E+04  0.15120089255E+04  0.50400001928E-02 0. -1.
        1   -1    0    0  501    0  0.00000000000E+00  0.00000000000E+00 -0.18185521709E+04  0.18185521709E+04  0.50400001928E-02 0.  1.
    10030    2    1    2    0    0  0.00000000000E+00  0.00000000000E+00 -0.30654324547E+03  0.33305610964E+04  0.33164240464E+04 0.  0.
        5    1    3    3  502    0 -0.10903989967E+04 -0.51754574979E+03  0.98859827406E+03  0.15601833907E+04  0.46999998093E+01 0. -1.
       -5    1    3    3    0  502  0.10903989967E+04  0.51754574979E+03 -0.12951415195E+04  0.17703777057E+04  0.46999998093E+01 0.  1.
</event>
<event>
 5   0  0.2486268E-07  0.3227630E+04  0.7818609E-02  0.8181558E-01
       -2   -1    0    0    0  501  0.00000000000E+00  0.00000000000E+00  0.13831367284E+04  0.13831367284E+04  0.25500000920E-02 0. -1.
        2   -1    0    0  501    0  0.00000000000E+00  0.00000000000E+00 -0.18829661599E+04  0.18829661599E+04  0.25500000920E-02 0.  1.
    10030    2    1    2    0    0  0.00000000000E+00  0.00000000000E+00 -0.49982943148E+03  0.32661028884E+04  0.32276304957E+04 0.  0.
        5    1    3    3  502    0 -0.11372987662E+04  0.11348278097E+04 -0.40369629238E+03  0.16565854726E+04  0.46999998093E+01 0.  1.
       -5    1    3    3    0  502  0.11372987662E+04 -0.11348278097E+04 -0.96133139101E+02  0.16095174158E+04  0.46999998093E+01 0. -1.
</event>
<event>
 5   0  0.2486268E-07  0.3888704E+04  0.7818609E-02  0.8027383E-01
       -2   -1    0    0    0  501  0.00000000000E+00  0.00000000000E+00  0.19142555635E+04  0.19142555635E+04  0.25500000920E-02 0. -1.
        2   -1    0    0  501    0  0.00000000000E+00  0.00000000000E+00 -0.19749218794E+04  0.19749218795E+04  0.25500000920E-02 0.  1.
    10030    2    1    2    0    0  0.00000000000E+00  0.00000000000E+00 -0.60666315915E+02  0.38891774430E+04  0.38887042548E+04 0.  0.
        5    1    3    3  502    0  0.15105975893E+04 -0.83517635457E+03  0.86479445710E+03  0.19306258475E+04  0.46999998093E+01 0. -1.
       -5    1    3    3    0  502 -0.15105975893E+04  0.83517635457E+03 -0.92546077301E+03  0.19585515955E+04  0.46999998093E+01 0.  1.
</event>
<event>
 5   0  0.2384787E-07  0.3932440E+04  0.7818609E-02  0.8018316E-01
       -2   -1    0    0    0  501  0.00000000000E+00  0.00000000000E+00  0.16194233064E+04  0.16194233064E+04  0.25500000920E-02 0. -1.
        2   -1    0    0  501    0  0.00000000000E+00  0.00000000000E+00 -0.23872825446E+04  0.23872825446E+04  0.25500000920E-02 0.  1.
    10030    2    1    2    0    0  0.00000000000E+00  0.00000000000E+00 -0.76785923828E+03  0.40067058510E+04  0.39324399508E+04 0.  0.
        4    1    3    3  502    0  0.14857442962E+03  0.13317685043E+04 -0.18499700670E+04  0.22843100867E+04  0.12699999809E+01 0.  1.
       -4    1    3    3    0  502 -0.14857442962E+03 -0.13317685043E+04  0.10821108288E+04  0.17223957643E+04  0.12699999809E+01 0. -1.
</event>
<event>
 5   0  0.7675750E-08  0.3513580E+04  0.7818609E-02  0.8110579E-01
       -1   -1    0    0    0  501  0.00000000000E+00  0.00000000000E+00  0.13350968362E+04  0.13350968362E+04  0.50400001928E-02 0.  1.
        1   -1    0    0  501    0  0.00000000000E+00  0.00000000000E+00 -0.23116754575E+04  0.23116754575E+04  0.50400001928E-02 0. -1.
    10030    2    1    2    0    0  0.00000000000E+00  0.00000000000E+00 -0.97657862128E+03  0.36467722937E+04  0.35135797072E+04 0.  0.
        1    1    3    3  502    0 -0.16281014019E+04  0.63404093704E+03 -0.29807018820E+03  0.17724468742E+04  0.50400001928E-02 0. -1.
       -1    1    3    3    0  502  0.16281014019E+04 -0.63404093704E+03 -0.67850843308E+03  0.18743254195E+04  0.50400001928E-02 0.  1.
</event>
<event>
 5   0  0.2486268E-07  0.3834399E+04  0.7818609E-02  0.8038813E-01
        2   -1    0    0  501    0  0.00000000000E+00  0.00000000000E+00  0.16691654135E+04  0.16691654135E+04  0.25500000920E-02 0.  1.
       -2   -1    0    0    0  501  0.00000000000E+00  0.00000000000E+00 -0.22020912832E+04  0.22020912832E+04  0.25500000920E-02 0. -1.
    10030    2    1    2    0    0  0.00000000000E+00  0.00000000000E+00 -0.53292586969E+03  0.38712566967E+04  0.38343993570E+04 0.  0.
        5    1    3    3  502    0 -0.39794858611E+02  0.17510343752E+04 -0.10536546640E+04  0.20439949253E+04  0.46999998093E+01 0. -1.
       -5    1    3    3    0  502  0.39794858611E+02 -0.17510343752E+04  0.52072879427E+03  0.18272617714E+04  0.46999998093E+01 0.  1.
</event>
<event>
 5   0  0.7675750E-08  0.3902615E+04  0.7818609E-02  0.8024486E-01
       -1   -1    0    0    0  501  0.00000000000E+00  0.00000000000E+00  0.20822966765E+04  0.20822966765E+04  0.50400001928E-02 0. -1.
        1   -1    0    0  501    0  0.00000000000E+00  0.00000000000E+00 -0.18285584238E+04  0.18285584238E+04  0.50400001928E-02 0.  1.
    10030    2    1    2    0    0  0.00000000000E+00  0.00000000000E+00  0.25373825271E+03  0.39108551003E+04  0.39026150866E+04 0.  0.
        5    1    3    3  502    0 -0.97665008177E+03 -0.10095409684E+04  0.14841884997E+04  0.20434911161E+04  0.46999998093E+01 0. -1.
       -5    1    3    3    0  502  0.97665008177E+03  0.10095409684E+04 -0.12304502470E+04  0.18673639842E+04  0.46999998093E+01 0.  1.
</event>
<event>
 5   0  0.2395572E-07  0.3876479E+04  0.7818609E-02  0.8029939E-01
       -2   -1    0    0    0  501  0.00000000000E+00  0.00000000000E+00  0.24481473772E+04  0.24481473772E+04  0.25500000920E-02 0. -1.
        2   -1    0    0  501    0  0.00000000000E+00  0.00000000000E+00 -0.15345366989E+04  0.15345366989E+04  0.25500000920E-02 0.  1.
    10030    2    1    2    0    0  0.00000000000E+00  0.00000000000E+00  0.91361067834E+03  0.39826840761E+04  0.38764788118E+04 0.  0.
        3    1    3    3  502    0 -0.19796047677E+03  0.93433365485E+03 -0.12759983775E+04  0.15938442831E+04  0.10100000352E+00 0.  1.
       -3    1    3    3    0  502  0.19796047677E+03 -0.93433365485E+03  0.21896090559E+04  0.23888397930E+04  0.10100000352E+00 0. -1.
</event>
<event>
 5   0  0.2486268E-07  0.3974518E+04  0.7818609E-02  0.8009707E-01
       -2   -1    0    0    0  501  0.00000000000E+00  0.00000000000E+00  0.14730518538E+04  0.14730518538E+04  0.25500000920E-02 0. -1.
        2   -1    0    0  501    0  0.00000000000E+00  0.00000000000E+00 -0.26809638397E+04  0.26809638397E+04  0.25500000920E-02 0.  1.
    10030    2    1    2    0    0  0.00000000000E+00  0.00000000000E+00 -0.12079119859E+04  0.41540156935E+04  0.39745182119E+04 0.  0.
        5    1    3    3  502    0  0.11441397955E+04 -0.13944283765E+04  0.26779332082E+03  0.18235190488E+04  0.46999998093E+01 0. -1.
       -5    1    3    3    0  502 -0.11441397955E+04  0.13944283765E+04 -0.14757053068E+04  0.23304966447E+04  0.46999998093E+01 0.  1.
</event>
<event>
 5   0  0.7675750E-08  0.3905808E+04  0.7818609E-02  0.8023822E-01
       -1   -1    0    0    0  501  0.00000000000E+00  0.00000000000E+00  0.18915838466E+04  0.18915838466E+04  0.50400001928E-02 0. -1.
        1   -1    0    0  501    0  0.00000000000E+00  0.00000000000E+00 -0.20162119342E+04  0.20162119342E+04  0.50400001928E-02 0.  1.
    10030    2    1    2    0    0  0.00000000000E+00  0.00000000000E+00 -0.12462808762E+03  0.39077957808E+04  0.39058079451E+04 0.  0.
        4    1    3    3  502    0 -0.10011727968E+04  0.56646358527E+03 -0.16412821086E+04  0.20042546085E+04  0.12699999809E+01 0.  1.
       -4    1    3    3    0  502  0.10011727968E+04 -0.56646358527E+03  0.15166540210E+04  0.19035411724E+04  0.12699999809E+01 0. -1.
</event>
<event>
 5   0  0.2395572E-07  0.3903885E+04  0.7818609E-02  0.8024222E-01
       -2   -1    0    0    0  501  0.00000000000E+00  0.00000000000E+00  0.20200567261E+04  0.20200567261E+04  0.25500000920E-02 0. -1.
        2   -1    0    0  501    0  0.00000000000E+00  0.00000000000E+00 -0.18861246799E+04  0.18861246799E+04  0.25500000920E-02 0.  1.
    10030    2    1    2    0    0  0.00000000000E+00  0.00000000000E+00  0.13393204626E+03  0.39061814060E+04  0.39038846529E+04 0.  0.
        3    1    3    3  502    0  0.14299558495E+04  0.12941997284E+04 -0.23379719175E+03  0.19427783727E+04  0.10100000352E+00 0.  1.
       -3    1    3    3    0  502 -0.14299558495E+04 -0.12941997284E+04  0.36772923801E+03  0.19634030333E+04  0.10100000352E+00 0. -1.
</event>
<event>
 5   0  0.2473224E-07  0.3905106E+04  0.7818609E-02  0.8023968E-01
        2   -1    0    0  501    0  0.00000000000E+00  0.00000000000E+00  0.23567632698E+04  0.23567632698E+04  0.25500000920E-02 0. -1.
       -2   -1    0    0    0  501  0.00000000000E+00  0.00000000000E+00 -0.16176687664E+04  0.16176687664E+04  0.25500000920E-02 0.  1.
    10030    2    1    2    0    0  0.00000000000E+00  0.00000000000E+00  0.73909450333E+03  0.39744320362E+04  0.39051055460E+04 0.  0.
        2    1    3    3  502    0  0.72296071198E+03 -0.46265870535E+03 -0.14153651270E+04  0.16552896156E+04  0.25500000920E-02 0.  1.
       -2    1    3    3    0  502 -0.72296071198E+03  0.46265870535E+03  0.21544596303E+04  0.23191424207E+04  0.25500000920E-02 0. -1.
</event>
<event>
 5   0  0.2384787E-07  0.3930044E+04  0.7818609E-02  0.8018810E-01
        2   -1    0    0  501    0  0.00000000000E+00  0.00000000000E+00  0.19583210924E+04  0.19583210924E+04  0.25500000920E-02 0. -1.
       -2   -1    0    0    0  501  0.00000000000E+00  0.00000000000E+00 -0.19717456103E+04  0.19717456103E+04  0.25500000920E-02 0.  1.
    10030    2    1    2    0    0  0.00000000000E+00  0.00000000000E+00 -0.13424517940E+02  0.39300667027E+04  0.39300437746E+04 0.  0.
        4    1    3    3  502    0  0.27252876924E+03 -0.25685697615E+03 -0.19357289480E+04  0.19716225828E+04  0.12699999809E+01 0.  1.
       -4    1    3    3    0  502 -0.27252876924E+03  0.25685697615E+03  0.19223044300E+04  0.19584441199E+04  0.12699999809E+01 0. -1.
</event>
<event>
 5   0  0.2395572E-07  0.3941282E+04  0.7818609E-02  0.8016498E-01
        2   -1    0    0  501    0  0.00000000000E+00  0.00000000000E+00  0.16010385469E+04  0.16010385469E+04  0.25500000920E-02 0. -1.
       -2   -1    0    0    0  501  0.00000000000E+00  0.00000000000E+00 -0.24255670359E+04  0.24255670359E+04  0.25500000920E-02 0.  1.
    10030    2    1    2    0    0  0.00000000000E+00  0.00000000000E+00 -0.82452848899E+03  0.40266055829E+04  0.39412821887E+04 0.  0.
        3    1    3    3  502    0 -0.12544658283E+04 -0.14975993441E+04 -0.67658905886E+03  0.20674286141E+04  0.10100000352E+00 0.  1.
       -3    1    3    3    0  502  0.12544658283E+04  0.14975993441E+04 -0.14793943013E+03  0.19591769688E+04  0.10100000352E+00 0. -1.
</event>
<event>
 5   0  0.2446281E-07  0.3903107E+04  0.7818609E-02  0.8024383E-01
        2   -1    0    0  501    0  0.00000000000E+00  0.00000000000E+00  0.11595319973E+04  0.11595319973E+04  0.25500000920E-02 0.  1.
       -2   -1    0    0    0  501  0.00000000000E+00  0.00000000000E+00 -0.32845679665E+04  0.32845679665E+04  0.25500000920E-02 0. -1.
    10030    2    1    2    0    0  0.00000000000E+00  0.00000000000E+00 -0.21250359692E+04  0.44440999639E+04  0.39031073030E+04 0.  0.
        1    1    3    3  502    0 -0.10789070114E+04  0.12855093137E+04  0.71516718672E+02  0.16797884319E+04  0.50400001928E-02 0.  1.
       -1    1    3    3    0  502  0.10789070114E+04 -0.12855093137E+04 -0.21965526878E+04  0.27643115319E+04  0.50400001928E-02 0. -1.
</event>
<event>
 5   0  0.2446281E-07  0.3920943E+04  0.7818609E-02  0.8020687E-01
       -2   -1    0    0    0  501  0.00000000000E+00  0.00000000000E+00  0.19611330641E+04  0.19611330641E+04  0.25500000920E-02 0. -1.
        2   -1    0    0  501    0  0.00000000000E+00  0.00000000000E+00 -0.19598104805E+04  0.19598104805E+04  0.25500000920E-02 0.  1.
    10030    2    1    2    0    0  0.00000000000E+00  0.00000000000E+00  0.13225835338E+01  0.39209435446E+04  0.39209433216E+04 0.  0.
        1    1    3    3  502    0 -0.76382698391E+03 -0.17289081070E+04 -0.51981374097E+03  0.19602962095E+04  0.50400001928E-02 0.  1.
       -1    1    3    3    0  502  0.76382698391E+03  0.17289081070E+04  0.52113632451E+03  0.19606473351E+04  0.50400001928E-02 0. -1.
</event>
<event>
 5   0  0.7675750E-08  0.3870549E+04  0.7818609E-02  0.8031183E-01
        1   -1    0    0  501    0  0.00000000000E+00  0.00000000000E+00  0.18492351037E+04  0.18492351037E+04  0.50400001928E-02 0.  1.
       -1   -1    0    0    0  501  0.00000000000E+00  0.00000000000E+00 -0.20253166530E+04  0.20253166530E+04  0.50400001928E-02 0. -1.
    10030    2    1    2    0    0  0.00000000000E+00  0.00000000000E+00 -0.17608154925E+03  0.38745517567E+04  0.38705486179E+04 0.  0.
        1    1    3    3  502    0  0.13512782031E+03  0.17818825671E+03  0.18362574728E+04  0.18498248807E+04  0.50400001928E-02 0.  1.
       -1    1    3    3    0  502 -0.13512782031E+03 -0.17818825671E+03 -0.20123390221E+04  0.20247268760E+04  0.50400001928E-02 0. -1.
</event>
<event>
 5   0  0.7675750E-08  0.3886536E+04  0.7818609E-02  0.8027835E-01
        1   -1    0    0  501    0  0.00000000000E+00  0.00000000000E+00  0.19381260611E+04  0.19381260611E+04  0.50400001928E-02 0. -1.
       -1   -1    0    0    0  501  0.00000000000E+00  0.00000000000E+00 -0.19484236162E+04  0.19484236162E+04  0.50400001928E-02 0.  1.
    10030    2    1    2    0    0  0.00000000000E+00  0.00000000000E+00 -0.10297555144E+02  0.38865496773E+04  0.38865360354E+04 0.  0.
        2    1    3    3  502    0  0.44535332300E+03  0.50653292874E+03 -0.18276192752E+04  0.19481035407E+04  0.25500000920E-02 0.  1.
       -2    1    3    3    0  502 -0.44535332300E+03 -0.50653292874E+03  0.18173217201E+04  0.19384461366E+04  0.25500000920E-02 0. -1.
</event>
<event>
 5   0  0.2446281E-07  0.3843256E+04  0.7818609E-02  0.8036935E-01
       -2   -1    0    0    0  501  0.00000000000E+00  0.00000000000E+00  0.30259066465E+04  0.30259066465E+04  0.25500000920E-02 0.  1.
        2   -1    0    0  501    0  0.00000000000E+00  0.00000000000E+00 -0.12203466536E+04  0.12203466536E+04  0.25500000920E-02 0. -1.
    10030    2    1    2    0    0  0.00000000000E+00  0.00000000000E+00  0.18055599929E+04  0.42462533000E+04  0.38432564578E+04 0.  0.
        1    1    3    3  502    0 -0.47615431643E+03 -0.68812714882E+03  0.28140291613E+04  0.29358136907E+04  0.50400001928E-02 0.  1.
       -1    1    3    3    0  502  0.47615431643E+03  0.68812714882E+03 -0.10084691684E+04  0.13104396093E+04  0.50400001928E-02 0. -1.
</event>
<event>
 5   0  0.7675750E-08  0.3870546E+04  0.7818609E-02  0.8031183E-01
        1   -1    0    0  501    0  0.00000000000E+00  0.00000000000E+00  0.22899475257E+04  0.22899475257E+04  0.50400001928E-02 0.  1.
       -1   -1    0    0    0  501  0.00000000000E+00  0.00000000000E+00 -0.16355316375E+04  0.16355316375E+04  0.50400001928E-02 0. -1.
    10030    2    1    2    0    0  0.00000000000E+00  0.00000000000E+00  0.65441588818E+03  0.39254791631E+04  0.38705460216E+04 0.  0.
        5    1    3    3  502    0  0.17693724826E+04  0.14482841805E+03 -0.45418470215E+03  0.18324737614E+04  0.46999998093E+01 0. -1.
       -5    1    3    3    0  502 -0.17693724826E+04 -0.14482841805E+03  0.11086005903E+04  0.20930054017E+04  0.46999998093E+01 0.  1.
</event>
<event>
 5   0  0.2486268E-07  0.3933503E+04  0.7818609E-02  0.8018097E-01
       -2   -1    0    0    0  501  0.00000000000E+00  0.00000000000E+00  0.26139531547E+04  0.26139531547E+04  0.25500000920E-02 0. -1.
        2   -1    0    0  501    0  0.00000000000E+00  0.00000000000E+00 -0.14797939006E+04  0.14797939006E+04  0.25500000920E-02 0.  1.
    10030    2    1    2    0    0  0.00000000000E+00  0.00000000000E+00  0.11341592541E+04  0.40937470553E+04  0.39335032400E+04 0.  0.
        5    1    3    3  502    0  0.11879045254E+04 -0.19403945958E+03  0.21858612805E+04  0.24953516988E+04  0.46999998093E+01 0. -1.
       -5    1    3    3    0  502 -0.11879045254E+04  0.19403945958E+03 -0.10517020264E+04  0.15983953565E+04  0.46999998093E+01 0.  1.
</event>
<event>
 5   0  0.7731706E-08  0.3851522E+04  0.7818609E-02  0.8035188E-01
        1   -1    0    0  501    0  0.00000000000E+00  0.00000000000E+00  0.17401923920E+04  0.17401923920E+04  0.50400001928E-02 0. -1.
       -1   -1    0    0    0  501  0.00000000000E+00  0.00000000000E+00 -0.21311176109E+04  0.21311176109E+04  0.50400001928E-02 0.  1.
    10030    2    1    2    0    0  0.00000000000E+00  0.00000000000E+00 -0.39092521885E+03  0.38713100029E+04  0.38515215970E+04 0.  0.
        3    1    3    3  502    0  0.12267637846E+03 -0.57085435002E+03 -0.20400015440E+04  0.21219167026E+04  0.10100000352E+00 0.  1.
       -3    1    3    3    0  502 -0.12267637846E+03  0.57085435002E+03  0.16490763252E+04  0.17493933003E+04  0.10100000352E+00 0. -1.
</event>
<event>
 5   0  0.2473224E-07  0.3694356E+04  0.7818609E-02  0.8069214E-01
       -2   -1    0    0    0  501  0.00000000000E+00  0.00000000000E+00  0.18166369185E+04  0.18166369185E+04  0.25500000920E-02 0.  1.
        2   -1    0    0  501    0  0.00000000000E+00  0.00000000000E+00 -0.18782321298E+04  0.18782321298E+04  0.25500000920E-02 0. -1.
    10030    2    1    2    0    0  0.00000000000E+00  0.00000000000E+00 -0.61595211334E+02  0.36948690483E+04  0.36943556020E+04 0.  0.
        2    1    3    3  502    0  0.83512990217E+03  0.80675053918E+03 -0.14675826053E+04  0.18713864084E+04  0.25500000920E-02 0.  1.
       -2    1    3    3    0  502 -0.83512990217E+03 -0.80675053918E+03  0.14059873940E+04  0.18234826399E+04  0.25500000920E-02 0. -1.
</event>
<event>
 5   0  0.7675750E-08  0.3318254E+04  0.7818609E-02  0.8158266E-01
       -1   -1    0    0    0  501  0.00000000000E+00  0.00000000000E+00  0.10230142003E+04  0.10230142003E+04  0.50400001928E-02 0.  1.
        1   -1    0    0  501    0  0.00000000000E+00  0.00000000000E+00 -0.26907759727E+04  0.26907759727E+04  0.50400001928E-02 0. -1.
    10030    2    1    2    0    0  0.00000000000E+00  0.00000000000E+00 -0.16677617724E+04  0.37137901730E+04  0.33182537756E+04 0.  0.
        4    1    3    3  502    0  0.37334091505E+03 -0.14356004980E+04 -0.20747975366E+01  0.14833536821E+04  0.12699999809E+01 0.  1.
       -4    1    3    3    0  502 -0.37334091505E+03  0.14356004980E+04 -0.16656869749E+04  0.22304364909E+04  0.12699999809E+01 0. -1.
</event>
<event>
 5   0  0.7675750E-08  0.3892024E+04  0.7818609E-02  0.8026690E-01
        1   -1    0    0  501    0  0.00000000000E+00  0.00000000000E+00  0.23623734037E+04  0.23623734037E+04  0.50400001928E-02 0.  1.
       -1   -1    0    0    0  501  0.00000000000E+00  0.00000000000E+00 -0.16030332505E+04  0.16030332505E+04  0.50400001928E-02 0. -1.
    10030    2    1    2    0    0  0.00000000000E+00  0.00000000000E+00  0.75934015323E+03  0.39654066542E+04  0.38920242117E+04 0.  0.
        5    1    3    3  502    0  0.17445252648E+04 -0.14238999900E+03 -0.48683426734E+03  0.18167754416E+04  0.46999998093E+01 0. -1.
       -5    1    3    3    0  502 -0.17445252648E+04  0.14238999900E+03  0.12461744206E+04  0.21486312126E+04  0.46999998093E+01 0.  1.
</event>
<event>
 5   0  0.7731706E-08  0.3893900E+04  0.7818609E-02  0.8026299E-01
        1   -1    0    0  501    0  0.00000000000E+00  0.00000000000E+00  0.17714812318E+04  0.17714812318E+04  0.50400001928E-02 0.  1.
       -1   -1    0    0    0  501  0.00000000000E+00  0.00000000000E+00 -0.21397994036E+04  0.21397994036E+04  0.50400001928E-02 0. -1.
    10030    2    1    2    0    0  0.00000000000E+00  0.00000000000E+00 -0.36831817184E+03  0.39112806354E+04  0.38939000929E+04 0.  0.
        3    1    3    3  502    0 -0.29993439985E+03 -0.93900764080E+03  0.15022985327E+04  0.17968296762E+04  0.10100000352E+00 0.  1.
       -3    1    3    3    0  502  0.29993439985E+03  0.93900764080E+03 -0.18706167045E+04  0.21144509593E+04  0.10100000352E+00 0. -1.
</event>
<event>
 5   0  0.7675750E-08  0.3902342E+04  0.7818609E-02  0.8024542E-01
       -1   -1    0    0    0  501  0.00000000000E+00  0.00000000000E+00  0.33585182408E+04  0.33585182408E+04  0.50400001928E-02 0.  1.
        1   -1    0    0  501    0  0.00000000000E+00  0.00000000000E+00 -0.11335560515E+04  0.11335560515E+04  0.50400001928E-02 0. -1.
    10030    2    1    2    0    0  0.00000000000E+00  0.00000000000E+00  0.22249621893E+04  0.44920742923E+04  0.39023422075E+04 0.  0.
        2    1    3    3  502    0 -0.16439126904E+04 -0.81733472087E+03  0.18730793691E+04  0.26227678705E+04  0.25500000920E-02 0.  1.
       -2    1    3    3    0  502  0.16439126904E+04  0.81733472087E+03  0.35188282011E+03  0.18693064218E+04  0.25500000920E-02 0. -1.
</event>
<event>
 5   0  0.2395572E-07  0.3520004E+04  0.7818609E-02  0.8109065E-01
       -2   -1    0    0    0  501  0.00000000000E+00  0.00000000000E+00  0.21598971967E+04  0.21598971967E+04  0.25500000920E-02 0.  1.
        2   -1    0    0  501    0  0.00000000000E+00  0.00000000000E+00 -0.14341459476E+04  0.14341459476E+04  0.25500000920E-02 0. -1.
    10030    2    1    2    0    0  0.00000000000E+00  0.00000000000E+00  0.72575124911E+03  0.35940431443E+04  0.35200044386E+04 0.  0.
        3    1    3    3  502    0 -0.42329313226E+03 -0.59538753337E+03  0.19977876100E+04  0.21271621320E+04  0.10100000352E+00 0.  1.
       -3    1    3    3    0  502  0.42329313226E+03  0.59538753337E+03 -0.12720363609E+04  0.14668810123E+04  0.10100000352E+00 0. -1.
</event>
<event>
 5   0  0.2446281E-07  0.3878288E+04  0.7818609E-02  0.8029560E-01
       -2   -1    0    0    0  501  0.00000000000E+00  0.00000000000E+00  0.16343124976E+04  0.16343124976E+04  0.25500000920E-02 0. -1.
        2   -1    0    0  501    0  0.00000000000E+00  0.00000000000E+00 -0.23008330124E+04  0.23008330124E+04  0.25500000920E-02 0.  1.
    10030    2    1    2    0    0  0.00000000000E+00  0.00000000000E+00 -0.66652051475E+03  0.39351455100E+04  0.38782883581E+04 0.  0.
        1    1    3    3  502    0 -0.18447978084E+03 -0.44183328490E+03 -0.22399123150E+04  0.22905144881E+04  0.50400001928E-02 0.  1.
       -1    1    3    3    0  502  0.18447978084E+03  0.44183328490E+03  0.15733918003E+04  0.16446310219E+04  0.50400001928E-02 0. -1.
</event>
<event>
 5   0  0.7675750E-08  0.3899171E+04  0.7818609E-02  0.8025202E-01
        1   -1    0    0  501    0  0.00000000000E+00  0.00000000000E+00  0.13041749098E+04  0.13041749098E+04  0.50400001928E-02 0.  1.
       -1   -1    0    0    0  501  0.00000000000E+00  0.00000000000E+00 -0.29143977299E+04  0.29143977299E+04  0.50400001928E-02 0. -1.
    10030    2    1    2    0    0  0.00000000000E+00  0.00000000000E+00 -0.16102228201E+04  0.42185726397E+04  0.38991713974E+04 0.  0.
        2    1    3    3  502    0  0.35945921775E+03 -0.40330782758E+03  0.12215719237E+04  0.13357043452E+04  0.25500000920E-02 0.  1.
       -2    1    3    3    0  502 -0.35945921775E+03  0.40330782758E+03 -0.28317947437E+04  0.28828682945E+04  0.25500000920E-02 0. -1.
</event>
<event>
 5   0  0.7675750E-08  0.3909545E+04  0.7818609E-02  0.8023047E-01
        1   -1    0    0  501    0  0.00000000000E+00  0.00000000000E+00  0.12673528578E+04  0.12673528578E+04  0.50400001928E-02 0.  1.
       -1   -1    0    0    0  501  0.00000000000E+00  0.00000000000E+00 -0.30150528466E+04  0.30150528466E+04  0.50400001928E-02 0. -1.
    10030    2    1    2    0    0  0.00000000000E+00  0.00000000000E+00 -0.17476999888E+04  0.42824057045E+04  0.39095451611E+04 0.  0.
        4    1    3    3  502    0  0.71956724786E+03 -0.16214422052E+04  0.25611301116E+02  0.17741221493E+04  0.12699999809E+01 0.  1.
       -4    1    3    3    0  502 -0.71956724786E+03  0.16214422052E+04 -0.17733112899E+04  0.25082835551E+04  0.12699999809E+01 0. -1.
</event>
<event>
 5   0  0.7731706E-08  0.3865977E+04  0.7818609E-02  0.8032143E-01
       -1   -1    0    0    0  501  0.00000000000E+00  0.00000000000E+00  0.21479358055E+04  0.21479358055E+04  0.50400001928E-02 0.  1.
        1   -1    0    0  501    0  0.00000000000E+00  0.00000000000E+00 -0.17395511791E+04  0.17395511791E+04  0.50400001928E-02 0. -1.
    10030    2    1    2    0    0  0.00000000000E+00  0.00000000000E+00  0.40838462638E+03  0.38874869846E+04  0.38659768562E+04 0.  0.
        3    1    3    3  502    0 -0.41568086813E+03 -0.18877600831E+04  0.20815598797E+03  0.19441598806E+04  0.10100000352E+00 0.  1.
       -3    1    3    3    0  502  0.41568086813E+03  0.18877600831E+04  0.20022863841E+03  0.19433271041E+04  0.10100000352E+00 0. -1.
</event>
<event>
 5   0  0.7675750E-08  0.3822722E+04  0.7818609E-02  0.8041296E-01
       -1   -1    0    0    0  501  0.00000000000E+00  0.00000000000E+00  0.16773435426E+04  0.16773435426E+04  0.50400001928E-02 0. -1.
        1   -1    0    0  501    0  0.00000000000E+00  0.00000000000E+00 -0.21780281751E+04  0.21780281751E+04  0.50400001928E-02 0.  1.
    10030    2    1    2    0    0  0.00000000000E+00  0.00000000000E+00 -0.50068463254E+03  0.38553717177E+04  0.38227223258E+04 0.  0.
        4    1    3    3  502    0 -0.92444229656E+03 -0.81674805124E+03  0.12221373573E+04  0.17364596949E+04  0.12699999809E+01 0. -1.
       -4    1    3    3    0  502  0.92444229656E+03  0.81674805124E+03 -0.17228219898E+04  0.21189120228E+04  0.12699999809E+01 0.  1.
</event>
<event>
 5   0  0.2473224E-07  0.3866856E+04  0.7818609E-02  0.8031958E-01
       -2   -1    0    0    0  501  0.00000000000E+00  0.00000000000E+00  0.16413890710E+04  0.16413890710E+04  0.25500000920E-02 0.  1.
        2   -1    0    0  501    0  0.00000000000E+00  0.00000000000E+00 -0.22774267128E+04  0.22774267128E+04  0.25500000920E-02 0. -1.
    10030    2    1    2    0    0  0.00000000000E+00  0.00000000000E+00 -0.63603764184E+03  0.39188157838E+04  0.38668557337E+04 0.  0.
        2    1    3    3  502    0  0.76244591301E+03 -0.56135812038E+03 -0.20264037573E+04  0.22366848006E+04  0.25500000920E-02 0. -1.
       -2    1    3    3    0  502 -0.76244591301E+03  0.56135812038E+03  0.13903661155E+04  0.16821309832E+04  0.25500000920E-02 0.  1.
</event>
<event>
 5   0  0.2446281E-07  0.3889708E+04  0.7818609E-02  0.8027173E-01
        2   -1    0    0  501    0  0.00000000000E+00  0.00000000000E+00  0.22903726627E+04  0.22903726627E+04  0.25500000920E-02 0. -1.
       -2   -1    0    0    0  501  0.00000000000E+00  0.00000000000E+00 -0.16514592041E+04  0.16514592041E+04  0.25500000920E-02 0.  1.
    10030    2    1    2    0    0  0.00000000000E+00  0.00000000000E+00  0.63891345853E+03  0.39418318668E+04  0.38897079657E+04 0.  0.
        1    1    3    3  502    0  0.13992807243E+04  0.12437679530E+04  0.85330985101E+03  0.20574457388E+04  0.50400001928E-02 0. -1.
       -1    1    3    3    0  502 -0.13992807243E+04 -0.12437679530E+04 -0.21439639248E+03  0.18843861280E+04  0.50400001928E-02 0.  1.
</event>
<event>
 5   0  0.7675750E-08  0.3953303E+04  0.7818609E-02  0.8014034E-01
       -1   -1    0    0    0  501  0.00000000000E+00  0.00000000000E+00  0.26016559130E+04  0.26016559130E+04  0.50400001928E-02 0. -1.
        1   -1    0    0  501    0  0.00000000000E+00  0.00000000000E+00 -0.15017942951E+04  0.15017942951E+04  0.50400001928E-02 0.  1.
    10030    2    1    2    0    0  0.00000000000E+00  0.00000000000E+00  0.10998616179E+04  0.41034502081E+04  0.39533034328E+04 0.  0.
        1    1    3    3  502    0 -0.13040900349E+04  0.10607210290E+04 -0.52945473189E+03  0.17624137521E+04  0.50400001928E-02 0.  1.
       -1    1    3    3    0  502  0.13040900349E+04 -0.10607210290E+04  0.16293163498E+04  0.23410364560E+04  0.50400001928E-02 0. -1.
</event>
<event>
 5   0  0.2473224E-07  0.3852378E+04  0.7818609E-02  0.8035007E-01
       -2   -1    0    0    0  501  0.00000000000E+00  0.00000000000E+00  0.18794566113E+04  0.18794566113E+04  0.25500000920E-02 0. -1.
        2   -1    0    0  501    0  0.00000000000E+00  0.00000000000E+00 -0.19740836352E+04  0.19740836352E+04  0.25500000920E-02 0.  1.
    10030    2    1    2    0    0  0.00000000000E+00  0.00000000000E+00 -0.94627023886E+02  0.38535402466E+04  0.38523782471E+04 0.  0.
        2    1    3    3  502    0  0.17040882420E+04  0.52392714541E+03  0.68214451033E+03  0.19088576487E+04  0.25500000920E-02 0. -1.
       -2    1    3    3    0  502 -0.17040882420E+04 -0.52392714541E+03 -0.77677153422E+03  0.19446825979E+04  0.25500000920E-02 0.  1.
</event>
<event>
 5   0  0.7731706E-08  0.3919007E+04  0.7818609E-02  0.8021088E-01
        1   -1    0    0  501    0  0.00000000000E+00  0.00000000000E+00  0.26149645736E+04  0.26149645736E+04  0.50400001928E-02 0. -1.
       -1   -1    0    0    0  501  0.00000000000E+00  0.00000000000E+00 -0.14683389766E+04  0.14683389766E+04  0.50400001928E-02 0.  1.
    10030    2    1    2    0    0  0.00000000000E+00  0.00000000000E+00  0.11466255970E+04  0.40833035503E+04  0.39190072243E+04 0.  0.
        3    1    3    3  502    0 -0.50586243057E+03  0.14934124797E+04 -0.63885014761E+03  0.17012663385E+04  0.10100000352E+00 0.  1.
       -3    1    3    3    0  502  0.50586243057E+03 -0.14934124797E+04  0.17854757446E+04  0.23820372117E+04  0.10100000352E+00 0. -1.
</event>
<event>
 5   0  0.2446281E-07  0.3913185E+04  0.7818609E-02  0.8022293E-01
        2   -1    0    0  501    0  0.00000000000E+00  0.00000000000E+00  0.13245976179E+04  0.13245976179E+04  0.25500000920E-02 0.  1.
       -2   -1    0    0    0  501  0.00000000000E+00  0.00000000000E+00 -0.28901260641E+04  0.28901260641E+04  0.25500000920E-02 0. -1.
    10030    2    1    2    0    0  0.00000000000E+00  0.00000000000E+00 -0.15655284462E+04  0.42147236819E+04  0.39131849431E+04 0.  0.
        1    1    3    3  502    0 -0.19319745265E+04 -0.26332801056E+03 -0.60780662139E+03  0.20423751128E+04  0.50400001928E-02 0.  1.
       -1    1    3    3    0  502  0.19319745265E+04  0.26332801056E+03 -0.95772182484E+03  0.21723485692E+04  0.50400001928E-02 0. -1.
</event>
<event>
 5   0  0.7731706E-08  0.3266140E+04  0.7818609E-02  0.8171565E-01
       -1   -1    0    0    0  501  0.00000000000E+00  0.00000000000E+00  0.14574307581E+04  0.14574307581E+04  0.50400001928E-02 0. -1.
        1   -1    0    0  501    0  0.00000000000E+00  0.00000000000E+00 -0.18298764574E+04  0.18298764574E+04  0.50400001928E-02 0.  1.
    10030    2    1    2    0    0  0.00000000000E+00  0.00000000000E+00 -0.37244569935E+03  0.32873072155E+04  0.32661403720E+04 0.  0.
        3    1    3    3  502    0 -0.37252511842E+03  0.47446893363E+03  0.13411833061E+04  0.14706013748E+04  0.10100000352E+00 0. -1.
       -3    1    3    3    0  502  0.37252511842E+03 -0.47446893363E+03 -0.17136290055E+04  0.18167058406E+04  0.10100000352E+00 0.  1.
</event>
<event>
 5   0  0.2486268E-07  0.3803910E+04  0.7818609E-02  0.8045316E-01
       -2   -1    0    0    0  501  0.00000000000E+00  0.00000000000E+00  0.18982958717E+04  0.18982958717E+04  0.25500000920E-02 0. -1.
        2   -1    0    0  501    0  0.00000000000E+00  0.00000000000E+00 -0.19056214206E+04  0.19056214206E+04  0.25500000920E-02 0.  1.
    10030    2    1    2    0    0  0.00000000000E+00  0.00000000000E+00 -0.73255489497E+01  0.38039172923E+04  0.38039102385E+04 0.  0.
        5    1    3    3  502    0  0.10413594415E+04  0.12195826284E+04 -0.10262104699E+04  0.19039278591E+04  0.46999998093E+01 0.  1.
       -5    1    3    3    0  502 -0.10413594415E+04 -0.12195826284E+04  0.10188849210E+04  0.18999894332E+04  0.46999998093E+01 0. -1.
</event>
<event>
 5   0  0.2446281E-07  0.3830823E+04  0.7818609E-02  0.8039573E-01
       -2   -1    0    0    0  501  0.00000000000E+00  0.00000000000E+00  0.12289031600E+04  0.12289031600E+04  0.25500000920E-02 0.  1.
        2   -1    0    0  501    0  0.00000000000E+00  0.00000000000E+00 -0.29854267004E+04  0.29854267005E+04  0.25500000920E-02 0. -1.
    10030    2    1    2    0    0  0.00000000000E+00  0.00000000000E+00 -0.17565235405E+04  0.42143298604E+04  0.38308225258E+04 0.  0.
        1    1    3    3  502    0  0.15817700980E+03 -0.15271676463E+04 -0.21381358774E+04  0.26322777241E+04  0.50400001928E-02 0. -1.
       -1    1    3    3    0  502 -0.15817700980E+03  0.15271676463E+04  0.38161233695E+03  0.15820521363E+04  0.50400001928E-02 0.  1.
</event>
<event>
 5   0  0.7675750E-08  0.3913759E+04  0.7818609E-02  0.8022174E-01
        1   -1    0    0  501    0  0.00000000000E+00  0.00000000000E+00  0.20272500094E+04  0.20272500094E+04  0.50400001928E-02 0. -1.
       -1   -1    0    0    0  501  0.00000000000E+00  0.00000000000E+00 -0.18889521458E+04  0.18889521458E+04  0.50400001928E-02 0.  1.
    10030    2    1    2    0    0  0.00000000000E+00  0.00000000000E+00  0.13829786362E+03  0.39162021552E+04  0.39137594485E+04 0.  0.
        2    1    3    3  502    0  0.15125807879E+03 -0.15855685605E+04  0.12067276943E+04  0.19982738537E+04  0.25500000920E-02 0. -1.
       -2    1    3    3    0  502 -0.15125807879E+03  0.15855685605E+04 -0.10684298307E+04  0.19179283014E+04  0.25500000920E-02 0.  1.
</event>
<event>
 5   0  0.2473224E-07  0.3904891E+04  0.7818609E-02  0.8024013E-01
        2   -1    0    0  501    0  0.00000000000E+00  0.00000000000E+00  0.28384010040E+04  0.28384010040E+04  0.25500000920E-02 0.  1.
       -2   -1    0    0    0  501  0.00000000000E+00  0.00000000000E+00 -0.13430248952E+04  0.13430248952E+04  0.25500000920E-02 0. -1.
    10030    2    1    2    0    0  0.00000000000E+00  0.00000000000E+00  0.14953761089E+04  0.41814258992E+04  0.39048908876E+04 0.  0.
        2    1    3    3  502    0  0.49405976031E+03 -0.38189646873E+03  0.27285857931E+04  0.27991285054E+04  0.25500000920E-02 0.  1.
       -2    1    3    3    0  502 -0.49405976031E+03  0.38189646873E+03 -0.12332096843E+04  0.13822973938E+04  0.25500000920E-02 0. -1.
</event>
<event>
 5   0  0.2446281E-07  0.3882884E+04  0.7818609E-02  0.8028598E-01
        2   -1    0    0  501    0  0.00000000000E+00  0.00000000000E+00  0.13596441572E+04  0.13596441572E+04  0.25500000920E-02 0.  1.
       -2   -1    0    0    0  501  0.00000000000E+00  0.00000000000E+00 -0.27721935115E+04  0.27721935115E+04  0.25500000920E-02 0. -1.
    10030    2    1    2    0    0  0.00000000000E+00  0.00000000000E+00 -0.14125493543E+04  0.41318376686E+04  0.38828838305E+04 0.  0.
        1    1    3    3  502    0  0.17128875035E+04 -0.84511167097E+03 -0.33612240849E+03  0.19393750565E+04  0.50400001928E-02 0.  1.
       -1    1    3    3    0  502 -0.17128875035E+04  0.84511167097E+03 -0.10764269458E+04  0.21924626122E+04  0.50400001928E-02 0. -1.
</event>
<event>
 5   0  0.7675750E-08  0.3826347E+04  0.7818609E-02  0.8040524E-01
       -1   -1    0    0    0  501  0.00000000000E+00  0.00000000000E+00  0.28477590714E+04  0.28477590714E+04  0.50400001928E-02 0.  1.
        1   -1    0    0  501    0  0.00000000000E+00  0.00000000000E+00 -0.12853029749E+04  0.12853029750E+04  0.50400001928E-02 0. -1.
    10030    2    1    2    0    0  0.00000000000E+00  0.00000000000E+00  0.15624560964E+04  0.41330620463E+04  0.38263471909E+04 0.  0.
        2    1    3    3  502    0 -0.11828205398E+04 -0.47725307602E+03 -0.75904876163E+03  0.14842472673E+04  0.25500000920E-02 0. -1.
       -2    1    3    3    0  502  0.11828205398E+04  0.47725307602E+03  0.23215048581E+04  0.26488147791E+04  0.25500000920E-02 0.  1.
</event>
<event>
 5   0  0.7675750E-08  0.4026123E+04  0.7818609E-02  0.7999297E-01
       -1   -1    0    0    0  501  0.00000000000E+00  0.00000000000E+00  0.15498890807E+04  0.15498890807E+04  0.50400001928E-02 0. -1.
        1   -1    0    0  501    0  0.00000000000E+00  0.00000000000E+00 -0.26146497164E+04  0.26146497164E+04  0.50400001928E-02 0.  1.
    10030    2    1    2    0    0  0.00000000000E+00  0.00000000000E+00 -0.10647606357E+04  0.41645387971E+04  0.40261232199E+04 0.  0.
        4    1    3    3  502    0 -0.30579467959E+03 -0.45907068160E+03  0.14701950128E+04  0.15702647118E+04  0.12699999809E+01 0. -1.
       -4    1    3    3    0  502  0.30579467959E+03  0.45907068160E+03 -0.25349556485E+04  0.25942740853E+04  0.12699999809E+01 0.  1.
</event>
<event>
 5   0  0.2486268E-07  0.3886129E+04  0.7818609E-02  0.8027920E-01
        2   -1    0    0  501    0  0.00000000000E+00  0.00000000000E+00  0.15323729909E+04  0.15323729909E+04  0.25500000920E-02 0. -1.
       -2   -1    0    0    0  501  0.00000000000E+00  0.00000000000E+00 -0.24638249819E+04  0.24638249819E+04  0.25500000920E-02 0.  1.
    10030    2    1    2    0    0  0.00000000000E+00  0.00000000000E+00 -0.93145199100E+03  0.39961979727E+04  0.38861285910E+04 0.  0.
        5    1    3    3  502    0  0.97271041385E+02 -0.17728163087E+04  0.34602298735E+03  0.18088928431E+04  0.46999998093E+01 0. -1.
       -5    1    3    3    0  502 -0.97271041385E+02  0.17728163087E+04 -0.12774749784E+04  0.21873051297E+04  0.46999998093E+01 0.  1.
</event>
<event>
 5   0  0.7675750E-08  0.3922282E+04  0.7818609E-02  0.8020411E-01
        1   -1    0    0  501    0  0.00000000000E+00  0.00000000000E+00  0.12899001945E+04  0.12899001945E+04  0.50400001928E-02 0. -1.
       -1   -1    0    0    0  501  0.00000000000E+00  0.00000000000E+00 -0.29816829700E+04  0.29816829700E+04  0.50400001928E-02 0.  1.
    10030    2    1    2    0    0  0.00000000000E+00  0.00000000000E+00 -0.16917827754E+04  0.42715831645E+04  0.39222817048E+04 0.  0.
        5    1    3    3  502    0 -0.52442573460E+03  0.16117924231E+04  0.22844654894E+03  0.17102944431E+04  0.46999998093E+01 0. -1.
       -5    1    3    3    0  502  0.52442573460E+03 -0.16117924231E+04 -0.19202293244E+04  0.25612887214E+04  0.46999998093E+01 0.  1.
</event>
<event>
 5   0  0.7731706E-08  0.3918703E+04  0.7818609E-02  0.8021151E-01
       -1   -1    0    0    0  501  0.00000000000E+00  0.00000000000E+00  0.17971350792E+04  0.17971350792E+04  0.50400001928E-02 0.  1.
        1   -1    0    0  501    0  0.00000000000E+00  0.00000000000E+00 -0.21362102150E+04  0.21362102150E+04  0.50400001928E-02 0. -1.
    10030    2    1    2    0    0  0.00000000000E+00  0.00000000000E+00 -0.33907513583E+03  0.39333452942E+04  0.39187030068E+04 0.  0.
        3    1    3    3  502    0  0.74359652378E+03  0.11034150171E+04 -0.16131737348E+04  0.20911217083E+04  0.10100000352E+00 0. -1.
       -3    1    3    3    0  502 -0.74359652378E+03 -0.11034150171E+04  0.12740985990E+04  0.18422235858E+04  0.10100000352E+00 0.  1.
</event>
<event>
 5   0  0.2395572E-07  0.3748805E+04  0.7818609E-02  0.8057231E-01
        2   -1    0    0  501    0  0.00000000000E+00  0.00000000000E+00  0.29567701438E+04  0.29567701438E+04  0.25500000920E-02 0.  1.
       -2   -1    0    0    0  501  0.00000000000E+00  0.00000000000E+00 -0.11882506237E+04  0.11882506237E+04  0.25500000920E-02 0. -1.
    10030    2    1    2    0    0  0.00000000000E+00  0.00000000000E+00  0.17685195201E+04  0.41450207674E+04  0.37488045921E+04 0.  0.
        3    1    3    3  502    0 -0.16511411955E+04  0.69047809751E+03  0.26828279038E+03  0.18096969128E+04  0.10100000352E+00 0.  1.
       -3    1    3    3    0  502  0.16511411955E+04 -0.69047809751E+03  0.15002367297E+04  0.23353238546E+04  0.10100000352E+00 0. -1.
</event>
<event>
 5   0  0.2486268E-07  0.3828829E+04  0.7818609E-02  0.8039997E-01
        2   -1    0    0  501    0  0.00000000000E+00  0.00000000000E+00  0.12995682842E+04  0.12995682842E+04  0.25500000920E-02 0.  1.
       -2   -1    0    0    0  501  0.00000000000E+00  0.00000000000E+00 -0.28201534851E+04  0.28201534851E+04  0.25500000920E-02 0. -1.
    10030    2    1    2    0    0  0.00000000000E+00  0.00000000000E+00 -0.15205852010E+04  0.41197217693E+04  0.38288285549E+04 0.  0.
        5    1    3    3  502    0 -0.10286983804E+04 -0.12004569437E+04  0.40138252779E+03  0.16310877521E+04  0.46999998093E+01 0.  1.
       -5    1    3    3    0  502  0.10286983804E+04  0.12004569437E+04 -0.19219677288E+04  0.24886340172E+04  0.46999998093E+01 0. -1.
</event>
<event>
 5   0  0.7675750E-08  0.3911982E+04  0.7818609E-02  0.8022542E-01
        1   -1    0    0  501    0  0.00000000000E+00  0.00000000000E+00  0.15442591619E+04  0.15442591619E+04  0.50400001928E-02 0. -1.
       -1   -1    0    0    0  501  0.00000000000E+00  0.00000000000E+00 -0.24774989390E+04  0.24774989390E+04  0.50400001928E-02 0.  1.
    10030    2    1    2    0    0  0.00000000000E+00  0.00000000000E+00 -0.93323977706E+03  0.40217581009E+04  0.39119818175E+04 0.  0.
        5    1    3    3  502    0 -0.42723127790E+03 -0.19084734299E+04 -0.50042025619E+03  0.20187223485E+04  0.46999998093E+01 0.  1.
       -5    1    3    3    0  502  0.42723127790E+03  0.19084734299E+04 -0.43281952087E+03  0.20030357524E+04  0.46999998093E+01 0. -1.
</event>
<event>
 5   0  0.7675750E-08  0.4008845E+04  0.7818609E-02  0.8002765E-01
        1   -1    0    0  501    0  0.00000000000E+00  0.00000000000E+00  0.19863191668E+04  0.19863191668E+04  0.50400001928E-02 0. -1.
       -1   -1    0    0    0  501  0.00000000000E+00  0.00000000000E+00 -0.20226905694E+04  0.20226905694E+04  0.50400001928E-02 0.  1.
    10030    2    1    2    0    0  0.00000000000E+00  0.00000000000E+00 -0.36371402622E+02  0.40090097362E+04  0.40088447446E+04 0.  0.
        2    1    3    3  502    0  0.17321427373E+04  0.27915042207E+03  0.95111454037E+03  0.19957109734E+04  0.25500000920E-02 0. -1.
       -2    1    3    3    0  502 -0.17321427373E+04 -0.27915042207E+03 -0.98748594299E+03  0.20132987628E+04  0.25500000920E-02 0.  1.
</event>
<event>
 5   0  0.2384787E-07  0.3905751E+04  0.7818609E-02  0.8023834E-01
       -2   -1    0    0    0  501  0.00000000000E+00  0.00000000000E+00  0.20255490188E+04  0.20255490188E+04  0.25500000920E-02 0.  1.
        2   -1    0    0  501    0  0.00000000000E+00  0.00000000000E+00 -0.18828094229E+04  0.18828094229E+04  0.25500000920E-02 0. -1.
    10030    2    1    2    0    0  0.00000000000E+00  0.00000000000E+00  0.14273959588E+03  0.39083584417E+04  0.39057510311E+04 0.  0.
        4    1    3    3  502    0 -0.14708309398E+04  0.11839540522E+04 -0.42759151144E+03  0.19359563437E+04  0.12699999809E+01 0. -1.
       -4    1    3    3    0  502  0.14708309398E+04 -0.11839540522E+04  0.57033110732E+03  0.19724020980E+04  0.12699999809E+01 0.  1.
</event>
<event>
 5   0  0.2486268E-07  0.3892023E+04  0.7818609E-02  0.8026690E-01
       -2   -1    0    0    0  501  0.00000000000E+00  0.00000000000E+00  0.17350378821E+04  0.17350378821E+04  0.25500000920E-02 0. -1.
        2   -1    0    0  501    0  0.00000000000E+00  0.00000000000E+00 -0.21826387912E+04  0.21826387912E+04  0.25500000920E-02 0.  1.
    10030    2    1    2    0    0  0.00000000000E+00  0.00000000000E+00 -0.44760090917E+03  0.39176766733E+04  0.38920231169E+04 0.  0.
        5    1    3    3  502    0 -0.87244813258E+03 -0.16543779821E+04  0.31714910241E+03  0.18970339731E+04  0.46999998093E+01 0.  1.
       -5    1    3    3    0  502  0.87244813258E+03  0.16543779821E+04 -0.76475001158E+03  0.20206427002E+04  0.46999998093E+01 0. -1.
</event>
<event>
 5   0  0.7675750E-08  0.3880388E+04  0.7818609E-02  0.8029121E-01
       -1   -1    0    0    0  501  0.00000000000E+00  0.00000000000E+00  0.15953648005E+04  0.15953648005E+04  0.50400001928E-02 0.  1.
        1   -1    0    0  501    0  0.00000000000E+00  0.00000000000E+00 -0.23595559910E+04  0.23595559910E+04  0.50400001928E-02 0. -1.
    10030    2    1    2    0    0  0.00000000000E+00  0.00000000000E+00 -0.76419119047E+03  0.39549207916E+04  0.38803879048E+04 0.  0.
        1    1    3    3  502    0  0.37721754419E+03 -0.15612582638E+04 -0.14913625374E+04  0.21917989552E+04  0.50400001928E-02 0. -1.
       -1    1    3    3    0  502 -0.37721754419E+03  0.15612582638E+04  0.72717134693E+03  0.17631218364E+04  0.50400001928E-02 0.  1.
</event>
<event>
 5   0  0.2473224E-07  0.3885481E+04  0.7818609E-02  0.8028056E-01
        2   -1    0    0  501    0  0.00000000000E+00  0.00000000000E+00  0.23063756924E+04  0.23063756924E+04  0.25500000920E-02 0.  1.
       -2   -1    0    0    0  501  0.00000000000E+00  0.00000000000E+00 -0.16364379757E+04  0.16364379757E+04  0.25500000920E-02 0. -1.
    10030    2    1    2    0    0  0.00000000000E+00  0.00000000000E+00  0.66993771671E+03  0.39428136681E+04  0.38854810612E+04 0.  0.
        2    1    3    3  502    0  0.52455599917E+01  0.96910450864E+02 -0.16339764767E+04  0.16368562178E+04  0.25500000920E-02 0. -1.
       -2    1    3    3    0  502 -0.52455599917E+01 -0.96910450864E+02  0.23039141934E+04  0.23059574502E+04  0.25500000920E-02 0.  1.
</event>
<event>
 5   0  0.7675750E-08  0.3869340E+04  0.7818609E-02  0.8031436E-01
       -1   -1    0    0    0  501  0.00000000000E+00  0.00000000000E+00  0.19835934123E+04  0.19835934124E+04  0.50400001928E-02 0.  1.
        1   -1    0    0  501    0  0.00000000000E+00  0.00000000000E+00 -0.18869533392E+04  0.18869533392E+04  0.50400001928E-02 0. -1.
    10030    2    1    2    0    0  0.00000000000E+00  0.00000000000E+00  0.96640073135E+02  0.38705467516E+04  0.38693401055E+04 0.  0.
        2    1    3    3  502    0  0.42467812614E+03 -0.42245513250E+03  0.18884937674E+04  0.19812189580E+04  0.25500000920E-02 0.  1.
       -2    1    3    3    0  502 -0.42467812614E+03  0.42245513250E+03 -0.17918536943E+04  0.18893277936E+04  0.25500000920E-02 0. -1.
</event>
<event>
 5   0  0.2446281E-07  0.3881273E+04  0.7818609E-02  0.8028935E-01
       -2   -1    0    0    0  501  0.00000000000E+00  0.00000000000E+00  0.23748569567E+04  0.23748569567E+04  0.25500000920E-02 0.  1.
        2   -1    0    0  501    0  0.00000000000E+00  0.00000000000E+00 -0.15858094546E+04  0.15858094546E+04  0.25500000920E-02 0. -1.
    10030    2    1    2    0    0  0.00000000000E+00  0.00000000000E+00  0.78904750208E+03  0.39606664113E+04  0.38812733041E+04 0.  0.
        1    1    3    3  502    0 -0.81043362371E+03  0.40796668098E+03  0.21450825872E+04  0.23290811015E+04  0.50400001928E-02 0.  1.
       -1    1    3    3    0  502  0.81043362371E+03 -0.40796668098E+03 -0.13560350851E+04  0.16315853099E+04  0.50400001928E-02 0. -1.
</event>
<event>
 5   0  0.7731706E-08  0.3886778E+04  0.7818609E-02  0.8027785E-01
        1   -1    0    0  501    0  0.00000000000E+00  0.00000000000E+00  0.28821827356E+04  0.28821827356E+04  0.50400001928E-02 0. -1.
       -1   -1    0    0    0  501  0.00000000000E+00  0.00000000000E+00 -0.13103821957E+04  0.13103821957E+04  0.50400001928E-02 0.  1.
    10030    2    1    2    0    0  0.00000000000E+00  0.00000000000E+00  0.15718005399E+04  0.41925649314E+04  0.38867780701E+04 0.  0.
        3    1    3    3  502    0 -0.23403103385E+03  0.14737153450E+04  0.21289045745E+04  0.25997773252E+04  0.10100000352E+00 0. -1.
       -3    1    3    3    0  502  0.23403103385E+03 -0.14737153450E+04 -0.55710403460E+03  0.15927876062E+04  0.10100000352E+00 0.  1.
</event>
<event>
 5   0  0.7731706E-08  0.3465436E+04  0.7818609E-02  0.8122030E-01
       -1   -1    0    0    0  501  0.00000000000E+00  0.00000000000E+00  0.15357210231E+04  0.15357210231E+04  0.50400001928E-02 0. -1.
        1   -1    0    0  501    0  0.00000000000E+00  0.00000000000E+00 -0.19549854112E+04  0.19549854112E+04  0.50400001928E-02 0.  1.
    10030    2    1    2    0    0  0.00000000000E+00  0.00000000000E+00 -0.41926438812E+03  0.34907064342E+04  0.34654363048E+04 0.  0.
        3    1    3    3  502    0 -0.13937034493E+04  0.93520513684E+03 -0.64322928217E+03  0.17974320216E+04  0.10100000352E+00 0. -1.
       -3    1    3    3    0  502  0.13937034493E+04 -0.93520513684E+03  0.22396489405E+03  0.16932744127E+04  0.10100000352E+00 0.  1.
</event>
<event>
 5   0  0.2384787E-07  0.3856827E+04  0.7818609E-02  0.8034069E-01
       -2   -1    0    0    0  501  0.00000000000E+00  0.00000000000E+00  0.15919012552E+04  0.15919012552E+04  0.25500000920E-02 0. -1.
        2   -1    0    0  501    0  0.00000000000E+00  0.00000000000E+00 -0.23360607909E+04  0.23360607909E+04  0.25500000920E-02 0.  1.
    10030    2    1    2    0    0  0.00000000000E+00  0.00000000000E+00 -0.74415953564E+03  0.39279620461E+04  0.38568267295E+04 0.  0.
        4    1    3    3  502    0  0.82377217846E+03 -0.36004944552E+03 -0.21095763621E+04  0.22931529050E+04  0.12699999809E+01 0.  1.
       -4    1    3    3    0  502 -0.82377217846E+03  0.36004944552E+03  0.13654168264E+04  0.16348091412E+04  0.12699999809E+01 0. -1.
</event>
<event>
 5   0  0.2446281E-07  0.3900033E+04  0.7818609E-02  0.8025022E-01
       -2   -1    0    0    0  501  0.00000000000E+00  0.00000000000E+00  0.16414808288E+04  0.16414808288E+04  0.25500000920E-02 0. -1.
        2   -1    0    0  501    0  0.00000000000E+00  0.00000000000E+00 -0.23165450272E+04  0.23165450272E+04  0.25500000920E-02 0.  1.
    10030    2    1    2    0    0  0.00000000000E+00  0.00000000000E+00 -0.67506419844E+03  0.39580258561E+04  0.39000329492E+04 0.  0.
        1    1    3    3  502    0  0.15127099509E+04  0.24502011987E+03  0.88631762594E+03  0.17702782801E+04  0.50400001928E-02 0. -1.
       -1    1    3    3    0  502 -0.15127099509E+04 -0.24502011987E+03 -0.15613818244E+04  0.21877475760E+04  0.50400001928E-02 0.  1.
</event>
<event>
 5   0  0.7675750E-08  0.3272340E+04  0.7818609E-02  0.8169969E-01
        1   -1    0    0  501    0  0.00000000000E+00  0.00000000000E+00  0.18390920538E+04  0.18390920538E+04  0.50400001928E-02 0. -1.
       -1   -1    0    0    0  501  0.00000000000E+00  0.00000000000E+00 -0.14556379917E+04  0.14556379917E+04  0.50400001928E-02 0.  1.
    10030    2    1    2    0    0  0.00000000000E+00  0.00000000000E+00  0.38345406216E+03  0.32947300455E+04  0.32723399969E+04 0.  0.
        2    1    3    3  502    0 -0.76246679443E+03  0.10315559503E+04 -0.83089409677E+03  0.15283482232E+04  0.25500000920E-02 0.  1.
       -2    1    3    3    0  502  0.76246679443E+03 -0.10315559503E+04  0.12143481589E+04  0.17663818224E+04  0.25500000920E-02 0. -1.
</event>
<event>
 5   0  0.7675750E-08  0.3890688E+04  0.7818609E-02  0.8026969E-01
        1   -1    0    0  501    0  0.00000000000E+00  0.00000000000E+00  0.27160532067E+04  0.27160532067E+04  0.50400001928E-02 0.  1.
       -1   -1    0    0    0  501  0.00000000000E+00  0.00000000000E+00 -0.13933316461E+04  0.13933316461E+04  0.50400001928E-02 0. -1.
    10030    2    1    2    0    0  0.00000000000E+00  0.00000000000E+00  0.13227215606E+04  0.41093848528E+04  0.38906877981E+04 0.  0.
        4    1    3    3  502    0  0.92448792521E+03  0.12474770353E+04 -0.57647290672E+03  0.16562606988E+04  0.12699999809E+01 0. -1.
       -4    1    3    3    0  502 -0.92448792521E+03 -0.12474770353E+04  0.18991944673E+04  0.24531241540E+04  0.12699999809E+01 0.  1.
</event>
<event>
 5   0  0.7675750E-08  0.3859489E+04  0.7818609E-02  0.8033508E-01
       -1   -1    0    0    0  501  0.00000000000E+00  0.00000000000E+00  0.13922128363E+04  0.13922128363E+04  0.50400001928E-02 0. -1.
        1   -1    0    0  501    0  0.00000000000E+00  0.00000000000E+00 -0.26748161534E+04  0.26748161534E+04  0.50400001928E-02 0.  1.
    10030    2    1    2    0    0  0.00000000000E+00  0.00000000000E+00 -0.12826033171E+04  0.40670289897E+04  0.38594887659E+04 0.  0.
        5    1    3    3  502    0  0.14984675393E+04  0.83702947676E+03  0.28809356225E+03  0.17404146925E+04  0.46999998093E+01 0.  1.
       -5    1    3    3    0  502 -0.14984675393E+04 -0.83702947676E+03 -0.15706968793E+04  0.23266142972E+04  0.46999998093E+01 0. -1.
</event>
<event>
 5   0  0.2473224E-07  0.3898664E+04  0.7818609E-02  0.8025307E-01
        2   -1    0    0  501    0  0.00000000000E+00  0.00000000000E+00  0.26149684541E+04  0.26149684541E+04  0.25500000920E-02 0.  1.
       -2   -1    0    0    0  501  0.00000000000E+00  0.00000000000E+00 -0.14531325471E+04  0.14531325471E+04  0.25500000920E-02 0. -1.
    10030    2    1    2    0    0  0.00000000000E+00  0.00000000000E+00  0.11618359070E+04  0.40681010011E+04  0.38986642688E+04 0.  0.
        2    1    3    3  502    0 -0.15982610927E+04 -0.26385178798E+03 -0.55056993280E+03  0.17109013815E+04  0.25500000920E-02 0. -1.
       -2    1    3    3    0  502  0.15982610927E+04  0.26385178798E+03  0.17124058398E+04  0.23571996196E+04  0.25500000920E-02 0.  1.
</event>
<event>
 5   0  0.7675750E-08  0.3773233E+04  0.7818609E-02  0.8051924E-01
       -1   -1    0    0    0  501  0.00000000000E+00  0.00000000000E+00  0.15184815483E+04  0.15184815483E+04  0.50400001928E-02 0. -1.
        1   -1    0    0  501    0  0.00000000000E+00  0.00000000000E+00 -0.23440002460E+04  0.23440002460E+04  0.50400001928E-02 0.  1.
    10030    2    1    2    0    0  0.00000000000E+00  0.00000000000E+00 -0.82551869767E+03  0.38624817943E+04  0.37732326314E+04 0.  0.
        4    1    3    3  502    0  0.20737113789E+03 -0.18098161538E+04 -0.91516582336E+03  0.20386189925E+04  0.12699999809E+01 0.  1.
       -4    1    3    3    0  502 -0.20737113789E+03  0.18098161538E+04  0.89647125690E+02  0.18238628017E+04  0.12699999809E+01 0. -1.
</event>
<event>
 5   0  0.2486268E-07  0.3902068E+04  0.7818609E-02  0.8024599E-01
        2   -1    0    0  501    0  0.00000000000E+00  0.00000000000E+00  0.26776458872E+04  0.26776458873E+04  0.25500000920E-02 0.  1.
       -2   -1    0    0    0  501  0.00000000000E+00  0.00000000000E+00 -0.14215971414E+04  0.14215971414E+04  0.25500000920E-02 0. -1.
    10030    2    1    2    0    0  0.00000000000E+00  0.00000000000E+00  0.12560487458E+04  0.40992430287E+04  0.39020680358E+04 0.  0.
        5    1    3    3  502    0 -0.44623268315E+03 -0.90122172366E+03 -0.11283387013E+04  0.15114544378E+04  0.46999998093E+01 0. -1.
       -5    1    3    3    0  502  0.44623268315E+03  0.90122172366E+03  0.23843874472E+04  0.25877885908E+04  0.46999998093E+01 0.  1.
</event>
<event>
 5   0  0.7675750E-08  0.3848641E+04  0.7818609E-02  0.8035796E-01
       -1   -1    0    0    0  501  0.00000000000E+00  0.00000000000E+00  0.15895344482E+04  0.15895344482E+04  0.50400001928E-02 0. -1.
        1   -1    0    0  501    0  0.00000000000E+00  0.00000000000E+00 -0.23296188241E+04  0.23296188242E+04  0.50400001928E-02 0.  1.
    10030    2    1    2    0    0  0.00000000000E+00  0.00000000000E+00 -0.74008437599E+03  0.39191532723E+04  0.38486409924E+04 0.  0.
        5    1    3    3  502    0  0.14833445395E+04 -0.61952429462E+03 -0.14471864383E+04  0.21629822126E+04  0.46999998093E+01 0. -1.
       -5    1    3    3    0  502 -0.14833445395E+04  0.61952429462E+03  0.70710206236E+03  0.17561710598E+04  0.46999998093E+01 0.  1.
</event>
<event>
 5   0  0.7675750E-08  0.4087519E+04  0.7818609E-02  0.7987120E-01
        1   -1    0    0  501    0  0.00000000000E+00  0.00000000000E+00  0.26593180105E+04  0.26593180105E+04  0.50400001928E-02 0.  1.
       -1   -1    0    0    0  501  0.00000000000E+00  0.00000000000E+00 -0.15706860834E+04  0.15706860834E+04  0.50400001928E-02 0. -1.
    10030    2    1    2    0    0  0.00000000000E+00  0.00000000000E+00  0.10886319271E+04  0.42300040939E+04  0.40875194387E+04 0.  0.
        1    1    3    3  502    0  0.17165964189E+04 -0.10925963764E+04  0.74198119872E+03  0.21658730818E+04  0.50400001928E-02 0. -1.
       -1    1    3    3    0  502 -0.17165964189E+04  0.10925963764E+04  0.34665072839E+03  0.20641310120E+04  0.50400001928E-02 0.  1.
</event>
<event>
 5   0  0.2473224E-07  0.3797653E+04  0.7818609E-02  0.8046659E-01
        2   -1    0    0  501    0  0.00000000000E+00  0.00000000000E+00  0.17945311179E+04  0.17945311179E+04  0.25500000920E-02 0. -1.
       -2   -1    0    0    0  501  0.00000000000E+00  0.00000000000E+00 -0.20091830444E+04  0.20091830444E+04  0.25500000920E-02 0.  1.
    10030    2    1    2    0    0  0.00000000000E+00  0.00000000000E+00 -0.21465192649E+03  0.38037141624E+04  0.37976526934E+04 0.  0.
        2    1    3    3  502    0  0.15258692085E+04 -0.39321486490E+02  0.10239538856E+04  0.18380164800E+04  0.25500000920E-02 0.  1.
       -2    1    3    3    0  502 -0.15258692085E+04  0.39321486490E+02 -0.12386058121E+04  0.19656976824E+04  0.25500000920E-02 0. -1.
</event>
<event>
 5   0  0.7675750E-08  0.3886251E+04  0.7818609E-02  0.8027895E-01
       -1   -1    0    0    0  501  0.00000000000E+00  0.00000000000E+00  0.18388280414E+04  0.18388280414E+04  0.50400001928E-02 0.  1.
        1   -1    0    0  501    0  0.00000000000E+00  0.00000000000E+00 -0.20533389615E+04  0.20533389615E+04  0.50400001928E-02 0. -1.
    10030    2    1    2    0    0  0.00000000000E+00  0.00000000000E+00 -0.21451092008E+03  0.38921670029E+04  0.38862512842E+04 0.  0.
        5    1    3    3  502    0 -0.11270792914E+04  0.14418095970E+04 -0.76139019339E+03  0.19821351517E+04  0.46999998093E+01 0. -1.
       -5    1    3    3    0  502  0.11270792914E+04 -0.14418095970E+04  0.54687927331E+03  0.19100318512E+04  0.46999998093E+01 0.  1.
</event>
<event>
 5   0  0.2446281E-07  0.3891858E+04  0.7818609E-02  0.8026725E-01
        2   -1    0    0  501    0  0.00000000000E+00  0.00000000000E+00  0.32167519415E+04  0.32167519415E+04  0.25500000920E-02 0. -1.
       -2   -1    0    0    0  501  0.00000000000E+00  0.00000000000E+00 -0.11771625105E+04  0.11771625105E+04  0.25500000920E-02 0.  1.
    10030    2    1    2    0    0  0.00000000000E+00  0.00000000000E+00  0.20395894310E+04  0.43939144520E+04  0.38918580607E+04 0.  0.
        1    1    3    3  502    0  0.11422258925E+04  0.11295740387E+04  0.22596536390E+04  0.27724812113E+04  0.50400001928E-02 0. -1.
       -1    1    3    3    0  502 -0.11422258925E+04 -0.11295740387E+04 -0.22006420805E+03  0.16214332407E+04  0.50400001928E-02 0.  1.
</event>
<event>
 5   0  0.7675750E-08  0.3917323E+04  0.7818609E-02  0.8021436E-01
        1   -1    0    0  501    0  0.00000000000E+00  0.00000000000E+00  0.19648036842E+04  0.19648036843E+04  0.50400001928E-02 0. -1.
       -1   -1    0    0    0  501  0.00000000000E+00  0.00000000000E+00 -0.19525389529E+04  0.19525389529E+04  0.50400001928E-02 0.  1.
    10030    2    1    2    0    0  0.00000000000E+00  0.00000000000E+00  0.12264731372E+02  0.39173426371E+04  0.39173234374E+04 0.  0.
        1    1    3    3  502    0 -0.19113100506E+04  0.20183943790E+03 -0.37137506063E+03  0.19574893880E+04  0.50400001928E-02 0.  1.
       -1    1    3    3    0  502  0.19113100506E+04 -0.20183943790E+03  0.38363979200E+03  0.19598532492E+04  0.50400001928E-02 0. -1.
</event>
<event>
 5   0  0.7675750E-08  0.4161388E+04  0.7818609E-02  0.7972758E-01
       -1   -1    0    0    0  501  0.00000000000E+00  0.00000000000E+00  0.31653744554E+04  0.31653744554E+04  0.50400001928E-02 0. -1.
        1   -1    0    0  501    0  0.00000000000E+00  0.00000000000E+00 -0.13677013649E+04  0.13677013649E+04  0.50400001928E-02 0.  1.
    10030    2    1    2    0    0  0.00000000000E+00  0.00000000000E+00  0.17976730904E+04  0.45330758203E+04  0.41613877316E+04 0.  0.
        2    1    3    3  502    0 -0.29037797033E+03  0.13368375149E+04 -0.80893978967E+03  0.15892883597E+04  0.25500000920E-02 0. -1.
       -2    1    3    3    0  502  0.29037797033E+03 -0.13368375149E+04  0.26066128801E+04  0.29437874606E+04  0.25500000920E-02 0.  1.
</event>
<event>
 5   0  0.2384787E-07  0.3929270E+04  0.7818609E-02  0.8018969E-01
        2   -1    0    0  501    0  0.00000000000E+00  0.00000000000E+00  0.20314608373E+04  0.20314608373E+04  0.25500000920E-02 0.  1.
       -2   -1    0    0    0  501  0.00000000000E+00  0.00000000000E+00 -0.19000075265E+04  0.19000075265E+04  0.25500000920E-02 0. -1.
    10030    2    1    2    0    0  0.00000000000E+00  0.00000000000E+00  0.13145331075E+03  0.39314683638E+04  0.39292701005E+04 0.  0.
        4    1    3    3  502    0 -0.36311977943E+03 -0.13255845570E+04 -0.13388959303E+04  0.19187689587E+04  0.12699999809E+01 0. -1.
       -4    1    3    3    0  502  0.36311977943E+03  0.13255845570E+04  0.14703492410E+04  0.20126994051E+04  0.12699999809E+01 0.  1.
</event>
<event>
 5   0  0.2473224E-07  0.3937776E+04  0.7818609E-02  0.8017218E-01
        2   -1    0    0  501    0  0.00000000000E+00  0.00000000000E+00  0.20695124685E+04  0.20695124685E+04  0.25500000920E-02 0.  1.
       -2   -1    0    0    0  501  0.00000000000E+00  0.00000000000E+00 -0.18731565517E+04  0.18731565517E+04  0.25500000920E-02 0. -1.
    10030    2    1    2    0    0  0.00000000000E+00  0.00000000000E+00  0.19635591682E+03  0.39426690201E+04  0.39377764482E+04 0.  0.
        2    1    3    3  502    0  0.14496613175E+04 -0.95951246444E+03 -0.82727492247E+03  0.19252443747E+04  0.25500000920E-02 0. -1.
       -2    1    3    3    0  502 -0.14496613175E+04  0.95951246444E+03  0.10236308393E+04  0.20174246454E+04  0.25500000920E-02 0.  1.
</event>
<event>
 5   0  0.2384787E-07  0.4207943E+04  0.7818609E-02  0.7963863E-01
       -2   -1    0    0    0  501  0.00000000000E+00  0.00000000000E+00  0.24773990207E+04  0.24773990207E+04  0.25500000920E-02 0.  1.
        2   -1    0    0  501    0  0.00000000000E+00  0.00000000000E+00 -0.17868319488E+04  0.17868319488E+04  0.25500000920E-02 0. -1.
    10030    2    1    2    0    0  0.00000000000E+00  0.00000000000E+00  0.69056707186E+03  0.42642309694E+04  0.42079428323E+04 0.  0.
        4    1    3    3  502    0  0.12091530653E+03 -0.18632738125E+04 -0.63737013357E+03  0.19729805148E+04  0.12699999809E+01 0. -1.
       -4    1    3    3    0  502 -0.12091530653E+03  0.18632738125E+04  0.13279372054E+04  0.22912504547E+04  0.12699999809E+01 0.  1.
</event>
<event>
 5   0  0.7675750E-08  0.3913144E+04  0.7818609E-02  0.8022301E-01
       -1   -1    0    0    0  501  0.00000000000E+00  0.00000000000E+00  0.24999172734E+04  0.24999172734E+04  0.50400001928E-02 0. -1.
        1   -1    0    0  501    0  0.00000000000E+00  0.00000000000E+00 -0.15313203032E+04  0.15313203032E+04  0.50400001928E-02 0.  1.
    10030    2    1    2    0    0  0.00000000000E+00  0.00000000000E+00  0.96859697021E+03  0.40312375767E+04  0.39131440440E+04 0.  0.
        2    1    3    3  502    0 -0.13581532232E+04  0.14036423348E+04  0.36512637681E+03  0.19869849654E+04  0.25500000920E-02 0. -1.
       -2    1    3    3    0  502  0.13581532232E+04 -0.14036423348E+04  0.60347059340E+03  0.20442526113E+04  0.25500000920E-02 0.  1.
</event>
<event>
 5   0  0.2446281E-07  0.3885504E+04  0.7818609E-02  0.8028051E-01
       -2   -1    0    0    0  501  0.00000000000E+00  0.00000000000E+00  0.13984818048E+04  0.13984818048E+04  0.25500000920E-02 0. -1.
        2   -1    0    0  501    0  0.00000000000E+00  0.00000000000E+00 -0.26988448934E+04  0.26988448934E+04  0.25500000920E-02 0.  1.
    10030    2    1    2    0    0  0.00000000000E+00  0.00000000000E+00 -0.13003630886E+04  0.40973266982E+04  0.38855040740E+04 0.  0.
        1    1    3    3  502    0 -0.44123705719E+02 -0.62217365568E+03 -0.25903876269E+04  0.26644239559E+04  0.50400001928E-02 0.  1.
       -1    1    3    3    0  502  0.44123705719E+02  0.62217365568E+03  0.12900245383E+04  0.14329027422E+04  0.50400001928E-02 0. -1.
</event>
<event>
 5   0  0.7675750E-08  0.3649553E+04  0.7818609E-02  0.8079234E-01
       -1   -1    0    0    0  501  0.00000000000E+00  0.00000000000E+00  0.15008361406E+04  0.15008361406E+04  0.50400001928E-02 0. -1.
        1   -1    0    0  501    0  0.00000000000E+00  0.00000000000E+00 -0.22186355410E+04  0.22186355410E+04  0.50400001928E-02 0.  1.
    10030    2    1    2    0    0  0.00000000000E+00  0.00000000000E+00 -0.71779940041E+03  0.37194716815E+04  0.36495525219E+04 0.  0.
        4    1    3    3  502    0  0.33444534279E+03  0.79704983137E+02  0.14675275483E+04  0.15072641738E+04  0.12699999809E+01 0. -1.
       -4    1    3    3    0  502 -0.33444534279E+03 -0.79704983137E+02 -0.21853269487E+04  0.22122075077E+04  0.12699999809E+01 0.  1.
</event>
<event>
 5   0  0.7675750E-08  0.3846362E+04  0.7818609E-02  0.8036278E-01
       -1   -1    0    0    0  501  0.00000000000E+00  0.00000000000E+00  0.16635012817E+04  0.16635012817E+04  0.50400001928E-02 0. -1.
        1   -1    0    0  501    0  0.00000000000E+00  0.00000000000E+00 -0.22233977233E+04  0.22233977233E+04  0.50400001928E-02 0.  1.
    10030    2    1    2    0    0  0.00000000000E+00  0.00000000000E+00 -0.55989644163E+03  0.38868990050E+04  0.38463618979E+04 0.  0.
        2    1    3    3  502    0  0.17043479929E+03  0.11583630514E+04  0.12618350562E+04  0.17213601276E+04  0.25500000920E-02 0. -1.
       -2    1    3    3    0  502 -0.17043479929E+03 -0.11583630514E+04 -0.18217314978E+04  0.21655388775E+04  0.25500000920E-02 0.  1.
</event>
<event>
 5   0  0.7675750E-08  0.3977862E+04  0.7818609E-02  0.8009028E-01
        1   -1    0    0  501    0  0.00000000000E+00  0.00000000000E+00  0.22449095223E+04  0.22449095223E+04  0.50400001928E-02 0.  1.
       -1   -1    0    0    0  501  0.00000000000E+00  0.00000000000E+00 -0.17621402963E+04  0.17621402963E+04  0.50400001928E-02 0. -1.
    10030    2    1    2    0    0  0.00000000000E+00  0.00000000000E+00  0.48276922598E+03  0.40070498187E+04  0.39778615013E+04 0.  0.
        1    1    3    3  502    0 -0.39620632627E+03  0.52247224526E+03  0.21328978786E+04  0.22314143633E+04  0.50400001928E-02 0.  1.
       -1    1    3    3    0  502  0.39620632627E+03 -0.52247224526E+03 -0.16501286527E+04  0.17756354554E+04  0.50400001928E-02 0. -1.
</event>
<event>
 5   0  0.2446281E-07  0.3905164E+04  0.7818609E-02  0.8023956E-01
        2   -1    0    0  501    0  0.00000000000E+00  0.00000000000E+00  0.16250214257E+04  0.16250214257E+04  0.25500000920E-02 0. -1.
       -2   -1    0    0    0  501  0.00000000000E+00  0.00000000000E+00 -0.23461699103E+04  0.23461699103E+04  0.25500000920E-02 0.  1.
    10030    2    1    2    0    0  0.00000000000E+00  0.00000000000E+00 -0.72114848452E+03  0.39711913360E+04  0.39051639518E+04 0.  0.
        1    1    3    3  502    0 -0.17470084168E+04  0.42933276257E+03  0.41134602251E+03  0.18454188087E+04  0.50400001928E-02 0. -1.
       -1    1    3    3    0  502  0.17470084168E+04 -0.42933276257E+03 -0.11324945070E+04  0.21257725273E+04  0.50400001928E-02 0.  1.
</event>
<event>
 5   0  0.7731706E-08  0.4002637E+04  0.7818609E-02  0.8004015E-01
       -1   -1    0    0    0  501  0.00000000000E+00  0.00000000000E+00  0.28074995060E+04  0.28074995060E+04  0.50400001928E-02 0.  1.
        1   -1    0    0  501    0  0.00000000000E+00  0.00000000000E+00 -0.14266344071E+04  0.14266344071E+04  0.50400001928E-02 0. -1.
    10030    2    1    2    0    0  0.00000000000E+00  0.00000000000E+00  0.13808650989E+04  0.42341339132E+04  0.40026368275E+04 0.  0.
        3    1    3    3  502    0  0.14499738830E+04  0.11722593175E+04 -0.78709057806E+02  0.18662291646E+04  0.10100000352E+00 0. -1.
       -3    1    3    3    0  502 -0.14499738830E+04 -0.11722593175E+04  0.14595741567E+04  0.23679047485E+04  0.10100000352E+00 0.  1.
</event>
<event>
 5   0  0.7675750E-08  0.3873276E+04  0.7818609E-02  0.8030610E-01
       -1   -1    0    0    0  501  0.00000000000E+00  0.00000000000E+00  0.16712081220E+04  0.16712081220E+04  0.50400001928E-02 0.  1.
        1   -1    0    0  501    0  0.00000000000E+00  0.00000000000E+00 -0.22442251472E+04  0.22442251472E+04  0.50400001928E-02 0. -1.
    10030    2    1    2    0    0  0.00000000000E+00  0.00000000000E+00 -0.57301702520E+03  0.39154332691E+04  0.38732762842E+04 0.  0.
        5    1    3    3  502    0  0.65405488833E+03 -0.15152947409E+04 -0.13107686782E+04  0.21076153744E+04  0.46999998093E+01 0. -1.
       -5    1    3    3    0  502 -0.65405488833E+03  0.15152947409E+04  0.73775165299E+03  0.18078178947E+04  0.46999998093E+01 0.  1.
</event>
<event>
 5   0  0.7731706E-08  0.3982757E+04  0.7818609E-02  0.8008034E-01
        1   -1    0    0  501    0  0.00000000000E+00  0.00000000000E+00  0.11058666148E+04  0.11058666148E+04  0.50400001928E-02 0. -1.
       -1   -1    0    0    0  501  0.00000000000E+00  0.00000000000E+00 -0.35859558665E+04  0.35859558665E+04  0.50400001928E-02 0.  1.
    10030    2    1    2    0    0  0.00000000000E+00  0.00000000000E+00 -0.24800892518E+04  0.46918224813E+04  0.39827572735E+04 0.  0.
        3    1    3    3  502    0  0.16701969727E+04 -0.62316494832E+03 -0.22855762139E+04  0.28985774304E+04  0.10100000352E+00 0.  1.
       -3    1    3    3    0  502 -0.16701969727E+04  0.62316494832E+03 -0.19451303787E+03  0.17932450509E+04  0.10100000352E+00 0. -1.
</event>
<event>
 5   0  0.2473224E-07  0.3965584E+04  0.7818609E-02  0.8011525E-01
       -2   -1    0    0    0  501  0.00000000000E+00  0.00000000000E+00  0.17331024350E+04  0.17331024350E+04  0.25500000920E-02 0.  1.
        2   -1    0    0  501    0  0.00000000000E+00  0.00000000000E+00 -0.22684548803E+04  0.22684548803E+04  0.25500000920E-02 0. -1.
    10030    2    1    2    0    0  0.00000000000E+00  0.00000000000E+00 -0.53535244534E+03  0.40015573154E+04  0.39655842832E+04 0.  0.
        2    1    3    3  502    0  0.13010211131E+04 -0.14812456792E+04 -0.48106552730E+03  0.20293271644E+04  0.25500000920E-02 0. -1.
       -2    1    3    3    0  502 -0.13010211131E+04  0.14812456792E+04 -0.54286918040E+02  0.19722301509E+04  0.25500000920E-02 0.  1.
</event>
<event>
 5   0  0.2473224E-07  0.3852274E+04  0.7818609E-02  0.8035029E-01
       -2   -1    0    0    0  501  0.00000000000E+00  0.00000000000E+00  0.22157981837E+04  0.22157981837E+04  0.25500000920E-02 0. -1.
        2   -1    0    0  501    0  0.00000000000E+00  0.00000000000E+00 -0.16743421636E+04  0.16743421636E+04  0.25500000920E-02 0.  1.
    10030    2    1    2    0    0  0.00000000000E+00  0.00000000000E+00  0.54145602010E+03  0.38901403473E+04  0.38522743023E+04 0.  0.
        2    1    3    3  502    0 -0.11655770857E+04 -0.66848907542E+03  0.16643501075E+04  0.21390439142E+04  0.25500000920E-02 0. -1.
       -2    1    3    3    0  502  0.11655770857E+04  0.66848907542E+03 -0.11228940874E+04  0.17510964331E+04  0.25500000920E-02 0.  1.
</event>
<event>
 5   0  0.2384787E-07  0.3912286E+04  0.7818609E-02  0.8022479E-01
        2   -1    0    0  501    0  0.00000000000E+00  0.00000000000E+00  0.24025175797E+04  0.24025175797E+04  0.25500000920E-02 0.  1.
       -2   -1    0    0    0  501  0.00000000000E+00  0.00000000000E+00 -0.15927023056E+04  0.15927023056E+04  0.25500000920E-02 0. -1.
    10030    2    1    2    0    0  0.00000000000E+00  0.00000000000E+00  0.80981527407E+03  0.39952198854E+04  0.39122859244E+04 0.  0.
        4    1    3    3  502    0 -0.19076612346E+04  0.38528192469E+03  0.60626798011E+03  0.20384248881E+04  0.12699999809E+01 0.  1.
       -4    1    3    3    0  502  0.19076612346E+04 -0.38528192469E+03  0.20354729397E+03  0.19567949973E+04  0.12699999809E+01 0. -1.
</event>
<event>
 5   0  0.7731706E-08  0.3258682E+04  0.7818609E-02  0.8173489E-01
        1   -1    0    0  501    0  0.00000000000E+00  0.00000000000E+00  0.19318877355E+04  0.19318877356E+04  0.50400001928E-02 0.  1.
       -1   -1    0    0    0  501  0.00000000000E+00  0.00000000000E+00 -0.13741748282E+04  0.13741748282E+04  0.50400001928E-02 0. -1.
    10030    2    1    2    0    0  0.00000000000E+00  0.00000000000E+00  0.55771290736E+03  0.33060625637E+04  0.32586816335E+04 0.  0.
        3    1    3    3  502    0 -0.63413469551E+03 -0.72502212291E+03 -0.10543924321E+04  0.14281201987E+04  0.10100000352E+00 0. -1.
       -3    1    3    3    0  502  0.63413469551E+03  0.72502212291E+03  0.16121053395E+04  0.18779423651E+04  0.10100000352E+00 0.  1.
</event>
<event>
 5   0  0.7675750E-08  0.3463847E+04  0.7818609E-02  0.8122411E-01
       -1   -1    0    0    0  501  0.00000000000E+00  0.00000000000E+00  0.12310314464E+04  0.12310314464E+04  0.50400001928E-02 0. -1.
        1   -1    0    0  501    0  0.00000000000E+00  0.00000000000E+00 -0.24366231147E+04  0.24366231147E+04  0.50400001928E-02 0.  1.
    10030    2    1    2    0    0  0.00000000000E+00  0.00000000000E+00 -0.12055916683E+04  0.36676545611E+04  0.34638473854E+04 0.  0.
        4    1    3    3  502    0  0.13579680049E+04 -0.91276704896E+03 -0.12039487276E+04  0.20314317462E+04  0.12699999809E+01 0.  1.
       -4    1    3    3    0  502 -0.13579680049E+04  0.91276704896E+03 -0.16429407254E+01  0.16362228149E+04  0.12699999809E+01 0. -1.
</event>
<event>
 5   0  0.2486268E-07  0.3870893E+04  0.7818609E-02  0.8031110E-01
        2   -1    0    0  501    0  0.00000000000E+00  0.00000000000E+00  0.16089962349E+04  0.16089962349E+04  0.25500000920E-02 0. -1.
       -2   -1    0    0    0  501  0.00000000000E+00  0.00000000000E+00 -0.23281303856E+04  0.23281303856E+04  0.25500000920E-02 0.  1.
    10030    2    1    2    0    0  0.00000000000E+00  0.00000000000E+00 -0.71913415065E+03  0.39371266205E+04  0.38708929330E+04 0.  0.
        5    1    3    3  502    0  0.93103712543E+03 -0.37728742834E+03 -0.20421876047E+04  0.22759016313E+04  0.46999998093E+01 0.  1.
       -5    1    3    3    0  502 -0.93103712543E+03  0.37728742834E+03  0.13230534540E+04  0.16612249892E+04  0.46999998093E+01 0. -1.
</event>
<event>
 5   0  0.7675750E-08  0.3765482E+04  0.7818609E-02  0.8053603E-01
       -1   -1    0    0    0  501  0.00000000000E+00  0.00000000000E+00  0.15743098343E+04  0.15743098343E+04  0.50400001928E-02 0.  1.
        1   -1    0    0  501    0  0.00000000000E+00  0.00000000000E+00 -0.22515983538E+04  0.22515983538E+04  0.50400001928E-02 0. -1.
    10030    2    1    2    0    0  0.00000000000E+00  0.00000000000E+00 -0.67728851948E+03  0.38259081881E+04  0.37654818716E+04 0.  0.
        5    1    3    3  502    0 -0.45536204823E+03 -0.13022919952E+04  0.96307560831E+03  0.16825147111E+04  0.46999998093E+01 0.  1.
       -5    1    3    3    0  502  0.45536204823E+03  0.13022919952E+04 -0.16403641278E+04  0.21433934770E+04  0.46999998093E+01 0. -1.
</event>
<event>
 5   0  0.7675750E-08  0.3886278E+04  0.7818609E-02  0.8027889E-01
        1   -1    0    0  501    0  0.00000000000E+00  0.00000000000E+00  0.14059393230E+04  0.14059393230E+04  0.50400001928E-02 0.  1.
       -1   -1    0    0    0  501  0.00000000000E+00  0.00000000000E+00 -0.26855991493E+04  0.26855991493E+04  0.50400001928E-02 0. -1.
    10030    2    1    2    0    0  0.00000000000E+00  0.00000000000E+00 -0.12796598263E+04  0.40915384723E+04  0.38862781423E+04 0.  0.
        2    1    3    3  502    0 -0.14626845671E+04  0.81126896562E+03  0.40144037056E+03  0.17201040226E+04  0.25500000920E-02 0.  1.
       -2    1    3    3    0  502  0.14626845671E+04 -0.81126896562E+03 -0.16811001968E+04  0.23714344497E+04  0.25500000920E-02 0. -1.
</event>
<event>
 5   0  0.2395572E-07  0.3938962E+04  0.7818609E-02  0.8016974E-01
        2   -1    0    0  501    0  0.00000000000E+00  0.00000000000E+00  0.16055678601E+04  0.16055678601E+04  0.25500000920E-02 0. -1.
       -2   -1    0    0    0  501  0.00000000000E+00  0.00000000000E+00 -0.24158771695E+04  0.24158771695E+04  0.25500000920E-02 0.  1.
    10030    2    1    2    0    0  0.00000000000E+00  0.00000000000E+00 -0.81030930943E+03  0.40214450296E+04  0.39389616587E+04 0.  0.
        3    1    3    3  502    0 -0.16324461068E+04 -0.79286811695E+03 -0.11862471689E+04  0.21681103520E+04  0.10100000352E+00 0.  1.
       -3    1    3    3    0  502  0.16324461068E+04  0.79286811695E+03  0.37593785952E+03  0.18533346775E+04  0.10100000352E+00 0. -1.
</event>
<event>
 5   0  0.7731706E-08  0.3893466E+04  0.7818609E-02  0.8026390E-01
        1   -1    0    0  501    0  0.00000000000E+00  0.00000000000E+00  0.17082204949E+04  0.17082204949E+04  0.50400001928E-02 0.  1.
       -1   -1    0    0    0  501  0.00000000000E+00  0.00000000000E+00 -0.22185477576E+04  0.22185477576E+04  0.50400001928E-02 0. -1.
    10030    2    1    2    0    0  0.00000000000E+00  0.00000000000E+00 -0.51032726261E+03  0.39267682525E+04  0.38934656790E+04 0.  0.
        3    1    3    3  502    0  0.45189665973E+03 -0.56209702938E+03 -0.20788349584E+04  0.22003905235E+04  0.10100000352E+00 0. -1.
       -3    1    3    3    0  502 -0.45189665973E+03  0.56209702938E+03  0.15685076957E+04  0.17263777290E+04  0.10100000352E+00 0.  1.
</event>
<event>
 5   0  0.7731706E-08  0.3902025E+04  0.7818609E-02  0.8024608E-01
       -1   -1    0    0    0  501  0.00000000000E+00  0.00000000000E+00  0.22474013006E+04  0.22474013006E+04  0.50400001928E-02 0. -1.
        1   -1    0    0  501    0  0.00000000000E+00  0.00000000000E+00 -0.16937113329E+04  0.16937113329E+04  0.50400001928E-02 0.  1.
    10030    2    1    2    0    0  0.00000000000E+00  0.00000000000E+00  0.55368996771E+03  0.39411126335E+04  0.39020246296E+04 0.  0.
        3    1    3    3  502    0 -0.43483776987E+03 -0.16045634842E+04 -0.75453121100E+03  0.18256574760E+04  0.10100000352E+00 0.  1.
       -3    1    3    3    0  502  0.43483776987E+03  0.16045634842E+04  0.13082211787E+04  0.21154551575E+04  0.10100000352E+00 0. -1.
</event>
<event>
 5   0  0.7731706E-08  0.3894625E+04  0.7818609E-02  0.8026148E-01
       -1   -1    0    0    0  501  0.00000000000E+00  0.00000000000E+00  0.13231121160E+04  0.13231121160E+04  0.50400001928E-02 0. -1.
        1   -1    0    0  501    0  0.00000000000E+00  0.00000000000E+00 -0.28659901857E+04  0.28659901857E+04  0.50400001928E-02 0.  1.
    10030    2    1    2    0    0  0.00000000000E+00  0.00000000000E+00 -0.15428780698E+04  0.41891023017E+04  0.38946251881E+04 0.  0.
        3    1    3    3  502    0 -0.14352003534E+04 -0.19484230448E+03 -0.21714959129E+04  0.26102026910E+04  0.10100000352E+00 0.  1.
       -3    1    3    3    0  502  0.14352003534E+04  0.19484230448E+03  0.62861784313E+03  0.15788996108E+04  0.10100000352E+00 0. -1.
</event>
<event>
 5   0  0.7675750E-08  0.3921384E+04  0.7818609E-02  0.8020596E-01
       -1   -1    0    0    0  501  0.00000000000E+00  0.00000000000E+00  0.23505338223E+04  0.23505338223E+04  0.50400001928E-02 0. -1.
        1   -1    0    0  501    0  0.00000000000E+00  0.00000000000E+00 -0.16355063840E+04  0.16355063840E+04  0.50400001928E-02 0.  1.
    10030    2    1    2    0    0  0.00000000000E+00  0.00000000000E+00  0.71502743838E+03  0.39860402063E+04  0.39213839762E+04 0.  0.
        2    1    3    3  502    0 -0.99250712664E+03  0.32836034361E+03  0.20436043712E+04  0.22954759283E+04  0.25500000920E-02 0. -1.
       -2    1    3    3    0  502  0.99250712664E+03 -0.32836034361E+03 -0.13285769328E+04  0.16905642780E+04  0.25500000920E-02 0.  1.
</event>
<event>
 5   0  0.7675750E-08  0.3864829E+04  0.7818609E-02  0.8032384E-01
       -1   -1    0    0    0  501  0.00000000000E+00  0.00000000000E+00  0.17353564189E+04  0.17353564189E+04  0.50400001928E-02 0. -1.
        1   -1    0    0  501    0  0.00000000000E+00  0.00000000000E+00 -0.21518493013E+04  0.21518493013E+04  0.50400001928E-02 0.  1.
    10030    2    1    2    0    0  0.00000000000E+00  0.00000000000E+00 -0.41649288233E+03  0.38872057202E+04  0.38648288436E+04 0.  0.
        4    1    3    3  502    0 -0.56464395410E+03  0.17608970276E+04 -0.77242440956E+03  0.20040514510E+04  0.12699999809E+01 0.  1.
       -4    1    3    3    0  502  0.56464395410E+03 -0.17608970276E+04  0.35593152723E+03  0.18831542692E+04  0.12699999809E+01 0. -1.
</event>
<event>
 5   0  0.7675750E-08  0.3877714E+04  0.7818609E-02  0.8029680E-01
       -1   -1    0    0    0  501  0.00000000000E+00  0.00000000000E+00  0.14521322043E+04  0.14521322043E+04  0.50400001928E-02 0.  1.
        1   -1    0    0  501    0  0.00000000000E+00  0.00000000000E+00 -0.25887215072E+04  0.25887215072E+04  0.50400001928E-02 0. -1.
    10030    2    1    2    0    0  0.00000000000E+00  0.00000000000E+00 -0.11365893029E+04  0.40408537115E+04  0.38777136916E+04 0.  0.
        4    1    3    3  502    0  0.17616560171E+04  0.80879371993E+03 -0.52680697490E+03  0.20087574283E+04  0.12699999809E+01 0.  1.
       -4    1    3    3    0  502 -0.17616560171E+04 -0.80879371993E+03 -0.60978232804E+03  0.20320962832E+04  0.12699999809E+01 0. -1.
</event>
<event>
 5   0  0.2395572E-07  0.3872166E+04  0.7818609E-02  0.8030843E-01
       -2   -1    0    0    0  501  0.00000000000E+00  0.00000000000E+00  0.13168334868E+04  0.13168334868E+04  0.25500000920E-02 0.  1.
        2   -1    0    0  501    0  0.00000000000E+00  0.00000000000E+00 -0.28465392577E+04  0.28465392577E+04  0.25500000920E-02 0. -1.
    10030    2    1    2    0    0  0.00000000000E+00  0.00000000000E+00 -0.15297057710E+04  0.41633727445E+04  0.38721664303E+04 0.  0.
        3    1    3    3  502    0 -0.18517233926E+04  0.18482642766E+03 -0.13392356889E+04  0.22927260132E+04  0.10100000352E+00 0. -1.
       -3    1    3    3    0  502  0.18517233926E+04 -0.18482642766E+03 -0.19047008209E+03  0.18706467313E+04  0.10100000352E+00 0.  1.
</event>
<event>
 5   0  0.2384787E-07  0.3875122E+04  0.7818609E-02  0.8030223E-01
       -2   -1    0    0    0  501  0.00000000000E+00  0.00000000000E+00  0.16195354247E+04  0.16195354247E+04  0.25500000920E-02 0.  1.
        2   -1    0    0  501    0  0.00000000000E+00  0.00000000000E+00 -0.23180372317E+04  0.23180372317E+04  0.25500000920E-02 0. -1.
    10030    2    1    2    0    0  0.00000000000E+00  0.00000000000E+00 -0.69850180697E+03  0.39375726564E+04  0.38751224045E+04 0.  0.
        4    1    3    3  502    0 -0.81129044290E+03 -0.26739227165E+03 -0.21163724853E+04  0.22822631135E+04  0.12699999809E+01 0. -1.
       -4    1    3    3    0  502  0.81129044290E+03  0.26739227165E+03  0.14178706783E+04  0.16553095430E+04  0.12699999809E+01 0.  1.
</event>
<event>
 5   0  0.2384787E-07  0.3899485E+04  0.7818609E-02  0.8025136E-01
        2   -1    0    0  501    0  0.00000000000E+00  0.00000000000E+00  0.17081698735E+04  0.17081698735E+04  0.25500000920E-02 0. -1.
       -2   -1    0    0    0  501  0.00000000000E+00  0.00000000000E+00 -0.22254792820E+04  0.22254792820E+04  0.25500000920E-02 0.  1.
    10030    2    1    2    0    0  0.00000000000E+00  0.00000000000E+00 -0.51730940842E+03  0.39336491555E+04  0.38994854346E+04 0.  0.
        4    1    3    3  502    0 -0.11666950093E+04 -0.10840039710E+04  0.87603480991E+03  0.18176029420E+04  0.12699999809E+01 0. -1.
       -4    1    3    3    0  502  0.11666950093E+04  0.10840039710E+04 -0.13933442183E+04  0.21160462135E+04  0.12699999809E+01 0.  1.
</event>
<event>
 5   0  0.7675750E-08  0.3898183E+04  0.7818609E-02  0.8025407E-01
        1   -1    0    0  501    0  0.00000000000E+00  0.00000000000E+00  0.19093507658E+04  0.19093507659E+04  0.50400001928E-02 0. -1.
       -1   -1    0    0    0  501  0.00000000000E+00  0.00000000000E+00 -0.19896594571E+04  0.19896594571E+04  0.50400001928E-02 0.  1.
    10030    2    1    2    0    0  0.00000000000E+00  0.00000000000E+00 -0.80308691219E+02  0.38990102229E+04  0.38981830681E+04 0.  0.
        5    1    3    3  502    0  0.13620095631E+04 -0.13445724003E+04  0.32869311132E+03  0.19419078868E+04  0.46999998093E+01 0. -1.
       -5    1    3    3    0  502 -0.13620095631E+04  0.13445724003E+04 -0.40900180254E+03  0.19571023361E+04  0.46999998093E+01 0.  1.
</event>
<event>
 5   0  0.7731706E-08  0.3947898E+04  0.7818609E-02  0.8015140E-01
       -1   -1    0    0    0  501  0.00000000000E+00  0.00000000000E+00  0.28545720629E+04  0.28545720629E+04  0.50400001928E-02 0. -1.
        1   -1    0    0  501    0  0.00000000000E+00  0.00000000000E+00 -0.13649942828E+04  0.13649942828E+04  0.50400001928E-02 0.  1.
    10030    2    1    2    0    0  0.00000000000E+00  0.00000000000E+00  0.14895777801E+04  0.42195663458E+04  0.39478979449E+04 0.  0.
        3    1    3    3  502    0  0.11210196737E+04  0.16247427988E+04  0.74423917213E+03  0.21095891132E+04  0.10100000352E+00 0.  1.
       -3    1    3    3    0  502 -0.11210196737E+04 -0.16247427988E+04  0.74533860794E+03  0.21099772325E+04  0.10100000352E+00 0. -1.
</event>
<event>
 5   0  0.2384787E-07  0.3749206E+04  0.7818609E-02  0.8057144E-01
       -2   -1    0    0    0  501  0.00000000000E+00  0.00000000000E+00  0.21748110943E+04  0.21748110943E+04  0.25500000920E-02 0. -1.
        2   -1    0    0  501    0  0.00000000000E+00  0.00000000000E+00 -0.16158355121E+04  0.16158355121E+04  0.25500000920E-02 0.  1.
    10030    2    1    2    0    0  0.00000000000E+00  0.00000000000E+00  0.55897558222E+03  0.37906466063E+04  0.37492063150E+04 0.  0.
        4    1    3    3  502    0  0.54217027035E+03 -0.17551036466E+04 -0.98540580295E+02  0.18395785580E+04  0.12699999809E+01 0.  1.
       -4    1    3    3    0  502 -0.54217027035E+03  0.17551036466E+04  0.65751616251E+03  0.19510680483E+04  0.12699999809E+01 0. -1.
</event>
<event>
 5   0  0.2486268E-07  0.3905999E+04  0.7818609E-02  0.8023783E-01
        2   -1    0    0  501    0  0.00000000000E+00  0.00000000000E+00  0.23563047584E+04  0.23563047584E+04  0.25500000920E-02 0. -1.
       -2   -1    0    0    0  501  0.00000000000E+00  0.00000000000E+00 -0.16187237618E+04  0.16187237618E+04  0.25500000920E-02 0.  1.
    10030    2    1    2    0    0  0.00000000000E+00  0.00000000000E+00  0.73758099665E+03  0.39750285202E+04  0.39059987211E+04 0.  0.
        5    1    3    3  502    0 -0.38939453577E+03 -0.71476541098E+03 -0.14378772624E+04  0.16522804873E+04  0.46999998093E+01 0.  1.
       -5    1    3    3    0  502  0.38939453577E+03  0.71476541098E+03  0.21754582590E+04  0.23227480328E+04  0.46999998093E+01 0. -1.
</event>
<event>
 5   0  0.7675750E-08  0.3889125E+04  0.7818609E-02  0.8027295E-01
        1   -1    0    0  501    0  0.00000000000E+00  0.00000000000E+00  0.23665991294E+04  0.23665991294E+04  0.50400001928E-02 0. -1.
       -1   -1    0    0    0  501  0.00000000000E+00  0.00000000000E+00 -0.15977882400E+04  0.15977882400E+04  0.50400001928E-02 0.  1.
    10030    2    1    2    0    0  0.00000000000E+00  0.00000000000E+00  0.76881088939E+03  0.39643873693E+04  0.38891254840E+04 0.  0.
        5    1    3    3  502    0 -0.60984907624E+03  0.11112323009E+04 -0.11187667421E+04  0.16906845464E+04  0.46999998093E+01 0.  1.
       -5    1    3    3    0  502  0.60984907624E+03 -0.11112323009E+04  0.18875776315E+04  0.22737028229E+04  0.46999998093E+01 0. -1.
</event>
<event>
 5   0  0.7731706E-08  0.3935217E+04  0.7818609E-02  0.8017744E-01
       -1   -1    0    0    0  501  0.00000000000E+00  0.00000000000E+00  0.26638436519E+04  0.26638436519E+04  0.50400001928E-02 0.  1.
        1   -1    0    0  501    0  0.00000000000E+00  0.00000000000E+00 -0.14533447067E+04  0.14533447067E+04  0.50400001928E-02 0. -1.
    10030    2    1    2    0    0  0.00000000000E+00  0.00000000000E+00  0.12104989453E+04  0.41171883586E+04  0.39352169297E+04 0.  0.
        3    1    3    3  502    0  0.90251943246E+02  0.19412045083E+04  0.28266969277E+03  0.19637521538E+04  0.10100000352E+00 0. -1.
       -3    1    3    3    0  502 -0.90251943246E+02 -0.19412045083E+04  0.92782925251E+03  0.21534362048E+04  0.10100000352E+00 0.  1.
</event>
<event>
 5   0  0.2473224E-07  0.3911901E+04  0.7818609E-02  0.8022558E-01
        2   -1    0    0  501    0  0.00000000000E+00  0.00000000000E+00  0.17215789515E+04  0.17215789515E+04  0.25500000920E-02 0. -1.
       -2   -1    0    0    0  501  0.00000000000E+00  0.00000000000E+00 -0.22222292382E+04  0.22222292382E+04  0.25500000920E-02 0.  1.
    10030    2    1    2    0    0  0.00000000000E+00  0.00000000000E+00 -0.50065028674E+03  0.39438081897E+04  0.39119013698E+04 0.  0.
        2    1    3    3  502    0 -0.93518934647E+03 -0.17100870952E+04 -0.41526301790E+03  0.19928422820E+04  0.25500000920E-02 0. -1.
       -2    1    3    3    0  502  0.93518934647E+03  0.17100870952E+04 -0.85387268846E+02  0.19509659076E+04  0.25500000920E-02 0.  1.
</event>
<event>
 5   0  0.2486268E-07  0.3880534E+04  0.7818609E-02  0.8029090E-01
       -2   -1    0    0    0  501  0.00000000000E+00  0.00000000000E+00  0.21191187434E+04  0.21191187434E+04  0.25500000920E-02 0. -1.
        2   -1    0    0  501    0  0.00000000000E+00  0.00000000000E+00 -0.17765103185E+04  0.17765103185E+04  0.25500000920E-02 0.  1.
    10030    2    1    2    0    0  0.00000000000E+00  0.00000000000E+00  0.34260842488E+03  0.38956290620E+04  0.38805341457E+04 0.  0.
        5    1    3    3  502    0 -0.10713936258E+04  0.10816970377E+04  0.13787552829E+04  0.20540060864E+04  0.46999998093E+01 0. -1.
       -5    1    3    3    0  502  0.10713936258E+04 -0.10816970377E+04 -0.10361468580E+04  0.18416229756E+04  0.46999998093E+01 0.  1.
</event>
<event>
 5   0  0.2446281E-07  0.3931510E+04  0.7818609E-02  0.8018507E-01
       -2   -1    0    0    0  501  0.00000000000E+00  0.00000000000E+00  0.14792864979E+04  0.14792864979E+04  0.25500000920E-02 0.  1.
        2   -1    0    0  501    0  0.00000000000E+00  0.00000000000E+00 -0.26122007180E+04  0.26122007180E+04  0.25500000920E-02 0. -1.
    10030    2    1    2    0    0  0.00000000000E+00  0.00000000000E+00 -0.11329142200E+04  0.40914872159E+04  0.39315102706E+04 0.  0.
        1    1    3    3  502    0 -0.18988989599E+04  0.24340120607E+03 -0.10205718305E+03  0.19171533782E+04  0.50400001928E-02 0.  1.
       -1    1    3    3    0  502  0.18988989599E+04 -0.24340120607E+03 -0.10308570370E+04  0.21743338377E+04  0.50400001928E-02 0. -1.
</event>
<event>
 5   0  0.2384787E-07  0.3971906E+04  0.7818609E-02  0.8010238E-01
       -2   -1    0    0    0  501  0.00000000000E+00  0.00000000000E+00  0.12838561914E+04  0.12838561914E+04  0.25500000920E-02 0.  1.
        2   -1    0    0  501    0  0.00000000000E+00  0.00000000000E+00 -0.30720016646E+04  0.30720016646E+04  0.25500000920E-02 0. -1.
    10030    2    1    2    0    0  0.00000000000E+00  0.00000000000E+00 -0.17881454732E+04  0.43558578561E+04  0.39719055161E+04 0.  0.
        4    1    3    3  502    0 -0.19801143217E+04 -0.57175469049E+02 -0.10487182773E+04  0.22414132594E+04  0.12699999809E+01 0.  1.
       -4    1    3    3    0  502  0.19801143217E+04  0.57175469049E+02 -0.73942719589E+03  0.21144445967E+04  0.12699999809E+01 0. -1.
</event>
<event>
 5   0  0.2486268E-07  0.3804568E+04  0.7818609E-02  0.8045175E-01
       -2   -1    0    0    0  501  0.00000000000E+00  0.00000000000E+00  0.19531405141E+04  0.19531405141E+04  0.25500000920E-02 0. -1.
        2   -1    0    0  501    0  0.00000000000E+00  0.00000000000E+00 -0.18527519735E+04  0.18527519735E+04  0.25500000920E-02 0.  1.
    10030    2    1    2    0    0  0.00000000000E+00  0.00000000000E+00  0.10038854057E+03  0.38058924876E+04  0.38045682762E+04 0.  0.
        5    1    3    3  502    0  0.33556796598E+03  0.61856103159E+03  0.18181348514E+04  0.19495794515E+04  0.46999998093E+01 0. -1.
       -5    1    3    3    0  502 -0.33556796598E+03 -0.61856103159E+03 -0.17177463109E+04  0.18563130361E+04  0.46999998093E+01 0.  1.
</event>
<event>
 5   0  0.2395572E-07  0.3808364E+04  0.7818609E-02  0.8044362E-01
       -2   -1    0    0    0  501  0.00000000000E+00  0.00000000000E+00  0.16172176715E+04  0.16172176715E+04  0.25500000920E-02 0.  1.
        2   -1    0    0  501    0  0.00000000000E+00  0.00000000000E+00 -0.22420662507E+04  0.22420662507E+04  0.25500000920E-02 0. -1.
    10030    2    1    2    0    0  0.00000000000E+00  0.00000000000E+00 -0.62484857920E+03  0.38592839222E+04  0.38083640379E+04 0.  0.
        3    1    3    3  502    0 -0.18478157334E+04 -0.24808441320E+03  0.79974309945E+02  0.18661095254E+04  0.10100000352E+00 0.  1.
       -3    1    3    3    0  502  0.18478157334E+04  0.24808441320E+03 -0.70482288914E+03  0.19931743967E+04  0.10100000352E+00 0. -1.
</event>
<event>
 5   0  0.7675750E-08  0.3856754E+04  0.7818609E-02  0.8034084E-01
        1   -1    0    0  501    0  0.00000000000E+00  0.00000000000E+00  0.33071511231E+04  0.33071511231E+04  0.50400001928E-02 0.  1.
       -1   -1    0    0    0  501  0.00000000000E+00  0.00000000000E+00 -0.11244230765E+04  0.11244230765E+04  0.50400001928E-02 0. -1.
    10030    2    1    2    0    0  0.00000000000E+00  0.00000000000E+00  0.21827280466E+04  0.44315741995E+04  0.38567535779E+04 0.  0.
        4    1    3    3  502    0 -0.73264549372E+03 -0.66599541440E+03  0.29927834438E+04  0.31523124316E+04  0.12699999809E+01 0.  1.
       -4    1    3    3    0  502  0.73264549372E+03  0.66599541440E+03 -0.81005539725E+03  0.12792617680E+04  0.12699999809E+01 0. -1.
</event>
<event>
 5   0  0.2486268E-07  0.3430671E+04  0.7818609E-02  0.8130419E-01
        2   -1    0    0  501    0  0.00000000000E+00  0.00000000000E+00  0.20695738945E+04  0.20695738945E+04  0.25500000920E-02 0.  1.
       -2   -1    0    0    0  501  0.00000000000E+00  0.00000000000E+00 -0.14217305343E+04  0.14217305343E+04  0.25500000920E-02 0. -1.
    10030    2    1    2    0    0  0.00000000000E+00  0.00000000000E+00  0.64784336027E+03  0.34913044288E+04  0.34306713039E+04 0.  0.
        5    1    3    3  502    0 -0.34629999903E+03 -0.15652469802E+04  0.94498002515E+03  0.18608952513E+04  0.46999998093E+01 0. -1.
       -5    1    3    3    0  502  0.34629999903E+03  0.15652469802E+04 -0.29713666488E+03  0.16304091775E+04  0.46999998093E+01 0.  1.
</event>
<event>
 5   0  0.7675750E-08  0.3874923E+04  0.7818609E-02  0.8030265E-01
       -1   -1    0    0    0  501  0.00000000000E+00  0.00000000000E+00  0.13985793980E+04  0.13985793980E+04  0.50400001928E-02 0.  1.
        1   -1    0    0  501    0  0.00000000000E+00  0.00000000000E+00 -0.26839791244E+04  0.26839791244E+04  0.50400001928E-02 0. -1.
    10030    2    1    2    0    0  0.00000000000E+00  0.00000000000E+00 -0.12853997264E+04  0.40825585224E+04  0.38749234356E+04 0.  0.
        5    1    3    3  502    0 -0.18832345653E+03 -0.81380021990E+03  0.11991147658E+04  0.14613811391E+04  0.46999998093E+01 0.  1.
       -5    1    3    3    0  502  0.18832345653E+03  0.81380021990E+03 -0.24845144923E+04  0.26211773832E+04  0.46999998093E+01 0. -1.
</event>
<event>
 5   0  0.7675750E-08  0.3892112E+04  0.7818609E-02  0.8026672E-01
       -1   -1    0    0    0  501  0.00000000000E+00  0.00000000000E+00  0.19432402827E+04  0.19432402827E+04  0.50400001928E-02 0. -1.
        1   -1    0    0  501    0  0.00000000000E+00  0.00000000000E+00 -0.19488762302E+04  0.19488762302E+04  0.50400001928E-02 0.  1.
    10030    2    1    2    0    0  0.00000000000E+00  0.00000000000E+00 -0.56359475106E+01  0.38921165129E+04  0.38921124323E+04 0.  0.
        5    1    3    3  502    0  0.21084181739E+03 -0.18703507624E+04 -0.49723376314E+03  0.19467741912E+04  0.46999998093E+01 0. -1.
       -5    1    3    3    0  502 -0.21084181739E+03  0.18703507624E+04  0.49159781563E+03  0.19453423217E+04  0.46999998093E+01 0.  1.
</event>
<event>
 5   0  0.7675750E-08  0.3863747E+04  0.7818609E-02  0.8032612E-01
       -1   -1    0    0    0  501  0.00000000000E+00  0.00000000000E+00  0.17899467542E+04  0.17899467542E+04  0.50400001928E-02 0. -1.
        1   -1    0    0  501    0  0.00000000000E+00  0.00000000000E+00 -0.20850535361E+04  0.20850535361E+04  0.50400001928E-02 0.  1.
    10030    2    1    2    0    0  0.00000000000E+00  0.00000000000E+00 -0.29510678196E+03  0.38750002903E+04  0.38637467874E+04 0.  0.
        5    1    3    3  502    0  0.65614529287E+03  0.12625495611E+04 -0.14580937269E+04  0.20373064193E+04  0.46999998093E+01 0.  1.
       -5    1    3    3    0  502 -0.65614529287E+03 -0.12625495611E+04  0.11629869450E+04  0.18376938710E+04  0.46999998093E+01 0. -1.
</event>
<event>
 5   0  0.7675750E-08  0.3914301E+04  0.7818609E-02  0.8022061E-01
        1   -1    0    0  501    0  0.00000000000E+00  0.00000000000E+00  0.26654461127E+04  0.26654461127E+04  0.50400001928E-02 0.  1.
       -1   -1    0    0    0  501  0.00000000000E+00  0.00000000000E+00 -0.14370718422E+04  0.14370718422E+04  0.50400001928E-02 0. -1.
    10030    2    1    2    0    0  0.00000000000E+00  0.00000000000E+00  0.12283742704E+04  0.41025179549E+04  0.39143007322E+04 0.  0.
        1    1    3    3  502    0  0.14134425902E+04  0.70899410454E+03  0.18228721431E+04  0.24131629547E+04  0.50400001928E-02 0.  1.
       -1    1    3    3    0  502 -0.14134425902E+04 -0.70899410454E+03 -0.59449787262E+03  0.16893550002E+04  0.50400001928E-02 0. -1.
</event>
<event>
 5   0  0.2395572E-07  0.3904141E+04  0.7818609E-02  0.8024168E-01
       -2   -1    0    0    0  501  0.00000000000E+00  0.00000000000E+00  0.19248417952E+04  0.19248417952E+04  0.25500000920E-02 0. -1.
        2   -1    0    0  501    0  0.00000000000E+00  0.00000000000E+00 -0.19796846509E+04  0.19796846509E+04  0.25500000920E-02 0.  1.
    10030    2    1    2    0    0  0.00000000000E+00  0.00000000000E+00 -0.54842855776E+02  0.39045264461E+04  0.39041412666E+04 0.  0.
        3    1    3    3  502    0  0.16138969137E+04  0.53091374037E+03 -0.98878995241E+03  0.19657665751E+04  0.10100000352E+00 0.  1.
       -3    1    3    3    0  502 -0.16138969137E+04 -0.53091374037E+03  0.93394709663E+03  0.19387598710E+04  0.10100000352E+00 0. -1.
</event>
<event>
 5   0  0.2486268E-07  0.3930750E+04  0.7818609E-02  0.8018664E-01
       -2   -1    0    0    0  501  0.00000000000E+00  0.00000000000E+00  0.11865463496E+04  0.11865463496E+04  0.25500000920E-02 0. -1.
        2   -1    0    0  501    0  0.00000000000E+00  0.00000000000E+00 -0.32554139952E+04  0.32554139952E+04  0.25500000920E-02 0.  1.
    10030    2    1    2    0    0  0.00000000000E+00  0.00000000000E+00 -0.20688676457E+04  0.44419603448E+04  0.39307503571E+04 0.  0.
        5    1    3    3  502    0  0.59126141228E+03  0.28620277746E+03 -0.31276817763E+04  0.31959220064E+04  0.46999998093E+01 0.  1.
       -5    1    3    3    0  502 -0.59126141228E+03 -0.28620277746E+03  0.10588141306E+04  0.12460383384E+04  0.46999998093E+01 0. -1.
</event>
<event>
 5   0  0.7675750E-08  0.3898983E+04  0.7818609E-02  0.8025241E-01
        1   -1    0    0  501    0  0.00000000000E+00  0.00000000000E+00  0.26490880498E+04  0.26490880499E+04  0.50400001928E-02 0. -1.
       -1   -1    0    0    0  501  0.00000000000E+00  0.00000000000E+00 -0.14346512193E+04  0.14346512193E+04  0.50400001928E-02 0.  1.
    10030    2    1    2    0    0  0.00000000000E+00  0.00000000000E+00  0.12144368306E+04  0.40837392691E+04  0.38989831499E+04 0.  0.
        4    1    3    3  502    0 -0.21866594611E+03  0.15587078704E+04 -0.59756236887E+03  0.16835876629E+04  0.12699999809E+01 0.  1.
       -4    1    3    3    0  502  0.21866594611E+03 -0.15587078704E+04  0.18119991994E+04  0.24001516062E+04  0.12699999809E+01 0. -1.
</event>
<event>
 5   0  0.2473224E-07  0.3917317E+04  0.7818609E-02  0.8021437E-01
        2   -1    0    0  501    0  0.00000000000E+00  0.00000000000E+00  0.26430954045E+04  0.26430954045E+04  0.25500000920E-02 0.  1.
       -2   -1    0    0    0  501  0.00000000000E+00  0.00000000000E+00 -0.14514581441E+04  0.14514581441E+04  0.25500000920E-02 0. -1.
    10030    2    1    2    0    0  0.00000000000E+00  0.00000000000E+00  0.11916372604E+04  0.40945535486E+04  0.39173166073E+04 0.  0.
        2    1    3    3  502    0  0.17343762664E+04  0.36330580613E+03  0.14680124908E+04  0.23011112132E+04  0.25500000920E-02 0.  1.
       -2    1    3    3    0  502 -0.17343762664E+04 -0.36330580613E+03 -0.27637523043E+03  0.17934423354E+04  0.25500000920E-02 0. -1.
</event>
<event>
 5   0  0.2473224E-07  0.3903884E+04  0.7818609E-02  0.8024222E-01
        2   -1    0    0  501    0  0.00000000000E+00  0.00000000000E+00  0.27712345833E+04  0.27712345833E+04  0.25500000920E-02 0. -1.
       -2   -1    0    0    0  501  0.00000000000E+00  0.00000000000E+00 -0.13748666143E+04  0.13748666143E+04  0.25500000920E-02 0.  1.
    10030    2    1    2    0    0  0.00000000000E+00  0.00000000000E+00  0.13963679689E+04  0.41461011976E+04  0.39038841730E+04 0.  0.
        2    1    3    3  502    0 -0.82215668711E+03  0.17690938382E+04  0.76897773837E+03  0.20968932707E+04  0.25500000920E-02 0. -1.
       -2    1    3    3    0  502  0.82215668711E+03 -0.17690938382E+04  0.62739023057E+03  0.20492079269E+04  0.25500000920E-02 0.  1.
</event>
<event>
 5   0  0.7675750E-08  0.3817726E+04  0.7818609E-02  0.8042362E-01
       -1   -1    0    0    0  501  0.00000000000E+00  0.00000000000E+00  0.15613664395E+04  0.15613664395E+04  0.50400001928E-02 0. -1.
        1   -1    0    0  501    0  0.00000000000E+00  0.00000000000E+00 -0.23336985580E+04  0.23336985580E+04  0.50400001928E-02 0.  1.
    10030    2    1    2    0    0  0.00000000000E+00  0.00000000000E+00 -0.77233211850E+03  0.38950649976E+04  0.38177263435E+04 0.  0.
        1    1    3    3  502    0 -0.36701817494E+03  0.15876785377E+04 -0.14004547683E+04  0.21486505156E+04  0.50400001928E-02 0.  1.
       -1    1    3    3    0  502  0.36701817494E+03 -0.15876785377E+04  0.62812264983E+03  0.17464144820E+04  0.50400001928E-02 0. -1.
</event>
<event>
 5   0  0.2486268E-07  0.3907847E+04  0.7818609E-02  0.8023399E-01
       -2   -1    0    0    0  501  0.00000000000E+00  0.00000000000E+00  0.13700100040E+04  0.13700100040E+04  0.25500000920E-02 0.  1.
        2   -1    0    0  501    0  0.00000000000E+00  0.00000000000E+00 -0.27867072270E+04  0.27867072270E+04  0.25500000920E-02 0. -1.
    10030    2    1    2    0    0  0.00000000000E+00  0.00000000000E+00 -0.14166972230E+04  0.41567172310E+04  0.39078468645E+04 0.  0.
        5    1    3    3  502    0 -0.15586599257E+03 -0.61170169257E+03  0.12585542618E+04  0.14079964802E+04  0.46999998093E+01 0.  1.
       -5    1    3    3    0  502  0.15586599257E+03  0.61170169257E+03 -0.26752514849E+04  0.27487207508E+04  0.46999998093E+01 0. -1.
</event>
<event>
 5   0  0.7731706E-08  0.3887952E+04  0.7818609E-02  0.8027540E-01
        1   -1    0    0  501    0  0.00000000000E+00  0.00000000000E+00  0.15878574813E+04  0.15878574813E+04  0.50400001928E-02 0. -1.
       -1   -1    0    0    0  501  0.00000000000E+00  0.00000000000E+00 -0.23799633506E+04  0.23799633506E+04  0.50400001928E-02 0.  1.
    10030    2    1    2    0    0  0.00000000000E+00  0.00000000000E+00 -0.79210586926E+03  0.39678208319E+04  0.38879519603E+04 0.  0.
        3    1    3    3  502    0  0.13943332277E+03 -0.13339353870E+04  0.10400566870E+04  0.16972163064E+04  0.10100000352E+00 0. -1.
       -3    1    3    3    0  502 -0.13943332277E+03  0.13339353870E+04 -0.18321625563E+04  0.22706045255E+04  0.10100000352E+00 0.  1.
</event>
<event>
 5   0  0.2384787E-07  0.3855572E+04  0.7818609E-02  0.8034333E-01
        2   -1    0    0  501    0  0.00000000000E+00  0.00000000000E+00  0.16571518062E+04  0.16571518062E+04  0.25500000920E-02 0.  1.
       -2   -1    0    0    0  501  0.00000000000E+00  0.00000000000E+00 -0.22426184873E+04  0.22426184873E+04  0.25500000920E-02 0. -1.
    10030    2    1    2    0    0  0.00000000000E+00  0.00000000000E+00 -0.58546668107E+03  0.38997702935E+04  0.38555722153E+04 0.  0.
        4    1    3    3  502    0 -0.10849954686E+04 -0.12963547592E+04  0.64449919310E+03  0.18091798284E+04  0.12699999809E+01 0.  1.
       -4    1    3    3    0  502  0.10849954686E+04  0.12963547592E+04 -0.12299658742E+04  0.20905904652E+04  0.12699999809E+01 0. -1.
</event>
<event>
 5   0  0.2486268E-07  0.3751974E+04  0.7818609E-02  0.8056540E-01
        2   -1    0    0  501    0  0.00000000000E+00  0.00000000000E+00  0.17438823706E+04  0.17438823706E+04  0.25500000920E-02 0. -1.
       -2   -1    0    0    0  501  0.00000000000E+00  0.00000000000E+00 -0.20180994888E+04  0.20180994888E+04  0.25500000920E-02 0.  1.
    10030    2    1    2    0    0  0.00000000000E+00  0.00000000000E+00 -0.27421711818E+03  0.37619818593E+04  0.37519744778E+04 0.  0.
        5    1    3    3  502    0  0.13433322326E+04 -0.52076035425E+03  0.10675839959E+04  0.17931788846E+04  0.46999998093E+01 0. -1.
       -5    1    3    3    0  502 -0.13433322326E+04  0.52076035425E+03 -0.13418011141E+04  0.19688029748E+04  0.46999998093E+01 0.  1.
</event>
<event>
 5   0  0.7731706E-08  0.3907218E+04  0.7818609E-02  0.8023530E-01
        1   -1    0    0  501    0  0.00000000000E+00  0.00000000000E+00  0.25548020704E+04  0.25548020704E+04  0.50400001928E-02 0.  1.
       -1   -1    0    0    0  501  0.00000000000E+00  0.00000000000E+00 -0.14938881008E+04  0.14938881008E+04  0.50400001928E-02 0. -1.
    10030    2    1    2    0    0  0.00000000000E+00  0.00000000000E+00  0.10609139696E+04  0.40486901712E+04  0.39072181474E+04 0.  0.
        3    1    3    3  502    0  0.53182764386E+03 -0.18351587390E+03  0.24690436874E+04  0.25323300455E+04  0.10100000352E+00 0.  1.
       -3    1    3    3    0  502 -0.53182764386E+03  0.18351587390E+03 -0.14081297177E+04  0.15163601257E+04  0.10100000352E+00 0. -1.
</event>
<event>
 5   0  0.7675750E-08  0.3832776E+04  0.7818609E-02  0.8039158E-01
        1   -1    0    0  501    0  0.00000000000E+00  0.00000000000E+00  0.16660009924E+04  0.16660009924E+04  0.50400001928E-02 0. -1.
       -1   -1    0    0    0  501  0.00000000000E+00  0.00000000000E+00 -0.22044059515E+04  0.22044059515E+04  0.50400001928E-02 0.  1.
    10030    2    1    2    0    0  0.00000000000E+00  0.00000000000E+00 -0.53840495909E+03  0.38704069440E+04  0.38327757581E+04 0.  0.
        1    1    3    3  502    0 -0.15830886352E+04  0.33519168621E+03  0.76753195441E+03  0.17909853139E+04  0.50400001928E-02 0. -1.
       -1    1    3    3    0  502  0.15830886352E+04 -0.33519168621E+03 -0.13059369135E+04  0.20794216301E+04  0.50400001928E-02 0.  1.
</event>
<event>
 5   0  0.7731706E-08  0.3806014E+04  0.7818609E-02  0.8044865E-01
       -1   -1    0    0    0  501  0.00000000000E+00  0.00000000000E+00  0.23115226883E+04  0.23115226883E+04  0.50400001928E-02 0. -1.
        1   -1    0    0  501    0  0.00000000000E+00  0.00000000000E+00 -0.15666886833E+04  0.15666886833E+04  0.50400001928E-02 0.  1.
    10030    2    1    2    0    0  0.00000000000E+00  0.00000000000E+00  0.74483400500E+03  0.38782113717E+04  0.38060144178E+04 0.  0.
        3    1    3    3  502    0 -0.65936859963E+03  0.11326682766E+04  0.17783478416E+04  0.22091232267E+04  0.10100000352E+00 0. -1.
       -3    1    3    3    0  502  0.65936859963E+03 -0.11326682766E+04 -0.10335138366E+04  0.16690881449E+04  0.10100000352E+00 0.  1.
</event>
<event>
 5   0  0.2384787E-07  0.3933181E+04  0.7818609E-02  0.8018163E-01
       -2   -1    0    0    0  501  0.00000000000E+00  0.00000000000E+00  0.30118905590E+04  0.30118905591E+04  0.25500000920E-02 0.  1.
        2   -1    0    0  501    0  0.00000000000E+00  0.00000000000E+00 -0.12840698906E+04  0.12840698906E+04  0.25500000920E-02 0. -1.
    10030    2    1    2    0    0  0.00000000000E+00  0.00000000000E+00  0.17278206685E+04  0.42959604496E+04  0.39331808911E+04 0.  0.
        4    1    3    3  502    0 -0.18379085857E+04  0.11924948917E+03  0.11086318277E+03  0.18451072240E+04  0.12699999809E+01 0. -1.
       -4    1    3    3    0  502  0.18379085857E+04 -0.11924948917E+03  0.16169574857E+04  0.24508532256E+04  0.12699999809E+01 0.  1.
</event>
<event>
 5   0  0.2446281E-07  0.3858537E+04  0.7818609E-02  0.8033708E-01
       -2   -1    0    0    0  501  0.00000000000E+00  0.00000000000E+00  0.15774220900E+04  0.15774220900E+04  0.25500000920E-02 0.  1.
        2   -1    0    0  501    0  0.00000000000E+00  0.00000000000E+00 -0.23595953478E+04  0.23595953478E+04  0.25500000920E-02 0. -1.
    10030    2    1    2    0    0  0.00000000000E+00  0.00000000000E+00 -0.78217325774E+03  0.39370174378E+04  0.38585374562E+04 0.  0.
        1    1    3    3  502    0  0.12069297753E+04 -0.23161501705E+03  0.11263582119E+04  0.16670356385E+04  0.50400001928E-02 0.  1.
       -1    1    3    3    0  502 -0.12069297753E+04  0.23161501705E+03 -0.19085314696E+04  0.22699817993E+04  0.50400001928E-02 0. -1.
</event>
<event>
 5   0  0.7675750E-08  0.3933392E+04  0.7818609E-02  0.8018120E-01
       -4   -1    0    0    0  501  0.00000000000E+00  0.00000000000E+00  0.20996002171E+04  0.20996006012E+04  0.12699999809E+01 0. -1.
        4   -1    0    0  501    0  0.00000000000E+00  0.00000000000E+00 -0.18422036975E+04  0.18422041353E+04  0.12699999809E+01 0.  1.
    10030    2    1    2    0    0  0.00000000000E+00  0.00000000000E+00  0.25739651960E+03  0.39418047365E+04  0.39333918712E+04 0.  0.
        4    1    3    3  502    0  0.37924880061E+03 -0.18033310181E+04 -0.55983666719E+03  0.19259416191E+04  0.12699999809E+01 0.  1.
       -4    1    3    3    0  502 -0.37924880061E+03  0.18033310181E+04  0.81723318679E+03  0.20158631174E+04  0.12699999809E+01 0. -1.
</event>
<event>
 5   0  0.7675750E-08  0.3541041E+04  0.7818609E-02  0.8104132E-01
        1   -1    0    0  501    0  0.00000000000E+00  0.00000000000E+00  0.18053192675E+04  0.18053192675E+04  0.50400001928E-02 0.  1.
       -1   -1    0    0    0  501  0.00000000000E+00  0.00000000000E+00 -0.17363924279E+04  0.17363924279E+04  0.50400001928E-02 0. -1.
    10030    2    1    2    0    0  0.00000000000E+00  0.00000000000E+00  0.68926839607E+02  0.35417116954E+04  0.35410409238E+04 0.  0.
        2    1    3    3  502    0  0.24492557917E+03  0.14793614012E+04  0.97604708668E+03  0.17891804297E+04  0.25500000920E-02 0.  1.
       -2    1    3    3    0  502 -0.24492557917E+03 -0.14793614012E+04 -0.90712024708E+03  0.17525312657E+04  0.25500000920E-02 0. -1.
</event>
<event>
 5   0  0.2384787E-07  0.3908339E+04  0.7818609E-02  0.8023297E-01
        2   -1    0    0  501    0  0.00000000000E+00  0.00000000000E+00  0.28210551802E+04  0.28210551802E+04  0.25500000920E-02 0. -1.
       -2   -1    0    0    0  501  0.00000000000E+00  0.00000000000E+00 -0.13536700398E+04  0.13536700398E+04  0.25500000920E-02 0.  1.
    10030    2    1    2    0    0  0.00000000000E+00  0.00000000000E+00  0.14673851404E+04  0.41747252200E+04  0.39083387152E+04 0.  0.
        4    1    3    3  502    0 -0.13860133332E+04  0.13503216300E+04  0.10249980194E+04  0.21897543280E+04  0.12699999809E+01 0. -1.
       -4    1    3    3    0  502  0.13860133332E+04 -0.13503216300E+04  0.44238712102E+03  0.19849708920E+04  0.12699999809E+01 0.  1.
</event>
<event>
 5   0  0.7731706E-08  0.3435980E+04  0.7818609E-02  0.8129132E-01
        1   -1    0    0  501    0  0.00000000000E+00  0.00000000000E+00  0.13917959884E+04  0.13917959885E+04  0.50400001928E-02 0. -1.
       -1   -1    0    0    0  501  0.00000000000E+00  0.00000000000E+00 -0.21206335000E+04  0.21206335000E+04  0.50400001928E-02 0.  1.
    10030    2    1    2    0    0  0.00000000000E+00  0.00000000000E+00 -0.72883751157E+03  0.35124294885E+04  0.34359797429E+04 0.  0.
        3    1    3    3  502    0 -0.83995493985E+03 -0.88583276404E+03 -0.16001429247E+04  0.20126304620E+04  0.10100000352E+00 0.  1.
       -3    1    3    3    0  502  0.83995493985E+03  0.88583276404E+03  0.87130541311E+03  0.14997990265E+04  0.10100000352E+00 0. -1.
</event>
<event>
 5   0  0.2384787E-07  0.3851313E+04  0.7818609E-02  0.8035232E-01
        2   -1    0    0  501    0  0.00000000000E+00  0.00000000000E+00  0.19515541161E+04  0.19515541161E+04  0.25500000920E-02 0. -1.
       -2   -1    0    0    0  501  0.00000000000E+00  0.00000000000E+00 -0.19001027626E+04  0.19001027626E+04  0.25500000920E-02 0.  1.
    10030    2    1    2    0    0  0.00000000000E+00  0.00000000000E+00  0.51451353479E+02  0.38516568786E+04  0.38513132136E+04 0.  0.
        4    1    3    3  502    0  0.90775712023E+03 -0.16494402302E+04  0.43008302894E+03  0.19312299415E+04  0.12699999809E+01 0. -1.
       -4    1    3    3    0  502 -0.90775712023E+03  0.16494402302E+04 -0.37863167546E+03  0.19204269371E+04  0.12699999809E+01 0.  1.
</event>
<event>
 5   0  0.7731706E-08  0.3901161E+04  0.7818609E-02  0.8024788E-01
        1   -1    0    0  501    0  0.00000000000E+00  0.00000000000E+00  0.30306417176E+04  0.30306417176E+04  0.50400001928E-02 0.  1.
       -1   -1    0    0    0  501  0.00000000000E+00  0.00000000000E+00 -0.12554315911E+04  0.12554315911E+04  0.50400001928E-02 0. -1.
    10030    2    1    2    0    0  0.00000000000E+00  0.00000000000E+00  0.17752101265E+04  0.42860733087E+04  0.39011605214E+04 0.  0.
        3    1    3    3  502    0  0.12307196745E+04 -0.11788520450E+04 -0.15491299254E+03  0.17112454841E+04  0.10100000352E+00 0. -1.
       -3    1    3    3    0  502 -0.12307196745E+04  0.11788520450E+04  0.19301231191E+04  0.25748278246E+04  0.10100000352E+00 0.  1.
</event>
<event>
 5   0  0.7731706E-08  0.3896874E+04  0.7818609E-02  0.8025680E-01
        1   -1    0    0  501    0  0.00000000000E+00  0.00000000000E+00  0.15367111774E+04  0.15367111774E+04  0.50400001928E-02 0. -1.
       -1   -1    0    0    0  501  0.00000000000E+00  0.00000000000E+00 -0.24704755775E+04  0.24704755775E+04  0.50400001928E-02 0.  1.
    10030    2    1    2    0    0  0.00000000000E+00  0.00000000000E+00 -0.93376440006E+03  0.40071867549E+04  0.38968743544E+04 0.  0.
        3    1    3    3  502    0 -0.15037434030E+04  0.93249698579E+03  0.37206366585E+03  0.18081001721E+04  0.10100000352E+00 0. -1.
       -3    1    3    3    0  502  0.15037434030E+04 -0.93249698579E+03 -0.13058280659E+04  0.21990865828E+04  0.10100000352E+00 0.  1.
</event>
<event>
 5   0  0.2384787E-07  0.3875232E+04  0.7818609E-02  0.8030200E-01
       -2   -1    0    0    0  501  0.00000000000E+00  0.00000000000E+00  0.12304949743E+04  0.12304949743E+04  0.25500000920E-02 0.  1.
        2   -1    0    0  501    0  0.00000000000E+00  0.00000000000E+00 -0.30510938015E+04  0.30510938015E+04  0.25500000920E-02 0. -1.
    10030    2    1    2    0    0  0.00000000000E+00  0.00000000000E+00 -0.18205988272E+04  0.42815887758E+04  0.38752319098E+04 0.  0.
        4    1    3    3  502    0  0.96399954474E+03 -0.16750764911E+04 -0.75729483973E+03  0.20757344388E+04  0.12699999809E+01 0.  1.
       -4    1    3    3    0  502 -0.96399954474E+03  0.16750764911E+04 -0.10633039875E+04  0.22058543370E+04  0.12699999809E+01 0. -1.
</event>
<event>
 5   0  0.2446281E-07  0.3872563E+04  0.7818609E-02  0.8030760E-01
       -2   -1    0    0    0  501  0.00000000000E+00  0.00000000000E+00  0.32575825221E+04  0.32575825221E+04  0.25500000920E-02 0. -1.
        2   -1    0    0  501    0  0.00000000000E+00  0.00000000000E+00 -0.11509102861E+04  0.11509102861E+04  0.25500000920E-02 0.  1.
    10030    2    1    2    0    0  0.00000000000E+00  0.00000000000E+00  0.21066722360E+04  0.44084928083E+04  0.38725625793E+04 0.  0.
        1    1    3    3  502    0  0.18781773727E+04 -0.39421726860E+03  0.13462983541E+04  0.23442433228E+04  0.50400001928E-02 0.  1.
       -1    1    3    3    0  502 -0.18781773727E+04  0.39421726860E+03  0.76037388190E+03  0.20642494855E+04  0.50400001928E-02 0. -1.
</event>
<event>
 5   0  0.2473224E-07  0.3883453E+04  0.7818609E-02  0.8028480E-01
       -2   -1    0    0    0  501  0.00000000000E+00  0.00000000000E+00  0.25738457472E+04  0.25738457472E+04  0.25500000920E-02 0. -1.
        2   -1    0    0  501    0  0.00000000000E+00  0.00000000000E+00 -0.14648513423E+04  0.14648513423E+04  0.25500000920E-02 0.  1.
    10030    2    1    2    0    0  0.00000000000E+00  0.00000000000E+00  0.11089944049E+04  0.40386970894E+04  0.38834527923E+04 0.  0.
        2    1    3    3  502    0  0.83062686406E+03  0.17279399589E+04  0.23465786275E+03  0.19315231817E+04  0.25500000920E-02 0.  1.
       -2    1    3    3    0  502 -0.83062686406E+03 -0.17279399589E+04  0.87433654212E+03  0.21071739078E+04  0.25500000920E-02 0. -1.
</event>
<event>
 5   0  0.2384787E-07  0.3907797E+04  0.7818609E-02  0.8023410E-01
       -2   -1    0    0    0  501  0.00000000000E+00  0.00000000000E+00  0.14721625999E+04  0.14721625999E+04  0.25500000920E-02 0. -1.
        2   -1    0    0  501    0  0.00000000000E+00  0.00000000000E+00 -0.25932724338E+04  0.25932724338E+04  0.25500000920E-02 0.  1.
    10030    2    1    2    0    0  0.00000000000E+00  0.00000000000E+00 -0.11211098339E+04  0.40654350337E+04  0.39077966622E+04 0.  0.
        4    1    3    3  502    0  0.98078957132E+03  0.12198606434E+04  0.65611257608E+03  0.16972016668E+04  0.12699999809E+01 0. -1.
       -4    1    3    3    0  502 -0.98078957132E+03 -0.12198606434E+04 -0.17772224099E+04  0.23682333668E+04  0.12699999809E+01 0.  1.
</event>
<event>
 5   0  0.7675750E-08  0.3930727E+04  0.7818609E-02  0.8018669E-01
        1   -1    0    0  501    0  0.00000000000E+00  0.00000000000E+00  0.30809412327E+04  0.30809412327E+04  0.50400001928E-02 0.  1.
       -1   -1    0    0    0  501  0.00000000000E+00  0.00000000000E+00 -0.12537253788E+04  0.12537253789E+04  0.50400001928E-02 0. -1.
    10030    2    1    2    0    0  0.00000000000E+00  0.00000000000E+00  0.18272158539E+04  0.43346666116E+04  0.39307272682E+04 0.  0.
        1    1    3    3  502    0  0.51488588689E+03  0.47288235639E+03  0.29391942669E+04  0.30211898547E+04  0.50400001928E-02 0.  1.
       -1    1    3    3    0  502 -0.51488588689E+03 -0.47288235639E+03 -0.11119784131E+04  0.13134767568E+04  0.50400001928E-02 0. -1.
</event>
<event>
 5   0  0.7731706E-08  0.3887011E+04  0.7818609E-02  0.8027736E-01
       -1   -1    0    0    0  501  0.00000000000E+00  0.00000000000E+00  0.18704224777E+04  0.18704224777E+04  0.50400001928E-02 0. -1.
        1   -1    0    0  501    0  0.00000000000E+00  0.00000000000E+00 -0.20194438814E+04  0.20194438815E+04  0.50400001928E-02 0.  1.
    10030    2    1    2    0    0  0.00000000000E+00  0.00000000000E+00 -0.14902140376E+03  0.38898663591E+04  0.38870107941E+04 0.  0.
        3    1    3    3  502    0 -0.70916328733E+02 -0.18406074486E+04  0.54590306128E+03  0.19211650289E+04  0.10100000352E+00 0. -1.
       -3    1    3    3    0  502  0.70916328733E+02  0.18406074486E+04 -0.69492446504E+03  0.19687013303E+04  0.10100000352E+00 0.  1.
</event>
<event>
 5   0  0.2473224E-07  0.3877397E+04  0.7818609E-02  0.8029747E-01
        2   -1    0    0  501    0  0.00000000000E+00  0.00000000000E+00  0.21352849201E+04  0.21352849201E+04  0.25500000920E-02 0.  1.
       -2   -1    0    0    0  501  0.00000000000E+00  0.00000000000E+00 -0.17602110704E+04  0.17602110704E+04  0.25500000920E-02 0. -1.
    10030    2    1    2    0    0  0.00000000000E+00  0.00000000000E+00  0.37507384971E+03  0.38954959905E+04  0.38773971449E+04 0.  0.
        2    1    3    3  502    0  0.17686021521E+04 -0.65243483567E+03 -0.26726516979E+03  0.19039578404E+04  0.25500000920E-02 0. -1.
       -2    1    3    3    0  502 -0.17686021521E+04  0.65243483567E+03  0.64233901951E+03  0.19915381501E+04  0.25500000920E-02 0.  1.
</event>
<event>
 5   0  0.7675750E-08  0.3858881E+04  0.7818609E-02  0.8033636E-01
        1   -1    0    0  501    0  0.00000000000E+00  0.00000000000E+00  0.30487064989E+04  0.30487064989E+04  0.50400001928E-02 0.  1.
       -1   -1    0    0    0  501  0.00000000000E+00  0.00000000000E+00 -0.12210884333E+04  0.12210884333E+04  0.50400001928E-02 0. -1.
    10030    2    1    2    0    0  0.00000000000E+00  0.00000000000E+00  0.18276180656E+04  0.42697949322E+04  0.38588807924E+04 0.  0.
        2    1    3    3  502    0 -0.89030514345E+03  0.20838257775E+03  0.27937512559E+04  0.29395769469E+04  0.25500000920E-02 0.  1.
       -2    1    3    3    0  502  0.89030514345E+03 -0.20838257775E+03 -0.96613319027E+03  0.13302179853E+04  0.25500000920E-02 0. -1.
</event>
<event>
 5   0  0.7675750E-08  0.3839380E+04  0.7818609E-02  0.8037756E-01
        1   -1    0    0  501    0  0.00000000000E+00  0.00000000000E+00  0.24213025560E+04  0.24213025560E+04  0.50400001928E-02 0. -1.
       -1   -1    0    0    0  501  0.00000000000E+00  0.00000000000E+00 -0.15219948507E+04  0.15219948507E+04  0.50400001928E-02 0.  1.
    10030    2    1    2    0    0  0.00000000000E+00  0.00000000000E+00  0.89930770526E+03  0.39432974067E+04  0.38393801699E+04 0.  0.
        4    1    3    3  502    0  0.18929832645E+04  0.16214177320E+03  0.16738285947E+03  0.19072740309E+04  0.12699999809E+01 0. -1.
       -4    1    3    3    0  502 -0.18929832645E+04 -0.16214177320E+03  0.73192484579E+03  0.20360233759E+04  0.12699999809E+01 0.  1.
</event>
<event>
 5   0  0.7675750E-08  0.3939195E+04  0.7818609E-02  0.8016926E-01
       -1   -1    0    0    0  501  0.00000000000E+00  0.00000000000E+00  0.25745603482E+04  0.25745603483E+04  0.50400001928E-02 0. -1.
        1   -1    0    0  501    0  0.00000000000E+00  0.00000000000E+00 -0.15067874244E+04  0.15067874244E+04  0.50400001928E-02 0.  1.
    10030    2    1    2    0    0  0.00000000000E+00  0.00000000000E+00  0.10677729238E+04  0.40813477727E+04  0.39391954286E+04 0.  0.
        4    1    3    3  502    0  0.14759891050E+04  0.12656465910E+04  0.20804024007E+03  0.19554251419E+04  0.12699999809E+01 0. -1.
       -4    1    3    3    0  502 -0.14759891050E+04 -0.12656465910E+04  0.85973268377E+03  0.21259226307E+04  0.12699999809E+01 0.  1.
</event>
<event>
 5   0  0.2473224E-07  0.3937833E+04  0.7818609E-02  0.8017206E-01
        2   -1    0    0  501    0  0.00000000000E+00  0.00000000000E+00  0.16978406466E+04  0.16978406466E+04  0.25500000920E-02 0. -1.
       -2   -1    0    0    0  501  0.00000000000E+00  0.00000000000E+00 -0.22832726708E+04  0.22832726708E+04  0.25500000920E-02 0.  1.
    10030    2    1    2    0    0  0.00000000000E+00  0.00000000000E+00 -0.58543202418E+03  0.39811133173E+04  0.39378334894E+04 0.  0.
        2    1    3    3  502    0 -0.64643012735E+03  0.13683348060E+04  0.98065931171E+03  0.18033038392E+04  0.25500000920E-02 0.  1.
       -2    1    3    3    0  502  0.64643012735E+03 -0.13683348060E+04 -0.15660913359E+04  0.21778094782E+04  0.25500000920E-02 0. -1.
</event>
<event>
 5   0  0.7675750E-08  0.3972192E+04  0.7818609E-02  0.8010180E-01
       -1   -1    0    0    0  501  0.00000000000E+00  0.00000000000E+00  0.18459411458E+04  0.18459411458E+04  0.50400001928E-02 0. -1.
        1   -1    0    0  501    0  0.00000000000E+00  0.00000000000E+00 -0.21368919540E+04  0.21368919540E+04  0.50400001928E-02 0.  1.
    10030    2    1    2    0    0  0.00000000000E+00  0.00000000000E+00 -0.29095080820E+03  0.39828330999E+04  0.39721917286E+04 0.  0.
        1    1    3    3  502    0  0.15458414862E+04 -0.10744092171E+04  0.48914649636E+03  0.19450566473E+04  0.50400001928E-02 0. -1.
       -1    1    3    3    0  502 -0.15458414862E+04  0.10744092171E+04 -0.78009730455E+03  0.20377764526E+04  0.50400001928E-02 0.  1.
</event>
<event>
 5   0  0.2473224E-07  0.3855148E+04  0.7818609E-02  0.8034423E-01
        2   -1    0    0  501    0  0.00000000000E+00  0.00000000000E+00  0.17840425524E+04  0.17840425524E+04  0.25500000920E-02 0. -1.
       -2   -1    0    0    0  501  0.00000000000E+00  0.00000000000E+00 -0.20826530023E+04  0.20826530023E+04  0.25500000920E-02 0.  1.
    10030    2    1    2    0    0  0.00000000000E+00  0.00000000000E+00 -0.29861044993E+03  0.38666955548E+04  0.38551480273E+04 0.  0.
        2    1    3    3  502    0 -0.14385505179E+04 -0.11847091906E+04 -0.64330270453E+03  0.19714973569E+04  0.25500000920E-02 0.  1.
       -2    1    3    3    0  502  0.14385505179E+04  0.11847091906E+04  0.34469225460E+03  0.18951981978E+04  0.25500000920E-02 0. -1.
</event>
<event>
 5   0  0.2473224E-07  0.3868101E+04  0.7818609E-02  0.8031696E-01
        2   -1    0    0  501    0  0.00000000000E+00  0.00000000000E+00  0.25885165754E+04  0.25885165754E+04  0.25500000920E-02 0. -1.
       -2   -1    0    0    0  501  0.00000000000E+00  0.00000000000E+00 -0.14450560170E+04  0.14450560170E+04  0.25500000920E-02 0.  1.
    10030    2    1    2    0    0  0.00000000000E+00  0.00000000000E+00  0.11434605585E+04  0.40335725924E+04  0.38681010598E+04 0.  0.
        2    1    3    3  502    0  0.10751583764E+04  0.61335950476E+03 -0.97790172819E+03  0.15774876248E+04  0.25500000920E-02 0.  1.
       -2    1    3    3    0  502 -0.10751583764E+04 -0.61335950476E+03  0.21213622867E+04  0.24560849675E+04  0.25500000920E-02 0. -1.
</event>
<event>
 5   0  0.2473224E-07  0.3874861E+04  0.7818609E-02  0.8030278E-01
        2   -1    0    0  501    0  0.00000000000E+00  0.00000000000E+00  0.18483114570E+04  0.18483114570E+04  0.25500000920E-02 0. -1.
       -2   -1    0    0    0  501  0.00000000000E+00  0.00000000000E+00 -0.20308470153E+04  0.20308470153E+04  0.25500000920E-02 0.  1.
    10030    2    1    2    0    0  0.00000000000E+00  0.00000000000E+00 -0.18253555836E+03  0.38791584723E+04  0.38748614456E+04 0.  0.
        2    1    3    3  502    0  0.13597423829E+04  0.10921901607E+04 -0.93592085479E+03  0.19793247691E+04  0.25500000920E-02 0. -1.
       -2    1    3    3    0  502 -0.13597423829E+04 -0.10921901607E+04  0.75338529643E+03  0.18998337032E+04  0.25500000920E-02 0.  1.
</event>
<event>
 5   0  0.2446281E-07  0.3918911E+04  0.7818609E-02  0.8021108E-01
       -2   -1    0    0    0  501  0.00000000000E+00  0.00000000000E+00  0.15042122084E+04  0.15042122084E+04  0.25500000920E-02 0.  1.
        2   -1    0    0  501    0  0.00000000000E+00  0.00000000000E+00 -0.25524761864E+04  0.25524761864E+04  0.25500000920E-02 0. -1.
    10030    2    1    2    0    0  0.00000000000E+00  0.00000000000E+00 -0.10482639781E+04  0.40566883948E+04  0.39189109922E+04 0.  0.
        1    1    3    3  502    0  0.58466775840E+02  0.19401041411E+04 -0.80197747616E+03  0.21001405464E+04  0.50400001928E-02 0. -1.
       -1    1    3    3    0  502 -0.58466775840E+02 -0.19401041411E+04 -0.24628650192E+03  0.19565478484E+04  0.50400001928E-02 0.  1.
</event>
<event>
 5   0  0.7675750E-08  0.3916682E+04  0.7818609E-02  0.8021569E-01
       -1   -1    0    0    0  501  0.00000000000E+00  0.00000000000E+00  0.13885117300E+04  0.13885117301E+04  0.50400001928E-02 0.  1.
        1   -1    0    0  501    0  0.00000000000E+00  0.00000000000E+00 -0.27620210741E+04  0.27620210741E+04  0.50400001928E-02 0. -1.
    10030    2    1    2    0    0  0.00000000000E+00  0.00000000000E+00 -0.13735093440E+04  0.41505328041E+04  0.39166815852E+04 0.  0.
        2    1    3    3  502    0  0.10380705895E+04 -0.12523178354E+04  0.46886392742E+03  0.16928449108E+04  0.25500000920E-02 0.  1.
       -2    1    3    3    0  502 -0.10380705895E+04  0.12523178354E+04 -0.18423732714E+04  0.24576878933E+04  0.25500000920E-02 0. -1.
</event>
<event>
 5   0  0.2384787E-07  0.3894394E+04  0.7818609E-02  0.8026196E-01
       -2   -1    0    0    0  501  0.00000000000E+00  0.00000000000E+00  0.15187738816E+04  0.15187738816E+04  0.25500000920E-02 0.  1.
        2   -1    0    0  501    0  0.00000000000E+00  0.00000000000E+00 -0.24964721015E+04  0.24964721015E+04  0.25500000920E-02 0. -1.
    10030    2    1    2    0    0  0.00000000000E+00  0.00000000000E+00 -0.97769821993E+03  0.40152459831E+04  0.38943942399E+04 0.  0.
        4    1    3    3  502    0  0.47672364323E+03 -0.18876329811E+04 -0.52383298816E+03  0.20161414424E+04  0.12699999809E+01 0. -1.
       -4    1    3    3    0  502 -0.47672364323E+03  0.18876329811E+04 -0.45386523176E+03  0.19991045407E+04  0.12699999809E+01 0.  1.
</event>
<event>
 5   0  0.2486268E-07  0.3585033E+04  0.7818609E-02  0.8093929E-01
        2   -1    0    0  501    0  0.00000000000E+00  0.00000000000E+00  0.23177823077E+04  0.23177823077E+04  0.25500000920E-02 0. -1.
       -2   -1    0    0    0  501  0.00000000000E+00  0.00000000000E+00 -0.13862886538E+04  0.13862886538E+04  0.25500000920E-02 0.  1.
    10030    2    1    2    0    0  0.00000000000E+00  0.00000000000E+00  0.93149365389E+03  0.37040709614E+04  0.35850329510E+04 0.  0.
        5    1    3    3  502    0 -0.97348554396E+03  0.11364809027E+04  0.14853420292E+04  0.21084415999E+04  0.46999998093E+01 0. -1.
       -5    1    3    3    0  502  0.97348554396E+03 -0.11364809027E+04 -0.55384837535E+03  0.15956293615E+04  0.46999998093E+01 0.  1.
</event>
<event>
 5   0  0.7675750E-08  0.3894685E+04  0.7818609E-02  0.8026136E-01
        1   -1    0    0  501    0  0.00000000000E+00  0.00000000000E+00  0.22225040216E+04  0.22225040216E+04  0.50400001928E-02 0. -1.
       -1   -1    0    0    0  501  0.00000000000E+00  0.00000000000E+00 -0.17062474825E+04  0.17062474825E+04  0.50400001928E-02 0.  1.
    10030    2    1    2    0    0  0.00000000000E+00  0.00000000000E+00  0.51625653908E+03  0.39287515041E+04  0.38946845272E+04 0.  0.
        5    1    3    3  502    0  0.25147054426E+03  0.68202944239E+03 -0.15642503107E+04  0.17249065828E+04  0.46999998093E+01 0.  1.
       -5    1    3    3    0  502 -0.25147054426E+03 -0.68202944239E+03  0.20805068498E+04  0.22038449213E+04  0.46999998093E+01 0. -1.
</event>
<event>
 5   0  0.2486268E-07  0.3902233E+04  0.7818609E-02  0.8024565E-01
       -2   -1    0    0    0  501  0.00000000000E+00  0.00000000000E+00  0.21146571617E+04  0.21146571617E+04  0.25500000920E-02 0. -1.
        2   -1    0    0  501    0  0.00000000000E+00  0.00000000000E+00 -0.18002231279E+04  0.18002231279E+04  0.25500000920E-02 0.  1.
    10030    2    1    2    0    0  0.00000000000E+00  0.00000000000E+00  0.31443403380E+03  0.39148802897E+04  0.39022325560E+04 0.  0.
        5    1    3    3  502    0 -0.10106995768E+04 -0.10278336315E+04  0.14763463905E+04  0.20633895327E+04  0.46999998093E+01 0. -1.
       -5    1    3    3    0  502  0.10106995768E+04  0.10278336315E+04 -0.11619123567E+04  0.18514907570E+04  0.46999998093E+01 0.  1.
</event>
<event>
 5   0  0.7675750E-08  0.3901316E+04  0.7818609E-02  0.8024756E-01
       -1   -1    0    0    0  501  0.00000000000E+00  0.00000000000E+00  0.15514588112E+04  0.15514588112E+04  0.50400001928E-02 0.  1.
        1   -1    0    0  501    0  0.00000000000E+00  0.00000000000E+00 -0.24525735073E+04  0.24525735073E+04  0.50400001928E-02 0. -1.
    10030    2    1    2    0    0  0.00000000000E+00  0.00000000000E+00 -0.90111469615E+03  0.40040323185E+04  0.39013160744E+04 0.  0.
        5    1    3    3  502    0  0.96704347810E+03  0.86513865724E+03 -0.19454100663E+04  0.23384354601E+04  0.46999998093E+01 0. -1.
       -5    1    3    3    0  502 -0.96704347810E+03 -0.86513865724E+03  0.10442953701E+04  0.16655968585E+04  0.46999998093E+01 0.  1.
</event>
<event>
 5   0  0.2486268E-07  0.3912588E+04  0.7818609E-02  0.8022416E-01
       -2   -1    0    0    0  501  0.00000000000E+00  0.00000000000E+00  0.16457191495E+04  0.16457191495E+04  0.25500000920E-02 0. -1.
        2   -1    0    0  501    0  0.00000000000E+00  0.00000000000E+00 -0.23254791235E+04  0.23254791235E+04  0.25500000920E-02 0.  1.
    10030    2    1    2    0    0  0.00000000000E+00  0.00000000000E+00 -0.67975997401E+03  0.39711982730E+04  0.39125876478E+04 0.  0.
        5    1    3    3  502    0  0.17871445152E+04 -0.86070994469E+02  0.46302611248E+03  0.18481636846E+04  0.46999998093E+01 0. -1.
       -5    1    3    3    0  502 -0.17871445152E+04  0.86070994469E+02 -0.11427860865E+04  0.21230345884E+04  0.46999998093E+01 0.  1.
</event>
<event>
 5   0  0.2473224E-07  0.3841945E+04  0.7818609E-02  0.8037213E-01
        2   -1    0    0  501    0  0.00000000000E+00  0.00000000000E+00  0.14057553341E+04  0.14057553341E+04  0.25500000920E-02 0.  1.
       -2   -1    0    0    0  501  0.00000000000E+00  0.00000000000E+00 -0.26250198935E+04  0.26250198935E+04  0.25500000920E-02 0. -1.
    10030    2    1    2    0    0  0.00000000000E+00  0.00000000000E+00 -0.12192645594E+04  0.40307752277E+04  0.38419451935E+04 0.  0.
        2    1    3    3  502    0  0.48169461841E+03  0.83432080129E+03 -0.23532465600E+04  0.25428114907E+04  0.25500000920E-02 0. -1.
       -2    1    3    3    0  502 -0.48169461841E+03 -0.83432080129E+03  0.11339820006E+04  0.14879637370E+04  0.25500000920E-02 0.  1.
</event>
<event>
 5   0  0.7675750E-08  0.3891380E+04  0.7818609E-02  0.8026824E-01
       -1   -1    0    0    0  501  0.00000000000E+00  0.00000000000E+00  0.21487254072E+04  0.21487254072E+04  0.50400001928E-02 0. -1.
        1   -1    0    0  501    0  0.00000000000E+00  0.00000000000E+00 -0.17618400549E+04  0.17618400549E+04  0.50400001928E-02 0.  1.
    10030    2    1    2    0    0  0.00000000000E+00  0.00000000000E+00  0.38688535222E+03  0.39105654621E+04  0.38913804694E+04 0.  0.
        1    1    3    3  502    0 -0.35893269315E+03  0.14908190310E+04 -0.10100996818E+04  0.18362122504E+04  0.50400001928E-02 0.  1.
       -1    1    3    3    0  502  0.35893269315E+03 -0.14908190310E+04  0.13969850340E+04  0.20743532117E+04  0.50400001928E-02 0. -1.
</event>
<event>
 5   0  0.7731706E-08  0.3890511E+04  0.7818609E-02  0.8027006E-01
       -1   -1    0    0    0  501  0.00000000000E+00  0.00000000000E+00  0.15210885054E+04  0.15210885054E+04  0.50400001928E-02 0. -1.
        1   -1    0    0  501    0  0.00000000000E+00  0.00000000000E+00 -0.24877048024E+04  0.24877048024E+04  0.50400001928E-02 0.  1.
    10030    2    1    2    0    0  0.00000000000E+00  0.00000000000E+00 -0.96661629701E+03  0.40087933078E+04  0.38905111128E+04 0.  0.
        3    1    3    3  502    0  0.12010546585E+04  0.62076199156E+03 -0.19244513251E+04  0.23518908682E+04  0.10100000352E+00 0.  1.
       -3    1    3    3    0  502 -0.12010546585E+04 -0.62076199156E+03  0.95783502811E+03  0.16569024396E+04  0.10100000352E+00 0. -1.
</event>
<event>
 5   0  0.2384787E-07  0.3848027E+04  0.7818609E-02  0.8035926E-01
        2   -1    0    0  501    0  0.00000000000E+00  0.00000000000E+00  0.20261228327E+04  0.20261228327E+04  0.25500000920E-02 0.  1.
       -2   -1    0    0    0  501  0.00000000000E+00  0.00000000000E+00 -0.18270497136E+04  0.18270497136E+04  0.25500000920E-02 0. -1.
    10030    2    1    2    0    0  0.00000000000E+00  0.00000000000E+00  0.19907311912E+03  0.38531725463E+04  0.38480265806E+04 0.  0.
        4    1    3    3  502    0 -0.14630398656E+04 -0.51599443043E+03  0.12390784809E+04  0.19854603988E+04  0.12699999809E+01 0.  1.
       -4    1    3    3    0  502  0.14630398656E+04  0.51599443043E+03 -0.10400053618E+04  0.18677121475E+04  0.12699999809E+01 0. -1.
</event>
<event>
 5   0  0.2384787E-07  0.3925947E+04  0.7818609E-02  0.8019654E-01
       -2   -1    0    0    0  501  0.00000000000E+00  0.00000000000E+00  0.15647412438E+04  0.15647412438E+04  0.25500000920E-02 0. -1.
        2   -1    0    0  501    0  0.00000000000E+00  0.00000000000E+00 -0.24625574028E+04  0.24625574028E+04  0.25500000920E-02 0.  1.
    10030    2    1    2    0    0  0.00000000000E+00  0.00000000000E+00 -0.89781615901E+03  0.40272986465E+04  0.39259470874E+04 0.  0.
        4    1    3    3  502    0  0.74786087030E+03 -0.18091442443E+04 -0.30037808771E+03  0.19805371460E+04  0.12699999809E+01 0. -1.
       -4    1    3    3    0  502 -0.74786087030E+03  0.18091442443E+04 -0.59743807130E+03  0.20467615005E+04  0.12699999809E+01 0.  1.
</event>
<event>
 5   0  0.2446281E-07  0.3893101E+04  0.7818609E-02  0.8026466E-01
       -2   -1    0    0    0  501  0.00000000000E+00  0.00000000000E+00  0.13226016877E+04  0.13226016877E+04  0.25500000920E-02 0.  1.
        2   -1    0    0  501    0  0.00000000000E+00  0.00000000000E+00 -0.28648531828E+04  0.28648531828E+04  0.25500000920E-02 0. -1.
    10030    2    1    2    0    0  0.00000000000E+00  0.00000000000E+00 -0.15422514951E+04  0.41874548705E+04  0.38931014138E+04 0.  0.
        1    1    3    3  502    0 -0.10870386719E+04 -0.12613820831E+04  0.31322565998E+03  0.16943577390E+04  0.50400001928E-02 0.  1.
       -1    1    3    3    0  502  0.10870386719E+04  0.12613820831E+04 -0.18554771551E+04  0.24930971314E+04  0.50400001928E-02 0. -1.
</event>
<event>
 5   0  0.2486268E-07  0.4043242E+04  0.7818609E-02  0.7995880E-01
       -2   -1    0    0    0  501  0.00000000000E+00  0.00000000000E+00  0.20708874846E+04  0.20708874846E+04  0.25500000920E-02 0. -1.
        2   -1    0    0  501    0  0.00000000000E+00  0.00000000000E+00 -0.19735269734E+04  0.19735269734E+04  0.25500000920E-02 0.  1.
    10030    2    1    2    0    0  0.00000000000E+00  0.00000000000E+00  0.97360511243E+02  0.40444144580E+04  0.40432424166E+04 0.  0.
        5    1    3    3  502    0  0.48015691545E+03 -0.86260941341E+03 -0.17159979515E+04  0.19797264264E+04  0.46999998093E+01 0.  1.
       -5    1    3    3    0  502 -0.48015691545E+03  0.86260941341E+03  0.18133584628E+04  0.20646880317E+04  0.46999998093E+01 0. -1.
</event>
<event>
 5   0  0.7731706E-08  0.3869242E+04  0.7818609E-02  0.8031457E-01
       -1   -1    0    0    0  501  0.00000000000E+00  0.00000000000E+00  0.22642474709E+04  0.22642474709E+04  0.50400001928E-02 0.  1.
        1   -1    0    0  501    0  0.00000000000E+00  0.00000000000E+00 -0.16529811988E+04  0.16529811988E+04  0.50400001928E-02 0. -1.
    10030    2    1    2    0    0  0.00000000000E+00  0.00000000000E+00  0.61126627212E+03  0.39172286697E+04  0.38692420440E+04 0.  0.
        3    1    3    3  502    0  0.21965391628E+03  0.21488556061E+03  0.22393833354E+04  0.22603675321E+04  0.10100000352E+00 0.  1.
       -3    1    3    3    0  502 -0.21965391628E+03 -0.21488556061E+03 -0.16281170633E+04  0.16568611375E+04  0.10100000352E+00 0. -1.
</event>
<event>
 5   0  0.7675750E-08  0.3916646E+04  0.7818609E-02  0.8021576E-01
        1   -1    0    0  501    0  0.00000000000E+00  0.00000000000E+00  0.19810064392E+04  0.19810064392E+04  0.50400001928E-02 0.  1.
       -1   -1    0    0    0  501  0.00000000000E+00  0.00000000000E+00 -0.19358991947E+04  0.19358991947E+04  0.50400001928E-02 0. -1.
    10030    2    1    2    0    0  0.00000000000E+00  0.00000000000E+00  0.45107244508E+02  0.39169056340E+04  0.39166458969E+04 0.  0.
        1    1    3    3  502    0  0.18969996285E+04 -0.28524666973E+03  0.41635062987E+03  0.19629877993E+04  0.50400001928E-02 0.  1.
       -1    1    3    3    0  502 -0.18969996285E+04  0.28524666973E+03 -0.37124338536E+03  0.19539178346E+04  0.50400001928E-02 0. -1.
</event>
<event>
 5   0  0.2473224E-07  0.3868422E+04  0.7818609E-02  0.8031629E-01
        2   -1    0    0  501    0  0.00000000000E+00  0.00000000000E+00  0.23248160350E+04  0.23248160350E+04  0.25500000920E-02 0.  1.
       -2   -1    0    0    0  501  0.00000000000E+00  0.00000000000E+00 -0.16092333372E+04  0.16092333372E+04  0.25500000920E-02 0. -1.
    10030    2    1    2    0    0  0.00000000000E+00  0.00000000000E+00  0.71558269780E+03  0.39340493721E+04  0.38684216245E+04 0.  0.
        2    1    3    3  502    0 -0.11331925957E+04  0.10418945718E+04  0.15487705582E+04  0.21836574822E+04  0.25500000920E-02 0.  1.
       -2    1    3    3    0  502  0.11331925957E+04 -0.10418945718E+04 -0.83318786036E+03  0.17503918899E+04  0.25500000920E-02 0. -1.
</event>
<event>
 5   0  0.7675750E-08  0.3914009E+04  0.7818609E-02  0.8022122E-01
       -1   -1    0    0    0  501  0.00000000000E+00  0.00000000000E+00  0.19354837050E+04  0.19354837050E+04  0.50400001928E-02 0.  1.
        1   -1    0    0  501    0  0.00000000000E+00  0.00000000000E+00 -0.19787648253E+04  0.19787648253E+04  0.50400001928E-02 0. -1.
    10030    2    1    2    0    0  0.00000000000E+00  0.00000000000E+00 -0.43281120326E+02  0.39142485304E+04  0.39140092363E+04 0.  0.
        5    1    3    3  502    0 -0.18152355828E+04  0.66239168112E+03  0.28822031889E+03  0.19536980326E+04  0.46999998093E+01 0.  1.
       -5    1    3    3    0  502  0.18152355828E+04 -0.66239168112E+03 -0.33150143922E+03  0.19605504978E+04  0.46999998093E+01 0. -1.
</event>
<event>
 5   0  0.7731706E-08  0.3897293E+04  0.7818609E-02  0.8025592E-01
       -1   -1    0    0    0  501  0.00000000000E+00  0.00000000000E+00  0.31580635331E+04  0.31580635331E+04  0.50400001928E-02 0. -1.
        1   -1    0    0  501    0  0.00000000000E+00  0.00000000000E+00 -0.12023897197E+04  0.12023897197E+04  0.50400001928E-02 0.  1.
    10030    2    1    2    0    0  0.00000000000E+00  0.00000000000E+00  0.19556738135E+04  0.43604532528E+04  0.38972929714E+04 0.  0.
        3    1    3    3  502    0 -0.12245032266E+04  0.85084200960E+03 -0.42580000566E+03  0.15506920817E+04  0.10100000352E+00 0.  1.
       -3    1    3    3    0  502  0.12245032266E+04 -0.85084200960E+03  0.23814738191E+04  0.28097611711E+04  0.10100000352E+00 0. -1.
</event>
<event>
 5   0  0.7675750E-08  0.3873704E+04  0.7818609E-02  0.8030521E-01
       -1   -1    0    0    0  501  0.00000000000E+00  0.00000000000E+00  0.17592130977E+04  0.17592130977E+04  0.50400001928E-02 0. -1.
        1   -1    0    0  501    0  0.00000000000E+00  0.00000000000E+00 -0.21324285361E+04  0.21324285361E+04  0.50400001928E-02 0.  1.
    10030    2    1    2    0    0  0.00000000000E+00  0.00000000000E+00 -0.37321543844E+03  0.38916416338E+04  0.38737042792E+04 0.  0.
        2    1    3    3  502    0 -0.14478155362E+04 -0.11955487042E+04  0.29087160690E+03  0.19000296900E+04  0.25500000920E-02 0. -1.
       -2    1    3    3    0  502  0.14478155362E+04  0.11955487042E+04 -0.66408704533E+03  0.19916119438E+04  0.25500000920E-02 0.  1.
</event>
<event>
 5   0  0.2473224E-07  0.3901217E+04  0.7818609E-02  0.8024776E-01
       -2   -1    0    0    0  501  0.00000000000E+00  0.00000000000E+00  0.16827178227E+04  0.16827178227E+04  0.25500000920E-02 0. -1.
        2   -1    0    0  501    0  0.00000000000E+00  0.00000000000E+00 -0.22611473935E+04  0.22611473935E+04  0.25500000920E-02 0.  1.
    10030    2    1    2    0    0  0.00000000000E+00  0.00000000000E+00 -0.57842957073E+03  0.39438652162E+04  0.39012167429E+04 0.  0.
        2    1    3    3  502    0  0.28250639282E+03  0.80198651803E+03 -0.20639350248E+04  0.22322231125E+04  0.25500000920E-02 0.  1.
       -2    1    3    3    0  502 -0.28250639282E+03 -0.80198651803E+03  0.14855054541E+04  0.17116421037E+04  0.25500000920E-02 0. -1.
</event>
<event>
 5   0  0.2395572E-07  0.3850615E+04  0.7818609E-02  0.8035379E-01
       -2   -1    0    0    0  501  0.00000000000E+00  0.00000000000E+00  0.16969607708E+04  0.16969607708E+04  0.25500000920E-02 0. -1.
        2   -1    0    0  501    0  0.00000000000E+00  0.00000000000E+00 -0.21843810832E+04  0.21843810833E+04  0.25500000920E-02 0.  1.
    10030    2    1    2    0    0  0.00000000000E+00  0.00000000000E+00 -0.48742031248E+03  0.38813418540E+04  0.38506150193E+04 0.  0.
        3    1    3    3  502    0  0.63467101512E+03 -0.73511998104E+03  0.14319633824E+04  0.17302392386E+04  0.10100000352E+00 0. -1.
       -3    1    3    3    0  502 -0.63467101512E+03  0.73511998104E+03 -0.19193836949E+04  0.21511026155E+04  0.10100000352E+00 0.  1.
</event>
<event>
 5   0  0.7675750E-08  0.3912877E+04  0.7818609E-02  0.8022356E-01
        1   -1    0    0  501    0  0.00000000000E+00  0.00000000000E+00  0.19575785527E+04  0.19575785527E+04  0.50400001928E-02 0.  1.
       -1   -1    0    0    0  501  0.00000000000E+00  0.00000000000E+00 -0.19552993268E+04  0.19552993268E+04  0.50400001928E-02 0. -1.
    10030    2    1    2    0    0  0.00000000000E+00  0.00000000000E+00  0.22792258975E+01  0.39128778794E+04  0.39128772156E+04 0.  0.
        5    1    3    3  502    0  0.27508390867E+03  0.13933211603E+04  0.13467307610E+04  0.19572227378E+04  0.46999998093E+01 0.  1.
       -5    1    3    3    0  502 -0.27508390867E+03 -0.13933211603E+04 -0.13444515352E+04  0.19556551416E+04  0.46999998093E+01 0. -1.
</event>
<event>
 5   0  0.7675750E-08  0.3925420E+04  0.7818609E-02  0.8019763E-01
       -1   -1    0    0    0  501  0.00000000000E+00  0.00000000000E+00  0.25493073558E+04  0.25493073558E+04  0.50400001928E-02 0.  1.
        1   -1    0    0  501    0  0.00000000000E+00  0.00000000000E+00 -0.15110889615E+04  0.15110889615E+04  0.50400001928E-02 0. -1.
    10030    2    1    2    0    0  0.00000000000E+00  0.00000000000E+00  0.10382183943E+04  0.40603963173E+04  0.39254198271E+04 0.  0.
        1    1    3    3  502    0  0.11985145531E+04  0.60225776671E+03  0.20012351333E+04  0.24091686555E+04  0.50400001928E-02 0.  1.
       -1    1    3    3    0  502 -0.11985145531E+04 -0.60225776671E+03 -0.96301673905E+03  0.16512276618E+04  0.50400001928E-02 0. -1.
</event>
<event>
 5   0  0.7675750E-08  0.3936212E+04  0.7818609E-02  0.8017540E-01
        1   -1    0    0  501    0  0.00000000000E+00  0.00000000000E+00  0.19413810718E+04  0.19413810718E+04  0.50400001928E-02 0. -1.
       -1   -1    0    0    0  501  0.00000000000E+00  0.00000000000E+00 -0.19951983211E+04  0.19951983211E+04  0.50400001928E-02 0.  1.
    10030    2    1    2    0    0  0.00000000000E+00  0.00000000000E+00 -0.53817249328E+02  0.39365793929E+04  0.39362115061E+04 0.  0.
        5    1    3    3  502    0 -0.90978163436E+03  0.15069369281E+02  0.17183872699E+04  0.19444296355E+04  0.46999998093E+01 0. -1.
       -5    1    3    3    0  502  0.90978163436E+03 -0.15069369281E+02 -0.17722045192E+04  0.19921497574E+04  0.46999998093E+01 0.  1.
</event>
<event>
 5   0  0.2486268E-07  0.3851598E+04  0.7818609E-02  0.8035172E-01
       -2   -1    0    0    0  501  0.00000000000E+00  0.00000000000E+00  0.16605629292E+04  0.16605629292E+04  0.25500000920E-02 0.  1.
        2   -1    0    0  501    0  0.00000000000E+00  0.00000000000E+00 -0.22334000377E+04  0.22334000377E+04  0.25500000920E-02 0. -1.
    10030    2    1    2    0    0  0.00000000000E+00  0.00000000000E+00 -0.57283710856E+03  0.38939629669E+04  0.38515977509E+04 0.  0.
        5    1    3    3  502    0  0.65853356913E+03 -0.18238507667E+03 -0.21067084056E+04  0.22147625548E+04  0.46999998093E+01 0. -1.
       -5    1    3    3    0  502 -0.65853356913E+03  0.18238507667E+03  0.15338712971E+04  0.16792004121E+04  0.46999998093E+01 0.  1.
</event>
<event>
 5   0  0.2473224E-07  0.3866705E+04  0.7818609E-02  0.8031990E-01
       -2   -1    0    0    0  501  0.00000000000E+00  0.00000000000E+00  0.14532786101E+04  0.14532786101E+04  0.25500000920E-02 0. -1.
        2   -1    0    0  501    0  0.00000000000E+00  0.00000000000E+00 -0.25720129940E+04  0.25720129940E+04  0.25500000920E-02 0.  1.
    10030    2    1    2    0    0  0.00000000000E+00  0.00000000000E+00 -0.11187343839E+04  0.40252916041E+04  0.38667047827E+04 0.  0.
        2    1    3    3  502    0 -0.33366578428E+03  0.18772573517E+04 -0.89252962893E+03  0.21052404040E+04  0.25500000920E-02 0. -1.
       -2    1    3    3    0  502  0.33366578428E+03 -0.18772573517E+04 -0.22620475495E+03  0.19200512001E+04  0.25500000920E-02 0.  1.
</event>
<event>
 5   0  0.2473224E-07  0.3909778E+04  0.7818609E-02  0.8022999E-01
       -2   -1    0    0    0  501  0.00000000000E+00  0.00000000000E+00  0.15999569770E+04  0.15999569770E+04  0.25500000920E-02 0.  1.
        2   -1    0    0  501    0  0.00000000000E+00  0.00000000000E+00 -0.23885591935E+04  0.23885591935E+04  0.25500000920E-02 0. -1.
    10030    2    1    2    0    0  0.00000000000E+00  0.00000000000E+00 -0.78860221647E+03  0.39885161705E+04  0.39097784831E+04 0.  0.
        2    1    3    3  502    0 -0.82810332513E+03  0.15397445487E+04  0.49796954303E+03  0.18178399430E+04  0.25500000920E-02 0.  1.
       -2    1    3    3    0  502  0.82810332513E+03 -0.15397445487E+04 -0.12865717595E+04  0.21706762275E+04  0.25500000920E-02 0. -1.
</event>
<event>
 5   0  0.2486268E-07  0.3894934E+04  0.7818609E-02  0.8026084E-01
        2   -1    0    0  501    0  0.00000000000E+00  0.00000000000E+00  0.22081177772E+04  0.22081177772E+04  0.25500000920E-02 0. -1.
       -2   -1    0    0    0  501  0.00000000000E+00  0.00000000000E+00 -0.17175841880E+04  0.17175841880E+04  0.25500000920E-02 0.  1.
    10030    2    1    2    0    0  0.00000000000E+00  0.00000000000E+00  0.49053358924E+03  0.39257019652E+04  0.38949342379E+04 0.  0.
        5    1    3    3  502    0 -0.10445070967E+04  0.73192962456E+03 -0.12380550684E+04  0.17775034438E+04  0.46999998093E+01 0.  1.
       -5    1    3    3    0  502  0.10445070967E+04 -0.73192962456E+03  0.17285886576E+04  0.21481985214E+04  0.46999998093E+01 0. -1.
</event>
<event>
 5   0  0.2446281E-07  0.3896327E+04  0.7818609E-02  0.8025794E-01
       -2   -1    0    0    0  501  0.00000000000E+00  0.00000000000E+00  0.15285456521E+04  0.15285456521E+04  0.25500000920E-02 0.  1.
        2   -1    0    0  501    0  0.00000000000E+00  0.00000000000E+00 -0.24829749070E+04  0.24829749070E+04  0.25500000920E-02 0. -1.
    10030    2    1    2    0    0  0.00000000000E+00  0.00000000000E+00 -0.95442925498E+03  0.40115205591E+04  0.38963267308E+04 0.  0.
        1    1    3    3  502    0 -0.10416305883E+04  0.14854709531E+04  0.25350239956E+03  0.18319065756E+04  0.50400001928E-02 0.  1.
       -1    1    3    3    0  502  0.10416305883E+04 -0.14854709531E+04 -0.12079316545E+04  0.21796139835E+04  0.50400001928E-02 0. -1.
</event>
<event>
 5   0  0.2473224E-07  0.3862349E+04  0.7818609E-02  0.8032906E-01
       -2   -1    0    0    0  501  0.00000000000E+00  0.00000000000E+00  0.17908333026E+04  0.17908333026E+04  0.25500000920E-02 0.  1.
        2   -1    0    0  501    0  0.00000000000E+00  0.00000000000E+00 -0.20825134330E+04  0.20825134330E+04  0.25500000920E-02 0. -1.
    10030    2    1    2    0    0  0.00000000000E+00  0.00000000000E+00 -0.29168013038E+03  0.38733467356E+04  0.38623487201E+04 0.  0.
        2    1    3    3  502    0 -0.77859279494E+03 -0.36827446603E+03  0.15875497256E+04  0.18061414545E+04  0.25500000920E-02 0.  1.
       -2    1    3    3    0  502  0.77859279494E+03  0.36827446603E+03 -0.18792298560E+04  0.20672052811E+04  0.25500000920E-02 0. -1.
</event>
<event>
 5   0  0.2446281E-07  0.3919787E+04  0.7818609E-02  0.8020927E-01
        2   -1    0    0  501    0  0.00000000000E+00  0.00000000000E+00  0.20872526925E+04  0.20872526925E+04  0.25500000920E-02 0.  1.
       -2   -1    0    0    0  501  0.00000000000E+00  0.00000000000E+00 -0.18403050667E+04  0.18403050667E+04  0.25500000920E-02 0. -1.
    10030    2    1    2    0    0  0.00000000000E+00  0.00000000000E+00  0.24694762582E+03  0.39275577592E+04  0.39197865787E+04 0.  0.
        1    1    3    3  502    0  0.18509064068E+04 -0.50913071279E+03 -0.27242101450E+03  0.19388867472E+04  0.50400001928E-02 0. -1.
       -1    1    3    3    0  502 -0.18509064068E+04  0.50913071279E+03  0.51936864032E+03  0.19886710120E+04  0.50400001928E-02 0.  1.
</event>
<event>
 5   0  0.7675750E-08  0.3897968E+04  0.7818609E-02  0.8025452E-01
        1   -1    0    0  501    0  0.00000000000E+00  0.00000000000E+00  0.21220558718E+04  0.21220558718E+04  0.50400001928E-02 0.  1.
       -1   -1    0    0    0  501  0.00000000000E+00  0.00000000000E+00 -0.17900279050E+04  0.17900279050E+04  0.50400001928E-02 0. -1.
    10030    2    1    2    0    0  0.00000000000E+00  0.00000000000E+00  0.33202796678E+03  0.39120837769E+04  0.38979683050E+04 0.  0.
        4    1    3    3  502    0 -0.10410555179E+04 -0.90578569595E+03  0.15473312933E+04  0.20732776134E+04  0.12699999809E+01 0.  1.
       -4    1    3    3    0  502  0.10410555179E+04  0.90578569595E+03 -0.12153033265E+04  0.18388061634E+04  0.12699999809E+01 0. -1.
</event>
<event>
 5   0  0.7675750E-08  0.3595053E+04  0.7818609E-02  0.8091626E-01
       -1   -1    0    0    0  501  0.00000000000E+00  0.00000000000E+00  0.24572310070E+04  0.24572310070E+04  0.50400001928E-02 0. -1.
        1   -1    0    0  501    0  0.00000000000E+00  0.00000000000E+00 -0.13149360295E+04  0.13149360295E+04  0.50400001928E-02 0.  1.
    10030    2    1    2    0    0  0.00000000000E+00  0.00000000000E+00  0.11422949775E+04  0.37721670366E+04  0.35950530366E+04 0.  0.
        1    1    3    3  502    0  0.11050993199E+04 -0.11055584823E+04 -0.36004139666E+03  0.16040990842E+04  0.50400001928E-02 0.  1.
       -1    1    3    3    0  502 -0.11050993199E+04  0.11055584823E+04  0.15023363742E+04  0.21680679523E+04  0.50400001928E-02 0. -1.
</event>
<event>
 5   0  0.7675750E-08  0.3809992E+04  0.7818609E-02  0.8044014E-01
       -1   -1    0    0    0  501  0.00000000000E+00  0.00000000000E+00  0.15143855243E+04  0.15143855243E+04  0.50400001928E-02 0. -1.
        1   -1    0    0  501    0  0.00000000000E+00  0.00000000000E+00 -0.23963582679E+04  0.23963582679E+04  0.50400001928E-02 0.  1.
    10030    2    1    2    0    0  0.00000000000E+00  0.00000000000E+00 -0.88197274358E+03  0.39107437922E+04  0.38099922687E+04 0.  0.
        4    1    3    3  502    0 -0.10089492163E+04 -0.66987949880E+03  0.10683721124E+04  0.16149729556E+04  0.12699999809E+01 0. -1.
       -4    1    3    3    0  502  0.10089492163E+04  0.66987949880E+03 -0.19503448560E+04  0.22957708366E+04  0.12699999809E+01 0.  1.
</event>
<event>
 5   0  0.2384787E-07  0.3909513E+04  0.7818609E-02  0.8023054E-01
        2   -1    0    0  501    0  0.00000000000E+00  0.00000000000E+00  0.29231582579E+04  0.29231582579E+04  0.25500000920E-02 0. -1.
       -2   -1    0    0    0  501  0.00000000000E+00  0.00000000000E+00 -0.13071725960E+04  0.13071725960E+04  0.25500000920E-02 0.  1.
    10030    2    1    2    0    0  0.00000000000E+00  0.00000000000E+00  0.16159856618E+04  0.42303308539E+04  0.39095126901E+04 0.  0.
        4    1    3    3  502    0 -0.16944101048E+04  0.93639055415E+03  0.51520009988E+03  0.20033186538E+04  0.12699999809E+01 0.  1.
       -4    1    3    3    0  502  0.16944101048E+04 -0.93639055415E+03  0.11007855619E+04  0.22270122001E+04  0.12699999809E+01 0. -1.
</event>
<event>
 5   0  0.7675750E-08  0.3574866E+04  0.7818609E-02  0.8096273E-01
        1   -1    0    0  501    0  0.00000000000E+00  0.00000000000E+00  0.26137822384E+04  0.26137822384E+04  0.50400001928E-02 0. -1.
       -1   -1    0    0    0  501  0.00000000000E+00  0.00000000000E+00 -0.12223347707E+04  0.12223347707E+04  0.50400001928E-02 0.  1.
    10030    2    1    2    0    0  0.00000000000E+00  0.00000000000E+00  0.13914474677E+04  0.38361170091E+04  0.35748661027E+04 0.  0.
        5    1    3    3  502    0 -0.11132538003E+04  0.92820258170E+03 -0.42665874603E+03  0.15109446820E+04  0.46999998093E+01 0.  1.
       -5    1    3    3    0  502  0.11132538003E+04 -0.92820258170E+03  0.18181062137E+04  0.23251723271E+04  0.46999998093E+01 0. -1.
</event>
<event>
 5   0  0.7675750E-08  0.3888481E+04  0.7818609E-02  0.8027429E-01
       -1   -1    0    0    0  501  0.00000000000E+00  0.00000000000E+00  0.22852071628E+04  0.22852071629E+04  0.50400001928E-02 0. -1.
        1   -1    0    0  501    0  0.00000000000E+00  0.00000000000E+00 -0.16541484818E+04  0.16541484818E+04  0.50400001928E-02 0.  1.
    10030    2    1    2    0    0  0.00000000000E+00  0.00000000000E+00  0.63105868104E+03  0.39393556447E+04  0.38884814306E+04 0.  0.
        2    1    3    3  502    0  0.10901676518E+04 -0.15500072947E+04 -0.12499748924E+03  0.18991083421E+04  0.25500000920E-02 0.  1.
       -2    1    3    3    0  502 -0.10901676518E+04  0.15500072947E+04  0.75605617028E+03  0.20402473025E+04  0.25500000920E-02 0. -1.
</event>
<event>
 5   0  0.7675750E-08  0.3876489E+04  0.7818609E-02  0.8029937E-01
        1   -1    0    0  501    0  0.00000000000E+00  0.00000000000E+00  0.26235290152E+04  0.26235290152E+04  0.50400001928E-02 0. -1.
       -1   -1    0    0    0  501  0.00000000000E+00  0.00000000000E+00 -0.14319610270E+04  0.14319610270E+04  0.50400001928E-02 0.  1.
    10030    2    1    2    0    0  0.00000000000E+00  0.00000000000E+00  0.11915679881E+04  0.40554900422E+04  0.38764887736E+04 0.  0.
        4    1    3    3  502    0 -0.13490622319E+04  0.13851576877E+04  0.45480631600E+03  0.19863235193E+04  0.12699999809E+01 0. -1.
       -4    1    3    3    0  502  0.13490622319E+04 -0.13851576877E+04  0.73676167214E+03  0.20691665229E+04  0.12699999809E+01 0.  1.
</event>
<event>
 5   0  0.7675750E-08  0.3698925E+04  0.7818609E-02  0.8068200E-01
       -1   -1    0    0    0  501  0.00000000000E+00  0.00000000000E+00  0.20494530687E+04  0.20494530687E+04  0.50400001928E-02 0. -1.
        1   -1    0    0  501    0  0.00000000000E+00  0.00000000000E+00 -0.16689874218E+04  0.16689874218E+04  0.50400001928E-02 0.  1.
    10030    2    1    2    0    0  0.00000000000E+00  0.00000000000E+00  0.38046564692E+03  0.37184404906E+04  0.36989249213E+04 0.  0.
        1    1    3    3  502    0 -0.45138241209E+03 -0.12571431713E+04 -0.10957177110E+04  0.17276435794E+04  0.50400001928E-02 0.  1.
       -1    1    3    3    0  502  0.45138241209E+03  0.12571431713E+04  0.14761833579E+04  0.19907969112E+04  0.50400001928E-02 0. -1.
</event>
<event>
 5   0  0.2395572E-07  0.3897550E+04  0.7818609E-02  0.8025539E-01
        2   -1    0    0  501    0  0.00000000000E+00  0.00000000000E+00  0.25976749343E+04  0.25976749343E+04  0.25500000920E-02 0.  1.
       -2   -1    0    0    0  501  0.00000000000E+00  0.00000000000E+00 -0.14619708261E+04  0.14619708261E+04  0.25500000920E-02 0. -1.
    10030    2    1    2    0    0  0.00000000000E+00  0.00000000000E+00  0.11357041082E+04  0.40596457605E+04  0.38975504973E+04 0.  0.
        3    1    3    3  502    0  0.14966648914E+04 -0.61758484520E+03  0.16975359462E+04  0.23458570155E+04  0.10100000352E+00 0.  1.
       -3    1    3    3    0  502 -0.14966648914E+04  0.61758484520E+03 -0.56183183802E+03  0.17137887450E+04  0.10100000352E+00 0. -1.
</event>
<event>
 5   0  0.7675750E-08  0.3886670E+04  0.7818609E-02  0.8027807E-01
        1   -1    0    0  501    0  0.00000000000E+00  0.00000000000E+00  0.16942678561E+04  0.16942678562E+04  0.50400001928E-02 0. -1.
       -1   -1    0    0    0  501  0.00000000000E+00  0.00000000000E+00 -0.22290161984E+04  0.22290161985E+04  0.50400001928E-02 0.  1.
    10030    2    1    2    0    0  0.00000000000E+00  0.00000000000E+00 -0.53474834230E+03  0.39232840546E+04  0.38866697806E+04 0.  0.
        2    1    3    3  502    0  0.78523677450E+03 -0.17035952039E+04  0.24506664570E+03  0.18917957267E+04  0.25500000920E-02 0. -1.
       -2    1    3    3    0  502 -0.78523677450E+03  0.17035952039E+04 -0.77981498800E+03  0.20314883279E+04  0.25500000920E-02 0.  1.
</event>
<event>
 5   0  0.2395572E-07  0.3895095E+04  0.7818609E-02  0.8026050E-01
        2   -1    0    0  501    0  0.00000000000E+00  0.00000000000E+00  0.14576042423E+04  0.14576042423E+04  0.25500000920E-02 0. -1.
       -2   -1    0    0    0  501  0.00000000000E+00  0.00000000000E+00 -0.26021749860E+04  0.26021749860E+04  0.25500000920E-02 0.  1.
    10030    2    1    2    0    0  0.00000000000E+00  0.00000000000E+00 -0.11445707437E+04  0.40597792284E+04  0.38950950176E+04 0.  0.
        3    1    3    3  502    0 -0.12828117198E+04 -0.11015774042E+04 -0.15795088787E+04  0.23138554393E+04  0.10100000352E+00 0.  1.
       -3    1    3    3    0  502  0.12828117198E+04  0.11015774042E+04  0.43493813497E+03  0.17459237891E+04  0.10100000352E+00 0. -1.
</event>
<event>
 5   0  0.7675750E-08  0.3833119E+04  0.7818609E-02  0.8039085E-01
       -3   -1    0    0    0  501  0.00000000000E+00  0.00000000000E+00  0.16849009084E+04  0.16849009115E+04  0.10100000352E+00 0.  1.
        3   -1    0    0  501    0  0.00000000000E+00  0.00000000000E+00 -0.21800690299E+04  0.21800690322E+04  0.10100000352E+00 0. -1.
    10030    2    1    2    0    0  0.00000000000E+00  0.00000000000E+00 -0.49516812143E+03  0.38649699437E+04  0.38331189907E+04 0.  0.
        1    1    3    3  502    0 -0.17515478912E+04  0.75925116325E+03 -0.41875317408E+03  0.19544146348E+04  0.50400001928E-02 0. -1.
       -1    1    3    3    0  502  0.17515478912E+04 -0.75925116325E+03 -0.76414947352E+02  0.19105553088E+04  0.50400001928E-02 0.  1.
</event>
<event>
 5   0  0.2395572E-07  0.3944320E+04  0.7818609E-02  0.8015874E-01
       -2   -1    0    0    0  501  0.00000000000E+00  0.00000000000E+00  0.20680545716E+04  0.20680545716E+04  0.25500000920E-02 0. -1.
        2   -1    0    0  501    0  0.00000000000E+00  0.00000000000E+00 -0.18807124077E+04  0.18807124077E+04  0.25500000920E-02 0.  1.
    10030    2    1    2    0    0  0.00000000000E+00  0.00000000000E+00  0.18734216386E+03  0.39487669793E+04  0.39443204193E+04 0.  0.
        3    1    3    3  502    0 -0.24434798798E+03 -0.95662488090E+03 -0.16154672630E+04  0.18932964877E+04  0.10100000352E+00 0.  1.
       -3    1    3    3    0  502  0.24434798798E+03  0.95662488090E+03  0.18028094269E+04  0.20554704916E+04  0.10100000352E+00 0. -1.
</event>
<event>
 5   0  0.7731706E-08  0.3565927E+04  0.7818609E-02  0.8098341E-01
       -1   -1    0    0    0  501  0.00000000000E+00  0.00000000000E+00  0.16138835902E+04  0.16138835902E+04  0.50400001928E-02 0.  1.
        1   -1    0    0  501    0  0.00000000000E+00  0.00000000000E+00 -0.19697573115E+04  0.19697573115E+04  0.50400001928E-02 0. -1.
    10030    2    1    2    0    0  0.00000000000E+00  0.00000000000E+00 -0.35587372130E+03  0.35836409017E+04  0.35659270894E+04 0.  0.
        3    1    3    3  502    0  0.58433954157E+03 -0.16762274427E+04 -0.34540151977E+03  0.18084505411E+04  0.10100000352E+00 0. -1.
       -3    1    3    3    0  502 -0.58433954157E+03  0.16762274427E+04 -0.10472201523E+02  0.17751903607E+04  0.10100000352E+00 0.  1.
</event>
<event>
 5   0  0.7675750E-08  0.3892564E+04  0.7818609E-02  0.8026578E-01
       -1   -1    0    0    0  501  0.00000000000E+00  0.00000000000E+00  0.29753540478E+04  0.29753540478E+04  0.50400001928E-02 0. -1.
        1   -1    0    0  501    0  0.00000000000E+00  0.00000000000E+00 -0.12731300590E+04  0.12731300590E+04  0.50400001928E-02 0.  1.
    10030    2    1    2    0    0  0.00000000000E+00  0.00000000000E+00  0.17022239888E+04  0.42484841069E+04  0.38925635124E+04 0.  0.
        5    1    3    3  502    0  0.41937704578E+03 -0.21487937162E+03  0.29121468032E+04  0.29500290412E+04  0.46999998093E+01 0. -1.
       -5    1    3    3    0  502 -0.41937704578E+03  0.21487937162E+03 -0.12099228143E+04  0.12984550657E+04  0.46999998093E+01 0.  1.
</event>
<event>
 5   0  0.2486268E-07  0.3921919E+04  0.7818609E-02  0.8020486E-01
       -2   -1    0    0    0  501  0.00000000000E+00  0.00000000000E+00  0.16848262187E+04  0.16848262187E+04  0.25500000920E-02 0.  1.
        2   -1    0    0  501    0  0.00000000000E+00  0.00000000000E+00 -0.22823500035E+04  0.22823500035E+04  0.25500000920E-02 0. -1.
    10030    2    1    2    0    0  0.00000000000E+00  0.00000000000E+00 -0.59752378488E+03  0.39671762222E+04  0.39219194924E+04 0.  0.
        5    1    3    3  502    0 -0.58843159796E+03 -0.11678898791E+04  0.11793054403E+04  0.17609661912E+04  0.46999998093E+01 0.  1.
       -5    1    3    3    0  502  0.58843159796E+03  0.11678898791E+04 -0.17768292252E+04  0.22062100310E+04  0.46999998093E+01 0. -1.
</event>
<event>
 5   0  0.7731706E-08  0.3892962E+04  0.7818609E-02  0.8026495E-01
        1   -1    0    0  501    0  0.00000000000E+00  0.00000000000E+00  0.14732625804E+04  0.14732625804E+04  0.50400001928E-02 0. -1.
       -1   -1    0    0    0  501  0.00000000000E+00  0.00000000000E+00 -0.25716993787E+04  0.25716993788E+04  0.50400001928E-02 0.  1.
    10030    2    1    2    0    0  0.00000000000E+00  0.00000000000E+00 -0.10984367983E+04  0.40449619592E+04  0.38929620922E+04 0.  0.
        3    1    3    3  502    0  0.16808996199E+04  0.79085532961E+03 -0.11532178836E+04  0.21865011277E+04  0.10100000352E+00 0.  1.
       -3    1    3    3    0  502 -0.16808996199E+04 -0.79085532961E+03  0.54781085235E+02  0.18584608314E+04  0.10100000352E+00 0. -1.
</event>
<event>
 5   0  0.7675750E-08  0.3848608E+04  0.7818609E-02  0.8035804E-01
        1   -1    0    0  501    0  0.00000000000E+00  0.00000000000E+00  0.28916682180E+04  0.28916682180E+04  0.50400001928E-02 0.  1.
       -1   -1    0    0    0  501  0.00000000000E+00  0.00000000000E+00 -0.12805567675E+04  0.12805567675E+04  0.50400001928E-02 0. -1.
    10030    2    1    2    0    0  0.00000000000E+00  0.00000000000E+00  0.16111114505E+04  0.41722249855E+04  0.38486076994E+04 0.  0.
        2    1    3    3  502    0  0.60216873310E+02 -0.15852044958E+04 -0.37527610816E+03  0.16301323635E+04  0.25500000920E-02 0. -1.
       -2    1    3    3    0  502 -0.60216873310E+02  0.15852044958E+04  0.19863875587E+04  0.25420926220E+04  0.25500000920E-02 0.  1.
</event>
<event>
 5   0  0.2473224E-07  0.3905566E+04  0.7818609E-02  0.8023873E-01
        2   -1    0    0  501    0  0.00000000000E+00  0.00000000000E+00  0.33431400654E+04  0.33431400654E+04  0.25500000920E-02 0. -1.
       -2   -1    0    0    0  501  0.00000000000E+00  0.00000000000E+00 -0.11406523247E+04  0.11406523247E+04  0.25500000920E-02 0.  1.
    10030    2    1    2    0    0  0.00000000000E+00  0.00000000000E+00  0.22024877407E+04  0.44837923902E+04  0.39055655096E+04 0.  0.
        2    1    3    3  502    0 -0.65765864137E+03  0.11339400182E+04 -0.56046997868E+03  0.14256442229E+04  0.25500000920E-02 0.  1.
       -2    1    3    3    0  502  0.65765864137E+03 -0.11339400182E+04  0.27629577194E+04  0.30581481672E+04  0.25500000920E-02 0. -1.
</event>
<event>
 5   0  0.2473224E-07  0.3415765E+04  0.7818609E-02  0.8134048E-01
       -2   -1    0    0    0  501  0.00000000000E+00  0.00000000000E+00  0.11488942258E+04  0.11488942258E+04  0.25500000920E-02 0.  1.
        2   -1    0    0  501    0  0.00000000000E+00  0.00000000000E+00 -0.25388433555E+04  0.25388433555E+04  0.25500000920E-02 0. -1.
    10030    2    1    2    0    0  0.00000000000E+00  0.00000000000E+00 -0.13899491298E+04  0.36877375813E+04  0.34157649048E+04 0.  0.
        2    1    3    3  502    0  0.42252206977E+03  0.14160214517E+04  0.22948821665E+03  0.14954285314E+04  0.25500000920E-02 0.  1.
       -2    1    3    3    0  502 -0.42252206977E+03 -0.14160214517E+04 -0.16194373464E+04  0.21923090498E+04  0.25500000920E-02 0. -1.
</event>
<event>
 5   0  0.2384787E-07  0.3799514E+04  0.7818609E-02  0.8046259E-01
       -2   -1    0    0    0  501  0.00000000000E+00  0.00000000000E+00  0.20443902799E+04  0.20443902799E+04  0.25500000920E-02 0. -1.
        2   -1    0    0  501    0  0.00000000000E+00  0.00000000000E+00 -0.17653560300E+04  0.17653560300E+04  0.25500000920E-02 0.  1.
    10030    2    1    2    0    0  0.00000000000E+00  0.00000000000E+00  0.27903424985E+03  0.38097463099E+04  0.37995140259E+04 0.  0.
        4    1    3    3  502    0  0.12109645582E+04 -0.12957414502E+04  0.82230178673E+03  0.19548818144E+04  0.12699999809E+01 0. -1.
       -4    1    3    3    0  502 -0.12109645582E+04  0.12957414502E+04 -0.54326753687E+03  0.18548644955E+04  0.12699999809E+01 0.  1.
</event>
<event>
 5   0  0.2446281E-07  0.3913567E+04  0.7818609E-02  0.8022213E-01
        2   -1    0    0  501    0  0.00000000000E+00  0.00000000000E+00  0.21151991501E+04  0.21151991501E+04  0.25500000920E-02 0. -1.
       -2   -1    0    0    0  501  0.00000000000E+00  0.00000000000E+00 -0.18102320353E+04  0.18102320353E+04  0.25500000920E-02 0.  1.
    10030    2    1    2    0    0  0.00000000000E+00  0.00000000000E+00  0.30496711479E+03  0.39254311854E+04  0.39135667939E+04 0.  0.
        1    1    3    3  502    0  0.74144852406E+03  0.25289011401E+03  0.19510459125E+04  0.21024460698E+04  0.50400001928E-02 0. -1.
       -1    1    3    3    0  502 -0.74144852406E+03 -0.25289011401E+03 -0.16460787977E+04  0.18229851156E+04  0.50400001928E-02 0.  1.
</event>
<event>
 5   0  0.7675750E-08  0.3657278E+04  0.7818609E-02  0.8077496E-01
       -4   -1    0    0    0  501  0.00000000000E+00  0.00000000000E+00  0.15486051732E+04  0.15486056940E+04  0.12699999809E+01 0. -1.
        4   -1    0    0  501    0  0.00000000000E+00  0.00000000000E+00 -0.21593106253E+04  0.21593109987E+04  0.12699999809E+01 0.  1.
    10030    2    1    2    0    0  0.00000000000E+00  0.00000000000E+00 -0.61070545203E+03  0.37079166927E+04  0.36572783667E+04 0.  0.
        1    1    3    3  502    0 -0.14470756863E+04 -0.98103374308E+03 -0.84893489965E+03  0.19434880269E+04  0.50400001928E-02 0.  1.
       -1    1    3    3    0  502  0.14470756863E+04  0.98103374308E+03  0.23822944762E+03  0.17644286658E+04  0.50400001928E-02 0. -1.
</event>
<event>
 5   0  0.2384787E-07  0.3914515E+04  0.7818609E-02  0.8022017E-01
        2   -1    0    0  501    0  0.00000000000E+00  0.00000000000E+00  0.17347971020E+04  0.17347971020E+04  0.25500000920E-02 0. -1.
       -2   -1    0    0    0  501  0.00000000000E+00  0.00000000000E+00 -0.22082444707E+04  0.22082444707E+04  0.25500000920E-02 0.  1.
    10030    2    1    2    0    0  0.00000000000E+00  0.00000000000E+00 -0.47344736871E+03  0.39430415727E+04  0.39145145846E+04 0.  0.
        4    1    3    3  502    0  0.46345093520E+03  0.76874110692E+03  0.15152341742E+04  0.17611603773E+04  0.12699999809E+01 0. -1.
       -4    1    3    3    0  502 -0.46345093520E+03 -0.76874110692E+03 -0.19886815429E+04  0.21818811954E+04  0.12699999809E+01 0.  1.
</event>
<event>
 5   0  0.2395572E-07  0.3384235E+04  0.7818609E-02  0.8141787E-01
        2   -1    0    0  501    0  0.00000000000E+00  0.00000000000E+00  0.24687936251E+04  0.24687936251E+04  0.25500000920E-02 0. -1.
       -2   -1    0    0    0  501  0.00000000000E+00  0.00000000000E+00 -0.11597814438E+04  0.11597814438E+04  0.25500000920E-02 0.  1.
    10030    2    1    2    0    0  0.00000000000E+00  0.00000000000E+00  0.13090121812E+04  0.36285750689E+04  0.33842346461E+04 0.  0.
        3    1    3    3  502    0  0.75824223933E+02 -0.57007924561E+03  0.23607935703E+04  0.24298324945E+04  0.10100000352E+00 0. -1.
       -3    1    3    3    0  502 -0.75824223933E+02  0.57007924561E+03 -0.10517813891E+04  0.11987425745E+04  0.10100000352E+00 0.  1.
</event>
<event>
 5   0  0.7731706E-08  0.3190590E+04  0.7818609E-02  0.8191307E-01
        1   -1    0    0  501    0  0.00000000000E+00  0.00000000000E+00  0.14435949926E+04  0.14435949926E+04  0.50400001928E-02 0.  1.
       -1   -1    0    0    0  501  0.00000000000E+00  0.00000000000E+00 -0.17629360061E+04  0.17629360061E+04  0.50400001928E-02 0. -1.
    10030    2    1    2    0    0  0.00000000000E+00  0.00000000000E+00 -0.31934101349E+03  0.32065309987E+04  0.31905896575E+04 0.  0.
        3    1    3    3  502    0 -0.10516742853E+04  0.68625313214E+03 -0.11484579321E+04  0.17017396381E+04  0.10100000352E+00 0. -1.
       -3    1    3    3    0  502  0.10516742853E+04 -0.68625313214E+03  0.82911691866E+03  0.15047913606E+04  0.10100000352E+00 0.  1.
</event>
<event>
 5   0  0.2486268E-07  0.3511142E+04  0.7818609E-02  0.8111154E-01
       -2   -1    0    0    0  501  0.00000000000E+00  0.00000000000E+00  0.22878658344E+04  0.22878658344E+04  0.25500000920E-02 0.  1.
        2   -1    0    0  501    0  0.00000000000E+00  0.00000000000E+00 -0.13471201034E+04  0.13471201034E+04  0.25500000920E-02 0. -1.
    10030    2    1    2    0    0  0.00000000000E+00  0.00000000000E+00  0.94074573100E+03  0.36349859377E+04  0.35111422981E+04 0.  0.
        5    1    3    3  502    0 -0.37102701628E+03 -0.30482597468E+03  0.22185503117E+04  0.22699267603E+04  0.46999998093E+01 0.  1.
       -5    1    3    3    0  502  0.37102701628E+03  0.30482597468E+03 -0.12778045807E+04  0.13650591775E+04  0.46999998093E+01 0. -1.
</event>
<event>
 5   0  0.7675750E-08  0.3916967E+04  0.7818609E-02  0.8021510E-01
        1   -1    0    0  501    0  0.00000000000E+00  0.00000000000E+00  0.14393502683E+04  0.14393502683E+04  0.50400001928E-02 0.  1.
       -1   -1    0    0    0  501  0.00000000000E+00  0.00000000000E+00 -0.26648536662E+04  0.26648536662E+04  0.50400001928E-02 0. -1.
    10030    2    1    2    0    0  0.00000000000E+00  0.00000000000E+00 -0.12255033980E+04  0.41042039345E+04  0.39169671121E+04 0.  0.
        4    1    3    3  502    0 -0.14379626755E+04  0.38612159730E+03  0.72040004981E+03  0.16540267195E+04  0.12699999809E+01 0.  1.
       -4    1    3    3    0  502  0.14379626755E+04 -0.38612159730E+03 -0.19459034478E+04  0.24501772150E+04  0.12699999809E+01 0. -1.
</event>
<event>
 5   0  0.2446281E-07  0.3617914E+04  0.7818609E-02  0.8086401E-01
       -2   -1    0    0    0  501  0.00000000000E+00  0.00000000000E+00  0.14115260260E+04  0.14115260260E+04  0.25500000920E-02 0.  1.
        2   -1    0    0  501    0  0.00000000000E+00  0.00000000000E+00 -0.23182893049E+04  0.23182893049E+04  0.25500000920E-02 0. -1.
    10030    2    1    2    0    0  0.00000000000E+00  0.00000000000E+00 -0.90676327891E+03  0.37298153308E+04  0.36179141447E+04 0.  0.
        1    1    3    3  502    0  0.13188555580E+04  0.11350445776E+04  0.56506162091E+02  0.17409477656E+04  0.50400001928E-02 0.  1.
       -1    1    3    3    0  502 -0.13188555580E+04 -0.11350445776E+04 -0.96326944100E+03  0.19888675653E+04  0.50400001928E-02 0. -1.
</event>
<event>
 5   0  0.2473224E-07  0.3887300E+04  0.7818609E-02  0.8027676E-01
        2   -1    0    0  501    0  0.00000000000E+00  0.00000000000E+00  0.14108509825E+04  0.14108509825E+04  0.25500000920E-02 0.  1.
       -2   -1    0    0    0  501  0.00000000000E+00  0.00000000000E+00 -0.26776568993E+04  0.26776568993E+04  0.25500000920E-02 0. -1.
    10030    2    1    2    0    0  0.00000000000E+00  0.00000000000E+00 -0.12668059168E+04  0.40885078818E+04  0.38872997658E+04 0.  0.
        2    1    3    3  502    0  0.75406188824E+03  0.58967678290E+03  0.11457350887E+04  0.14929959588E+04  0.25500000920E-02 0.  1.
       -2    1    3    3    0  502 -0.75406188824E+03 -0.58967678290E+03 -0.24125410055E+04  0.25955119230E+04  0.25500000920E-02 0. -1.
</event>
<event>
 5   0  0.7675750E-08  0.3919839E+04  0.7818609E-02  0.8020916E-01
       -3   -1    0    0    0  501  0.00000000000E+00  0.00000000000E+00  0.17590308446E+04  0.17590308475E+04  0.10100000352E+00 0. -1.
        3   -1    0    0  501    0  0.00000000000E+00  0.00000000000E+00 -0.21837507431E+04  0.21837507454E+04  0.10100000352E+00 0.  1.
    10030    2    1    2    0    0  0.00000000000E+00  0.00000000000E+00 -0.42471989851E+03  0.39427815929E+04  0.39198392438E+04 0.  0.
        2    1    3    3  502    0 -0.16618368067E+04 -0.38475533378E+03  0.75845571740E+03  0.18668136796E+04  0.25500000920E-02 0. -1.
       -2    1    3    3    0  502  0.16618368067E+04  0.38475533378E+03 -0.11831756159E+04  0.20759679133E+04  0.25500000920E-02 0.  1.
</event>
<event>
 5   0  0.2384787E-07  0.3897557E+04  0.7818609E-02  0.8025538E-01
        2   -1    0    0  501    0  0.00000000000E+00  0.00000000000E+00  0.24048422189E+04  0.24048422189E+04  0.25500000920E-02 0.  1.
       -2   -1    0    0    0  501  0.00000000000E+00  0.00000000000E+00 -0.15792043890E+04  0.15792043890E+04  0.25500000920E-02 0. -1.
    10030    2    1    2    0    0  0.00000000000E+00  0.00000000000E+00  0.82563782993E+03  0.39840466079E+04  0.38975568690E+04 0.  0.
        4    1    3    3  502    0 -0.18306107389E+03 -0.33108691875E+02 -0.15701068625E+04  0.15810897238E+04  0.12699999809E+01 0. -1.
       -4    1    3    3    0  502  0.18306107389E+03  0.33108691875E+02  0.23957446924E+04  0.24029568840E+04  0.12699999809E+01 0.  1.
</event>
<event>
 5   0  0.2486268E-07  0.3771730E+04  0.7818609E-02  0.8052249E-01
        2   -1    0    0  501    0  0.00000000000E+00  0.00000000000E+00  0.13121818180E+04  0.13121818180E+04  0.25500000920E-02 0.  1.
       -2   -1    0    0    0  501  0.00000000000E+00  0.00000000000E+00 -0.27103611811E+04  0.27103611811E+04  0.25500000920E-02 0. -1.
    10030    2    1    2    0    0  0.00000000000E+00  0.00000000000E+00 -0.13981793631E+04  0.40225429991E+04  0.37717299278E+04 0.  0.
        5    1    3    3  502    0  0.86117639982E+03 -0.51706741625E+03  0.10031299305E+04  0.14196039068E+04  0.46999998093E+01 0.  1.
       -5    1    3    3    0  502 -0.86117639982E+03  0.51706741625E+03 -0.24013092936E+04  0.26029390923E+04  0.46999998093E+01 0. -1.
</event>
<event>
 5   0  0.7675750E-08  0.3928484E+04  0.7818609E-02  0.8019131E-01
        1   -1    0    0  501    0  0.00000000000E+00  0.00000000000E+00  0.25773900023E+04  0.25773900023E+04  0.50400001928E-02 0.  1.
       -1   -1    0    0    0  501  0.00000000000E+00  0.00000000000E+00 -0.14969588847E+04  0.14969588847E+04  0.50400001928E-02 0. -1.
    10030    2    1    2    0    0  0.00000000000E+00  0.00000000000E+00  0.10804311176E+04  0.40743488870E+04  0.39284841164E+04 0.  0.
        4    1    3    3  502    0  0.13252778747E+04  0.99975526119E+03  0.16291394870E+04  0.23259340292E+04  0.12699999809E+01 0.  1.
       -4    1    3    3    0  502 -0.13252778747E+04 -0.99975526119E+03 -0.54870836931E+03  0.17484148578E+04  0.12699999809E+01 0. -1.
</event>
<event>
 5   0  0.2446281E-07  0.4008956E+04  0.7818609E-02  0.8002742E-01
        2   -1    0    0  501    0  0.00000000000E+00  0.00000000000E+00  0.19698685034E+04  0.19698685034E+04  0.25500000920E-02 0.  1.
       -2   -1    0    0    0  501  0.00000000000E+00  0.00000000000E+00 -0.20396957129E+04  0.20396957129E+04  0.25500000920E-02 0. -1.
    10030    2    1    2    0    0  0.00000000000E+00  0.00000000000E+00 -0.69827209482E+02  0.40095642163E+04  0.40089561442E+04 0.  0.
        1    1    3    3  502    0 -0.30974321639E+03  0.19106599118E+04  0.48609744216E+03  0.19957086165E+04  0.50400001928E-02 0.  1.
       -1    1    3    3    0  502  0.30974321639E+03 -0.19106599118E+04 -0.55592465164E+03  0.20138555998E+04  0.50400001928E-02 0. -1.
</event>
<event>
 5   0  0.7675750E-08  0.3781060E+04  0.7818609E-02  0.8050232E-01
        3   -1    0    0  501    0  0.00000000000E+00  0.00000000000E+00  0.22279846458E+04  0.22279846481E+04  0.10100000352E+00 0. -1.
       -3   -1    0    0    0  501  0.00000000000E+00  0.00000000000E+00 -0.16041868450E+04  0.16041868482E+04  0.10100000352E+00 0.  1.
    10030    2    1    2    0    0  0.00000000000E+00  0.00000000000E+00  0.62379780081E+03  0.38321714962E+04  0.37810599943E+04 0.  0.
        5    1    3    3  502    0 -0.14589809961E+04 -0.11883519122E+04  0.49678122702E+03  0.19461807449E+04  0.46999998093E+01 0. -1.
       -5    1    3    3    0  502  0.14589809961E+04  0.11883519122E+04  0.12701657379E+03  0.18859907514E+04  0.46999998093E+01 0.  1.
</event>
<event>
 5   0  0.7731706E-08  0.3886604E+04  0.7818609E-02  0.8027821E-01
       -1   -1    0    0    0  501  0.00000000000E+00  0.00000000000E+00  0.24467987809E+04  0.24467987809E+04  0.50400001928E-02 0.  1.
        1   -1    0    0  501    0  0.00000000000E+00  0.00000000000E+00 -0.15434134841E+04  0.15434134841E+04  0.50400001928E-02 0. -1.
    10030    2    1    2    0    0  0.00000000000E+00  0.00000000000E+00  0.90338529682E+03  0.39902122650E+04  0.38866037777E+04 0.  0.
        3    1    3    3  502    0  0.31087132571E+03  0.44449490891E+03 -0.14641195329E+04  0.15613656593E+04  0.10100000352E+00 0. -1.
       -3    1    3    3    0  502 -0.31087132571E+03 -0.44449490891E+03  0.23675048297E+04  0.24288466057E+04  0.10100000352E+00 0.  1.
</event>
<event>
 5   0  0.7675750E-08  0.3955636E+04  0.7818609E-02  0.8013556E-01
        1   -1    0    0  501    0  0.00000000000E+00  0.00000000000E+00  0.20813123257E+04  0.20813123257E+04  0.50400001928E-02 0.  1.
       -1   -1    0    0    0  501  0.00000000000E+00  0.00000000000E+00 -0.18794701443E+04  0.18794701443E+04  0.50400001928E-02 0. -1.
    10030    2    1    2    0    0  0.00000000000E+00  0.00000000000E+00  0.20184218145E+03  0.39607824700E+04  0.39556361699E+04 0.  0.
        5    1    3    3  502    0 -0.33631494522E+03  0.11830683128E+04 -0.14499593528E+04  0.19013580909E+04  0.46999998093E+01 0. -1.
       -5    1    3    3    0  502  0.33631494522E+03 -0.11830683128E+04  0.16518015342E+04  0.20594243792E+04  0.46999998093E+01 0.  1.
</event>
<event>
 5   0  0.7675750E-08  0.4017087E+04  0.7818609E-02  0.8001108E-01
       -1   -1    0    0    0  501  0.00000000000E+00  0.00000000000E+00  0.23400528235E+04  0.23400528235E+04  0.50400001928E-02 0. -1.
        1   -1    0    0  501    0  0.00000000000E+00  0.00000000000E+00 -0.17239983080E+04  0.17239983080E+04  0.50400001928E-02 0.  1.
    10030    2    1    2    0    0  0.00000000000E+00  0.00000000000E+00  0.61605451543E+03  0.40640511315E+04  0.40170870582E+04 0.  0.
        1    1    3    3  502    0  0.11419550420E+04 -0.11666669788E+04 -0.87572650686E+03  0.18525847004E+04  0.50400001928E-02 0.  1.
       -1    1    3    3    0  502 -0.11419550420E+04  0.11666669788E+04  0.14917810223E+04  0.22114664311E+04  0.50400001928E-02 0. -1.
</event>
<event>
 5   0  0.2395572E-07  0.3130646E+04  0.7818609E-02  0.8207377E-01
       -2   -1    0    0    0  501  0.00000000000E+00  0.00000000000E+00  0.15281276495E+04  0.15281276495E+04  0.25500000920E-02 0. -1.
        2   -1    0    0  501    0  0.00000000000E+00  0.00000000000E+00 -0.16034241403E+04  0.16034241403E+04  0.25500000920E-02 0.  1.
    10030    2    1    2    0    0  0.00000000000E+00  0.00000000000E+00 -0.75296490819E+02  0.31315517898E+04  0.31306464270E+04 0.  0.
        3    1    3    3  502    0 -0.87129991761E+03  0.55781307096E+03  0.11373904885E+04  0.15375227159E+04  0.10100000352E+00 0. -1.
       -3    1    3    3    0  502  0.87129991761E+03 -0.55781307096E+03 -0.12126869793E+04  0.15940290739E+04  0.10100000352E+00 0.  1.
</event>
<event>
 5   0  0.2395572E-07  0.3884317E+04  0.7818609E-02  0.8028299E-01
       -2   -1    0    0    0  501  0.00000000000E+00  0.00000000000E+00  0.13545184380E+04  0.13545184380E+04  0.25500000920E-02 0.  1.
        2   -1    0    0  501    0  0.00000000000E+00  0.00000000000E+00 -0.27847391616E+04  0.27847391616E+04  0.25500000920E-02 0. -1.
    10030    2    1    2    0    0  0.00000000000E+00  0.00000000000E+00 -0.14302207236E+04  0.41392575997E+04  0.38843174636E+04 0.  0.
        3    1    3    3  502    0 -0.18736318683E+04  0.22157781383E+03 -0.22400787188E+03  0.18999401681E+04  0.10100000352E+00 0. -1.
       -3    1    3    3    0  502  0.18736318683E+04 -0.22157781383E+03 -0.12062128517E+04  0.22393174316E+04  0.10100000352E+00 0.  1.
</event>
<event>
 5   0  0.2486268E-07  0.3904227E+04  0.7818609E-02  0.8024151E-01
        2   -1    0    0  501    0  0.00000000000E+00  0.00000000000E+00  0.14700500307E+04  0.14700500307E+04  0.25500000920E-02 0. -1.
       -2   -1    0    0    0  501  0.00000000000E+00  0.00000000000E+00 -0.25922560984E+04  0.25922560984E+04  0.25500000920E-02 0.  1.
    10030    2    1    2    0    0  0.00000000000E+00  0.00000000000E+00 -0.11222060677E+04  0.40623061291E+04  0.39042265083E+04 0.  0.
        5    1    3    3  502    0 -0.12554408795E+04  0.36530013565E+00 -0.21164839815E+04  0.24608247539E+04  0.46999998093E+01 0.  1.
       -5    1    3    3    0  502  0.12554408795E+04 -0.36530013565E+00  0.99427791379E+03  0.16014813752E+04  0.46999998093E+01 0. -1.
</event>
<event>
 5   0  0.7675750E-08  0.3905841E+04  0.7818609E-02  0.8023815E-01
        1   -1    0    0  501    0  0.00000000000E+00  0.00000000000E+00  0.22718029655E+04  0.22718029655E+04  0.50400001928E-02 0. -1.
       -1   -1    0    0    0  501  0.00000000000E+00  0.00000000000E+00 -0.16787984277E+04  0.16787984278E+04  0.50400001928E-02 0.  1.
    10030    2    1    2    0    0  0.00000000000E+00  0.00000000000E+00  0.59300453775E+03  0.39506013932E+04  0.39058413929E+04 0.  0.
        4    1    3    3  502    0 -0.14523252534E+04  0.85150765256E+03 -0.70457911682E+03  0.18250334980E+04  0.12699999809E+01 0.  1.
       -4    1    3    3    0  502  0.14523252534E+04 -0.85150765256E+03  0.12975836546E+04  0.21255678953E+04  0.12699999809E+01 0. -1.
</event>
<event>
 5   0  0.7675750E-08  0.3872862E+04  0.7818609E-02  0.8030697E-01
       -1   -1    0    0    0  501  0.00000000000E+00  0.00000000000E+00  0.15300070163E+04  0.15300070163E+04  0.50400001928E-02 0. -1.
        1   -1    0    0  501    0  0.00000000000E+00  0.00000000000E+00 -0.24508150595E+04  0.24508150595E+04  0.50400001928E-02 0.  1.
    10030    2    1    2    0    0  0.00000000000E+00  0.00000000000E+00 -0.92080804320E+03  0.39808220759E+04  0.38728615967E+04 0.  0.
        1    1    3    3  502    0  0.14569371160E+04  0.49183292971E+03 -0.16701574195E+04  0.22702403390E+04  0.50400001928E-02 0.  1.
       -1    1    3    3    0  502 -0.14569371160E+04 -0.49183292971E+03  0.74934937627E+03  0.17105817369E+04  0.50400001928E-02 0. -1.
</event>
<event>
 5   0  0.2473224E-07  0.3845376E+04  0.7818609E-02  0.8036487E-01
        2   -1    0    0  501    0  0.00000000000E+00  0.00000000000E+00  0.12807580433E+04  0.12807580433E+04  0.25500000920E-02 0. -1.
       -2   -1    0    0    0  501  0.00000000000E+00  0.00000000000E+00 -0.28863608655E+04  0.28863608655E+04  0.25500000920E-02 0.  1.
    10030    2    1    2    0    0  0.00000000000E+00  0.00000000000E+00 -0.16056028221E+04  0.41671189088E+04  0.38453763896E+04 0.  0.
        2    1    3    3  502    0  0.15917690387E+03 -0.12414569282E+04  0.77882866298E+03  0.14741528677E+04  0.25500000920E-02 0. -1.
       -2    1    3    3    0  502 -0.15917690387E+03  0.12414569282E+04 -0.23844314851E+04  0.26929660411E+04  0.25500000920E-02 0.  1.
</event>
<event>
 5   0  0.2395572E-07  0.3917456E+04  0.7818609E-02  0.8021408E-01
        2   -1    0    0  501    0  0.00000000000E+00  0.00000000000E+00  0.24424962353E+04  0.24424962353E+04  0.25500000920E-02 0. -1.
       -2   -1    0    0    0  501  0.00000000000E+00  0.00000000000E+00 -0.15707765827E+04  0.15707765827E+04  0.25500000920E-02 0.  1.
    10030    2    1    2    0    0  0.00000000000E+00  0.00000000000E+00  0.87171965255E+03  0.40132728180E+04  0.39174562613E+04 0.  0.
        3    1    3    3  502    0  0.17694937937E+04 -0.83402664086E+03  0.33389062278E+03  0.19844877631E+04  0.10100000352E+00 0. -1.
       -3    1    3    3    0  502 -0.17694937937E+04  0.83402664086E+03  0.53782902977E+03  0.20287850549E+04  0.10100000352E+00 0.  1.
</event>
<event>
 5   0  0.7675750E-08  0.3905150E+04  0.7818609E-02  0.8023959E-01
       -1   -1    0    0    0  501  0.00000000000E+00  0.00000000000E+00  0.23088199853E+04  0.23088199853E+04  0.50400001928E-02 0.  1.
        1   -1    0    0  501    0  0.00000000000E+00  0.00000000000E+00 -0.16512974758E+04  0.16512974758E+04  0.50400001928E-02 0. -1.
    10030    2    1    2    0    0  0.00000000000E+00  0.00000000000E+00  0.65752250950E+03  0.39601174611E+04  0.39051497353E+04 0.  0.
        1    1    3    3  502    0  0.16859793169E+04  0.49499247057E+03 -0.53469595710E+03  0.18366936515E+04  0.50400001928E-02 0. -1.
       -1    1    3    3    0  502 -0.16859793169E+04 -0.49499247057E+03  0.11922184666E+04  0.21234238096E+04  0.50400001928E-02 0.  1.
</event>
<event>
 5   0  0.2486268E-07  0.3935480E+04  0.7818609E-02  0.8017690E-01
        2   -1    0    0  501    0  0.00000000000E+00  0.00000000000E+00  0.11430933237E+04  0.11430933237E+04  0.25500000920E-02 0. -1.
       -2   -1    0    0    0  501  0.00000000000E+00  0.00000000000E+00 -0.33873006897E+04  0.33873006897E+04  0.25500000920E-02 0.  1.
    10030    2    1    2    0    0  0.00000000000E+00  0.00000000000E+00 -0.22442073660E+04  0.45303940134E+04  0.39354800488E+04 0.  0.
        5    1    3    3  502    0  0.98641005449E+03  0.16724543396E+04 -0.75468412886E+03  0.20831895108E+04  0.46999998093E+01 0. -1.
       -5    1    3    3    0  502 -0.98641005449E+03 -0.16724543396E+04 -0.14895232371E+04  0.24472045026E+04  0.46999998093E+01 0.  1.
</event>
<event>
 5   0  0.7675750E-08  0.3884195E+04  0.7818609E-02  0.8028324E-01
       -1   -1    0    0    0  501  0.00000000000E+00  0.00000000000E+00  0.30180632045E+04  0.30180632045E+04  0.50400001928E-02 0.  1.
        1   -1    0    0  501    0  0.00000000000E+00  0.00000000000E+00 -0.12497228903E+04  0.12497228903E+04  0.50400001928E-02 0. -1.
    10030    2    1    2    0    0  0.00000000000E+00  0.00000000000E+00  0.17683403142E+04  0.42677860948E+04  0.38841949854E+04 0.  0.
        1    1    3    3  502    0  0.18089665610E+03  0.44511669450E+03 -0.11833885538E+04  0.12772082607E+04  0.50400001928E-02 0. -1.
       -1    1    3    3    0  502 -0.18089665610E+03 -0.44511669450E+03  0.29517288679E+04  0.29905778341E+04  0.50400001928E-02 0.  1.
</event>
<event>
 5   0  0.7675750E-08  0.3932322E+04  0.7818609E-02  0.8018340E-01
        1   -1    0    0  501    0  0.00000000000E+00  0.00000000000E+00  0.17301302526E+04  0.17301302526E+04  0.50400001928E-02 0.  1.
       -1   -1    0    0    0  501  0.00000000000E+00  0.00000000000E+00 -0.22343918958E+04  0.22343918958E+04  0.50400001928E-02 0. -1.
    10030    2    1    2    0    0  0.00000000000E+00  0.00000000000E+00 -0.50426164325E+03  0.39645221484E+04  0.39323219680E+04 0.  0.
        5    1    3    3  502    0 -0.13998550427E+03  0.16019039431E+04  0.88853766364E+03  0.18371754010E+04  0.46999998093E+01 0.  1.
       -5    1    3    3    0  502  0.13998550427E+03 -0.16019039431E+04 -0.13927993069E+04  0.21273467474E+04  0.46999998093E+01 0. -1.
</event>
<event>
 5   0  0.2473224E-07  0.3927957E+04  0.7818609E-02  0.8019240E-01
       -2   -1    0    0    0  501  0.00000000000E+00  0.00000000000E+00  0.10605413964E+04  0.10605413964E+04  0.25500000920E-02 0.  1.
        2   -1    0    0  501    0  0.00000000000E+00  0.00000000000E+00 -0.36370209392E+04  0.36370209392E+04  0.25500000920E-02 0. -1.
    10030    2    1    2    0    0  0.00000000000E+00  0.00000000000E+00 -0.25764795427E+04  0.46975623356E+04  0.39279568560E+04 0.  0.
        2    1    3    3  502    0  0.83573990800E+03  0.14162429386E+04 -0.40724072930E+01  0.16444518355E+04  0.25500000920E-02 0.  1.
       -2    1    3    3    0  502 -0.83573990800E+03 -0.14162429386E+04 -0.25724071354E+04  0.30531105000E+04  0.25500000920E-02 0. -1.
</event>
<event>
 5   0  0.7675750E-08  0.3463942E+04  0.7818609E-02  0.8122389E-01
        1   -1    0    0  501    0  0.00000000000E+00  0.00000000000E+00  0.18586266212E+04  0.18586266212E+04  0.50400001928E-02 0. -1.
       -1   -1    0    0    0  501  0.00000000000E+00  0.00000000000E+00 -0.16139460166E+04  0.16139460166E+04  0.50400001928E-02 0.  1.
    10030    2    1    2    0    0  0.00000000000E+00  0.00000000000E+00  0.24468060456E+03  0.34725726378E+04  0.34639417037E+04 0.  0.
        1    1    3    3  502    0  0.25109917079E+03  0.11996522210E+04 -0.11044353955E+04  0.16498465952E+04  0.50400001928E-02 0.  1.
       -1    1    3    3    0  502 -0.25109917079E+03 -0.11996522210E+04  0.13491160000E+04  0.18227260426E+04  0.50400001928E-02 0. -1.
</event>
<event>
 5   0  0.7675750E-08  0.3944833E+04  0.7818609E-02  0.8015769E-01
       -1   -1    0    0    0  501  0.00000000000E+00  0.00000000000E+00  0.31446010724E+04  0.31446010724E+04  0.50400001928E-02 0. -1.
        1   -1    0    0  501    0  0.00000000000E+00  0.00000000000E+00 -0.12371763476E+04  0.12371763476E+04  0.50400001928E-02 0.  1.
    10030    2    1    2    0    0  0.00000000000E+00  0.00000000000E+00  0.19074247249E+04  0.43817774200E+04  0.39448326045E+04 0.  0.
        2    1    3    3  502    0 -0.12574179396E+04  0.10791422390E+04  0.21421664633E+04  0.27082328193E+04  0.25500000920E-02 0. -1.
       -2    1    3    3    0  502  0.12574179396E+04 -0.10791422390E+04 -0.23474173847E+03  0.16735446007E+04  0.25500000920E-02 0.  1.
</event>
<event>
 5   0  0.2486268E-07  0.3881253E+04  0.7818609E-02  0.8028940E-01
        2   -1    0    0  501    0  0.00000000000E+00  0.00000000000E+00  0.23578648053E+04  0.23578648053E+04  0.25500000920E-02 0.  1.
       -2   -1    0    0    0  501  0.00000000000E+00  0.00000000000E+00 -0.15972207484E+04  0.15972207484E+04  0.25500000920E-02 0. -1.
    10030    2    1    2    0    0  0.00000000000E+00  0.00000000000E+00  0.76064405692E+03  0.39550855537E+04  0.38812526787E+04 0.  0.
        5    1    3    3  502    0  0.57038507941E+03  0.12465240495E+03  0.22662389924E+04  0.23402432826E+04  0.46999998093E+01 0.  1.
       -5    1    3    3    0  502 -0.57038507941E+03 -0.12465240495E+03 -0.15055949355E+04  0.16148422712E+04  0.46999998093E+01 0. -1.
</event>
<event>
 5   0  0.2384787E-07  0.3895372E+04  0.7818609E-02  0.8025992E-01
        2   -1    0    0  501    0  0.00000000000E+00  0.00000000000E+00  0.19360798205E+04  0.19360798205E+04  0.25500000920E-02 0.  1.
       -2   -1    0    0    0  501  0.00000000000E+00  0.00000000000E+00 -0.19593618708E+04  0.19593618708E+04  0.25500000920E-02 0. -1.
    10030    2    1    2    0    0  0.00000000000E+00  0.00000000000E+00 -0.23282050296E+02  0.38954416914E+04  0.38953721154E+04 0.  0.
        4    1    3    3  502    0 -0.61377683275E+03  0.10221833199E+04 -0.15517654868E+04  0.19569257724E+04  0.12699999809E+01 0. -1.
       -4    1    3    3    0  502  0.61377683275E+03 -0.10221833199E+04  0.15284834365E+04  0.19385159190E+04  0.12699999809E+01 0.  1.
</event>
<event>
 5   0  0.7675750E-08  0.3845623E+04  0.7818609E-02  0.8036435E-01
        1   -1    0    0  501    0  0.00000000000E+00  0.00000000000E+00  0.22508474917E+04  0.22508474917E+04  0.50400001928E-02 0.  1.
       -1   -1    0    0    0  501  0.00000000000E+00  0.00000000000E+00 -0.16425827739E+04  0.16425827739E+04  0.50400001928E-02 0. -1.
    10030    2    1    2    0    0  0.00000000000E+00  0.00000000000E+00  0.60826471777E+03  0.38934302656E+04  0.38456226110E+04 0.  0.
        2    1    3    3  502    0  0.17709795000E+03 -0.23111245925E+03 -0.16201343109E+04  0.16460898633E+04  0.25500000920E-02 0. -1.
       -2    1    3    3    0  502 -0.17709795000E+03  0.23111245925E+03  0.22283990287E+04  0.22473404023E+04  0.25500000920E-02 0.  1.
</event>
<event>
 5   0  0.7675750E-08  0.3782104E+04  0.7818609E-02  0.8050006E-01
       -1   -1    0    0    0  501  0.00000000000E+00  0.00000000000E+00  0.24476879804E+04  0.24476879804E+04  0.50400001928E-02 0.  1.
        1   -1    0    0  501    0  0.00000000000E+00  0.00000000000E+00 -0.14610025349E+04  0.14610025349E+04  0.50400001928E-02 0. -1.
    10030    2    1    2    0    0  0.00000000000E+00  0.00000000000E+00  0.98668544551E+03  0.39086905154E+04  0.37821043582E+04 0.  0.
        5    1    3    3  502    0  0.31411458950E+03  0.14427331211E+04  0.17143728957E+04  0.22625744960E+04  0.46999998093E+01 0.  1.
       -5    1    3    3    0  502 -0.31411458950E+03 -0.14427331211E+04 -0.72768745023E+03  0.16461160194E+04  0.46999998093E+01 0. -1.
</event>
<event>
 5   0  0.7675750E-08  0.4017804E+04  0.7818609E-02  0.8000965E-01
        1   -1    0    0  501    0  0.00000000000E+00  0.00000000000E+00  0.20936939932E+04  0.20936939932E+04  0.50400001928E-02 0.  1.
       -1   -1    0    0    0  501  0.00000000000E+00  0.00000000000E+00 -0.19275438221E+04  0.19275438221E+04  0.50400001928E-02 0. -1.
    10030    2    1    2    0    0  0.00000000000E+00  0.00000000000E+00  0.16615017108E+03  0.40212378153E+04  0.40178038389E+04 0.  0.
        2    1    3    3  502    0  0.74314847932E+03  0.17148007640E+04  0.82050574450E+03  0.20410881899E+04  0.25500000920E-02 0.  1.
       -2    1    3    3    0  502 -0.74314847932E+03 -0.17148007640E+04 -0.65435557343E+03  0.19801496254E+04  0.25500000920E-02 0. -1.
</event>
<event>
 5   0  0.2395572E-07  0.3912195E+04  0.7818609E-02  0.8022498E-01
       -2   -1    0    0    0  501  0.00000000000E+00  0.00000000000E+00  0.26419545246E+04  0.26419545246E+04  0.25500000920E-02 0. -1.
        2   -1    0    0  501    0  0.00000000000E+00  0.00000000000E+00 -0.14482904892E+04  0.14482904892E+04  0.25500000920E-02 0.  1.
    10030    2    1    2    0    0  0.00000000000E+00  0.00000000000E+00  0.11936640354E+04  0.40902450138E+04  0.39121950927E+04 0.  0.
        3    1    3    3  502    0  0.95186994414E+03 -0.36321200717E+03 -0.11489963578E+04  0.15356340687E+04  0.10100000352E+00 0.  1.
       -3    1    3    3    0  502 -0.95186994414E+03  0.36321200717E+03  0.23426603932E+04  0.25546109451E+04  0.10100000352E+00 0. -1.
</event>
<event>
 5   0  0.7675750E-08  0.3908646E+04  0.7818609E-02  0.8023233E-01
       -1   -1    0    0    0  501  0.00000000000E+00  0.00000000000E+00  0.27916121767E+04  0.27916121767E+04  0.50400001928E-02 0.  1.
        1   -1    0    0  501    0  0.00000000000E+00  0.00000000000E+00 -0.13681622323E+04  0.13681622323E+04  0.50400001928E-02 0. -1.
    10030    2    1    2    0    0  0.00000000000E+00  0.00000000000E+00  0.14234499444E+04  0.41597744090E+04  0.39086459791E+04 0.  0.
        4    1    3    3  502    0 -0.18763374735E+04 -0.52050661511E+03  0.88919406445E+03  0.21406160674E+04  0.12699999809E+01 0.  1.
       -4    1    3    3    0  502  0.18763374735E+04  0.52050661511E+03  0.53425587990E+03  0.20191583417E+04  0.12699999809E+01 0. -1.
</event>
<event>
 5   0  0.7731706E-08  0.3832555E+04  0.7818609E-02  0.8039205E-01
       -1   -1    0    0    0  501  0.00000000000E+00  0.00000000000E+00  0.17133692118E+04  0.17133692118E+04  0.50400001928E-02 0.  1.
        1   -1    0    0  501    0  0.00000000000E+00  0.00000000000E+00 -0.21432154770E+04  0.21432154770E+04  0.50400001928E-02 0. -1.
    10030    2    1    2    0    0  0.00000000000E+00  0.00000000000E+00 -0.42984626519E+03  0.38565846888E+04  0.38325549768E+04 0.  0.
        3    1    3    3  502    0 -0.26271753095E+03  0.16665275943E+04  0.69950144378E+03  0.18263726355E+04  0.10100000352E+00 0.  1.
       -3    1    3    3    0  502  0.26271753095E+03 -0.16665275943E+04 -0.11293477090E+04  0.20302120533E+04  0.10100000352E+00 0. -1.
</event>
<event>
 5   0  0.2446281E-07  0.3819144E+04  0.7818609E-02  0.8042059E-01
       -2   -1    0    0    0  501  0.00000000000E+00  0.00000000000E+00  0.16131507311E+04  0.16131507311E+04  0.25500000920E-02 0. -1.
        2   -1    0    0  501    0  0.00000000000E+00  0.00000000000E+00 -0.22604613465E+04  0.22604613465E+04  0.25500000920E-02 0.  1.
    10030    2    1    2    0    0  0.00000000000E+00  0.00000000000E+00 -0.64731061537E+03  0.38736120776E+04  0.38191438170E+04 0.  0.
        1    1    3    3  502    0 -0.21698074451E+03 -0.20624061586E+02 -0.22478036704E+04  0.22583461507E+04  0.50400001928E-02 0.  1.
       -1    1    3    3    0  502  0.21698074451E+03  0.20624061586E+02  0.16004930550E+04  0.16152659269E+04  0.50400001928E-02 0. -1.
</event>
<event>
 5   0  0.7675750E-08  0.3681824E+04  0.7818609E-02  0.8072002E-01
       -1   -1    0    0    0  501  0.00000000000E+00  0.00000000000E+00  0.15111763993E+04  0.15111763993E+04  0.50400001928E-02 0.  1.
        1   -1    0    0  501    0  0.00000000000E+00  0.00000000000E+00 -0.22425955669E+04  0.22425955669E+04  0.50400001928E-02 0. -1.
    10030    2    1    2    0    0  0.00000000000E+00  0.00000000000E+00 -0.73141916759E+03  0.37537719662E+04  0.36818242728E+04 0.  0.
        1    1    3    3  502    0 -0.48686722448E+03  0.14331474739E+04 -0.14340439770E+04  0.20850500004E+04  0.50400001928E-02 0. -1.
       -1    1    3    3    0  502  0.48686722448E+03 -0.14331474739E+04  0.70262480944E+03  0.16687219658E+04  0.50400001928E-02 0.  1.
</event>
<event>
 5   0  0.2395572E-07  0.3910574E+04  0.7818609E-02  0.8022834E-01
       -2   -1    0    0    0  501  0.00000000000E+00  0.00000000000E+00  0.25910679150E+04  0.25910679150E+04  0.25500000920E-02 0. -1.
        2   -1    0    0  501    0  0.00000000000E+00  0.00000000000E+00 -0.14755103291E+04  0.14755103291E+04  0.25500000920E-02 0.  1.
    10030    2    1    2    0    0  0.00000000000E+00  0.00000000000E+00  0.11155575859E+04  0.40665782442E+04  0.39105741124E+04 0.  0.
        3    1    3    3  502    0 -0.25214293120E+03 -0.61129984243E+03 -0.13557043628E+04  0.15083759096E+04  0.10100000352E+00 0.  1.
       -3    1    3    3    0  502  0.25214293120E+03  0.61129984243E+03  0.24712619487E+04  0.25582023346E+04  0.10100000352E+00 0. -1.
</event>
<event>
 5   0  0.2395572E-07  0.3561968E+04  0.7818609E-02  0.8099259E-01
        2   -1    0    0  501    0  0.00000000000E+00  0.00000000000E+00  0.20758842889E+04  0.20758842889E+04  0.25500000920E-02 0.  1.
       -2   -1    0    0    0  501  0.00000000000E+00  0.00000000000E+00 -0.15279771681E+04  0.15279771681E+04  0.25500000920E-02 0. -1.
    10030    2    1    2    0    0  0.00000000000E+00  0.00000000000E+00  0.54790712081E+03  0.36038614569E+04  0.35619678813E+04 0.  0.
        3    1    3    3  502    0  0.50094950436E+03  0.16809739072E+04 -0.38351627910E+02  0.17544499253E+04  0.10100000352E+00 0. -1.
       -3    1    3    3    0  502 -0.50094950436E+03 -0.16809739072E+04  0.58625874872E+03  0.18494115317E+04  0.10100000352E+00 0.  1.
</event>
<event>
 5   0  0.2384787E-07  0.3866776E+04  0.7818609E-02  0.8031975E-01
       -2   -1    0    0    0  501  0.00000000000E+00  0.00000000000E+00  0.23850531876E+04  0.23850531876E+04  0.25500000920E-02 0. -1.
        2   -1    0    0  501    0  0.00000000000E+00  0.00000000000E+00 -0.15672557688E+04  0.15672557688E+04  0.25500000920E-02 0.  1.
    10030    2    1    2    0    0  0.00000000000E+00  0.00000000000E+00  0.81779741871E+03  0.39523089564E+04  0.38667755907E+04 0.  0.
        4    1    3    3  502    0 -0.14236805751E+04 -0.57781760872E+03 -0.79062231641E+03  0.17279539429E+04  0.12699999809E+01 0.  1.
       -4    1    3    3    0  502  0.14236805751E+04  0.57781760872E+03  0.16084197351E+04  0.22243550135E+04  0.12699999809E+01 0. -1.
</event>
<event>
 5   0  0.7675750E-08  0.3952694E+04  0.7818609E-02  0.8014158E-01
        1   -1    0    0  501    0  0.00000000000E+00  0.00000000000E+00  0.21103026949E+04  0.21103026949E+04  0.50400001928E-02 0.  1.
       -1   -1    0    0    0  501  0.00000000000E+00  0.00000000000E+00 -0.18508941087E+04  0.18508941087E+04  0.50400001928E-02 0. -1.
    10030    2    1    2    0    0  0.00000000000E+00  0.00000000000E+00  0.25940858623E+03  0.39611968036E+04  0.39526936768E+04 0.  0.
        5    1    3    3  502    0  0.35673777436E+02 -0.13047963704E+04  0.16168638036E+04  0.20779886516E+04  0.46999998093E+01 0.  1.
       -5    1    3    3    0  502 -0.35673777436E+02  0.13047963704E+04 -0.13574552174E+04  0.18832081520E+04  0.46999998093E+01 0. -1.
</event>
<event>
 5   0  0.2384787E-07  0.3836305E+04  0.7818609E-02  0.8038408E-01
        2   -1    0    0  501    0  0.00000000000E+00  0.00000000000E+00  0.14117406669E+04  0.14117406669E+04  0.25500000920E-02 0.  1.
       -2   -1    0    0    0  501  0.00000000000E+00  0.00000000000E+00 -0.26062219593E+04  0.26062219593E+04  0.25500000920E-02 0. -1.
    10030    2    1    2    0    0  0.00000000000E+00  0.00000000000E+00 -0.11944812923E+04  0.40179626262E+04  0.38363052678E+04 0.  0.
        4    1    3    3  502    0 -0.14910552948E+04  0.11911970552E+04 -0.79900644914E+03  0.20689633238E+04  0.12699999809E+01 0. -1.
       -4    1    3    3    0  502  0.14910552948E+04 -0.11911970552E+04 -0.39547484319E+03  0.19489993025E+04  0.12699999809E+01 0.  1.
</event>
<event>
 5   0  0.7675750E-08  0.3880262E+04  0.7818609E-02  0.8029147E-01
       -1   -1    0    0    0  501  0.00000000000E+00  0.00000000000E+00  0.18363688259E+04  0.18363688259E+04  0.50400001928E-02 0.  1.
        1   -1    0    0  501    0  0.00000000000E+00  0.00000000000E+00 -0.20497561336E+04  0.20497561337E+04  0.50400001928E-02 0. -1.
    10030    2    1    2    0    0  0.00000000000E+00  0.00000000000E+00 -0.21338730773E+03  0.38861249596E+04  0.38802619832E+04 0.  0.
        5    1    3    3  502    0 -0.10332632023E+04  0.16242055450E+04  0.13535246012E+03  0.19297717161E+04  0.46999998093E+01 0.  1.
       -5    1    3    3    0  502  0.10332632023E+04 -0.16242055450E+04 -0.34873976786E+03  0.19563532435E+04  0.46999998093E+01 0. -1.
</event>
<event>
 5   0  0.2446281E-07  0.3857746E+04  0.7818609E-02  0.8033875E-01
       -2   -1    0    0    0  501  0.00000000000E+00  0.00000000000E+00  0.20210576893E+04  0.20210576893E+04  0.25500000920E-02 0.  1.
        2   -1    0    0  501    0  0.00000000000E+00  0.00000000000E+00 -0.18408933772E+04  0.18408933772E+04  0.25500000920E-02 0. -1.
    10030    2    1    2    0    0  0.00000000000E+00  0.00000000000E+00  0.18016431212E+03  0.38619510666E+04  0.38577463449E+04 0.  0.
        1    1    3    3  502    0  0.16251892401E+04 -0.17234358682E+03 -0.93553892985E+03  0.18831291690E+04  0.50400001928E-02 0. -1.
       -1    1    3    3    0  502 -0.16251892401E+04  0.17234358682E+03  0.11157032420E+04  0.19788218975E+04  0.50400001928E-02 0.  1.
</event>
<event>
 5   0  0.7675750E-08  0.3884345E+04  0.7818609E-02  0.8028293E-01
        1   -1    0    0  501    0  0.00000000000E+00  0.00000000000E+00  0.11147838059E+04  0.11147838059E+04  0.50400001928E-02 0.  1.
       -1   -1    0    0    0  501  0.00000000000E+00  0.00000000000E+00 -0.33836457914E+04  0.33836457914E+04  0.50400001928E-02 0. -1.
    10030    2    1    2    0    0  0.00000000000E+00  0.00000000000E+00 -0.22688619855E+04  0.44984295974E+04  0.38843447495E+04 0.  0.
        2    1    3    3  502    0 -0.36381963162E+03 -0.26824446111E+03 -0.33218811140E+04  0.33524936914E+04  0.25500000920E-02 0. -1.
       -2    1    3    3    0  502  0.36381963162E+03  0.26824446111E+03  0.10530191286E+04  0.11459359059E+04  0.25500000920E-02 0.  1.
</event>
<event>
 5   0  0.2486268E-07  0.3811916E+04  0.7818609E-02  0.8043603E-01
       -2   -1    0    0    0  501  0.00000000000E+00  0.00000000000E+00  0.14377385929E+04  0.14377385929E+04  0.25500000920E-02 0. -1.
        2   -1    0    0  501    0  0.00000000000E+00  0.00000000000E+00 -0.25266592051E+04  0.25266592051E+04  0.25500000920E-02 0.  1.
    10030    2    1    2    0    0  0.00000000000E+00  0.00000000000E+00 -0.10889206122E+04  0.39643977981E+04  0.38119157653E+04 0.  0.
        5    1    3    3  502    0  0.62647949788E+03  0.93264596531E+03 -0.21456397811E+04  0.24220027288E+04  0.46999998093E+01 0.  1.
       -5    1    3    3    0  502 -0.62647949788E+03 -0.93264596531E+03  0.10567191689E+04  0.15423950693E+04  0.46999998093E+01 0. -1.
</event>
<event>
 5   0  0.7731706E-08  0.3625170E+04  0.7818609E-02  0.8084750E-01
       -1   -1    0    0    0  501  0.00000000000E+00  0.00000000000E+00  0.20394150302E+04  0.20394150302E+04  0.50400001928E-02 0.  1.
        1   -1    0    0  501    0  0.00000000000E+00  0.00000000000E+00 -0.16109835545E+04  0.16109835545E+04  0.50400001928E-02 0. -1.
    10030    2    1    2    0    0  0.00000000000E+00  0.00000000000E+00  0.42843147565E+03  0.36503985847E+04  0.36251698302E+04 0.  0.
        3    1    3    3  502    0  0.15002542360E+04  0.33852634521E+02  0.12379300797E+04  0.19453482120E+04  0.10100000352E+00 0.  1.
       -3    1    3    3    0  502 -0.15002542360E+04 -0.33852634521E+02 -0.80949860401E+03  0.17050503727E+04  0.10100000352E+00 0. -1.
</event>
<event>
 5   0  0.7731706E-08  0.3889407E+04  0.7818609E-02  0.8027236E-01
       -1   -1    0    0    0  501  0.00000000000E+00  0.00000000000E+00  0.15924116510E+04  0.15924116510E+04  0.50400001928E-02 0. -1.
        1   -1    0    0  501    0  0.00000000000E+00  0.00000000000E+00 -0.23749337081E+04  0.23749337081E+04  0.50400001928E-02 0.  1.
    10030    2    1    2    0    0  0.00000000000E+00  0.00000000000E+00 -0.78252205706E+03  0.39673453591E+04  0.38894072079E+04 0.  0.
        3    1    3    3  502    0 -0.17842058588E+03  0.75578869345E+03 -0.22099133174E+04  0.23423849673E+04  0.10100000352E+00 0.  1.
       -3    1    3    3    0  502  0.17842058588E+03 -0.75578869345E+03  0.14273912603E+04  0.16249603918E+04  0.10100000352E+00 0. -1.
</event>
<event>
 5   0  0.7731706E-08  0.4516373E+04  0.7818609E-02  0.7907777E-01
        1   -1    0    0  501    0  0.00000000000E+00  0.00000000000E+00  0.31255064060E+04  0.31255064060E+04  0.50400001928E-02 0. -1.
       -1   -1    0    0    0  501  0.00000000000E+00  0.00000000000E+00 -0.16315457694E+04  0.16315457694E+04  0.50400001928E-02 0.  1.
    10030    2    1    2    0    0  0.00000000000E+00  0.00000000000E+00  0.14939606366E+04  0.47570521755E+04  0.45163732149E+04 0.  0.
        3    1    3    3  502    0  0.16607145288E+04  0.39742316611E+03  0.23033887628E+04  0.28673189084E+04  0.10100000352E+00 0. -1.
       -3    1    3    3    0  502 -0.16607145288E+04 -0.39742316611E+03 -0.80942812624E+03  0.18897332671E+04  0.10100000352E+00 0.  1.
</event>
<event>
 5   0  0.7675750E-08  0.3907933E+04  0.7818609E-02  0.8023381E-01
        1   -1    0    0  501    0  0.00000000000E+00  0.00000000000E+00  0.24975597248E+04  0.24975597248E+04  0.50400001928E-02 0.  1.
       -1   -1    0    0    0  501  0.00000000000E+00  0.00000000000E+00 -0.15286864558E+04  0.15286864558E+04  0.50400001928E-02 0. -1.
    10030    2    1    2    0    0  0.00000000000E+00  0.00000000000E+00  0.96887326895E+03  0.40262461806E+04  0.39079333280E+04 0.  0.
        2    1    3    3  502    0 -0.41550627169E+03 -0.33603254046E+03  0.24208117585E+04  0.24790911440E+04  0.25500000920E-02 0.  1.
       -2    1    3    3    0  502  0.41550627169E+03  0.33603254046E+03 -0.14519384895E+04  0.15471550367E+04  0.25500000920E-02 0. -1.
</event>
<event>
 5   0  0.7675750E-08  0.3846741E+04  0.7818609E-02  0.8036198E-01
        1   -1    0    0  501    0  0.00000000000E+00  0.00000000000E+00  0.21962526688E+04  0.21962526688E+04  0.50400001928E-02 0. -1.
       -1   -1    0    0    0  501  0.00000000000E+00  0.00000000000E+00 -0.16843935386E+04  0.16843935386E+04  0.50400001928E-02 0.  1.
    10030    2    1    2    0    0  0.00000000000E+00  0.00000000000E+00  0.51185913026E+03  0.38806462074E+04  0.38467408566E+04 0.  0.
        5    1    3    3  502    0 -0.44544237707E+03  0.11095613312E+04 -0.12639305579E+04  0.17398528111E+04  0.46999998093E+01 0.  1.
       -5    1    3    3    0  502  0.44544237707E+03 -0.11095613312E+04  0.17757896882E+04  0.21407933963E+04  0.46999998093E+01 0. -1.
</event>
<event>
 5   0  0.2486268E-07  0.3861769E+04  0.7818609E-02  0.8033028E-01
       -2   -1    0    0    0  501  0.00000000000E+00  0.00000000000E+00  0.24637616230E+04  0.24637616230E+04  0.25500000920E-02 0.  1.
        2   -1    0    0  501    0  0.00000000000E+00  0.00000000000E+00 -0.15132616024E+04  0.15132616024E+04  0.25500000920E-02 0. -1.
    10030    2    1    2    0    0  0.00000000000E+00  0.00000000000E+00  0.95050002067E+03  0.39770232254E+04  0.38617694709E+04 0.  0.
        5    1    3    3  502    0  0.15579215399E+04  0.14484309972E+03  0.16404750234E+04  0.22669978916E+04  0.46999998093E+01 0.  1.
       -5    1    3    3    0  502 -0.15579215399E+04 -0.14484309972E+03 -0.68997500270E+03  0.17100253338E+04  0.46999998093E+01 0. -1.
</event>
<event>
 5   0  0.2446281E-07  0.3927254E+04  0.7818609E-02  0.8019385E-01
       -2   -1    0    0    0  501  0.00000000000E+00  0.00000000000E+00  0.16212509476E+04  0.16212509476E+04  0.25500000920E-02 0.  1.
        2   -1    0    0  501    0  0.00000000000E+00  0.00000000000E+00 -0.23783064836E+04  0.23783064836E+04  0.25500000920E-02 0. -1.
    10030    2    1    2    0    0  0.00000000000E+00  0.00000000000E+00 -0.75705553594E+03  0.39995574312E+04  0.39272543285E+04 0.  0.
        1    1    3    3  502    0  0.24012618638E+02 -0.18807667466E+04 -0.95279891156E+03  0.21084795296E+04  0.50400001928E-02 0.  1.
       -1    1    3    3    0  502 -0.24012618638E+02  0.18807667466E+04  0.19574337562E+03  0.18910779016E+04  0.50400001928E-02 0. -1.
</event>
<event>
 5   0  0.7675750E-08  0.3936963E+04  0.7818609E-02  0.8017385E-01
       -1   -1    0    0    0  501  0.00000000000E+00  0.00000000000E+00  0.16555736461E+04  0.16555736462E+04  0.50400001928E-02 0.  1.
        1   -1    0    0  501    0  0.00000000000E+00  0.00000000000E+00 -0.23405303066E+04  0.23405303066E+04  0.50400001928E-02 0. -1.
    10030    2    1    2    0    0  0.00000000000E+00  0.00000000000E+00 -0.68495666045E+03  0.39961039528E+04  0.39369634459E+04 0.  0.
        1    1    3    3  502    0  0.13442062565E+04 -0.29918399724E+03  0.10852496871E+04  0.17533306612E+04  0.50400001928E-02 0.  1.
       -1    1    3    3    0  502 -0.13442062565E+04  0.29918399724E+03 -0.17702063476E+04  0.22427732915E+04  0.50400001928E-02 0. -1.
</event>
<event>
 5   0  0.2384787E-07  0.3911082E+04  0.7818609E-02  0.8022728E-01
        2   -1    0    0  501    0  0.00000000000E+00  0.00000000000E+00  0.34151011493E+04  0.34151011493E+04  0.25500000920E-02 0.  1.
       -2   -1    0    0    0  501  0.00000000000E+00  0.00000000000E+00 -0.11197738337E+04  0.11197738337E+04  0.25500000920E-02 0. -1.
    10030    2    1    2    0    0  0.00000000000E+00  0.00000000000E+00  0.22953273156E+04  0.45348749830E+04  0.39110821554E+04 0.  0.
        4    1    3    3  502    0 -0.82519613056E+03  0.14992774807E+04  0.50512007495E+02  0.17121141007E+04  0.12699999809E+01 0. -1.
       -4    1    3    3    0  502  0.82519613056E+03 -0.14992774807E+04  0.22448153081E+04  0.28227608823E+04  0.12699999809E+01 0.  1.
</event>
<event>
 5   0  0.2395572E-07  0.3902602E+04  0.7818609E-02  0.8024488E-01
       -2   -1    0    0    0  501  0.00000000000E+00  0.00000000000E+00  0.16392396211E+04  0.16392396211E+04  0.25500000920E-02 0.  1.
        2   -1    0    0  501    0  0.00000000000E+00  0.00000000000E+00 -0.23227697461E+04  0.23227697461E+04  0.25500000920E-02 0. -1.
    10030    2    1    2    0    0  0.00000000000E+00  0.00000000000E+00 -0.68353012498E+03  0.39620093672E+04  0.39026023105E+04 0.  0.
        3    1    3    3  502    0 -0.81252766727E+03  0.13656401365E+04  0.80790518744E+03  0.17826623333E+04  0.10100000352E+00 0.  1.
       -3    1    3    3    0  502  0.81252766727E+03 -0.13656401365E+04 -0.14914353124E+04  0.21793470338E+04  0.10100000352E+00 0. -1.
</event>
<event>
 5   0  0.7731706E-08  0.3794994E+04  0.7818609E-02  0.8047230E-01
       -1   -1    0    0    0  501  0.00000000000E+00  0.00000000000E+00  0.21826795165E+04  0.21826795165E+04  0.50400001928E-02 0.  1.
        1   -1    0    0  501    0  0.00000000000E+00  0.00000000000E+00 -0.16495752345E+04  0.16495752345E+04  0.50400001928E-02 0. -1.
    10030    2    1    2    0    0  0.00000000000E+00  0.00000000000E+00  0.53310428196E+03  0.38322547510E+04  0.37949935838E+04 0.  0.
        3    1    3    3  502    0 -0.58478400320E+03  0.77327507520E+03  0.19136919266E+04  0.21452607003E+04  0.10100000352E+00 0.  1.
       -3    1    3    3    0  502  0.58478400320E+03 -0.77327507520E+03 -0.13805876446E+04  0.16869940507E+04  0.10100000352E+00 0. -1.
</event>
<event>
 5   0  0.7675750E-08  0.3840317E+04  0.7818609E-02  0.8037558E-01
        1   -1    0    0  501    0  0.00000000000E+00  0.00000000000E+00  0.21729892999E+04  0.21729892999E+04  0.50400001928E-02 0. -1.
       -1   -1    0    0    0  501  0.00000000000E+00  0.00000000000E+00 -0.16967447117E+04  0.16967447117E+04  0.50400001928E-02 0.  1.
    10030    2    1    2    0    0  0.00000000000E+00  0.00000000000E+00  0.47624458817E+03  0.38697340116E+04  0.38403167073E+04 0.  0.
        5    1    3    3  502    0 -0.10243651061E+04 -0.16161675577E+04  0.76693482206E+02  0.19150001111E+04  0.46999998093E+01 0.  1.
       -5    1    3    3    0  502  0.10243651061E+04  0.16161675577E+04  0.39955110597E+03  0.19547339005E+04  0.46999998093E+01 0. -1.
</event>
<event>
 5   0  0.7675750E-08  0.3924685E+04  0.7818609E-02  0.8019915E-01
        1   -1    0    0  501    0  0.00000000000E+00  0.00000000000E+00  0.11052672679E+04  0.11052672679E+04  0.50400001928E-02 0.  1.
       -1   -1    0    0    0  501  0.00000000000E+00  0.00000000000E+00 -0.34840337042E+04  0.34840337042E+04  0.50400001928E-02 0. -1.
    10030    2    1    2    0    0  0.00000000000E+00  0.00000000000E+00 -0.23787664363E+04  0.45893009721E+04  0.39246851663E+04 0.  0.
        4    1    3    3  502    0 -0.55195814727E+03  0.26778180936E+03 -0.33690143065E+04  0.34244158486E+04  0.12699999809E+01 0. -1.
       -4    1    3    3    0  502  0.55195814727E+03 -0.26778180936E+03  0.99024787017E+03  0.11648851235E+04  0.12699999809E+01 0.  1.
</event>
<event>
 5   0  0.2395572E-07  0.3930186E+04  0.7818609E-02  0.8018780E-01
        2   -1    0    0  501    0  0.00000000000E+00  0.00000000000E+00  0.24449887081E+04  0.24449887081E+04  0.25500000920E-02 0.  1.
       -2   -1    0    0    0  501  0.00000000000E+00  0.00000000000E+00 -0.15793898053E+04  0.15793898053E+04  0.25500000920E-02 0. -1.
    10030    2    1    2    0    0  0.00000000000E+00  0.00000000000E+00  0.86559890281E+03  0.40243785134E+04  0.39301858682E+04 0.  0.
        3    1    3    3  502    0  0.13513233254E+04  0.10206129046E+04 -0.58802105649E+03  0.17926221587E+04  0.10100000352E+00 0. -1.
       -3    1    3    3    0  502 -0.13513233254E+04 -0.10206129046E+04  0.14536199593E+04  0.22317563547E+04  0.10100000352E+00 0.  1.
</event>
<event>
 5   0  0.2473224E-07  0.3864525E+04  0.7818609E-02  0.8032448E-01
        2   -1    0    0  501    0  0.00000000000E+00  0.00000000000E+00  0.26357702989E+04  0.26357702989E+04  0.25500000920E-02 0.  1.
       -2   -1    0    0    0  501  0.00000000000E+00  0.00000000000E+00 -0.14165262884E+04  0.14165262884E+04  0.25500000920E-02 0. -1.
    10030    2    1    2    0    0  0.00000000000E+00  0.00000000000E+00  0.12192440105E+04  0.40522965873E+04  0.38645247669E+04 0.  0.
        2    1    3    3  502    0  0.83462086297E+02 -0.18778268225E+04  0.14016522292E+03  0.18848994098E+04  0.25500000920E-02 0. -1.
       -2    1    3    3    0  502 -0.83462086297E+02  0.18778268225E+04  0.10790787876E+04  0.21673971775E+04  0.25500000920E-02 0.  1.
</event>
<event>
 5   0  0.2395572E-07  0.3880794E+04  0.7818609E-02  0.8029036E-01
        2   -1    0    0  501    0  0.00000000000E+00  0.00000000000E+00  0.34440345074E+04  0.34440345074E+04  0.25500000920E-02 0. -1.
       -2   -1    0    0    0  501  0.00000000000E+00  0.00000000000E+00 -0.10932354172E+04  0.10932354172E+04  0.25500000920E-02 0.  1.
    10030    2    1    2    0    0  0.00000000000E+00  0.00000000000E+00  0.23507990902E+04  0.45372699246E+04  0.38807939918E+04 0.  0.
        3    1    3    3  502    0  0.36542385972E+03 -0.16461337331E+04  0.22979453453E+04  0.28502357244E+04  0.10100000352E+00 0. -1.
       -3    1    3    3    0  502 -0.36542385972E+03  0.16461337331E+04  0.52853744895E+02  0.16870342003E+04  0.10100000352E+00 0.  1.
</event>
<event>
 5   0  0.2473224E-07  0.4015101E+04  0.7818609E-02  0.8001507E-01
        2   -1    0    0  501    0  0.00000000000E+00  0.00000000000E+00  0.22796126524E+04  0.22796126524E+04  0.25500000920E-02 0. -1.
       -2   -1    0    0    0  501  0.00000000000E+00  0.00000000000E+00 -0.17679580268E+04  0.17679580268E+04  0.25500000920E-02 0.  1.
    10030    2    1    2    0    0  0.00000000000E+00  0.00000000000E+00  0.51165462559E+03  0.40475706792E+04  0.40151012375E+04 0.  0.
        2    1    3    3  502    0 -0.11872390550E+04  0.28718930486E+03 -0.13502436462E+04  0.18207614272E+04  0.25500000920E-02 0.  1.
       -2    1    3    3    0  502  0.11872390550E+04 -0.28718930486E+03  0.18618982718E+04  0.22268092520E+04  0.25500000920E-02 0. -1.
</event>
<event>
 5   0  0.2395572E-07  0.3936767E+04  0.7818609E-02  0.8017425E-01
       -2   -1    0    0    0  501  0.00000000000E+00  0.00000000000E+00  0.16144635148E+04  0.16144635148E+04  0.25500000920E-02 0. -1.
        2   -1    0    0  501    0  0.00000000000E+00  0.00000000000E+00 -0.23998897827E+04  0.23998897827E+04  0.25500000920E-02 0.  1.
    10030    2    1    2    0    0  0.00000000000E+00  0.00000000000E+00 -0.78542626790E+03  0.40143532975E+04  0.39367674525E+04 0.  0.
        3    1    3    3  502    0  0.71484328001E+03  0.13727083540E+04  0.84748211562E+03  0.17645268733E+04  0.10100000352E+00 0. -1.
       -3    1    3    3    0  502 -0.71484328001E+03 -0.13727083540E+04 -0.16329083835E+04  0.22498264242E+04  0.10100000352E+00 0.  1.
</event>
<event>
 5   0  0.2486268E-07  0.3641567E+04  0.7818609E-02  0.8081036E-01
       -2   -1    0    0    0  501  0.00000000000E+00  0.00000000000E+00  0.17308545150E+04  0.17308545150E+04  0.25500000920E-02 0. -1.
        2   -1    0    0  501    0  0.00000000000E+00  0.00000000000E+00 -0.19153843756E+04  0.19153843756E+04  0.25500000920E-02 0.  1.
    10030    2    1    2    0    0  0.00000000000E+00  0.00000000000E+00 -0.18452986058E+03  0.36462388905E+04  0.36415665279E+04 0.  0.
        5    1    3    3  502    0  0.23737528911E+03  0.34046028139E+03  0.16828519133E+04  0.17332838438E+04  0.46999998093E+01 0. -1.
       -5    1    3    3    0  502 -0.23737528911E+03 -0.34046028139E+03 -0.18673817739E+04  0.19129550467E+04  0.46999998093E+01 0.  1.
</event>
<event>
 5   0  0.2384787E-07  0.3900514E+04  0.7818609E-02  0.8024922E-01
        2   -1    0    0  501    0  0.00000000000E+00  0.00000000000E+00  0.30903263923E+04  0.30903263923E+04  0.25500000920E-02 0. -1.
       -2   -1    0    0    0  501  0.00000000000E+00  0.00000000000E+00 -0.12307770073E+04  0.12307770073E+04  0.25500000920E-02 0.  1.
    10030    2    1    2    0    0  0.00000000000E+00  0.00000000000E+00  0.18595493850E+04  0.43211033996E+04  0.39005141552E+04 0.  0.
        4    1    3    3  502    0  0.15859028649E+04  0.99421971950E+03  0.15364973549E+04  0.24216495374E+04  0.12699999809E+01 0. -1.
       -4    1    3    3    0  502 -0.15859028649E+04 -0.99421971950E+03  0.32305203006E+03  0.18994538622E+04  0.12699999809E+01 0.  1.
</event>
<event>
 5   0  0.2384787E-07  0.3686664E+04  0.7818609E-02  0.8070924E-01
       -2   -1    0    0    0  501  0.00000000000E+00  0.00000000000E+00  0.21059773657E+04  0.21059773657E+04  0.25500000920E-02 0. -1.
        2   -1    0    0  501    0  0.00000000000E+00  0.00000000000E+00 -0.16134420593E+04  0.16134420593E+04  0.25500000920E-02 0.  1.
    10030    2    1    2    0    0  0.00000000000E+00  0.00000000000E+00  0.49253530643E+03  0.37194194250E+04  0.36866637806E+04 0.  0.
        4    1    3    3  502    0  0.99843598718E+03  0.17841882696E+03 -0.13066166741E+04  0.16540726841E+04  0.12699999809E+01 0.  1.
       -4    1    3    3    0  502 -0.99843598718E+03 -0.17841882696E+03  0.17991519805E+04  0.20653467409E+04  0.12699999809E+01 0. -1.
</event>
<event>
 5   0  0.7675750E-08  0.3863083E+04  0.7818609E-02  0.8032751E-01
        1   -1    0    0  501    0  0.00000000000E+00  0.00000000000E+00  0.18740192997E+04  0.18740192997E+04  0.50400001928E-02 0.  1.
       -1   -1    0    0    0  501  0.00000000000E+00  0.00000000000E+00 -0.19908289620E+04  0.19908289620E+04  0.50400001928E-02 0. -1.
    10030    2    1    2    0    0  0.00000000000E+00  0.00000000000E+00 -0.11680966231E+03  0.38648482617E+04  0.38630826536E+04 0.  0.
        1    1    3    3  502    0  0.19125398003E+04  0.23817357739E+03 -0.18620027215E+03  0.19362865703E+04  0.50400001928E-02 0. -1.
       -1    1    3    3    0  502 -0.19125398003E+04 -0.23817357739E+03  0.69390609840E+02  0.19285616914E+04  0.50400001928E-02 0.  1.
</event>
<event>
 5   0  0.2473224E-07  0.3909930E+04  0.7818609E-02  0.8022967E-01
       -2   -1    0    0    0  501  0.00000000000E+00  0.00000000000E+00  0.23443388119E+04  0.23443388119E+04  0.25500000920E-02 0. -1.
        2   -1    0    0  501    0  0.00000000000E+00  0.00000000000E+00 -0.16302628865E+04  0.16302628865E+04  0.25500000920E-02 0.  1.
    10030    2    1    2    0    0  0.00000000000E+00  0.00000000000E+00  0.71407592537E+03  0.39746016984E+04  0.39099302083E+04 0.  0.
        2    1    3    3  502    0 -0.19061275882E+04  0.35827879375E+03  0.60645826749E+03  0.20321116374E+04  0.25500000920E-02 0. -1.
       -2    1    3    3    0  502  0.19061275882E+04 -0.35827879375E+03  0.10761765789E+03  0.19424900610E+04  0.25500000920E-02 0.  1.
</event>
<event>
 5   0  0.7675750E-08  0.3889820E+04  0.7818609E-02  0.8027150E-01
       -1   -1    0    0    0  501  0.00000000000E+00  0.00000000000E+00  0.12494062570E+04  0.12494062570E+04  0.50400001928E-02 0. -1.
        1   -1    0    0  501    0  0.00000000000E+00  0.00000000000E+00 -0.30275774603E+04  0.30275774603E+04  0.50400001928E-02 0.  1.
    10030    2    1    2    0    0  0.00000000000E+00  0.00000000000E+00 -0.17781712033E+04  0.42769837174E+04  0.38898196475E+04 0.  0.
        5    1    3    3  502    0  0.12351486710E+04  0.10513913451E+04 -0.20690414917E+04  0.26290627197E+04  0.46999998093E+01 0.  1.
       -5    1    3    3    0  502 -0.12351486710E+04 -0.10513913451E+04  0.29087028836E+03  0.16479209977E+04  0.46999998093E+01 0. -1.
</event>
<event>
 5   0  0.7675750E-08  0.3910851E+04  0.7818609E-02  0.8022776E-01
       -1   -1    0    0    0  501  0.00000000000E+00  0.00000000000E+00  0.17546388623E+04  0.17546388623E+04  0.50400001928E-02 0.  1.
        1   -1    0    0  501    0  0.00000000000E+00  0.00000000000E+00 -0.21791890349E+04  0.21791890349E+04  0.50400001928E-02 0. -1.
    10030    2    1    2    0    0  0.00000000000E+00  0.00000000000E+00 -0.42455017262E+03  0.39338278973E+04  0.39108514516E+04 0.  0.
        1    1    3    3  502    0 -0.11899724823E+04 -0.41312990778E+03  0.12921652999E+04  0.18045503572E+04  0.50400001928E-02 0.  1.
       -1    1    3    3    0  502  0.11899724823E+04  0.41312990778E+03 -0.17167154725E+04  0.21292775401E+04  0.50400001928E-02 0. -1.
</event>
<event>
 5   0  0.7675750E-08  0.3884338E+04  0.7818609E-02  0.8028294E-01
        1   -1    0    0  501    0  0.00000000000E+00  0.00000000000E+00  0.17497802900E+04  0.17497802900E+04  0.50400001928E-02 0.  1.
       -1   -1    0    0    0  501  0.00000000000E+00  0.00000000000E+00 -0.21557112495E+04  0.21557112495E+04  0.50400001928E-02 0. -1.
    10030    2    1    2    0    0  0.00000000000E+00  0.00000000000E+00 -0.40593095946E+03  0.39054915395E+04  0.38843383248E+04 0.  0.
        5    1    3    3  502    0 -0.58510797999E+03 -0.37506226435E+03  0.16204641103E+04  0.17632212207E+04  0.46999998093E+01 0.  1.
       -5    1    3    3    0  502  0.58510797999E+03  0.37506226435E+03 -0.20263950697E+04  0.21422703189E+04  0.46999998093E+01 0. -1.
</event>
<event>
 5   0  0.2446281E-07  0.3926097E+04  0.7818609E-02  0.8019623E-01
        2   -1    0    0  501    0  0.00000000000E+00  0.00000000000E+00  0.21847764200E+04  0.21847764200E+04  0.25500000920E-02 0.  1.
       -2   -1    0    0    0  501  0.00000000000E+00  0.00000000000E+00 -0.17638235563E+04  0.17638235563E+04  0.25500000920E-02 0. -1.
    10030    2    1    2    0    0  0.00000000000E+00  0.00000000000E+00  0.42095286373E+03  0.39485999763E+04  0.39260973573E+04 0.  0.
        1    1    3    3  502    0 -0.65199173676E+03  0.46528557618E+03  0.20129472182E+04  0.21664580299E+04  0.50400001928E-02 0.  1.
       -1    1    3    3    0  502  0.65199173676E+03 -0.46528557618E+03 -0.15919943545E+04  0.17821419463E+04  0.50400001928E-02 0. -1.
</event>
<event>
 5   0  0.2395572E-07  0.3810082E+04  0.7818609E-02  0.8043995E-01
       -2   -1    0    0    0  501  0.00000000000E+00  0.00000000000E+00  0.15279599475E+04  0.15279599475E+04  0.25500000920E-02 0.  1.
        2   -1    0    0  501    0  0.00000000000E+00  0.00000000000E+00 -0.23751805154E+04  0.23751805154E+04  0.25500000920E-02 0. -1.
    10030    2    1    2    0    0  0.00000000000E+00  0.00000000000E+00 -0.84722056784E+03  0.39031404629E+04  0.38100817291E+04 0.  0.
        3    1    3    3  502    0  0.31607440551E+03  0.10309895675E+04 -0.20324256320E+04  0.23007817102E+04  0.10100000352E+00 0. -1.
       -3    1    3    3    0  502 -0.31607440551E+03 -0.10309895675E+04  0.11852050641E+04  0.16023587527E+04  0.10100000352E+00 0.  1.
</event>
<event>
 5   0  0.2486268E-07  0.3902021E+04  0.7818609E-02  0.8024609E-01
        2   -1    0    0  501    0  0.00000000000E+00  0.00000000000E+00  0.23333189939E+04  0.23333189939E+04  0.25500000920E-02 0.  1.
       -2   -1    0    0    0  501  0.00000000000E+00  0.00000000000E+00 -0.16313426861E+04  0.16313426861E+04  0.25500000920E-02 0. -1.
    10030    2    1    2    0    0  0.00000000000E+00  0.00000000000E+00  0.70197630771E+03  0.39646616800E+04  0.39020214633E+04 0.  0.
        5    1    3    3  502    0 -0.67103092302E+03  0.16882522120E+04  0.10737033218E+04  0.21102935682E+04  0.46999998093E+01 0.  1.
       -5    1    3    3    0  502  0.67103092302E+03 -0.16882522120E+04 -0.37172701406E+03  0.18543681118E+04  0.46999998093E+01 0. -1.
</event>
<event>
 5   0  0.7675750E-08  0.3886313E+04  0.7818609E-02  0.8027882E-01
        1   -1    0    0  501    0  0.00000000000E+00  0.00000000000E+00  0.18917619385E+04  0.18917619385E+04  0.50400001928E-02 0.  1.
       -1   -1    0    0    0  501  0.00000000000E+00  0.00000000000E+00 -0.19959470185E+04  0.19959470185E+04  0.50400001928E-02 0. -1.
    10030    2    1    2    0    0  0.00000000000E+00  0.00000000000E+00 -0.10418508001E+03  0.38877089569E+04  0.38863127001E+04 0.  0.
        5    1    3    3  502    0 -0.50899963335E+03  0.97233662995E+03  0.15520157216E+04  0.19008666547E+04  0.46999998093E+01 0.  1.
       -5    1    3    3    0  502  0.50899963335E+03 -0.97233662995E+03 -0.16562008016E+04  0.19868423023E+04  0.46999998093E+01 0. -1.
</event>
<event>
 5   0  0.2395572E-07  0.3891320E+04  0.7818609E-02  0.8026837E-01
        2   -1    0    0  501    0  0.00000000000E+00  0.00000000000E+00  0.18836400665E+04  0.18836400665E+04  0.25500000920E-02 0. -1.
       -2   -1    0    0    0  501  0.00000000000E+00  0.00000000000E+00 -0.20097219345E+04  0.20097219345E+04  0.25500000920E-02 0.  1.
    10030    2    1    2    0    0  0.00000000000E+00  0.00000000000E+00 -0.12608186800E+03  0.38933620010E+04  0.38913199603E+04 0.  0.
        3    1    3    3  502    0 -0.53995729376E+03  0.14710679442E+02  0.18071168991E+04  0.18861181777E+04  0.10100000352E+00 0. -1.
       -3    1    3    3    0  502  0.53995729376E+03 -0.14710679442E+02 -0.19331987671E+04  0.20072438233E+04  0.10100000352E+00 0.  1.
</event>
<event>
 5   0  0.2384787E-07  0.3844571E+04  0.7818609E-02  0.8036657E-01
       -2   -1    0    0    0  501  0.00000000000E+00  0.00000000000E+00  0.22277793648E+04  0.22277793648E+04  0.25500000920E-02 0.  1.
        2   -1    0    0  501    0  0.00000000000E+00  0.00000000000E+00 -0.16586834775E+04  0.16586834775E+04  0.25500000920E-02 0. -1.
    10030    2    1    2    0    0  0.00000000000E+00  0.00000000000E+00  0.56909588732E+03  0.38864628423E+04  0.38445706256E+04 0.  0.
        4    1    3    3  502    0 -0.17814767677E+04  0.68313355256E+03  0.52129697353E+03  0.19778986506E+04  0.12699999809E+01 0.  1.
       -4    1    3    3    0  502  0.17814767677E+04 -0.68313355256E+03  0.47798913787E+02  0.19085641917E+04  0.12699999809E+01 0. -1.
</event>
<event>
 5   0  0.2486268E-07  0.3939663E+04  0.7818609E-02  0.8016830E-01
        2   -1    0    0  501    0  0.00000000000E+00  0.00000000000E+00  0.14927013936E+04  0.14927013936E+04  0.25500000920E-02 0. -1.
       -2   -1    0    0    0  501  0.00000000000E+00  0.00000000000E+00 -0.25994724139E+04  0.25994724139E+04  0.25500000920E-02 0.  1.
    10030    2    1    2    0    0  0.00000000000E+00  0.00000000000E+00 -0.11067710204E+04  0.40921738075E+04  0.39396629779E+04 0.  0.
        5    1    3    3  502    0  0.55611554077E+03  0.35751396541E+02 -0.25158830305E+04  0.25768647947E+04  0.46999998093E+01 0.  1.
       -5    1    3    3    0  502 -0.55611554077E+03 -0.35751396541E+02  0.14091120102E+04  0.15153090128E+04  0.46999998093E+01 0. -1.
</event>
<event>
 5   0  0.7675750E-08  0.3426452E+04  0.7818609E-02  0.8131445E-01
        1   -1    0    0  501    0  0.00000000000E+00  0.00000000000E+00  0.14508301290E+04  0.14508301290E+04  0.50400001928E-02 0. -1.
       -1   -1    0    0    0  501  0.00000000000E+00  0.00000000000E+00 -0.20230780927E+04  0.20230780927E+04  0.50400001928E-02 0.  1.
    10030    2    1    2    0    0  0.00000000000E+00  0.00000000000E+00 -0.57224796371E+03  0.34739082217E+04  0.34264516049E+04 0.  0.
        5    1    3    3  502    0 -0.11377536047E+04 -0.23920956324E+03  0.98964272324E+03  0.15268003438E+04  0.46999998093E+01 0. -1.
       -5    1    3    3    0  502  0.11377536047E+04  0.23920956324E+03 -0.15618906869E+04  0.19471078779E+04  0.46999998093E+01 0.  1.
</event>
<event>
 5   0  0.2395572E-07  0.3858323E+04  0.7818609E-02  0.8033753E-01
        2   -1    0    0  501    0  0.00000000000E+00  0.00000000000E+00  0.16617898385E+04  0.16617898386E+04  0.25500000920E-02 0. -1.
       -2   -1    0    0    0  501  0.00000000000E+00  0.00000000000E+00 -0.22395520153E+04  0.22395520153E+04  0.25500000920E-02 0.  1.
    10030    2    1    2    0    0  0.00000000000E+00  0.00000000000E+00 -0.57776217678E+03  0.39013418539E+04  0.38583233571E+04 0.  0.
        3    1    3    3  502    0  0.18347404849E+03 -0.15792583383E+04 -0.13937419055E+04  0.21142932945E+04  0.10100000352E+00 0.  1.
       -3    1    3    3    0  502 -0.18347404849E+03  0.15792583383E+04  0.81597972874E+03  0.17870485594E+04  0.10100000352E+00 0. -1.
</event>
<event>
 5   0  0.2446281E-07  0.4068070E+04  0.7818609E-02  0.7990954E-01
        2   -1    0    0  501    0  0.00000000000E+00  0.00000000000E+00  0.12892153700E+04  0.12892153700E+04  0.25500000920E-02 0. -1.
       -2   -1    0    0    0  501  0.00000000000E+00  0.00000000000E+00 -0.32091596482E+04  0.32091596483E+04  0.25500000920E-02 0.  1.
    10030    2    1    2    0    0  0.00000000000E+00  0.00000000000E+00 -0.19199442782E+04  0.44983750183E+04  0.40680697848E+04 0.  0.
        1    1    3    3  502    0 -0.75844938845E+03 -0.41461230127E+03  0.10760226605E+04  0.13802078109E+04  0.50400001928E-02 0. -1.
       -1    1    3    3    0  502  0.75844938845E+03  0.41461230127E+03 -0.29959669388E+04  0.31181672074E+04  0.50400001928E-02 0.  1.
</event>
<event>
 5   0  0.2384787E-07  0.3882397E+04  0.7818609E-02  0.8028700E-01
        2   -1    0    0  501    0  0.00000000000E+00  0.00000000000E+00  0.35104984937E+04  0.35104984938E+04  0.25500000920E-02 0. -1.
       -2   -1    0    0    0  501  0.00000000000E+00  0.00000000000E+00 -0.10734232996E+04  0.10734232996E+04  0.25500000920E-02 0.  1.
    10030    2    1    2    0    0  0.00000000000E+00  0.00000000000E+00  0.24370751942E+04  0.45839217933E+04  0.38823966188E+04 0.  0.
        4    1    3    3  502    0  0.67048853544E+03  0.66575069292E+03  0.32206651864E+04  0.33564065184E+04  0.12699999809E+01 0. -1.
       -4    1    3    3    0  502 -0.67048853544E+03 -0.66575069292E+03 -0.78358999222E+03  0.12275152749E+04  0.12699999809E+01 0.  1.
</event>
<event>
 5   0  0.2446281E-07  0.3880532E+04  0.7818609E-02  0.8029090E-01
        2   -1    0    0  501    0  0.00000000000E+00  0.00000000000E+00  0.22007269580E+04  0.22007269580E+04  0.25500000920E-02 0. -1.
       -2   -1    0    0    0  501  0.00000000000E+00  0.00000000000E+00 -0.17106314629E+04  0.17106314629E+04  0.25500000920E-02 0.  1.
    10030    2    1    2    0    0  0.00000000000E+00  0.00000000000E+00  0.49009549507E+03  0.39113584208E+04  0.38805323220E+04 0.  0.
        1    1    3    3  502    0 -0.13492559967E+04 -0.13603301692E+04 -0.63394349755E+02  0.19170312354E+04  0.50400001928E-02 0. -1.
       -1    1    3    3    0  502  0.13492559967E+04  0.13603301692E+04  0.55348984483E+03  0.19943271854E+04  0.50400001928E-02 0.  1.
</event>
<event>
 5   0  0.2395572E-07  0.3516742E+04  0.7818609E-02  0.8109834E-01
       -2   -1    0    0    0  501  0.00000000000E+00  0.00000000000E+00  0.22729709180E+04  0.22729709180E+04  0.25500000920E-02 0.  1.
        2   -1    0    0  501    0  0.00000000000E+00  0.00000000000E+00 -0.13602761285E+04  0.13602761285E+04  0.25500000920E-02 0. -1.
    10030    2    1    2    0    0  0.00000000000E+00  0.00000000000E+00  0.91269478954E+03  0.36332470464E+04  0.35167417195E+04 0.  0.
        3    1    3    3  502    0 -0.58738726307E+03 -0.62081928634E+03 -0.11312551307E+04  0.14178076612E+04  0.10100000352E+00 0. -1.
       -3    1    3    3    0  502  0.58738726307E+03  0.62081928634E+03  0.20439499202E+04  0.22154393853E+04  0.10100000352E+00 0.  1.
</event>
<event>
 5   0  0.2473224E-07  0.3874163E+04  0.7818609E-02  0.8030424E-01
        2   -1    0    0  501    0  0.00000000000E+00  0.00000000000E+00  0.26436021284E+04  0.26436021284E+04  0.25500000920E-02 0.  1.
       -2   -1    0    0    0  501  0.00000000000E+00  0.00000000000E+00 -0.14193835344E+04  0.14193835344E+04  0.25500000920E-02 0. -1.
    10030    2    1    2    0    0  0.00000000000E+00  0.00000000000E+00  0.12242185940E+04  0.40629856628E+04  0.38741633071E+04 0.  0.
        2    1    3    3  502    0 -0.46931564286E+03  0.18174020406E+04  0.11140576589E+04  0.21827349398E+04  0.25500000920E-02 0. -1.
       -2    1    3    3    0  502  0.46931564286E+03 -0.18174020406E+04  0.11016093513E+03  0.18802507231E+04  0.25500000920E-02 0.  1.
</event>
<event>
 5   0  0.2446281E-07  0.3734295E+04  0.7818609E-02  0.8060404E-01
        2   -1    0    0  501    0  0.00000000000E+00  0.00000000000E+00  0.30412301568E+04  0.30412301568E+04  0.25500000920E-02 0.  1.
       -2   -1    0    0    0  501  0.00000000000E+00  0.00000000000E+00 -0.11463254416E+04  0.11463254416E+04  0.25500000920E-02 0. -1.
    10030    2    1    2    0    0  0.00000000000E+00  0.00000000000E+00  0.18949047152E+04  0.41875555985E+04  0.37342948478E+04 0.  0.
        1    1    3    3  502    0  0.46767931507E+03 -0.42095402082E+03 -0.10238499687E+04  0.12017466404E+04  0.50400001928E-02 0. -1.
       -1    1    3    3    0  502 -0.46767931507E+03  0.42095402082E+03  0.29187546839E+04  0.29858089581E+04  0.50400001928E-02 0.  1.
</event>
<event>
 5   0  0.2473224E-07  0.3749804E+04  0.7818609E-02  0.8057013E-01
       -2   -1    0    0    0  501  0.00000000000E+00  0.00000000000E+00  0.21010489674E+04  0.21010489674E+04  0.25500000920E-02 0.  1.
        2   -1    0    0  501    0  0.00000000000E+00  0.00000000000E+00 -0.16730961161E+04  0.16730961161E+04  0.25500000920E-02 0. -1.
    10030    2    1    2    0    0  0.00000000000E+00  0.00000000000E+00  0.42795285126E+03  0.37741450835E+04  0.37498036573E+04 0.  0.
        2    1    3    3  502    0 -0.11434568446E+04  0.10565930817E+04  0.12654465519E+04  0.20062994471E+04  0.25500000920E-02 0.  1.
       -2    1    3    3    0  502  0.11434568446E+04 -0.10565930817E+04 -0.83749370064E+03  0.17678456364E+04  0.25500000920E-02 0. -1.
</event>
<event>
 5   0  0.7675750E-08  0.3848735E+04  0.7818609E-02  0.8035777E-01
       -1   -1    0    0    0  501  0.00000000000E+00  0.00000000000E+00  0.15369721311E+04  0.15369721311E+04  0.50400001928E-02 0. -1.
        1   -1    0    0  501    0  0.00000000000E+00  0.00000000000E+00 -0.24094063238E+04  0.24094063238E+04  0.50400001928E-02 0.  1.
    10030    2    1    2    0    0  0.00000000000E+00  0.00000000000E+00 -0.87243419268E+03  0.39463784549E+04  0.38487350505E+04 0.  0.
        1    1    3    3  502    0 -0.14056306459E+04  0.12359967048E+04 -0.89443831013E+03  0.20744891558E+04  0.50400001928E-02 0. -1.
       -1    1    3    3    0  502  0.14056306459E+04 -0.12359967048E+04  0.22004117448E+02  0.18718892991E+04  0.50400001928E-02 0.  1.
</event>
<event>
 5   0  0.7675750E-08  0.3834921E+04  0.7818609E-02  0.8038702E-01
        1   -1    0    0  501    0  0.00000000000E+00  0.00000000000E+00  0.22365627520E+04  0.22365627520E+04  0.50400001928E-02 0. -1.
       -1   -1    0    0    0  501  0.00000000000E+00  0.00000000000E+00 -0.16438862339E+04  0.16438862339E+04  0.50400001928E-02 0.  1.
    10030    2    1    2    0    0  0.00000000000E+00  0.00000000000E+00  0.59267651813E+03  0.38804489859E+04  0.38349209740E+04 0.  0.
        2    1    3    3  502    0 -0.71424212440E+03  0.14492271690E+04  0.13411927131E+04  0.20998092992E+04  0.25500000920E-02 0.  1.
       -2    1    3    3    0  502  0.71424212440E+03 -0.14492271690E+04 -0.74851619494E+03  0.17806396866E+04  0.25500000920E-02 0. -1.
</event>
<event>
 5   0  0.7675750E-08  0.3743687E+04  0.7818609E-02  0.8058349E-01
        1   -1    0    0  501    0  0.00000000000E+00  0.00000000000E+00  0.13989109265E+04  0.13989109265E+04  0.50400001928E-02 0.  1.
       -1   -1    0    0    0  501  0.00000000000E+00  0.00000000000E+00 -0.25046612071E+04  0.25046612071E+04  0.50400001928E-02 0. -1.
    10030    2    1    2    0    0  0.00000000000E+00  0.00000000000E+00 -0.11057502806E+04  0.39035721335E+04  0.37436869151E+04 0.  0.
        4    1    3    3  502    0  0.81400787089E+03  0.15231004525E+04 -0.13057597575E+04  0.21650528768E+04  0.12699999809E+01 0. -1.
       -4    1    3    3    0  502 -0.81400787089E+03 -0.15231004525E+04  0.20000947688E+03  0.17385192567E+04  0.12699999809E+01 0.  1.
</event>
<event>
 5   0  0.7675750E-08  0.3917340E+04  0.7818609E-02  0.8021432E-01
       -3   -1    0    0    0  501  0.00000000000E+00  0.00000000000E+00  0.22057675508E+04  0.22057675531E+04  0.10100000352E+00 0.  1.
        3   -1    0    0  501    0  0.00000000000E+00  0.00000000000E+00 -0.17392535661E+04  0.17392535690E+04  0.10100000352E+00 0. -1.
    10030    2    1    2    0    0  0.00000000000E+00  0.00000000000E+00  0.46651398473E+03  0.39450211221E+04  0.39173404697E+04 0.  0.
        3    1    3    3  502    0  0.19148438775E+04  0.25518667746E+03  0.55902657969E+03  0.20110340730E+04  0.10100000352E+00 0.  1.
       -3    1    3    3    0  502 -0.19148438775E+04 -0.25518667746E+03 -0.92512594960E+02  0.19339870491E+04  0.10100000352E+00 0. -1.
</event>
<event>
 5   0  0.2395572E-07  0.3912003E+04  0.7818609E-02  0.8022537E-01
       -2   -1    0    0    0  501  0.00000000000E+00  0.00000000000E+00  0.14518881736E+04  0.14518881736E+04  0.25500000920E-02 0.  1.
        2   -1    0    0  501    0  0.00000000000E+00  0.00000000000E+00 -0.26351495966E+04  0.26351495966E+04  0.25500000920E-02 0. -1.
    10030    2    1    2    0    0  0.00000000000E+00  0.00000000000E+00 -0.11832614231E+04  0.40870377702E+04  0.39120033410E+04 0.  0.
        3    1    3    3  502    0  0.16414470199E+04 -0.10502565478E+04 -0.76817492111E+03  0.20946311978E+04  0.10100000352E+00 0.  1.
       -3    1    3    3    0  502 -0.16414470199E+04  0.10502565478E+04 -0.41508650195E+03  0.19924065724E+04  0.10100000352E+00 0. -1.
</event>
<event>
 5   0  0.2395572E-07  0.3890190E+04  0.7818609E-02  0.8027073E-01
       -2   -1    0    0    0  501  0.00000000000E+00  0.00000000000E+00  0.28112131617E+04  0.28112131617E+04  0.25500000920E-02 0. -1.
        2   -1    0    0  501    0  0.00000000000E+00  0.00000000000E+00 -0.13458224082E+04  0.13458224082E+04  0.25500000920E-02 0.  1.
    10030    2    1    2    0    0  0.00000000000E+00  0.00000000000E+00  0.14653907534E+04  0.41570355699E+04  0.38901895416E+04 0.  0.
        3    1    3    3  502    0  0.54086938805E+03 -0.17788738529E+04  0.13432565022E+04  0.22937458273E+04  0.10100000352E+00 0. -1.
       -3    1    3    3    0  502 -0.54086938805E+03  0.17788738529E+04  0.12213425124E+03  0.18632897426E+04  0.10100000352E+00 0.  1.
</event>
<event>
 5   0  0.7731706E-08  0.3964945E+04  0.7818609E-02  0.8011656E-01
        1   -1    0    0  501    0  0.00000000000E+00  0.00000000000E+00  0.17538489502E+04  0.17538489502E+04  0.50400001928E-02 0.  1.
       -1   -1    0    0    0  501  0.00000000000E+00  0.00000000000E+00 -0.22408979315E+04  0.22408979315E+04  0.50400001928E-02 0. -1.
    10030    2    1    2    0    0  0.00000000000E+00  0.00000000000E+00 -0.48704898135E+03  0.39947468817E+04  0.39649446325E+04 0.  0.
        3    1    3    3  502    0  0.10170504094E+04  0.29227386285E+03 -0.19325442650E+04  0.22033027237E+04  0.10100000352E+00 0. -1.
       -3    1    3    3    0  502 -0.10170504094E+04 -0.29227386285E+03  0.14454952836E+04  0.17914441580E+04  0.10100000352E+00 0.  1.
</event>
<event>
 5   0  0.7675750E-08  0.3924152E+04  0.7818609E-02  0.8020025E-01
       -1   -1    0    0    0  501  0.00000000000E+00  0.00000000000E+00  0.35745141573E+04  0.35745141573E+04  0.50400001928E-02 0.  1.
        1   -1    0    0  501    0  0.00000000000E+00  0.00000000000E+00 -0.10769971433E+04  0.10769971433E+04  0.50400001928E-02 0. -1.
    10030    2    1    2    0    0  0.00000000000E+00  0.00000000000E+00  0.24975170140E+04  0.46515113006E+04  0.39241516464E+04 0.  0.
        4    1    3    3  502    0 -0.86464142364E+03  0.13824587010E+04  0.25423400174E+04  0.30203131011E+04  0.12699999809E+01 0.  1.
       -4    1    3    3    0  502  0.86464142364E+03 -0.13824587010E+04 -0.44823003436E+02  0.16311981995E+04  0.12699999809E+01 0. -1.
</event>
<event>
 5   0  0.7675750E-08  0.3802385E+04  0.7818609E-02  0.8045643E-01
        3   -1    0    0  501    0  0.00000000000E+00  0.00000000000E+00  0.16494717081E+04  0.16494717112E+04  0.10100000352E+00 0.  1.
       -3   -1    0    0    0  501  0.00000000000E+00  0.00000000000E+00 -0.21913274949E+04  0.21913274973E+04  0.10100000352E+00 0. -1.
    10030    2    1    2    0    0  0.00000000000E+00  0.00000000000E+00 -0.54185578679E+03  0.38407992085E+04  0.38023848919E+04 0.  0.
        1    1    3    3  502    0 -0.42543048879E+03  0.17081555881E+04 -0.99633783825E+03  0.20227396525E+04  0.50400001928E-02 0. -1.
       -1    1    3    3    0  502  0.42543048879E+03 -0.17081555881E+04  0.45448205146E+03  0.18180595560E+04  0.50400001928E-02 0.  1.
</event>
<event>
 5   0  0.2384787E-07  0.3735364E+04  0.7818609E-02  0.8060170E-01
        2   -1    0    0  501    0  0.00000000000E+00  0.00000000000E+00  0.18480623900E+04  0.18480623900E+04  0.25500000920E-02 0. -1.
       -2   -1    0    0    0  501  0.00000000000E+00  0.00000000000E+00 -0.18875102078E+04  0.18875102078E+04  0.25500000920E-02 0.  1.
    10030    2    1    2    0    0  0.00000000000E+00  0.00000000000E+00 -0.39447817793E+02  0.37355725979E+04  0.37353643067E+04 0.  0.
        4    1    3    3  502    0 -0.14089410423E+04 -0.14158798993E+03 -0.12376066603E+04  0.18806471966E+04  0.12699999809E+01 0.  1.
       -4    1    3    3    0  502  0.14089410423E+04  0.14158798993E+03  0.11981588425E+04  0.18549254013E+04  0.12699999809E+01 0. -1.
</event>
<event>
 5   0  0.2384787E-07  0.3887919E+04  0.7818609E-02  0.8027547E-01
       -2   -1    0    0    0  501  0.00000000000E+00  0.00000000000E+00  0.20464741362E+04  0.20464741362E+04  0.25500000920E-02 0. -1.
        2   -1    0    0  501    0  0.00000000000E+00  0.00000000000E+00 -0.18465802455E+04  0.18465802455E+04  0.25500000920E-02 0.  1.
    10030    2    1    2    0    0  0.00000000000E+00  0.00000000000E+00  0.19989389074E+03  0.38930543817E+04  0.38879190901E+04 0.  0.
        4    1    3    3  502    0  0.12344232605E+02  0.11574031622E+04  0.16638173235E+04  0.20268261294E+04  0.12699999809E+01 0. -1.
       -4    1    3    3    0  502 -0.12344232605E+02 -0.11574031622E+04 -0.14639234328E+04  0.18662282523E+04  0.12699999809E+01 0.  1.
</event>
<event>
 5   0  0.2395572E-07  0.3437838E+04  0.7818609E-02  0.8128682E-01
        2   -1    0    0  501    0  0.00000000000E+00  0.00000000000E+00  0.21289106619E+04  0.21289106619E+04  0.25500000920E-02 0. -1.
       -2   -1    0    0    0  501  0.00000000000E+00  0.00000000000E+00 -0.13878847282E+04  0.13878847282E+04  0.25500000920E-02 0.  1.
    10030    2    1    2    0    0  0.00000000000E+00  0.00000000000E+00  0.74102593365E+03  0.35167953901E+04  0.34378380389E+04 0.  0.
        3    1    3    3  502    0  0.13992860036E+04 -0.88877422687E+03 -0.94640938941E+02  0.16603848541E+04  0.10100000352E+00 0.  1.
       -3    1    3    3    0  502 -0.13992860036E+04  0.88877422687E+03  0.83566687259E+03  0.18564105360E+04  0.10100000352E+00 0. -1.
</event>
<event>
 5   0  0.7675750E-08  0.3885295E+04  0.7818609E-02  0.8028095E-01
       -1   -1    0    0    0  501  0.00000000000E+00  0.00000000000E+00  0.23968088525E+04  0.23968088525E+04  0.50400001928E-02 0.  1.
        1   -1    0    0  501    0  0.00000000000E+00  0.00000000000E+00 -0.15745433083E+04  0.15745433083E+04  0.50400001928E-02 0. -1.
    10030    2    1    2    0    0  0.00000000000E+00  0.00000000000E+00  0.82226554419E+03  0.39713521608E+04  0.38852950158E+04 0.  0.
        1    1    3    3  502    0  0.10872444342E+04  0.67361469172E+02  0.20552503315E+04  0.23260894119E+04  0.50400001928E-02 0.  1.
       -1    1    3    3    0  502 -0.10872444342E+04 -0.67361469172E+02 -0.12329847873E+04  0.16452627489E+04  0.50400001928E-02 0. -1.
</event>
<event>
 5   0  0.2384787E-07  0.3847058E+04  0.7818609E-02  0.8036131E-01
        2   -1    0    0  501    0  0.00000000000E+00  0.00000000000E+00  0.21054381507E+04  0.21054381507E+04  0.25500000920E-02 0. -1.
       -2   -1    0    0    0  501  0.00000000000E+00  0.00000000000E+00 -0.17573365698E+04  0.17573365698E+04  0.25500000920E-02 0.  1.
    10030    2    1    2    0    0  0.00000000000E+00  0.00000000000E+00  0.34810158088E+03  0.38627747206E+04  0.38470578149E+04 0.  0.
        4    1    3    3  502    0 -0.13232861412E+04  0.78947739978E+03  0.13301020474E+04  0.20355672049E+04  0.12699999809E+01 0. -1.
       -4    1    3    3    0  502  0.13232861412E+04 -0.78947739978E+03 -0.98200046655E+03  0.18272075157E+04  0.12699999809E+01 0.  1.
</event>
<event>
 5   0  0.7675750E-08  0.3413125E+04  0.7818609E-02  0.8134693E-01
       -1   -1    0    0    0  501  0.00000000000E+00  0.00000000000E+00  0.14895996457E+04  0.14895996457E+04  0.50400001928E-02 0. -1.
        1   -1    0    0  501    0  0.00000000000E+00  0.00000000000E+00 -0.19551263864E+04  0.19551263864E+04  0.50400001928E-02 0.  1.
    10030    2    1    2    0    0  0.00000000000E+00  0.00000000000E+00 -0.46552674067E+03  0.34447260321E+04  0.34131250035E+04 0.  0.
        4    1    3    3  502    0  0.51033753550E+03  0.61246326447E+03  0.12901134377E+04  0.15165585862E+04  0.12699999809E+01 0. -1.
       -4    1    3    3    0  502 -0.51033753550E+03 -0.61246326447E+03 -0.17556401784E+04  0.19281674458E+04  0.12699999809E+01 0.  1.
</event>
<event>
 5   0  0.2446281E-07  0.3901259E+04  0.7818609E-02  0.8024767E-01
        2   -1    0    0  501    0  0.00000000000E+00  0.00000000000E+00  0.23337309518E+04  0.23337309518E+04  0.25500000920E-02 0. -1.
       -2   -1    0    0    0  501  0.00000000000E+00  0.00000000000E+00 -0.16304174523E+04  0.16304174523E+04  0.25500000920E-02 0.  1.
    10030    2    1    2    0    0  0.00000000000E+00  0.00000000000E+00  0.70331349950E+03  0.39641484042E+04  0.39012591162E+04 0.  0.
        1    1    3    3  502    0 -0.13908152832E+04 -0.27460384703E+03 -0.10097856118E+04  0.17405290594E+04  0.50400001928E-02 0.  1.
       -1    1    3    3    0  502  0.13908152832E+04  0.27460384703E+03  0.17130991113E+04  0.22236193447E+04  0.50400001928E-02 0. -1.
</event>
<event>
 5   0  0.2486268E-07  0.3854935E+04  0.7818609E-02  0.8034468E-01
        2   -1    0    0  501    0  0.00000000000E+00  0.00000000000E+00  0.19673576739E+04  0.19673576739E+04  0.25500000920E-02 0. -1.
       -2   -1    0    0    0  501  0.00000000000E+00  0.00000000000E+00 -0.18883857174E+04  0.18883857175E+04  0.25500000920E-02 0.  1.
    10030    2    1    2    0    0  0.00000000000E+00  0.00000000000E+00  0.78971956436E+02  0.38557433913E+04  0.38549345688E+04 0.  0.
        5    1    3    3  502    0  0.25262258569E+03  0.17652311885E+04 -0.69227446944E+03  0.19128840400E+04  0.46999998093E+01 0.  1.
       -5    1    3    3    0  502 -0.25262258569E+03 -0.17652311885E+04  0.77124642587E+03  0.19428593513E+04  0.46999998093E+01 0. -1.
</event>
<event>
 5   0  0.7675750E-08  0.3887293E+04  0.7818609E-02  0.8027677E-01
       -1   -1    0    0    0  501  0.00000000000E+00  0.00000000000E+00  0.17883039511E+04  0.17883039511E+04  0.50400001928E-02 0.  1.
        1   -1    0    0  501    0  0.00000000000E+00  0.00000000000E+00 -0.21124827969E+04  0.21124827969E+04  0.50400001928E-02 0. -1.
    10030    2    1    2    0    0  0.00000000000E+00  0.00000000000E+00 -0.32417884580E+03  0.39007867479E+04  0.38872928021E+04 0.  0.
        1    1    3    3  502    0  0.28605642314E+03 -0.16019427473E+04 -0.12286583313E+04  0.20390316667E+04  0.50400001928E-02 0. -1.
       -1    1    3    3    0  502 -0.28605642314E+03  0.16019427473E+04  0.90447948548E+03  0.18617550812E+04  0.50400001928E-02 0.  1.
</event>
<event>
 5   0  0.7675750E-08  0.3832158E+04  0.7818609E-02  0.8039289E-01
        1   -1    0    0  501    0  0.00000000000E+00  0.00000000000E+00  0.15911116482E+04  0.15911116482E+04  0.50400001928E-02 0.  1.
       -1   -1    0    0    0  501  0.00000000000E+00  0.00000000000E+00 -0.23074177720E+04  0.23074177720E+04  0.50400001928E-02 0. -1.
    10030    2    1    2    0    0  0.00000000000E+00  0.00000000000E+00 -0.71630612378E+03  0.38985294202E+04  0.38321582923E+04 0.  0.
        1    1    3    3  502    0  0.66090870506E+03 -0.84230338001E+03 -0.19747259489E+04  0.22462898018E+04  0.50400001928E-02 0. -1.
       -1    1    3    3    0  502 -0.66090870506E+03  0.84230338001E+03  0.12584198251E+04  0.16522396184E+04  0.50400001928E-02 0.  1.
</event>
<event>
 5   0  0.7675750E-08  0.3922207E+04  0.7818609E-02  0.8020426E-01
       -1   -1    0    0    0  501  0.00000000000E+00  0.00000000000E+00  0.16115322483E+04  0.16115322483E+04  0.50400001928E-02 0.  1.
        1   -1    0    0  501    0  0.00000000000E+00  0.00000000000E+00 -0.23865035377E+04  0.23865035377E+04  0.50400001928E-02 0. -1.
    10030    2    1    2    0    0  0.00000000000E+00  0.00000000000E+00 -0.77497128944E+03  0.39980357860E+04  0.39222072417E+04 0.  0.
        4    1    3    3  502    0 -0.23879235681E+02  0.16184813546E+04 -0.15160829299E+04  0.22177829417E+04  0.12699999809E+01 0. -1.
       -4    1    3    3    0  502  0.23879235681E+02 -0.16184813546E+04  0.74111164048E+03  0.17802528443E+04  0.12699999809E+01 0.  1.
</event>
<event>
 5   0  0.2384787E-07  0.3939880E+04  0.7818609E-02  0.8016786E-01
       -2   -1    0    0    0  501  0.00000000000E+00  0.00000000000E+00  0.15572690432E+04  0.15572690432E+04  0.25500000920E-02 0.  1.
        2   -1    0    0  501    0  0.00000000000E+00  0.00000000000E+00 -0.24919671163E+04  0.24919671163E+04  0.25500000920E-02 0. -1.
    10030    2    1    2    0    0  0.00000000000E+00  0.00000000000E+00 -0.93469807311E+03  0.40492361595E+04  0.39398798189E+04 0.  0.
        4    1    3    3  502    0  0.78143213902E+03  0.97050639893E+03  0.11008274481E+04  0.16626309096E+04  0.12699999809E+01 0.  1.
       -4    1    3    3    0  502 -0.78143213902E+03 -0.97050639893E+03 -0.20355255212E+04  0.23866052499E+04  0.12699999809E+01 0. -1.
</event>
<event>
 5   0  0.7675750E-08  0.3914791E+04  0.7818609E-02  0.8021960E-01
       -1   -1    0    0    0  501  0.00000000000E+00  0.00000000000E+00  0.16343446324E+04  0.16343446324E+04  0.50400001928E-02 0.  1.
        1   -1    0    0  501    0  0.00000000000E+00  0.00000000000E+00 -0.23443014605E+04  0.23443014605E+04  0.50400001928E-02 0. -1.
    10030    2    1    2    0    0  0.00000000000E+00  0.00000000000E+00 -0.70995682810E+03  0.39786460928E+04  0.39147906756E+04 0.  0.
        1    1    3    3  502    0  0.15835229248E+04  0.11004687465E+04 -0.69634435156E+03  0.20502370037E+04  0.50400001928E-02 0. -1.
       -1    1    3    3    0  502 -0.15835229248E+04 -0.11004687465E+04 -0.13612476535E+02  0.19284090891E+04  0.50400001928E-02 0.  1.
</event>
<event>
 5   0  0.2446281E-07  0.3887380E+04  0.7818609E-02  0.8027659E-01
        2   -1    0    0  501    0  0.00000000000E+00  0.00000000000E+00  0.14206846991E+04  0.14206846991E+04  0.25500000920E-02 0.  1.
       -2   -1    0    0    0  501  0.00000000000E+00  0.00000000000E+00 -0.26592327058E+04  0.26592327058E+04  0.25500000920E-02 0. -1.
    10030    2    1    2    0    0  0.00000000000E+00  0.00000000000E+00 -0.12385480067E+04  0.40799174049E+04  0.38873802060E+04 0.  0.
        1    1    3    3  502    0  0.14084801781E+04 -0.71324683034E+03  0.57063142672E+03  0.16787369295E+04  0.50400001928E-02 0.  1.
       -1    1    3    3    0  502 -0.14084801781E+04  0.71324683034E+03 -0.18091794334E+04  0.24011804754E+04  0.50400001928E-02 0. -1.
</event>
<event>
 5   0  0.7675750E-08  0.3907233E+04  0.7818609E-02  0.8023527E-01
        3   -1    0    0  501    0  0.00000000000E+00  0.00000000000E+00  0.19426368884E+04  0.19426368910E+04  0.10100000352E+00 0.  1.
       -3   -1    0    0    0  501  0.00000000000E+00  0.00000000000E+00 -0.19646584562E+04  0.19646584588E+04  0.10100000352E+00 0. -1.
    10030    2    1    2    0    0  0.00000000000E+00  0.00000000000E+00 -0.22021567771E+02  0.39072953498E+04  0.39072332924E+04 0.  0.
        5    1    3    3  502    0  0.55490666402E+03  0.12947945687E+04  0.13425917168E+04  0.19460187535E+04  0.46999998093E+01 0.  1.
       -5    1    3    3    0  502 -0.55490666402E+03 -0.12947945687E+04 -0.13646132845E+04  0.19612765963E+04  0.46999998093E+01 0. -1.
</event>
<event>
 5   0  0.2395572E-07  0.3937226E+04  0.7818609E-02  0.8017331E-01
        2   -1    0    0  501    0  0.00000000000E+00  0.00000000000E+00  0.19513055424E+04  0.19513055424E+04  0.25500000920E-02 0.  1.
       -2   -1    0    0    0  501  0.00000000000E+00  0.00000000000E+00 -0.19860744436E+04  0.19860744436E+04  0.25500000920E-02 0. -1.
    10030    2    1    2    0    0  0.00000000000E+00  0.00000000000E+00 -0.34768901268E+02  0.39373799860E+04  0.39372264702E+04 0.  0.
        3    1    3    3  502    0 -0.61142638713E+03  0.16687346015E+02 -0.18886381504E+04  0.19852140357E+04  0.10100000352E+00 0. -1.
       -3    1    3    3    0  502  0.61142638713E+03 -0.16687346015E+02  0.18538692491E+04  0.19521659503E+04  0.10100000352E+00 0.  1.
</event>
<event>
 5   0  0.7675750E-08  0.3889740E+04  0.7818609E-02  0.8027166E-01
       -1   -1    0    0    0  501  0.00000000000E+00  0.00000000000E+00  0.31995420015E+04  0.31995420015E+04  0.50400001928E-02 0.  1.
        1   -1    0    0  501    0  0.00000000000E+00  0.00000000000E+00 -0.11822065359E+04  0.11822065359E+04  0.50400001928E-02 0. -1.
    10030    2    1    2    0    0  0.00000000000E+00  0.00000000000E+00  0.20173354656E+04  0.43817485374E+04  0.38897400767E+04 0.  0.
        1    1    3    3  502    0 -0.43101099842E+03  0.15630619309E+04 -0.20123910117E+03  0.16338391158E+04  0.50400001928E-02 0. -1.
       -1    1    3    3    0  502  0.43101099842E+03 -0.15630619309E+04  0.22185745668E+04  0.27479094216E+04  0.50400001928E-02 0.  1.
</event>
<event>
 5   0  0.7675750E-08  0.3804659E+04  0.7818609E-02  0.8045156E-01
       -3   -1    0    0    0  501  0.00000000000E+00  0.00000000000E+00  0.18535837075E+04  0.18535837102E+04  0.10100000352E+00 0. -1.
        3   -1    0    0  501    0  0.00000000000E+00  0.00000000000E+00 -0.19523571087E+04  0.19523571113E+04  0.10100000352E+00 0.  1.
    10030    2    1    2    0    0  0.00000000000E+00  0.00000000000E+00 -0.98773401251E+02  0.38059408215E+04  0.38046589009E+04 0.  0.
        5    1    3    3  502    0  0.40157958417E+03  0.82333840396E+03 -0.17171865734E+04  0.19462538652E+04  0.46999998093E+01 0.  1.
       -5    1    3    3    0  502 -0.40157958417E+03 -0.82333840396E+03  0.16184131721E+04  0.18596869563E+04  0.46999998093E+01 0. -1.
</event>
<event>
 5   0  0.2486268E-07  0.3900818E+04  0.7818609E-02  0.8024859E-01
       -2   -1    0    0    0  501  0.00000000000E+00  0.00000000000E+00  0.24618803672E+04  0.24618803672E+04  0.25500000920E-02 0. -1.
        2   -1    0    0  501    0  0.00000000000E+00  0.00000000000E+00 -0.15451987350E+04  0.15451987350E+04  0.25500000920E-02 0.  1.
    10030    2    1    2    0    0  0.00000000000E+00  0.00000000000E+00  0.91668163221E+03  0.40070791021E+04  0.39008175702E+04 0.  0.
        5    1    3    3  502    0 -0.13724642460E+04 -0.11454113619E+04  0.12596196458E+04  0.21868445388E+04  0.46999998093E+01 0. -1.
       -5    1    3    3    0  502  0.13724642460E+04  0.11454113619E+04 -0.34293801361E+03  0.18202345634E+04  0.46999998093E+01 0.  1.
</event>
<event>
 5   0  0.7675750E-08  0.3865396E+04  0.7818609E-02  0.8032265E-01
        1   -1    0    0  501    0  0.00000000000E+00  0.00000000000E+00  0.22532908746E+04  0.22532908746E+04  0.50400001928E-02 0. -1.
       -1   -1    0    0    0  501  0.00000000000E+00  0.00000000000E+00 -0.16577187314E+04  0.16577187314E+04  0.50400001928E-02 0.  1.
    10030    2    1    2    0    0  0.00000000000E+00  0.00000000000E+00  0.59557214316E+03  0.39110096060E+04  0.38653964816E+04 0.  0.
        1    1    3    3  502    0  0.51226474539E+03  0.39532995111E+03  0.21404358310E+04  0.22361052046E+04  0.50400001928E-02 0. -1.
       -1    1    3    3    0  502 -0.51226474539E+03 -0.39532995111E+03 -0.15448636878E+04  0.16749044013E+04  0.50400001928E-02 0.  1.
</event>
<event>
 5   0  0.7675750E-08  0.3858623E+04  0.7818609E-02  0.8033690E-01
       -3   -1    0    0    0  501  0.00000000000E+00  0.00000000000E+00  0.21421018306E+04  0.21421018330E+04  0.10100000352E+00 0.  1.
        3   -1    0    0  501    0  0.00000000000E+00  0.00000000000E+00 -0.17376590070E+04  0.17376590099E+04  0.10100000352E+00 0. -1.
    10030    2    1    2    0    0  0.00000000000E+00  0.00000000000E+00  0.40444282363E+03  0.38797608430E+04  0.38586228374E+04 0.  0.
        2    1    3    3  502    0  0.48765276572E+03 -0.10346250285E+04  0.17644342873E+04  0.21027321570E+04  0.25500000920E-02 0.  1.
       -2    1    3    3    0  502 -0.48765276572E+03  0.10346250285E+04 -0.13599914637E+04  0.17770286860E+04  0.25500000920E-02 0. -1.
</event>
<event>
 5   0  0.7731706E-08  0.3856405E+04  0.7818609E-02  0.8034158E-01
        1   -1    0    0  501    0  0.00000000000E+00  0.00000000000E+00  0.22465845714E+04  0.22465845714E+04  0.50400001928E-02 0. -1.
       -1   -1    0    0    0  501  0.00000000000E+00  0.00000000000E+00 -0.16549409801E+04  0.16549409801E+04  0.50400001928E-02 0.  1.
    10030    2    1    2    0    0  0.00000000000E+00  0.00000000000E+00  0.59164359130E+03  0.39015255514E+04  0.38564049955E+04 0.  0.
        3    1    3    3  502    0 -0.13493010368E+04  0.33251194635E+03 -0.10565255623E+04  0.17456871875E+04  0.10100000352E+00 0.  1.
       -3    1    3    3    0  502  0.13493010368E+04 -0.33251194635E+03  0.16481691536E+04  0.21558383640E+04  0.10100000352E+00 0. -1.
</event>
<event>
 5   0  0.2384787E-07  0.3930593E+04  0.7818609E-02  0.8018696E-01
       -2   -1    0    0    0  501  0.00000000000E+00  0.00000000000E+00  0.24547726218E+04  0.24547726218E+04  0.25500000920E-02 0.  1.
        2   -1    0    0  501    0  0.00000000000E+00  0.00000000000E+00 -0.15734207515E+04  0.15734207515E+04  0.25500000920E-02 0. -1.
    10030    2    1    2    0    0  0.00000000000E+00  0.00000000000E+00  0.88135187028E+03  0.40281933732E+04  0.39305929238E+04 0.  0.
        4    1    3    3  502    0 -0.43840059784E+03 -0.97885345769E+03 -0.12470434532E+04  0.16448307399E+04  0.12699999809E+01 0. -1.
       -4    1    3    3    0  502  0.43840059784E+03  0.97885345769E+03  0.21283953235E+04  0.23833626333E+04  0.12699999809E+01 0.  1.
</event>
<event>
 5   0  0.7675750E-08  0.3567023E+04  0.7818609E-02  0.8098088E-01
        1   -1    0    0  501    0  0.00000000000E+00  0.00000000000E+00  0.20837759661E+04  0.20837759661E+04  0.50400001928E-02 0.  1.
       -1   -1    0    0    0  501  0.00000000000E+00  0.00000000000E+00 -0.15265137678E+04  0.15265137678E+04  0.50400001928E-02 0. -1.
    10030    2    1    2    0    0  0.00000000000E+00  0.00000000000E+00  0.55726219835E+03  0.36102897340E+04  0.35670226808E+04 0.  0.
        2    1    3    3  502    0  0.34619387851E+03 -0.13531881675E+04 -0.84384965840E+03  0.16318856161E+04  0.25500000920E-02 0. -1.
       -2    1    3    3    0  502 -0.34619387851E+03  0.13531881675E+04  0.14011118568E+04  0.19784041178E+04  0.25500000920E-02 0.  1.
</event>
<event>
 5   0  0.2446281E-07  0.3952681E+04  0.7818609E-02  0.8014161E-01
       -2   -1    0    0    0  501  0.00000000000E+00  0.00000000000E+00  0.22510568651E+04  0.22510568651E+04  0.25500000920E-02 0. -1.
        2   -1    0    0  501    0  0.00000000000E+00  0.00000000000E+00 -0.17351497681E+04  0.17351497681E+04  0.25500000920E-02 0.  1.
    10030    2    1    2    0    0  0.00000000000E+00  0.00000000000E+00  0.51590709700E+03  0.39862066332E+04  0.39526805070E+04 0.  0.
        1    1    3    3  502    0  0.11014165580E+04  0.82575295349E+03  0.16880556661E+04  0.21781915220E+04  0.50400001928E-02 0. -1.
       -1    1    3    3    0  502 -0.11014165580E+04 -0.82575295349E+03 -0.11721485691E+04  0.18080151113E+04  0.50400001928E-02 0.  1.
</event>
<event>
 5   0  0.2384787E-07  0.3963582E+04  0.7818609E-02  0.8011934E-01
        2   -1    0    0  501    0  0.00000000000E+00  0.00000000000E+00  0.30881761556E+04  0.30881761556E+04  0.25500000920E-02 0. -1.
       -2   -1    0    0    0  501  0.00000000000E+00  0.00000000000E+00 -0.12717850605E+04  0.12717850605E+04  0.25500000920E-02 0.  1.
    10030    2    1    2    0    0  0.00000000000E+00  0.00000000000E+00  0.18163910950E+04  0.43599612161E+04  0.39635823690E+04 0.  0.
        4    1    3    3  502    0  0.11652654974E+04 -0.16472021101E+03 -0.84579310093E+03  0.14492563644E+04  0.12699999809E+01 0.  1.
       -4    1    3    3    0  502 -0.11652654974E+04  0.16472021101E+03  0.26621841960E+04  0.29107048517E+04  0.12699999809E+01 0. -1.
</event>
<event>
 5   0  0.2384787E-07  0.3860646E+04  0.7818609E-02  0.8033264E-01
        2   -1    0    0  501    0  0.00000000000E+00  0.00000000000E+00  0.21413736490E+04  0.21413736490E+04  0.25500000920E-02 0. -1.
       -2   -1    0    0    0  501  0.00000000000E+00  0.00000000000E+00 -0.17400734741E+04  0.17400734741E+04  0.25500000920E-02 0.  1.
    10030    2    1    2    0    0  0.00000000000E+00  0.00000000000E+00  0.40130017487E+03  0.38814471232E+04  0.38606463111E+04 0.  0.
        4    1    3    3  502    0  0.37497911996E+03  0.79711521684E+03 -0.15262024595E+04  0.17621854527E+04  0.12699999809E+01 0.  1.
       -4    1    3    3    0  502 -0.37497911996E+03 -0.79711521684E+03  0.19275026344E+04  0.21192616705E+04  0.12699999809E+01 0. -1.
</event>
<event>
 5   0  0.2473224E-07  0.3870905E+04  0.7818609E-02  0.8031108E-01
        2   -1    0    0  501    0  0.00000000000E+00  0.00000000000E+00  0.16276403747E+04  0.16276403747E+04  0.25500000920E-02 0. -1.
       -2   -1    0    0    0  501  0.00000000000E+00  0.00000000000E+00 -0.23014769412E+04  0.23014769412E+04  0.25500000920E-02 0.  1.
    10030    2    1    2    0    0  0.00000000000E+00  0.00000000000E+00 -0.67383656651E+03  0.39291173158E+04  0.38709052124E+04 0.  0.
        2    1    3    3  502    0  0.69021172247E+03  0.33277219787E+03  0.14671242438E+04  0.16551686030E+04  0.25500000920E-02 0. -1.
       -2    1    3    3    0  502 -0.69021172247E+03 -0.33277219787E+03 -0.21409608103E+04  0.22739487129E+04  0.25500000920E-02 0.  1.
</event>
<event>
 5   0  0.2395572E-07  0.3816009E+04  0.7818609E-02  0.8042728E-01
       -2   -1    0    0    0  501  0.00000000000E+00  0.00000000000E+00  0.21079115928E+04  0.21079115928E+04  0.25500000920E-02 0. -1.
        2   -1    0    0  501    0  0.00000000000E+00  0.00000000000E+00 -0.17270559307E+04  0.17270559307E+04  0.25500000920E-02 0.  1.
    10030    2    1    2    0    0  0.00000000000E+00  0.00000000000E+00  0.38085566208E+03  0.38349675235E+04  0.38160090240E+04 0.  0.
        3    1    3    3  502    0  0.12737019289E+04  0.13947364782E+04 -0.80866592133E+02  0.18905411562E+04  0.10100000352E+00 0. -1.
       -3    1    3    3    0  502 -0.12737019289E+04 -0.13947364782E+04  0.46172225421E+03  0.19444263673E+04  0.10100000352E+00 0.  1.
</event>
<event>
 5   0  0.7731706E-08  0.3525058E+04  0.7818609E-02  0.8107877E-01
       -1   -1    0    0    0  501  0.00000000000E+00  0.00000000000E+00  0.12766738708E+04  0.12766738708E+04  0.50400001928E-02 0.  1.
        1   -1    0    0  501    0  0.00000000000E+00  0.00000000000E+00 -0.24332827555E+04  0.24332827555E+04  0.50400001928E-02 0. -1.
    10030    2    1    2    0    0  0.00000000000E+00  0.00000000000E+00 -0.11566088846E+04  0.37099566263E+04  0.35250580218E+04 0.  0.
        3    1    3    3  502    0 -0.17384807928E+04  0.12792431524E+03 -0.30420486237E+03  0.17695255596E+04  0.10100000352E+00 0.  1.
       -3    1    3    3    0  502  0.17384807928E+04 -0.12792431524E+03 -0.85240402227E+03  0.19404310668E+04  0.10100000352E+00 0. -1.
</event>
<event>
 5   0  0.7675750E-08  0.3623835E+04  0.7818609E-02  0.8085054E-01
       -1   -1    0    0    0  501  0.00000000000E+00  0.00000000000E+00  0.26941235027E+04  0.26941235027E+04  0.50400001928E-02 0. -1.
        1   -1    0    0  501    0  0.00000000000E+00  0.00000000000E+00 -0.12185950189E+04  0.12185950190E+04  0.50400001928E-02 0.  1.
    10030    2    1    2    0    0  0.00000000000E+00  0.00000000000E+00  0.14755284838E+04  0.39127185217E+04  0.36238352506E+04 0.  0.
        4    1    3    3  502    0 -0.62141006428E+03 -0.15897811006E+04  0.13940775090E+04  0.22038620941E+04  0.12699999809E+01 0. -1.
       -4    1    3    3    0  502  0.62141006428E+03  0.15897811006E+04  0.81450974818E+02  0.17088564276E+04  0.12699999809E+01 0.  1.
</event>
<event>
 5   0  0.2395572E-07  0.3701441E+04  0.7818609E-02  0.8067643E-01
       -2   -1    0    0    0  501  0.00000000000E+00  0.00000000000E+00  0.14274056202E+04  0.14274056202E+04  0.25500000920E-02 0. -1.
        2   -1    0    0  501    0  0.00000000000E+00  0.00000000000E+00 -0.23995741840E+04  0.23995741840E+04  0.25500000920E-02 0.  1.
    10030    2    1    2    0    0  0.00000000000E+00  0.00000000000E+00 -0.97216856385E+03  0.38269798042E+04  0.37014406257E+04 0.  0.
        3    1    3    3  502    0  0.90564544472E+03  0.88057107338E+03  0.91240612705E+03  0.15582310604E+04  0.10100000352E+00 0. -1.
       -3    1    3    3    0  502 -0.90564544472E+03 -0.88057107338E+03 -0.18845746909E+04  0.22687487438E+04  0.10100000352E+00 0.  1.
</event>
<event>
 5   0  0.2473224E-07  0.3855004E+04  0.7818609E-02  0.8034453E-01
       -2   -1    0    0    0  501  0.00000000000E+00  0.00000000000E+00  0.15599912664E+04  0.15599912664E+04  0.25500000920E-02 0. -1.
        2   -1    0    0  501    0  0.00000000000E+00  0.00000000000E+00 -0.23815926366E+04  0.23815926366E+04  0.25500000920E-02 0.  1.
    10030    2    1    2    0    0  0.00000000000E+00  0.00000000000E+00 -0.82160137012E+03  0.39415839030E+04  0.38550038720E+04 0.  0.
        2    1    3    3  502    0  0.13181564303E+04 -0.81473018281E+03 -0.15828181023E+04  0.22150925016E+04  0.25500000920E-02 0.  1.
       -2    1    3    3    0  502 -0.13181564303E+04  0.81473018281E+03  0.76121673222E+03  0.17264914014E+04  0.25500000920E-02 0. -1.
</event>
<event>
 5   0  0.7675750E-08  0.3861155E+04  0.7818609E-02  0.8033157E-01
        1   -1    0    0  501    0  0.00000000000E+00  0.00000000000E+00  0.27093280980E+04  0.27093280980E+04  0.50400001928E-02 0. -1.
       -1   -1    0    0    0  501  0.00000000000E+00  0.00000000000E+00 -0.13756653221E+04  0.13756653221E+04  0.50400001928E-02 0.  1.
    10030    2    1    2    0    0  0.00000000000E+00  0.00000000000E+00  0.13336627759E+04  0.40849934202E+04  0.38611545997E+04 0.  0.
        1    1    3    3  502    0 -0.43544211721E+03  0.33608146553E+03 -0.12910080618E+04  0.14033041027E+04  0.50400001928E-02 0.  1.
       -1    1    3    3    0  502  0.43544211721E+03 -0.33608146553E+03  0.26246708378E+04  0.26816893175E+04  0.50400001928E-02 0. -1.
</event>
<event>
 5   0  0.2446281E-07  0.3834314E+04  0.7818609E-02  0.8038831E-01
        2   -1    0    0  501    0  0.00000000000E+00  0.00000000000E+00  0.23964118467E+04  0.23964118467E+04  0.25500000920E-02 0.  1.
       -2   -1    0    0    0  501  0.00000000000E+00  0.00000000000E+00 -0.15337480074E+04  0.15337480074E+04  0.25500000920E-02 0. -1.
    10030    2    1    2    0    0  0.00000000000E+00  0.00000000000E+00  0.86266383923E+03  0.39301598541E+04  0.38343144862E+04 0.  0.
        1    1    3    3  502    0 -0.79058216451E+03  0.17274872416E+04  0.16748818923E+03  0.19071666477E+04  0.50400001928E-02 0.  1.
       -1    1    3    3    0  502  0.79058216451E+03 -0.17274872416E+04  0.69517565000E+03  0.20229932064E+04  0.50400001928E-02 0. -1.
</event>
<event>
 5   0  0.7675750E-08  0.3911873E+04  0.7818609E-02  0.8022564E-01
        1   -1    0    0  501    0  0.00000000000E+00  0.00000000000E+00  0.32297891948E+04  0.32297891949E+04  0.50400001928E-02 0. -1.
       -1   -1    0    0    0  501  0.00000000000E+00  0.00000000000E+00 -0.11845008488E+04  0.11845008488E+04  0.50400001928E-02 0.  1.
    10030    2    1    2    0    0  0.00000000000E+00  0.00000000000E+00  0.20452883461E+04  0.44142900436E+04  0.39118732304E+04 0.  0.
        2    1    3    3  502    0 -0.90028212838E+03 -0.16794093847E+04  0.15206457466E+04  0.24378858215E+04  0.25500000920E-02 0.  1.
       -2    1    3    3    0  502  0.90028212838E+03  0.16794093847E+04  0.52464259951E+03  0.19764042221E+04  0.25500000920E-02 0. -1.
</event>
<event>
 5   0  0.2486268E-07  0.3900233E+04  0.7818609E-02  0.8024981E-01
        2   -1    0    0  501    0  0.00000000000E+00  0.00000000000E+00  0.26272997354E+04  0.26272997354E+04  0.25500000920E-02 0. -1.
       -2   -1    0    0    0  501  0.00000000000E+00  0.00000000000E+00 -0.14474766082E+04  0.14474766082E+04  0.25500000920E-02 0.  1.
    10030    2    1    2    0    0  0.00000000000E+00  0.00000000000E+00  0.11798231272E+04  0.40747763436E+04  0.39002332801E+04 0.  0.
        5    1    3    3  502    0  0.18924090445E+03 -0.11314355311E+03 -0.14344066924E+04  0.14512609114E+04  0.46999998093E+01 0.  1.
       -5    1    3    3    0  502 -0.18924090445E+03  0.11314355311E+03  0.26142298196E+04  0.26235154323E+04  0.46999998093E+01 0. -1.
</event>
<event>
 5   0  0.7675750E-08  0.3847990E+04  0.7818609E-02  0.8035934E-01
        1   -1    0    0  501    0  0.00000000000E+00  0.00000000000E+00  0.23145246395E+04  0.23145246395E+04  0.50400001928E-02 0. -1.
       -1   -1    0    0    0  501  0.00000000000E+00  0.00000000000E+00 -0.15993594213E+04  0.15993594213E+04  0.50400001928E-02 0.  1.
    10030    2    1    2    0    0  0.00000000000E+00  0.00000000000E+00  0.71516521828E+03  0.39138840608E+04  0.38479900146E+04 0.  0.
        2    1    3    3  502    0  0.91058348135E+03  0.13553100521E+04 -0.67755270500E+03  0.17677967309E+04  0.25500000920E-02 0.  1.
       -2    1    3    3    0  502 -0.91058348135E+03 -0.13553100521E+04  0.13927179233E+04  0.21460873299E+04  0.25500000920E-02 0. -1.
</event>
<event>
 5   0  0.7731706E-08  0.3889074E+04  0.7818609E-02  0.8027305E-01
       -1   -1    0    0    0  501  0.00000000000E+00  0.00000000000E+00  0.31977759891E+04  0.31977759891E+04  0.50400001928E-02 0. -1.
        1   -1    0    0  501    0  0.00000000000E+00  0.00000000000E+00 -0.11824543106E+04  0.11824543106E+04  0.50400001928E-02 0.  1.
    10030    2    1    2    0    0  0.00000000000E+00  0.00000000000E+00  0.20153216786E+04  0.43802302997E+04  0.38890739271E+04 0.  0.
        3    1    3    3  502    0  0.58315325562E+03 -0.10049144546E+04 -0.74852434195E+03  0.13821032817E+04  0.10100000352E+00 0.  1.
       -3    1    3    3    0  502 -0.58315325562E+03  0.10049144546E+04  0.27638460205E+04  0.29981270180E+04  0.10100000352E+00 0. -1.
</event>
<event>
 5   0  0.7675750E-08  0.3916274E+04  0.7818609E-02  0.8021653E-01
       -3   -1    0    0    0  501  0.00000000000E+00  0.00000000000E+00  0.20383434963E+04  0.20383434988E+04  0.10100000352E+00 0.  1.
        3   -1    0    0  501    0  0.00000000000E+00  0.00000000000E+00 -0.18810869705E+04  0.18810869732E+04  0.10100000352E+00 0. -1.
    10030    2    1    2    0    0  0.00000000000E+00  0.00000000000E+00  0.15725652583E+03  0.39194304720E+04  0.39162744554E+04 0.  0.
        4    1    3    3  502    0 -0.76714228918E+03 -0.13290437886E+04 -0.11386722496E+04  0.19108743519E+04  0.12699999809E+01 0. -1.
       -4    1    3    3    0  502  0.76714228918E+03  0.13290437886E+04  0.12959287754E+04  0.20085561201E+04  0.12699999809E+01 0.  1.
</event>
<event>
 5   0  0.2446281E-07  0.3916368E+04  0.7818609E-02  0.8021634E-01
       -2   -1    0    0    0  501  0.00000000000E+00  0.00000000000E+00  0.16298167288E+04  0.16298167288E+04  0.25500000920E-02 0.  1.
        2   -1    0    0  501    0  0.00000000000E+00  0.00000000000E+00 -0.23527090582E+04  0.23527090582E+04  0.25500000920E-02 0. -1.
    10030    2    1    2    0    0  0.00000000000E+00  0.00000000000E+00 -0.72289232932E+03  0.39825257870E+04  0.39163680016E+04 0.  0.
        1    1    3    3  502    0 -0.16694323732E+04 -0.92945617856E+02  0.67500703097E+03  0.18031300088E+04  0.50400001928E-02 0.  1.
       -1    1    3    3    0  502  0.16694323732E+04  0.92945617856E+02 -0.13978993603E+04  0.21793957782E+04  0.50400001928E-02 0. -1.
</event>
<event>
 5   0  0.7731706E-08  0.3875741E+04  0.7818609E-02  0.8030094E-01
       -1   -1    0    0    0  501  0.00000000000E+00  0.00000000000E+00  0.17164370561E+04  0.17164370562E+04  0.50400001928E-02 0.  1.
        1   -1    0    0  501    0  0.00000000000E+00  0.00000000000E+00 -0.21878700429E+04  0.21878700429E+04  0.50400001928E-02 0. -1.
    10030    2    1    2    0    0  0.00000000000E+00  0.00000000000E+00 -0.47143298675E+03  0.39043070991E+04  0.38757405567E+04 0.  0.
        3    1    3    3  502    0  0.14158264138E+04  0.54833695939E+03 -0.14487945612E+04  0.20986289681E+04  0.10100000352E+00 0. -1.
       -3    1    3    3    0  502 -0.14158264138E+04 -0.54833695939E+03  0.97736157444E+03  0.18056781309E+04  0.10100000352E+00 0.  1.
</event>
<event>
 5   0  0.2473224E-07  0.3904577E+04  0.7818609E-02  0.8024078E-01
       -2   -1    0    0    0  501  0.00000000000E+00  0.00000000000E+00  0.15091603229E+04  0.15091603229E+04  0.25500000920E-02 0. -1.
        2   -1    0    0  501    0  0.00000000000E+00  0.00000000000E+00 -0.25255305423E+04  0.25255305423E+04  0.25500000920E-02 0.  1.
    10030    2    1    2    0    0  0.00000000000E+00  0.00000000000E+00 -0.10163702194E+04  0.40346908652E+04  0.39045770520E+04 0.  0.
        2    1    3    3  502    0 -0.80137331411E+03 -0.32982753926E+03  0.12995240715E+04  0.15619693360E+04  0.25500000920E-02 0. -1.
       -2    1    3    3    0  502  0.80137331411E+03  0.32982753926E+03 -0.23158942909E+04  0.24727215292E+04  0.25500000920E-02 0.  1.
</event>
<event>
 5   0  0.7675750E-08  0.3890032E+04  0.7818609E-02  0.8027106E-01
        1   -1    0    0  501    0  0.00000000000E+00  0.00000000000E+00  0.21473651034E+04  0.21473651034E+04  0.50400001928E-02 0.  1.
       -1   -1    0    0    0  501  0.00000000000E+00  0.00000000000E+00 -0.17617343700E+04  0.17617343701E+04  0.50400001928E-02 0. -1.
    10030    2    1    2    0    0  0.00000000000E+00  0.00000000000E+00  0.38563073336E+03  0.39090994735E+04  0.38900318290E+04 0.  0.
        4    1    3    3  502    0  0.17570669874E+04 -0.56360401936E+03 -0.42513903029E+03  0.18935888405E+04  0.12699999809E+01 0. -1.
       -4    1    3    3    0  502 -0.17570669874E+04  0.56360401936E+03  0.81076976366E+03  0.20155106329E+04  0.12699999809E+01 0.  1.
</event>
<event>
 5   0  0.7675750E-08  0.3902672E+04  0.7818609E-02  0.8024474E-01
        1   -1    0    0  501    0  0.00000000000E+00  0.00000000000E+00  0.11913082216E+04  0.11913082217E+04  0.50400001928E-02 0. -1.
       -1   -1    0    0    0  501  0.00000000000E+00  0.00000000000E+00 -0.31962440611E+04  0.31962440611E+04  0.50400001928E-02 0.  1.
    10030    2    1    2    0    0  0.00000000000E+00  0.00000000000E+00 -0.20049358394E+04  0.43875522827E+04  0.39026718173E+04 0.  0.
        5    1    3    3  502    0 -0.75400224870E+03  0.78327388315E+02 -0.30239294775E+04  0.31175031910E+04  0.46999998093E+01 0.  1.
       -5    1    3    3    0  502  0.75400224870E+03 -0.78327388315E+02  0.10189936381E+04  0.12700490917E+04  0.46999998093E+01 0. -1.
</event>
<event>
 5   0  0.2486268E-07  0.3933649E+04  0.7818609E-02  0.8018067E-01
       -2   -1    0    0    0  501  0.00000000000E+00  0.00000000000E+00  0.29369992614E+04  0.29369992614E+04  0.25500000920E-02 0.  1.
        2   -1    0    0  501    0  0.00000000000E+00  0.00000000000E+00 -0.13171263606E+04  0.13171263606E+04  0.25500000920E-02 0. -1.
    10030    2    1    2    0    0  0.00000000000E+00  0.00000000000E+00  0.16198729009E+04  0.42541256220E+04  0.39336492717E+04 0.  0.
        5    1    3    3  502    0  0.12480196716E+04 -0.34020309453E+03 -0.79235098238E+03  0.15169487188E+04  0.46999998093E+01 0. -1.
       -5    1    3    3    0  502 -0.12480196716E+04  0.34020309453E+03  0.24122238832E+04  0.27371769032E+04  0.46999998093E+01 0.  1.
</event>
<event>
 5   0  0.7675750E-08  0.3888012E+04  0.7818609E-02  0.8027527E-01
       -3   -1    0    0    0  501  0.00000000000E+00  0.00000000000E+00  0.15428708065E+04  0.15428708098E+04  0.10100000352E+00 0. -1.
        3   -1    0    0  501    0  0.00000000000E+00  0.00000000000E+00 -0.24494336836E+04  0.24494336857E+04  0.10100000352E+00 0.  1.
    10030    2    1    2    0    0  0.00000000000E+00  0.00000000000E+00 -0.90656287709E+03  0.39923044955E+04  0.38880122086E+04 0.  0.
        2    1    3    3  502    0 -0.93737075582E+03 -0.84890075834E+02 -0.21998755088E+04  0.23927646172E+04  0.25500000920E-02 0.  1.
       -2    1    3    3    0  502  0.93737075582E+03  0.84890075834E+02  0.12933126317E+04  0.15995398783E+04  0.25500000920E-02 0. -1.
</event>
<event>
 5   0  0.7675750E-08  0.3913136E+04  0.7818609E-02  0.8022303E-01
       -1   -1    0    0    0  501  0.00000000000E+00  0.00000000000E+00  0.14964389050E+04  0.14964389050E+04  0.50400001928E-02 0.  1.
        1   -1    0    0  501    0  0.00000000000E+00  0.00000000000E+00 -0.25581790711E+04  0.25581790711E+04  0.50400001928E-02 0. -1.
    10030    2    1    2    0    0  0.00000000000E+00  0.00000000000E+00 -0.10617401661E+04  0.40546179762E+04  0.39131361786E+04 0.  0.
        2    1    3    3  502    0 -0.57405704272E+03 -0.17624622755E+04  0.11815046545E+03  0.18573568029E+04  0.25500000920E-02 0.  1.
       -2    1    3    3    0  502  0.57405704272E+03  0.17624622755E+04 -0.11798906316E+04  0.21972611732E+04  0.25500000920E-02 0. -1.
</event>
<event>
 5   0  0.2446281E-07  0.3878920E+04  0.7818609E-02  0.8029428E-01
        2   -1    0    0  501    0  0.00000000000E+00  0.00000000000E+00  0.20591035938E+04  0.20591035938E+04  0.25500000920E-02 0. -1.
       -2   -1    0    0    0  501  0.00000000000E+00  0.00000000000E+00 -0.18267678919E+04  0.18267678919E+04  0.25500000920E-02 0.  1.
    10030    2    1    2    0    0  0.00000000000E+00  0.00000000000E+00  0.23233570190E+03  0.38858714858E+04  0.38789196080E+04 0.  0.
        1    1    3    3  502    0 -0.17736422762E+04 -0.70946967245E+03 -0.21961967799E+03  0.19228590544E+04  0.50400001928E-02 0.  1.
       -1    1    3    3    0  502  0.17736422762E+04  0.70946967245E+03  0.45195537988E+03  0.19630124313E+04  0.50400001928E-02 0. -1.
</event>
<event>
 5   0  0.7675750E-08  0.3864722E+04  0.7818609E-02  0.8032407E-01
       -1   -1    0    0    0  501  0.00000000000E+00  0.00000000000E+00  0.14670119465E+04  0.14670119465E+04  0.50400001928E-02 0.  1.
        1   -1    0    0  501    0  0.00000000000E+00  0.00000000000E+00 -0.25453230910E+04  0.25453230910E+04  0.50400001928E-02 0. -1.
    10030    2    1    2    0    0  0.00000000000E+00  0.00000000000E+00 -0.10783111445E+04  0.40123350375E+04  0.38647221800E+04 0.  0.
        1    1    3    3  502    0  0.18672358996E+04 -0.47373442063E+03 -0.38161936322E+03  0.19638298156E+04  0.50400001928E-02 0.  1.
       -1    1    3    3    0  502 -0.18672358996E+04  0.47373442063E+03 -0.69669178130E+03  0.20485052219E+04  0.50400001928E-02 0. -1.
</event>
<event>
 5   0  0.2446281E-07  0.3910511E+04  0.7818609E-02  0.8022847E-01
        2   -1    0    0  501    0  0.00000000000E+00  0.00000000000E+00  0.15603230070E+04  0.15603230070E+04  0.25500000920E-02 0. -1.
       -2   -1    0    0    0  501  0.00000000000E+00  0.00000000000E+00 -0.24501496577E+04  0.24501496577E+04  0.25500000920E-02 0.  1.
    10030    2    1    2    0    0  0.00000000000E+00  0.00000000000E+00 -0.88982665064E+03  0.40104726647E+04  0.39105114149E+04 0.  0.
        1    1    3    3  502    0 -0.15462045051E+04 -0.57735068711E+03  0.63018831781E+03  0.17666973435E+04  0.50400001928E-02 0. -1.
       -1    1    3    3    0  502  0.15462045051E+04  0.57735068711E+03 -0.15200149684E+04  0.22437753212E+04  0.50400001928E-02 0.  1.
</event>
<event>
 5   0  0.2446281E-07  0.3670295E+04  0.7818609E-02  0.8074577E-01
        2   -1    0    0  501    0  0.00000000000E+00  0.00000000000E+00  0.24354535133E+04  0.24354535133E+04  0.25500000920E-02 0. -1.
       -2   -1    0    0    0  501  0.00000000000E+00  0.00000000000E+00 -0.13828089990E+04  0.13828089990E+04  0.25500000920E-02 0.  1.
    10030    2    1    2    0    0  0.00000000000E+00  0.00000000000E+00  0.10526445143E+04  0.38182625123E+04  0.36702953750E+04 0.  0.
        1    1    3    3  502    0  0.92995168801E+03 -0.13840285207E+04  0.13236554631E+04  0.21289454839E+04  0.50400001928E-02 0.  1.
       -1    1    3    3    0  502 -0.92995168801E+03  0.13840285207E+04 -0.27101094884E+03  0.16893170284E+04  0.50400001928E-02 0. -1.
</event>
<event>
 5   0  0.7675750E-08  0.3882637E+04  0.7818609E-02  0.8028650E-01
        1   -1    0    0  501    0  0.00000000000E+00  0.00000000000E+00  0.16834034210E+04  0.16834034210E+04  0.50400001928E-02 0.  1.
       -1   -1    0    0    0  501  0.00000000000E+00  0.00000000000E+00 -0.22387486784E+04  0.22387486784E+04  0.50400001928E-02 0. -1.
    10030    2    1    2    0    0  0.00000000000E+00  0.00000000000E+00 -0.55534525737E+03  0.39221520994E+04  0.38826368278E+04 0.  0.
        4    1    3    3  502    0  0.12384663734E+04 -0.70498738258E+03  0.10540421776E+04  0.17725159217E+04  0.12699999809E+01 0.  1.
       -4    1    3    3    0  502 -0.12384663734E+04  0.70498738258E+03 -0.16093874350E+04  0.21496361777E+04  0.12699999809E+01 0. -1.
</event>
<event>
 5   0  0.7675750E-08  0.3871054E+04  0.7818609E-02  0.8031077E-01
       -1   -1    0    0    0  501  0.00000000000E+00  0.00000000000E+00  0.14756589864E+04  0.14756589864E+04  0.50400001928E-02 0. -1.
        1   -1    0    0  501    0  0.00000000000E+00  0.00000000000E+00 -0.25387057451E+04  0.25387057451E+04  0.50400001928E-02 0.  1.
    10030    2    1    2    0    0  0.00000000000E+00  0.00000000000E+00 -0.10630467587E+04  0.40143647316E+04  0.38710535758E+04 0.  0.
        5    1    3    3  502    0  0.16279799107E+03  0.13176578171E+04  0.92899006947E+03  0.16204227683E+04  0.46999998093E+01 0. -1.
       -5    1    3    3    0  502 -0.16279799107E+03 -0.13176578171E+04 -0.19920368282E+04  0.23939419633E+04  0.46999998093E+01 0.  1.
</event>
<event>
 5   0  0.2384787E-07  0.3883857E+04  0.7818609E-02  0.8028395E-01
        2   -1    0    0  501    0  0.00000000000E+00  0.00000000000E+00  0.28211852575E+04  0.28211852575E+04  0.25500000920E-02 0.  1.
       -2   -1    0    0    0  501  0.00000000000E+00  0.00000000000E+00 -0.13367029347E+04  0.13367029347E+04  0.25500000920E-02 0. -1.
    10030    2    1    2    0    0  0.00000000000E+00  0.00000000000E+00  0.14844823228E+04  0.41578881922E+04  0.38838571616E+04 0.  0.
        4    1    3    3  502    0  0.99919215696E+03  0.20007518585E+03  0.25119554129E+04  0.27107815581E+04  0.12699999809E+01 0.  1.
       -4    1    3    3    0  502 -0.99919215696E+03 -0.20007518585E+03 -0.10274730901E+04  0.14471066341E+04  0.12699999809E+01 0. -1.
</event>
<event>
 5   0  0.7675750E-08  0.3834701E+04  0.7818609E-02  0.8038749E-01
       -1   -1    0    0    0  501  0.00000000000E+00  0.00000000000E+00  0.29800395755E+04  0.29800395755E+04  0.50400001928E-02 0.  1.
        1   -1    0    0  501    0  0.00000000000E+00  0.00000000000E+00 -0.12336190663E+04  0.12336190664E+04  0.50400001928E-02 0. -1.
    10030    2    1    2    0    0  0.00000000000E+00  0.00000000000E+00  0.17464205092E+04  0.42136586419E+04  0.38347013646E+04 0.  0.
        4    1    3    3  502    0 -0.48464020132E+03  0.17696646714E+04  0.14846565681E+04  0.23602533576E+04  0.12699999809E+01 0.  1.
       -4    1    3    3    0  502  0.48464020132E+03 -0.17696646714E+04  0.26176394109E+03  0.18534052843E+04  0.12699999809E+01 0. -1.
</event>
<event>
 5   0  0.7675750E-08  0.3707401E+04  0.7818609E-02  0.8066324E-01
        1   -1    0    0  501    0  0.00000000000E+00  0.00000000000E+00  0.18679825142E+04  0.18679825142E+04  0.50400001928E-02 0.  1.
       -1   -1    0    0    0  501  0.00000000000E+00  0.00000000000E+00 -0.18395279178E+04  0.18395279178E+04  0.50400001928E-02 0. -1.
    10030    2    1    2    0    0  0.00000000000E+00  0.00000000000E+00  0.28454596421E+02  0.37075104321E+04  0.37074012380E+04 0.  0.
        1    1    3    3  502    0 -0.49083621717E+03 -0.56760541338E+03  0.17093022621E+04  0.18667646667E+04  0.50400001928E-02 0.  1.
       -1    1    3    3    0  502  0.49083621717E+03  0.56760541338E+03 -0.16808476657E+04  0.18407457654E+04  0.50400001928E-02 0. -1.
</event>
<event>
 5   0  0.7675750E-08  0.3883618E+04  0.7818609E-02  0.8028445E-01
       -3   -1    0    0    0  501  0.00000000000E+00  0.00000000000E+00  0.18746613113E+04  0.18746613141E+04  0.10100000352E+00 0.  1.
        3   -1    0    0  501    0  0.00000000000E+00  0.00000000000E+00 -0.20113617673E+04  0.20113617698E+04  0.10100000352E+00 0. -1.
    10030    2    1    2    0    0  0.00000000000E+00  0.00000000000E+00 -0.13670045591E+03  0.38860230839E+04  0.38836179516E+04 0.  0.
        2    1    3    3  502    0 -0.15737155652E+04  0.34706231018E+03  0.10156438834E+04  0.19048793729E+04  0.25500000920E-02 0.  1.
       -2    1    3    3    0  502  0.15737155652E+04 -0.34706231018E+03 -0.11523443393E+04  0.19811437110E+04  0.25500000920E-02 0. -1.
</event>
<event>
 5   0  0.2384787E-07  0.3922451E+04  0.7818609E-02  0.8020376E-01
        2   -1    0    0  501    0  0.00000000000E+00  0.00000000000E+00  0.21085563565E+04  0.21085563565E+04  0.25500000920E-02 0.  1.
       -2   -1    0    0    0  501  0.00000000000E+00  0.00000000000E+00 -0.18241888873E+04  0.18241888873E+04  0.25500000920E-02 0. -1.
    10030    2    1    2    0    0  0.00000000000E+00  0.00000000000E+00  0.28436746919E+03  0.39327452439E+04  0.39224508022E+04 0.  0.
        4    1    3    3  502    0 -0.29165472405E+03 -0.12645907675E+04 -0.13321008935E+04  0.18597706016E+04  0.12699999809E+01 0. -1.
       -4    1    3    3    0  502  0.29165472405E+03  0.12645907675E+04  0.16164683627E+04  0.20729746423E+04  0.12699999809E+01 0.  1.
</event>
<event>
 5   0  0.2473224E-07  0.3936604E+04  0.7818609E-02  0.8017459E-01
        2   -1    0    0  501    0  0.00000000000E+00  0.00000000000E+00  0.26340906306E+04  0.26340906306E+04  0.25500000920E-02 0.  1.
       -2   -1    0    0    0  501  0.00000000000E+00  0.00000000000E+00 -0.14707971624E+04  0.14707971624E+04  0.25500000920E-02 0. -1.
    10030    2    1    2    0    0  0.00000000000E+00  0.00000000000E+00  0.11632934682E+04  0.41048877931E+04  0.39366041330E+04 0.  0.
        2    1    3    3  502    0  0.31636707683E+03 -0.11819482252E+04 -0.10260547020E+04  0.15968337377E+04  0.25500000920E-02 0. -1.
       -2    1    3    3    0  502 -0.31636707683E+03  0.11819482252E+04  0.21893481702E+04  0.25080540554E+04  0.25500000920E-02 0.  1.
</event>
<event>
 5   0  0.7675750E-08  0.3903222E+04  0.7818609E-02  0.8024360E-01
        1   -1    0    0  501    0  0.00000000000E+00  0.00000000000E+00  0.13797108328E+04  0.13797108328E+04  0.50400001928E-02 0.  1.
       -1   -1    0    0    0  501  0.00000000000E+00  0.00000000000E+00 -0.27605673523E+04  0.27605673524E+04  0.50400001928E-02 0. -1.
    10030    2    1    2    0    0  0.00000000000E+00  0.00000000000E+00 -0.13808565195E+04  0.41402781852E+04  0.39032215826E+04 0.  0.
        5    1    3    3  502    0  0.74969708962E+03 -0.11198676613E+04  0.80690277657E+03  0.15707525222E+04  0.46999998093E+01 0.  1.
       -5    1    3    3    0  502 -0.74969708962E+03  0.11198676613E+04 -0.21877592961E+04  0.25695256630E+04  0.46999998093E+01 0. -1.
</event>
<event>
 5   0  0.7675750E-08  0.3884146E+04  0.7818609E-02  0.8028335E-01
       -1   -1    0    0    0  501  0.00000000000E+00  0.00000000000E+00  0.20847551832E+04  0.20847551832E+04  0.50400001928E-02 0. -1.
        1   -1    0    0  501    0  0.00000000000E+00  0.00000000000E+00 -0.18091559845E+04  0.18091559845E+04  0.50400001928E-02 0.  1.
    10030    2    1    2    0    0  0.00000000000E+00  0.00000000000E+00  0.27559919872E+03  0.38939111677E+04  0.38841458860E+04 0.  0.
        1    1    3    3  502    0 -0.11713311857E+04 -0.62082116024E+03 -0.12849977871E+04  0.18462543088E+04  0.50400001928E-02 0.  1.
       -1    1    3    3    0  502  0.11713311857E+04  0.62082116024E+03  0.15605969858E+04  0.20476568589E+04  0.50400001928E-02 0. -1.
</event>
<event>
 5   0  0.2395572E-07  0.3882061E+04  0.7818609E-02  0.8028771E-01
       -2   -1    0    0    0  501  0.00000000000E+00  0.00000000000E+00  0.22599507796E+04  0.22599507796E+04  0.25500000920E-02 0. -1.
        2   -1    0    0  501    0  0.00000000000E+00  0.00000000000E+00 -0.16671158344E+04  0.16671158344E+04  0.25500000920E-02 0.  1.
    10030    2    1    2    0    0  0.00000000000E+00  0.00000000000E+00  0.59283494522E+03  0.39270666140E+04  0.38820611688E+04 0.  0.
        3    1    3    3  502    0  0.54674758644E+03 -0.16950870991E+04  0.10769496375E+04  0.20813634303E+04  0.10100000352E+00 0. -1.
       -3    1    3    3    0  502 -0.54674758644E+03  0.16950870991E+04 -0.48411469233E+03  0.18457031837E+04  0.10100000352E+00 0.  1.
</event>
<event>
 5   0  0.2384787E-07  0.3788907E+04  0.7818609E-02  0.8048540E-01
        2   -1    0    0  501    0  0.00000000000E+00  0.00000000000E+00  0.14368454284E+04  0.14368454284E+04  0.25500000920E-02 0.  1.
       -2   -1    0    0    0  501  0.00000000000E+00  0.00000000000E+00 -0.24978008476E+04  0.24978008476E+04  0.25500000920E-02 0. -1.
    10030    2    1    2    0    0  0.00000000000E+00  0.00000000000E+00 -0.10609554192E+04  0.39346462760E+04  0.37889068233E+04 0.  0.
        4    1    3    3  502    0  0.10248731622E+04 -0.13929818392E+04  0.27269857640E+03  0.17507511329E+04  0.12699999809E+01 0.  1.
       -4    1    3    3    0  502 -0.10248731622E+04  0.13929818392E+04 -0.13336539956E+04  0.21838951431E+04  0.12699999809E+01 0. -1.
</event>
<event>
 5   0  0.2384787E-07  0.3892628E+04  0.7818609E-02  0.8026564E-01
       -2   -1    0    0    0  501  0.00000000000E+00  0.00000000000E+00  0.20466285039E+04  0.20466285039E+04  0.25500000920E-02 0. -1.
        2   -1    0    0  501    0  0.00000000000E+00  0.00000000000E+00 -0.18509159068E+04  0.18509159068E+04  0.25500000920E-02 0.  1.
    10030    2    1    2    0    0  0.00000000000E+00  0.00000000000E+00  0.19571259716E+03  0.38975444107E+04  0.38926275204E+04 0.  0.
        4    1    3    3  502    0 -0.87482620777E+03 -0.58002223469E+03  0.17389473231E+04  0.20311784983E+04  0.12699999809E+01 0. -1.
       -4    1    3    3    0  502  0.87482620777E+03  0.58002223469E+03 -0.15432347260E+04  0.18663659124E+04  0.12699999809E+01 0.  1.
</event>
<event>
 5   0  0.7731706E-08  0.3906580E+04  0.7818609E-02  0.8023662E-01
       -1   -1    0    0    0  501  0.00000000000E+00  0.00000000000E+00  0.14967597456E+04  0.14967597456E+04  0.50400001928E-02 0.  1.
        1   -1    0    0  501    0  0.00000000000E+00  0.00000000000E+00 -0.25490681683E+04  0.25490681683E+04  0.50400001928E-02 0. -1.
    10030    2    1    2    0    0  0.00000000000E+00  0.00000000000E+00 -0.10523084227E+04  0.40458279139E+04  0.39065804090E+04 0.  0.
        3    1    3    3  502    0 -0.25041609040E+03  0.15275849736E+04  0.70757536445E+03  0.17020243760E+04  0.10100000352E+00 0.  1.
       -3    1    3    3    0  502  0.25041609040E+03 -0.15275849736E+04 -0.17598837871E+04  0.23438035379E+04  0.10100000352E+00 0. -1.
</event>
<event>
 5   0  0.7675750E-08  0.3880147E+04  0.7818609E-02  0.8029171E-01
       -1   -1    0    0    0  501  0.00000000000E+00  0.00000000000E+00  0.17028683766E+04  0.17028683766E+04  0.50400001928E-02 0. -1.
        1   -1    0    0  501    0  0.00000000000E+00  0.00000000000E+00 -0.22103206187E+04  0.22103206187E+04  0.50400001928E-02 0.  1.
    10030    2    1    2    0    0  0.00000000000E+00  0.00000000000E+00 -0.50745224217E+03  0.39131889953E+04  0.38801469476E+04 0.  0.
        5    1    3    3  502    0 -0.11421553812E+04  0.43453273230E+03 -0.17733840169E+04  0.21536598087E+04  0.46999998093E+01 0.  1.
       -5    1    3    3    0  502  0.11421553812E+04 -0.43453273230E+03  0.12659317748E+04  0.17595291866E+04  0.46999998093E+01 0. -1.
</event>
<event>
 5   0  0.7731706E-08  0.3961615E+04  0.7818609E-02  0.8012335E-01
       -1   -1    0    0    0  501  0.00000000000E+00  0.00000000000E+00  0.14549369779E+04  0.14549369779E+04  0.50400001928E-02 0.  1.
        1   -1    0    0  501    0  0.00000000000E+00  0.00000000000E+00 -0.26967481497E+04  0.26967481497E+04  0.50400001928E-02 0. -1.
    10030    2    1    2    0    0  0.00000000000E+00  0.00000000000E+00 -0.12418111718E+04  0.41516851276E+04  0.39616151268E+04 0.  0.
        3    1    3    3  502    0  0.16833855121E+04  0.42933615358E+03 -0.16181281677E+04  0.23741219624E+04  0.10100000352E+00 0.  1.
       -3    1    3    3    0  502 -0.16833855121E+04 -0.42933615358E+03  0.37631699585E+03  0.17775631653E+04  0.10100000352E+00 0. -1.
</event>
<event>
 5   0  0.7675750E-08  0.3829171E+04  0.7818609E-02  0.8039924E-01
        1   -1    0    0  501    0  0.00000000000E+00  0.00000000000E+00  0.26726358904E+04  0.26726358904E+04  0.50400001928E-02 0. -1.
       -1   -1    0    0    0  501  0.00000000000E+00  0.00000000000E+00 -0.13715437356E+04  0.13715437356E+04  0.50400001928E-02 0.  1.
    10030    2    1    2    0    0  0.00000000000E+00  0.00000000000E+00  0.13010921548E+04  0.40441796260E+04  0.38291706742E+04 0.  0.
        2    1    3    3  502    0  0.99214419701E+03  0.63193251153E+03 -0.94488704547E+03  0.15088075873E+04  0.25500000920E-02 0.  1.
       -2    1    3    3    0  502 -0.99214419701E+03 -0.63193251153E+03  0.22459792002E+04  0.25353720387E+04  0.25500000920E-02 0. -1.
</event>
<event>
 5   0  0.2395572E-07  0.3953922E+04  0.7818609E-02  0.8013907E-01
       -2   -1    0    0    0  501  0.00000000000E+00  0.00000000000E+00  0.24799156196E+04  0.24799156196E+04  0.25500000920E-02 0.  1.
        2   -1    0    0  501    0  0.00000000000E+00  0.00000000000E+00 -0.15760113088E+04  0.15760113088E+04  0.25500000920E-02 0. -1.
    10030    2    1    2    0    0  0.00000000000E+00  0.00000000000E+00  0.90390431081E+03  0.40559269285E+04  0.39539221346E+04 0.  0.
        3    1    3    3  502    0  0.22603233068E+03  0.78749049606E+03  0.22975750229E+04  0.24392791747E+04  0.10100000352E+00 0.  1.
       -3    1    3    3    0  502 -0.22603233068E+03 -0.78749049606E+03 -0.13936707121E+04  0.16166477538E+04  0.10100000352E+00 0. -1.
</event>
<event>
 5   0  0.2395572E-07  0.3788074E+04  0.7818609E-02  0.8048719E-01
        2   -1    0    0  501    0  0.00000000000E+00  0.00000000000E+00  0.17749425106E+04  0.17749425106E+04  0.25500000920E-02 0. -1.
       -2   -1    0    0    0  501  0.00000000000E+00  0.00000000000E+00 -0.20211228962E+04  0.20211228962E+04  0.25500000920E-02 0.  1.
    10030    2    1    2    0    0  0.00000000000E+00  0.00000000000E+00 -0.24618038553E+03  0.37960654068E+04  0.37880744172E+04 0.  0.
        3    1    3    3  502    0 -0.10518210649E+04  0.71352179065E+03 -0.15303088897E+04  0.19892928910E+04  0.10100000352E+00 0.  1.
       -3    1    3    3    0  502  0.10518210649E+04 -0.71352179065E+03  0.12841285042E+04  0.18067725157E+04  0.10100000352E+00 0. -1.
</event>
<event>
 5   0  0.7675750E-08  0.3885221E+04  0.7818609E-02  0.8028110E-01
       -1   -1    0    0    0  501  0.00000000000E+00  0.00000000000E+00  0.19954144802E+04  0.19954144802E+04  0.50400001928E-02 0.  1.
        1   -1    0    0  501    0  0.00000000000E+00  0.00000000000E+00 -0.18912034941E+04  0.18912034941E+04  0.50400001928E-02 0. -1.
    10030    2    1    2    0    0  0.00000000000E+00  0.00000000000E+00  0.10421098608E+03  0.38866179742E+04  0.38852206306E+04 0.  0.
        5    1    3    3  502    0  0.15465385121E+03 -0.17246684976E+04 -0.82873007604E+03  0.19196913474E+04  0.46999998093E+01 0. -1.
       -5    1    3    3    0  502 -0.15465385121E+03  0.17246684976E+04  0.93294106212E+03  0.19669266269E+04  0.46999998093E+01 0.  1.
</event>
<event>
 5   0  0.2473224E-07  0.3824752E+04  0.7818609E-02  0.8040864E-01
        2   -1    0    0  501    0  0.00000000000E+00  0.00000000000E+00  0.31620902062E+04  0.31620902062E+04  0.25500000920E-02 0.  1.
       -2   -1    0    0    0  501  0.00000000000E+00  0.00000000000E+00 -0.11565708371E+04  0.11565708371E+04  0.25500000920E-02 0. -1.
    10030    2    1    2    0    0  0.00000000000E+00  0.00000000000E+00  0.20055193691E+04  0.43186610433E+04  0.38247516609E+04 0.  0.
        2    1    3    3  502    0  0.11541867133E+04  0.99029027658E+02 -0.71531770620E+03  0.13614819640E+04  0.25500000920E-02 0. -1.
       -2    1    3    3    0  502 -0.11541867133E+04 -0.99029027658E+02  0.27208370753E+04  0.29571790794E+04  0.25500000920E-02 0.  1.
</event>
<event>
 5   0  0.2446281E-07  0.3909038E+04  0.7818609E-02  0.8023152E-01
        2   -1    0    0  501    0  0.00000000000E+00  0.00000000000E+00  0.24833652765E+04  0.24833652765E+04  0.25500000920E-02 0. -1.
       -2   -1    0    0    0  501  0.00000000000E+00  0.00000000000E+00 -0.15382933749E+04  0.15382933749E+04  0.25500000920E-02 0.  1.
    10030    2    1    2    0    0  0.00000000000E+00  0.00000000000E+00  0.94507190161E+03  0.40216586514E+04  0.39090379135E+04 0.  0.
        1    1    3    3  502    0 -0.99084802354E+03  0.74241870384E+02  0.22041349223E+04  0.24177473848E+04  0.50400001928E-02 0. -1.
       -1    1    3    3    0  502  0.99084802354E+03 -0.74241870384E+02 -0.12590630207E+04  0.16039112666E+04  0.50400001928E-02 0.  1.
</event>
<event>
 5   0  0.2384787E-07  0.3744227E+04  0.7818609E-02  0.8058231E-01
        2   -1    0    0  501    0  0.00000000000E+00  0.00000000000E+00  0.24165446031E+04  0.24165446031E+04  0.25500000920E-02 0. -1.
       -2   -1    0    0    0  501  0.00000000000E+00  0.00000000000E+00 -0.14503386612E+04  0.14503386612E+04  0.25500000920E-02 0.  1.
    10030    2    1    2    0    0  0.00000000000E+00  0.00000000000E+00  0.96620594190E+03  0.38668832643E+04  0.37442265232E+04 0.  0.
        4    1    3    3  502    0 -0.59774557990E+03  0.15773359680E+04 -0.35560784832E+03  0.17238756014E+04  0.12699999809E+01 0.  1.
       -4    1    3    3    0  502  0.59774557990E+03 -0.15773359680E+04  0.13218137902E+04  0.21430076629E+04  0.12699999809E+01 0. -1.
</event>
<event>
 5   0  0.7675750E-08  0.3916093E+04  0.7818609E-02  0.8021691E-01
       -1   -1    0    0    0  501  0.00000000000E+00  0.00000000000E+00  0.12122441539E+04  0.12122441539E+04  0.50400001928E-02 0. -1.
        1   -1    0    0  501    0  0.00000000000E+00  0.00000000000E+00 -0.31626839588E+04  0.31626839588E+04  0.50400001928E-02 0.  1.
    10030    2    1    2    0    0  0.00000000000E+00  0.00000000000E+00 -0.19504398049E+04  0.43749281128E+04  0.39160925116E+04 0.  0.
        5    1    3    3  502    0 -0.15505706660E+04  0.56417621393E+03 -0.21529482713E+04  0.27125214358E+04  0.46999998093E+01 0.  1.
       -5    1    3    3    0  502  0.15505706660E+04 -0.56417621393E+03  0.20250846639E+03  0.16624066770E+04  0.46999998093E+01 0. -1.
</event>
<event>
 5   0  0.2446281E-07  0.3573776E+04  0.7818609E-02  0.8096525E-01
       -2   -1    0    0    0  501  0.00000000000E+00  0.00000000000E+00  0.10291106331E+04  0.10291106331E+04  0.25500000920E-02 0.  1.
        2   -1    0    0  501    0  0.00000000000E+00  0.00000000000E+00 -0.31026478787E+04  0.31026478787E+04  0.25500000920E-02 0. -1.
    10030    2    1    2    0    0  0.00000000000E+00  0.00000000000E+00 -0.20735372457E+04  0.41317585118E+04  0.35737755512E+04 0.  0.
        1    1    3    3  502    0 -0.16167638709E+04  0.55103796967E+03 -0.43004715724E+03  0.17613939978E+04  0.50400001928E-02 0.  1.
       -1    1    3    3    0  502  0.16167638709E+04 -0.55103796967E+03 -0.16434900884E+04  0.23703645139E+04  0.50400001928E-02 0. -1.
</event>
<event>
 5   0  0.2395572E-07  0.3794988E+04  0.7818609E-02  0.8047231E-01
       -2   -1    0    0    0  501  0.00000000000E+00  0.00000000000E+00  0.21497095985E+04  0.21497095985E+04  0.25500000920E-02 0. -1.
        2   -1    0    0  501    0  0.00000000000E+00  0.00000000000E+00 -0.16748694168E+04  0.16748694168E+04  0.25500000920E-02 0.  1.
    10030    2    1    2    0    0  0.00000000000E+00  0.00000000000E+00  0.47484018173E+03  0.38245790152E+04  0.37949876740E+04 0.  0.
        3    1    3    3  502    0  0.65400331900E+03  0.80753030975E+03 -0.13626174454E+04  0.17136370255E+04  0.10100000352E+00 0.  1.
       -3    1    3    3    0  502 -0.65400331900E+03 -0.80753030975E+03  0.18374576271E+04  0.21109419898E+04  0.10100000352E+00 0. -1.
</event>
<event>
 5   0  0.7675750E-08  0.3898873E+04  0.7818609E-02  0.8025264E-01
       -1   -1    0    0    0  501  0.00000000000E+00  0.00000000000E+00  0.14946120966E+04  0.14946120966E+04  0.50400001928E-02 0.  1.
        1   -1    0    0  501    0  0.00000000000E+00  0.00000000000E+00 -0.25426687686E+04  0.25426687686E+04  0.50400001928E-02 0. -1.
    10030    2    1    2    0    0  0.00000000000E+00  0.00000000000E+00 -0.10480566719E+04  0.40372808652E+04  0.38988734267E+04 0.  0.
        4    1    3    3  502    0 -0.96981944975E+03 -0.12666918209E+03 -0.22702213786E+04  0.24719428730E+04  0.12699999809E+01 0. -1.
       -4    1    3    3    0  502  0.96981944975E+03  0.12666918209E+03  0.12221647066E+04  0.15653379922E+04  0.12699999809E+01 0.  1.
</event>
<event>
 5   0  0.2486268E-07  0.3900034E+04  0.7818609E-02  0.8025022E-01
        2   -1    0    0  501    0  0.00000000000E+00  0.00000000000E+00  0.20779121105E+04  0.20779121106E+04  0.25500000920E-02 0. -1.
       -2   -1    0    0    0  501  0.00000000000E+00  0.00000000000E+00 -0.18299937229E+04  0.18299937229E+04  0.25500000920E-02 0.  1.
    10030    2    1    2    0    0  0.00000000000E+00  0.00000000000E+00  0.24791838761E+03  0.39079058335E+04  0.39000339071E+04 0.  0.
        5    1    3    3  502    0  0.11508974953E+04  0.40633761317E+03 -0.13999223160E+04  0.18572775456E+04  0.46999998093E+01 0.  1.
       -5    1    3    3    0  502 -0.11508974953E+04 -0.40633761317E+03  0.16478407036E+04  0.20506282879E+04  0.46999998093E+01 0. -1.
</event>
<event>
 5   0  0.2473224E-07  0.3892451E+04  0.7818609E-02  0.8026601E-01
       -2   -1    0    0    0  501  0.00000000000E+00  0.00000000000E+00  0.15731635755E+04  0.15731635755E+04  0.25500000920E-02 0. -1.
        2   -1    0    0  501    0  0.00000000000E+00  0.00000000000E+00 -0.24077553887E+04  0.24077553887E+04  0.25500000920E-02 0.  1.
    10030    2    1    2    0    0  0.00000000000E+00  0.00000000000E+00 -0.83459181315E+03  0.39809189642E+04  0.38924506812E+04 0.  0.
        2    1    3    3  502    0  0.21864527895E+03 -0.37673048952E+03 -0.23572636422E+04  0.23971698936E+04  0.25500000920E-02 0.  1.
       -2    1    3    3    0  502 -0.21864527895E+03  0.37673048952E+03  0.15226718291E+04  0.15837490707E+04  0.25500000920E-02 0. -1.
</event>
<event>
 5   0  0.2473224E-07  0.3899715E+04  0.7818609E-02  0.8025089E-01
        2   -1    0    0  501    0  0.00000000000E+00  0.00000000000E+00  0.16479501632E+04  0.16479501632E+04  0.25500000920E-02 0.  1.
       -2   -1    0    0    0  501  0.00000000000E+00  0.00000000000E+00 -0.23070743973E+04  0.23070743973E+04  0.25500000920E-02 0. -1.
    10030    2    1    2    0    0  0.00000000000E+00  0.00000000000E+00 -0.65912423409E+03  0.39550245604E+04  0.38997146713E+04 0.  0.
        2    1    3    3  502    0  0.19598133068E+03 -0.57647100091E+03  0.15490641484E+04  0.16644300024E+04  0.25500000920E-02 0.  1.
       -2    1    3    3    0  502 -0.19598133068E+03  0.57647100091E+03 -0.22081883825E+04  0.22905945581E+04  0.25500000920E-02 0. -1.
</event>
<event>
 5   0  0.7731706E-08  0.3791833E+04  0.7818609E-02  0.8047910E-01
        1   -1    0    0  501    0  0.00000000000E+00  0.00000000000E+00  0.29400133936E+04  0.29400133936E+04  0.50400001928E-02 0.  1.
       -1   -1    0    0    0  501  0.00000000000E+00  0.00000000000E+00 -0.12226130720E+04  0.12226130720E+04  0.50400001928E-02 0. -1.
    10030    2    1    2    0    0  0.00000000000E+00  0.00000000000E+00  0.17174003216E+04  0.41626264656E+04  0.37918327004E+04 0.  0.
        3    1    3    3  502    0 -0.57400260068E+02  0.13241116338E+02  0.29390085017E+04  0.29395987992E+04  0.10100000352E+00 0.  1.
       -3    1    3    3    0  502  0.57400260068E+02 -0.13241116338E+02 -0.12216081801E+04  0.12230276664E+04  0.10100000352E+00 0. -1.
</event>
<event>
 5   0  0.7675750E-08  0.3899171E+04  0.7818609E-02  0.8025202E-01
       -1   -1    0    0    0  501  0.00000000000E+00  0.00000000000E+00  0.17011132292E+04  0.17011132292E+04  0.50400001928E-02 0. -1.
        1   -1    0    0  501    0  0.00000000000E+00  0.00000000000E+00 -0.22343509000E+04  0.22343509000E+04  0.50400001928E-02 0.  1.
    10030    2    1    2    0    0  0.00000000000E+00  0.00000000000E+00 -0.53323767085E+03  0.39354641292E+04  0.38991711297E+04 0.  0.
        2    1    3    3  502    0 -0.79103267914E+03 -0.32695014872E+03 -0.20345663645E+04  0.22072809950E+04  0.25500000920E-02 0.  1.
       -2    1    3    3    0  502  0.79103267914E+03  0.32695014872E+03  0.15013286936E+04  0.17281831343E+04  0.25500000920E-02 0. -1.
</event>
<event>
 5   0  0.2446281E-07  0.3639778E+04  0.7818609E-02  0.8081440E-01
       -2   -1    0    0    0  501  0.00000000000E+00  0.00000000000E+00  0.13060428288E+04  0.13060428288E+04  0.25500000920E-02 0.  1.
        2   -1    0    0  501    0  0.00000000000E+00  0.00000000000E+00 -0.25359009286E+04  0.25359009286E+04  0.25500000920E-02 0. -1.
    10030    2    1    2    0    0  0.00000000000E+00  0.00000000000E+00 -0.12298580998E+04  0.38419437573E+04  0.36397775878E+04 0.  0.
        1    1    3    3  502    0  0.11467150531E+04  0.76469887087E+03 -0.18693285165E+04  0.23225220943E+04  0.50400001928E-02 0. -1.
       -1    1    3    3    0  502 -0.11467150531E+04 -0.76469887087E+03  0.63947041664E+03  0.15194216630E+04  0.50400001928E-02 0.  1.
</event>
<event>
 5   0  0.7675750E-08  0.3671831E+04  0.7818609E-02  0.8074233E-01
        1   -1    0    0  501    0  0.00000000000E+00  0.00000000000E+00  0.33684780562E+04  0.33684780562E+04  0.50400001928E-02 0.  1.
       -1   -1    0    0    0  501  0.00000000000E+00  0.00000000000E+00 -0.10006254518E+04  0.10006254518E+04  0.50400001928E-02 0. -1.
    10030    2    1    2    0    0  0.00000000000E+00  0.00000000000E+00  0.23678526044E+04  0.43691035080E+04  0.36718305390E+04 0.  0.
        2    1    3    3  502    0  0.10356347741E+04  0.14359691071E+04  0.17620235010E+04  0.24978537747E+04  0.25500000920E-02 0.  1.
       -2    1    3    3    0  502 -0.10356347741E+04 -0.14359691071E+04  0.60582910347E+03  0.18712497333E+04  0.25500000920E-02 0. -1.
</event>
<event>
 5   0  0.7675750E-08  0.3967888E+04  0.7818609E-02  0.8011056E-01
        1   -1    0    0  501    0  0.00000000000E+00  0.00000000000E+00  0.26355829048E+04  0.26355829048E+04  0.50400001928E-02 0. -1.
       -1   -1    0    0    0  501  0.00000000000E+00  0.00000000000E+00 -0.14934204094E+04  0.14934204094E+04  0.50400001928E-02 0.  1.
    10030    2    1    2    0    0  0.00000000000E+00  0.00000000000E+00  0.11421624954E+04  0.41290033142E+04  0.39678877508E+04 0.  0.
        5    1    3    3  502    0 -0.11552031440E+04 -0.16068811985E+04  0.42595614488E+03  0.20243572356E+04  0.46999998093E+01 0.  1.
       -5    1    3    3    0  502  0.11552031440E+04  0.16068811985E+04  0.71620635051E+03  0.21046460786E+04  0.46999998093E+01 0. -1.
</event>
<event>
 5   0  0.2486268E-07  0.3635889E+04  0.7818609E-02  0.8082320E-01
        2   -1    0    0  501    0  0.00000000000E+00  0.00000000000E+00  0.18178487750E+04  0.18178487750E+04  0.25500000920E-02 0.  1.
       -2   -1    0    0    0  501  0.00000000000E+00  0.00000000000E+00 -0.18180400830E+04  0.18180400830E+04  0.25500000920E-02 0. -1.
    10030    2    1    2    0    0  0.00000000000E+00  0.00000000000E+00 -0.19130797303E+00  0.36358888580E+04  0.36358888530E+04 0.  0.
        5    1    3    3  502    0  0.17077294398E+04 -0.37634019615E+03 -0.49701422437E+03  0.18179705752E+04  0.46999998093E+01 0. -1.
       -5    1    3    3    0  502 -0.17077294398E+04  0.37634019615E+03  0.49682291639E+03  0.18179182829E+04  0.46999998093E+01 0.  1.
</event>
<event>
 5   0  0.7675750E-08  0.4012976E+04  0.7818609E-02  0.8001934E-01
       -1   -1    0    0    0  501  0.00000000000E+00  0.00000000000E+00  0.15498497075E+04  0.15498497075E+04  0.50400001928E-02 0.  1.
        1   -1    0    0  501    0  0.00000000000E+00  0.00000000000E+00 -0.25976678087E+04  0.25976678087E+04  0.50400001928E-02 0. -1.
    10030    2    1    2    0    0  0.00000000000E+00  0.00000000000E+00 -0.10478181012E+04  0.41475175162E+04  0.40129762987E+04 0.  0.
        2    1    3    3  502    0 -0.17138973271E+04  0.99241784516E+03 -0.19115608966E+03  0.19896929104E+04  0.25500000920E-02 0.  1.
       -2    1    3    3    0  502  0.17138973271E+04 -0.99241784516E+03 -0.85666201158E+03  0.21578246058E+04  0.25500000920E-02 0. -1.
</event>
<event>
 5   0  0.7731706E-08  0.3744045E+04  0.7818609E-02  0.8058270E-01
        1   -1    0    0  501    0  0.00000000000E+00  0.00000000000E+00  0.29744680915E+04  0.29744680915E+04  0.50400001928E-02 0. -1.
       -1   -1    0    0    0  501  0.00000000000E+00  0.00000000000E+00 -0.11781832095E+04  0.11781832096E+04  0.50400001928E-02 0.  1.
    10030    2    1    2    0    0  0.00000000000E+00  0.00000000000E+00  0.17962848820E+04  0.41526513011E+04  0.37440450653E+04 0.  0.
        3    1    3    3  502    0  0.11543498764E+04  0.75567974728E+03 -0.50520603649E+03  0.14692884901E+04  0.10100000352E+00 0.  1.
       -3    1    3    3    0  502 -0.11543498764E+04 -0.75567974728E+03  0.23014909185E+04  0.26833628110E+04  0.10100000352E+00 0. -1.
</event>
<event>
 5   0  0.7675750E-08  0.3706281E+04  0.7818609E-02  0.8066571E-01
        1   -1    0    0  501    0  0.00000000000E+00  0.00000000000E+00  0.13514860714E+04  0.13514860714E+04  0.50400001928E-02 0.  1.
       -1   -1    0    0    0  501  0.00000000000E+00  0.00000000000E+00 -0.25410025188E+04  0.25410025188E+04  0.50400001928E-02 0. -1.
    10030    2    1    2    0    0  0.00000000000E+00  0.00000000000E+00 -0.11895164474E+04  0.38924885903E+04  0.37062808915E+04 0.  0.
        5    1    3    3  502    0  0.54318598196E+03 -0.70750840202E+03 -0.23007094160E+04  0.24675706792E+04  0.46999998093E+01 0. -1.
       -5    1    3    3    0  502 -0.54318598196E+03  0.70750840202E+03  0.11111929686E+04  0.14249179111E+04  0.46999998093E+01 0.  1.
</event>
<event>
 5   0  0.2473224E-07  0.3856187E+04  0.7818609E-02  0.8034204E-01
       -2   -1    0    0    0  501  0.00000000000E+00  0.00000000000E+00  0.12902670576E+04  0.12902670576E+04  0.25500000920E-02 0.  1.
        2   -1    0    0  501    0  0.00000000000E+00  0.00000000000E+00 -0.28812204780E+04  0.28812204780E+04  0.25500000920E-02 0. -1.
    10030    2    1    2    0    0  0.00000000000E+00  0.00000000000E+00 -0.15909534204E+04  0.41714875356E+04  0.38561866493E+04 0.  0.
        2    1    3    3  502    0  0.13970092549E+04  0.11416061786E+04 -0.15312712010E+04  0.23663666276E+04  0.25500000920E-02 0.  1.
       -2    1    3    3    0  502 -0.13970092549E+04 -0.11416061786E+04 -0.59682219399E+02  0.18051209080E+04  0.25500000920E-02 0. -1.
</event>
<event>
 5   0  0.2446281E-07  0.3888690E+04  0.7818609E-02  0.8027386E-01
        2   -1    0    0  501    0  0.00000000000E+00  0.00000000000E+00  0.15964184591E+04  0.15964184591E+04  0.25500000920E-02 0. -1.
       -2   -1    0    0    0  501  0.00000000000E+00  0.00000000000E+00 -0.23680987332E+04  0.23680987332E+04  0.25500000920E-02 0.  1.
    10030    2    1    2    0    0  0.00000000000E+00  0.00000000000E+00 -0.77168027411E+03  0.39645171924E+04  0.38886895123E+04 0.  0.
        1    1    3    3  502    0  0.11694011585E+03 -0.18678910517E+04  0.15148986153E+03  0.18776690736E+04  0.50400001928E-02 0. -1.
       -1    1    3    3    0  502 -0.11694011585E+03  0.18678910517E+04 -0.92317013565E+03  0.20868481188E+04  0.50400001928E-02 0.  1.
</event>
<event>
 5   0  0.7731706E-08  0.3890501E+04  0.7818609E-02  0.8027008E-01
        1   -1    0    0  501    0  0.00000000000E+00  0.00000000000E+00  0.26782941844E+04  0.26782941844E+04  0.50400001928E-02 0. -1.
       -1   -1    0    0    0  501  0.00000000000E+00  0.00000000000E+00 -0.14128393480E+04  0.14128393480E+04  0.50400001928E-02 0.  1.
    10030    2    1    2    0    0  0.00000000000E+00  0.00000000000E+00  0.12654548364E+04  0.40911335324E+04  0.38905009494E+04 0.  0.
        3    1    3    3  502    0 -0.11368889379E+04 -0.80690468028E+03  0.20592964747E+04  0.24868280200E+04  0.10100000352E+00 0. -1.
       -3    1    3    3    0  502  0.11368889379E+04  0.80690468028E+03 -0.79384163825E+03  0.16043055124E+04  0.10100000352E+00 0.  1.
</event>
<event>
 5   0  0.2446281E-07  0.3924531E+04  0.7818609E-02  0.8019946E-01
       -2   -1    0    0    0  501  0.00000000000E+00  0.00000000000E+00  0.14200253607E+04  0.14200253607E+04  0.25500000920E-02 0.  1.
        2   -1    0    0  501    0  0.00000000000E+00  0.00000000000E+00 -0.27115619391E+04  0.27115619391E+04  0.25500000920E-02 0. -1.
    10030    2    1    2    0    0  0.00000000000E+00  0.00000000000E+00 -0.12915365785E+04  0.41315872998E+04  0.39245314220E+04 0.  0.
        1    1    3    3  502    0 -0.11169195730E+04  0.87486903831E+03  0.78132523176E+03  0.16196833902E+04  0.50400001928E-02 0.  1.
       -1    1    3    3    0  502  0.11169195730E+04 -0.87486903831E+03 -0.20728618102E+04  0.25119039096E+04  0.50400001928E-02 0. -1.
</event>
<event>
 5   0  0.2446281E-07  0.3632244E+04  0.7818609E-02  0.8083145E-01
       -2   -1    0    0    0  501  0.00000000000E+00  0.00000000000E+00  0.28826699333E+04  0.28826699333E+04  0.25500000920E-02 0.  1.
        2   -1    0    0  501    0  0.00000000000E+00  0.00000000000E+00 -0.11441822973E+04  0.11441822973E+04  0.25500000920E-02 0. -1.
    10030    2    1    2    0    0  0.00000000000E+00  0.00000000000E+00  0.17384876360E+04  0.40268522306E+04  0.36322444338E+04 0.  0.
        1    1    3    3  502    0 -0.81313795299E+03  0.11966821102E+04 -0.34776770949E+03  0.14880133680E+04  0.50400001928E-02 0. -1.
       -1    1    3    3    0  502  0.81313795299E+03 -0.11966821102E+04  0.20862553455E+04  0.25388388626E+04  0.50400001928E-02 0.  1.
</event>
<event>
 5   0  0.2486268E-07  0.3879130E+04  0.7818609E-02  0.8029384E-01
       -2   -1    0    0    0  501  0.00000000000E+00  0.00000000000E+00  0.17159189836E+04  0.17159189836E+04  0.25500000920E-02 0.  1.
        2   -1    0    0  501    0  0.00000000000E+00  0.00000000000E+00 -0.21923604519E+04  0.21923604519E+04  0.25500000920E-02 0. -1.
    10030    2    1    2    0    0  0.00000000000E+00  0.00000000000E+00 -0.47644146834E+03  0.39082794355E+04  0.38791302728E+04 0.  0.
        5    1    3    3  502    0  0.59402867835E+03  0.96808881807E+02  0.16194479926E+04  0.17276793455E+04  0.46999998093E+01 0.  1.
       -5    1    3    3    0  502 -0.59402867835E+03 -0.96808881807E+02 -0.20958894609E+04  0.21806000900E+04  0.46999998093E+01 0. -1.
</event>
<event>
 5   0  0.2395572E-07  0.3905812E+04  0.7818609E-02  0.8023822E-01
        2   -1    0    0  501    0  0.00000000000E+00  0.00000000000E+00  0.14050676445E+04  0.14050676445E+04  0.25500000920E-02 0.  1.
       -2   -1    0    0    0  501  0.00000000000E+00  0.00000000000E+00 -0.27143470367E+04  0.27143470367E+04  0.25500000920E-02 0. -1.
    10030    2    1    2    0    0  0.00000000000E+00  0.00000000000E+00 -0.13092793922E+04  0.41194146812E+04  0.39058116683E+04 0.  0.
        3    1    3    3  502    0  0.15839421268E+04 -0.11069995869E+04 -0.35722419349E+03  0.19651793509E+04  0.10100000352E+00 0.  1.
       -3    1    3    3    0  502 -0.15839421268E+04  0.11069995869E+04 -0.95205519875E+03  0.21542353303E+04  0.10100000352E+00 0. -1.
</event>
<event>
 5   0  0.7675750E-08  0.3917572E+04  0.7818609E-02  0.8021384E-01
       -1   -1    0    0    0  501  0.00000000000E+00  0.00000000000E+00  0.15595677217E+04  0.15595677217E+04  0.50400001928E-02 0.  1.
        1   -1    0    0  501    0  0.00000000000E+00  0.00000000000E+00 -0.24601960593E+04  0.24601960593E+04  0.50400001928E-02 0. -1.
    10030    2    1    2    0    0  0.00000000000E+00  0.00000000000E+00 -0.90062833760E+03  0.40197637810E+04  0.39175718823E+04 0.  0.
        1    1    3    3  502    0  0.88688545664E+03 -0.16931903451E+04 -0.10911084023E+02  0.19114336007E+04  0.50400001928E-02 0. -1.
       -1    1    3    3    0  502 -0.88688545664E+03  0.16931903451E+04 -0.88971725358E+03  0.21083301804E+04  0.50400001928E-02 0.  1.
</event>
<event>
 5   0  0.7675750E-08  0.3879575E+04  0.7818609E-02  0.8029291E-01
        1   -1    0    0  501    0  0.00000000000E+00  0.00000000000E+00  0.22370696351E+04  0.22370696352E+04  0.50400001928E-02 0. -1.
       -1   -1    0    0    0  501  0.00000000000E+00  0.00000000000E+00 -0.16820107636E+04  0.16820107637E+04  0.50400001928E-02 0.  1.
    10030    2    1    2    0    0  0.00000000000E+00  0.00000000000E+00  0.55505887150E+03  0.39190803988E+04  0.38795748248E+04 0.  0.
        1    1    3    3  502    0  0.38241678369E+03  0.17588375421E+04  0.10080971568E+04  0.20630104153E+04  0.50400001928E-02 0. -1.
       -1    1    3    3    0  502 -0.38241678369E+03 -0.17588375421E+04 -0.45303828533E+03  0.18560699835E+04  0.50400001928E-02 0.  1.
</event>
<event>
 5   0  0.7731706E-08  0.3949531E+04  0.7818609E-02  0.8014806E-01
       -1   -1    0    0    0  501  0.00000000000E+00  0.00000000000E+00  0.12094578281E+04  0.12094578281E+04  0.50400001928E-02 0. -1.
        1   -1    0    0  501    0  0.00000000000E+00  0.00000000000E+00 -0.32243370899E+04  0.32243370899E+04  0.50400001928E-02 0.  1.
    10030    2    1    2    0    0  0.00000000000E+00  0.00000000000E+00 -0.20148792619E+04  0.44337949180E+04  0.39495314830E+04 0.  0.
        3    1    3    3  502    0 -0.12538563573E+04  0.95851231894E+03 -0.23399003006E+04  0.28224165279E+04  0.10100000352E+00 0.  1.
       -3    1    3    3    0  502  0.12538563573E+04 -0.95851231894E+03  0.32502103868E+03  0.16113783901E+04  0.10100000352E+00 0. -1.
</event>
<event>
 5   0  0.2486268E-07  0.3884477E+04  0.7818609E-02  0.8028265E-01
        2   -1    0    0  501    0  0.00000000000E+00  0.00000000000E+00  0.23365344748E+04  0.23365344748E+04  0.25500000920E-02 0. -1.
       -2   -1    0    0    0  501  0.00000000000E+00  0.00000000000E+00 -0.16144810981E+04  0.16144810981E+04  0.25500000920E-02 0.  1.
    10030    2    1    2    0    0  0.00000000000E+00  0.00000000000E+00  0.72205337670E+03  0.39510155729E+04  0.38844771821E+04 0.  0.
        5    1    3    3  502    0 -0.19325938487E+04 -0.18883283767E+03  0.31919026961E+03  0.19678621250E+04  0.46999998093E+01 0. -1.
       -5    1    3    3    0  502  0.19325938487E+04  0.18883283767E+03  0.40286310709E+03  0.19831534479E+04  0.46999998093E+01 0.  1.
</event>
<event>
 5   0  0.2446281E-07  0.3887270E+04  0.7818609E-02  0.8027682E-01
        2   -1    0    0  501    0  0.00000000000E+00  0.00000000000E+00  0.21005145369E+04  0.21005145369E+04  0.25500000920E-02 0. -1.
       -2   -1    0    0    0  501  0.00000000000E+00  0.00000000000E+00 -0.17984724654E+04  0.17984724654E+04  0.25500000920E-02 0.  1.
    10030    2    1    2    0    0  0.00000000000E+00  0.00000000000E+00  0.30204207146E+03  0.38989870024E+04  0.38872702802E+04 0.  0.
        1    1    3    3  502    0  0.80360129699E+03  0.12711174687E+04 -0.10840322918E+04  0.18538178641E+04  0.50400001928E-02 0.  1.
       -1    1    3    3    0  502 -0.80360129699E+03 -0.12711174687E+04  0.13860743632E+04  0.20451691383E+04  0.50400001928E-02 0. -1.
</event>
<event>
 5   0  0.7675750E-08  0.3907926E+04  0.7818609E-02  0.8023383E-01
        1   -1    0    0  501    0  0.00000000000E+00  0.00000000000E+00  0.18681261982E+04  0.18681261982E+04  0.50400001928E-02 0.  1.
       -1   -1    0    0    0  501  0.00000000000E+00  0.00000000000E+00 -0.20437440666E+04  0.20437440666E+04  0.50400001928E-02 0. -1.
    10030    2    1    2    0    0  0.00000000000E+00  0.00000000000E+00 -0.17561786842E+03  0.39118702648E+04  0.39079262190E+04 0.  0.
        5    1    3    3  502    0 -0.72570758835E+03  0.18140824010E+04 -0.67706789484E+02  0.19550326751E+04  0.46999998093E+01 0.  1.
       -5    1    3    3    0  502  0.72570758835E+03 -0.18140824010E+04 -0.10791107894E+03  0.19568375897E+04  0.46999998093E+01 0. -1.
</event>
<event>
 5   0  0.7675750E-08  0.3901491E+04  0.7818609E-02  0.8024719E-01
        1   -1    0    0  501    0  0.00000000000E+00  0.00000000000E+00  0.29757973040E+04  0.29757973040E+04  0.50400001928E-02 0. -1.
       -1   -1    0    0    0  501  0.00000000000E+00  0.00000000000E+00 -0.12787858791E+04  0.12787858791E+04  0.50400001928E-02 0.  1.
    10030    2    1    2    0    0  0.00000000000E+00  0.00000000000E+00  0.16970114250E+04  0.42545831831E+04  0.39014907773E+04 0.  0.
        5    1    3    3  502    0  0.12749577006E+04  0.14394701182E+04  0.12065394680E+04  0.22700993232E+04  0.46999998093E+01 0.  1.
       -5    1    3    3    0  502 -0.12749577006E+04 -0.14394701182E+04  0.49047195699E+03  0.19844838599E+04  0.46999998093E+01 0. -1.
</event>
<event>
 5   0  0.2446281E-07  0.4044969E+04  0.7818609E-02  0.7995536E-01
       -2   -1    0    0    0  501  0.00000000000E+00  0.00000000000E+00  0.25893751449E+04  0.25893751449E+04  0.25500000920E-02 0.  1.
        2   -1    0    0  501    0  0.00000000000E+00  0.00000000000E+00 -0.15797030483E+04  0.15797030483E+04  0.25500000920E-02 0. -1.
    10030    2    1    2    0    0  0.00000000000E+00  0.00000000000E+00  0.10096720966E+04  0.41690781932E+04  0.40449691270E+04 0.  0.
        1    1    3    3  502    0  0.11853367811E+04  0.44406259893E+03 -0.11209747259E+04  0.16907983949E+04  0.50400001928E-02 0. -1.
       -1    1    3    3    0  502 -0.11853367811E+04 -0.44406259893E+03  0.21306468225E+04  0.24782797983E+04  0.50400001928E-02 0.  1.
</event>
<event>
 5   0  0.7731706E-08  0.3667176E+04  0.7818609E-02  0.8075275E-01
        1   -1    0    0  501    0  0.00000000000E+00  0.00000000000E+00  0.24141369748E+04  0.24141369748E+04  0.50400001928E-02 0. -1.
       -1   -1    0    0    0  501  0.00000000000E+00  0.00000000000E+00 -0.13926486902E+04  0.13926486902E+04  0.50400001928E-02 0.  1.
    10030    2    1    2    0    0  0.00000000000E+00  0.00000000000E+00  0.10214882846E+04  0.38067856650E+04  0.36671758594E+04 0.  0.
        3    1    3    3  502    0  0.80968047928E+03 -0.16443995855E+04  0.45976009663E+03  0.18897121029E+04  0.10100000352E+00 0. -1.
       -3    1    3    3    0  502 -0.80968047928E+03  0.16443995855E+04  0.56172818801E+03  0.19170735621E+04  0.10100000352E+00 0.  1.
</event>
<event>
 5   0  0.7675750E-08  0.3931347E+04  0.7818609E-02  0.8018541E-01
        1   -1    0    0  501    0  0.00000000000E+00  0.00000000000E+00  0.19841478044E+04  0.19841478045E+04  0.50400001928E-02 0.  1.
       -1   -1    0    0    0  501  0.00000000000E+00  0.00000000000E+00 -0.19473709289E+04  0.19473709289E+04  0.50400001928E-02 0. -1.
    10030    2    1    2    0    0  0.00000000000E+00  0.00000000000E+00  0.36776875567E+02  0.39315187333E+04  0.39313467174E+04 0.  0.
        2    1    3    3  502    0 -0.18553600616E+04 -0.64872801350E+03 -0.73568002595E+01  0.19655185362E+04  0.25500000920E-02 0. -1.
       -2    1    3    3    0  502  0.18553600616E+04  0.64872801350E+03  0.44133675827E+02  0.19660001971E+04  0.25500000920E-02 0.  1.
</event>
<event>
 5   0  0.7675750E-08  0.3879955E+04  0.7818609E-02  0.8029211E-01
        1   -1    0    0  501    0  0.00000000000E+00  0.00000000000E+00  0.23264288175E+04  0.23264288175E+04  0.50400001928E-02 0. -1.
       -1   -1    0    0    0  501  0.00000000000E+00  0.00000000000E+00 -0.16177206510E+04  0.16177206511E+04  0.50400001928E-02 0.  1.
    10030    2    1    2    0    0  0.00000000000E+00  0.00000000000E+00  0.70870816648E+03  0.39441494686E+04  0.38799546087E+04 0.  0.
        4    1    3    3  502    0  0.65479110079E+03  0.16722789457E+04  0.11001423390E+04  0.21060823908E+04  0.12699999809E+01 0. -1.
       -4    1    3    3    0  502 -0.65479110079E+03 -0.16722789457E+04 -0.39143417257E+03  0.18380670777E+04  0.12699999809E+01 0.  1.
</event>
<event>
 5   0  0.7675750E-08  0.3907279E+04  0.7818609E-02  0.8023517E-01
       -1   -1    0    0    0  501  0.00000000000E+00  0.00000000000E+00  0.21861447101E+04  0.21861447101E+04  0.50400001928E-02 0.  1.
        1   -1    0    0  501    0  0.00000000000E+00  0.00000000000E+00 -0.17458617654E+04  0.17458617654E+04  0.50400001928E-02 0. -1.
    10030    2    1    2    0    0  0.00000000000E+00  0.00000000000E+00  0.44028294470E+03  0.39320064756E+04  0.39072785737E+04 0.  0.
        4    1    3    3  502    0 -0.12646982609E+04  0.11784440844E+04 -0.69584578762E+03  0.18634363751E+04  0.12699999809E+01 0.  1.
       -4    1    3    3    0  502  0.12646982609E+04 -0.11784440844E+04  0.11361287323E+04  0.20685701005E+04  0.12699999809E+01 0. -1.
</event>
<event>
 5   0  0.7675750E-08  0.3927578E+04  0.7818609E-02  0.8019318E-01
        1   -1    0    0  501    0  0.00000000000E+00  0.00000000000E+00  0.20942430786E+04  0.20942430786E+04  0.50400001928E-02 0. -1.
       -1   -1    0    0    0  501  0.00000000000E+00  0.00000000000E+00 -0.18414615101E+04  0.18414615101E+04  0.50400001928E-02 0.  1.
    10030    2    1    2    0    0  0.00000000000E+00  0.00000000000E+00  0.25278156842E+03  0.39357045887E+04  0.39275784000E+04 0.  0.
        1    1    3    3  502    0 -0.17199212126E+04 -0.54222038648E+03 -0.65260821166E+03  0.19178189182E+04  0.50400001928E-02 0.  1.
       -1    1    3    3    0  502  0.17199212126E+04  0.54222038648E+03  0.90538978008E+03  0.20178856705E+04  0.50400001928E-02 0. -1.
</event>
<event>
 5   0  0.7731706E-08  0.3893178E+04  0.7818609E-02  0.8026450E-01
        1   -1    0    0  501    0  0.00000000000E+00  0.00000000000E+00  0.23982260196E+04  0.23982260196E+04  0.50400001928E-02 0.  1.
       -1   -1    0    0    0  501  0.00000000000E+00  0.00000000000E+00 -0.15800049653E+04  0.15800049653E+04  0.50400001928E-02 0. -1.
    10030    2    1    2    0    0  0.00000000000E+00  0.00000000000E+00  0.81822105431E+03  0.39782309848E+04  0.38931781458E+04 0.  0.
        3    1    3    3  502    0  0.90069450562E+03  0.14602689286E+04  0.13487500829E+04  0.21823754793E+04  0.10100000352E+00 0.  1.
       -3    1    3    3    0  502 -0.90069450562E+03 -0.14602689286E+04 -0.53052902860E+03  0.17958555055E+04  0.10100000352E+00 0. -1.
</event>
<event>
 5   0  0.7675750E-08  0.3904740E+04  0.7818609E-02  0.8024044E-01
        1   -1    0    0  501    0  0.00000000000E+00  0.00000000000E+00  0.12941323819E+04  0.12941323819E+04  0.50400001928E-02 0.  1.
       -1   -1    0    0    0  501  0.00000000000E+00  0.00000000000E+00 -0.29454086854E+04  0.29454086854E+04  0.50400001928E-02 0. -1.
    10030    2    1    2    0    0  0.00000000000E+00  0.00000000000E+00 -0.16512763035E+04  0.42395410673E+04  0.39047400722E+04 0.  0.
        4    1    3    3  502    0  0.19113729956E+04 -0.88766676984E+02 -0.40440250949E+03  0.19557017292E+04  0.12699999809E+01 0. -1.
       -4    1    3    3    0  502 -0.19113729956E+04  0.88766676984E+02 -0.12468737940E+04  0.22838393381E+04  0.12699999809E+01 0.  1.
</event>
<event>
 5   0  0.2395572E-07  0.3900830E+04  0.7818609E-02  0.8024857E-01
        2   -1    0    0  501    0  0.00000000000E+00  0.00000000000E+00  0.19885421219E+04  0.19885421219E+04  0.25500000920E-02 0. -1.
       -2   -1    0    0    0  501  0.00000000000E+00  0.00000000000E+00 -0.19130185070E+04  0.19130185070E+04  0.25500000920E-02 0.  1.
    10030    2    1    2    0    0  0.00000000000E+00  0.00000000000E+00  0.75523614861E+02  0.39015606289E+04  0.39008295944E+04 0.  0.
        3    1    3    3  502    0  0.66289680828E+03  0.64859766111E+03  0.17538941777E+04  0.19839999751E+04  0.10100000352E+00 0. -1.
       -3    1    3    3    0  502 -0.66289680828E+03 -0.64859766111E+03 -0.16783705629E+04  0.19175606538E+04  0.10100000352E+00 0.  1.
</event>
<event>
 5   0  0.7675750E-08  0.3440346E+04  0.7818609E-02  0.8128075E-01
       -1   -1    0    0    0  501  0.00000000000E+00  0.00000000000E+00  0.16278648903E+04  0.16278648903E+04  0.50400001928E-02 0. -1.
        1   -1    0    0  501    0  0.00000000000E+00  0.00000000000E+00 -0.18177152262E+04  0.18177152262E+04  0.50400001928E-02 0.  1.
    10030    2    1    2    0    0  0.00000000000E+00  0.00000000000E+00 -0.18985033591E+03  0.34455801165E+04  0.34403457950E+04 0.  0.
        2    1    3    3  502    0  0.16090382963E+04 -0.59463269483E+03  0.33341998500E+02  0.17157225794E+04  0.25500000920E-02 0. -1.
       -2    1    3    3    0  502 -0.16090382963E+04  0.59463269483E+03 -0.22319233441E+03  0.17298575371E+04  0.25500000920E-02 0.  1.
</event>
<event>
 5   0  0.7731706E-08  0.4218910E+04  0.7818609E-02  0.7961785E-01
        1   -1    0    0  501    0  0.00000000000E+00  0.00000000000E+00  0.20564767321E+04  0.20564767321E+04  0.50400001928E-02 0.  1.
       -1   -1    0    0    0  501  0.00000000000E+00  0.00000000000E+00 -0.21637982352E+04  0.21637982352E+04  0.50400001928E-02 0. -1.
    10030    2    1    2    0    0  0.00000000000E+00  0.00000000000E+00 -0.10732150304E+03  0.42202749673E+04  0.42189101548E+04 0.  0.
        3    1    3    3  502    0 -0.23158798950E+03 -0.14735599998E+04  0.14383943109E+04  0.20721945550E+04  0.10100000352E+00 0.  1.
       -3    1    3    3    0  502  0.23158798950E+03  0.14735599998E+04 -0.15457158139E+04  0.21480804123E+04  0.10100000352E+00 0. -1.
</event>
<event>
 5   0  0.7675750E-08  0.3794972E+04  0.7818609E-02  0.8047235E-01
       -1   -1    0    0    0  501  0.00000000000E+00  0.00000000000E+00  0.15950903760E+04  0.15950903760E+04  0.50400001928E-02 0. -1.
        1   -1    0    0  501    0  0.00000000000E+00  0.00000000000E+00 -0.22572089181E+04  0.22572089181E+04  0.50400001928E-02 0.  1.
    10030    2    1    2    0    0  0.00000000000E+00  0.00000000000E+00 -0.66211854214E+03  0.38522992941E+04  0.37949715266E+04 0.  0.
        2    1    3    3  502    0  0.17093742237E+04 -0.77996623738E+03 -0.62210046824E+02  0.18799408655E+04  0.25500000920E-02 0.  1.
       -2    1    3    3    0  502 -0.17093742237E+04  0.77996623738E+03 -0.59990849532E+03  0.19723584286E+04  0.25500000920E-02 0. -1.
</event>
<event>
 5   0  0.2446281E-07  0.4071939E+04  0.7818609E-02  0.7990189E-01
        2   -1    0    0  501    0  0.00000000000E+00  0.00000000000E+00  0.20028618617E+04  0.20028618617E+04  0.25500000920E-02 0. -1.
       -2   -1    0    0    0  501  0.00000000000E+00  0.00000000000E+00 -0.20696241271E+04  0.20696241271E+04  0.25500000920E-02 0.  1.
    10030    2    1    2    0    0  0.00000000000E+00  0.00000000000E+00 -0.66762265411E+02  0.40724859889E+04  0.40719387188E+04 0.  0.
        1    1    3    3  502    0 -0.72368161893E+03 -0.82623285617E+03 -0.17479030537E+04  0.20643499954E+04  0.50400001928E-02 0.  1.
       -1    1    3    3    0  502  0.72368161893E+03  0.82623285617E+03  0.16811407883E+04  0.20081359935E+04  0.50400001928E-02 0. -1.
</event>
<event>
 5   0  0.7675750E-08  0.3983943E+04  0.7818609E-02  0.8007794E-01
       -1   -1    0    0    0  501  0.00000000000E+00  0.00000000000E+00  0.32158528572E+04  0.32158528572E+04  0.50400001928E-02 0. -1.
        1   -1    0    0  501    0  0.00000000000E+00  0.00000000000E+00 -0.12338720390E+04  0.12338720390E+04  0.50400001928E-02 0.  1.
    10030    2    1    2    0    0  0.00000000000E+00  0.00000000000E+00  0.19819808182E+04  0.44497248962E+04  0.39839432335E+04 0.  0.
        1    1    3    3  502    0 -0.17464155091E+04  0.82478225113E+03  0.44642370885E+03  0.19823034631E+04  0.50400001928E-02 0.  1.
       -1    1    3    3    0  502  0.17464155091E+04 -0.82478225113E+03  0.15355571094E+04  0.24674214330E+04  0.50400001928E-02 0. -1.
</event>
<event>
 5   0  0.2473224E-07  0.3920479E+04  0.7818609E-02  0.8020783E-01
        2   -1    0    0  501    0  0.00000000000E+00  0.00000000000E+00  0.27512232875E+04  0.27512232875E+04  0.25500000920E-02 0. -1.
       -2   -1    0    0    0  501  0.00000000000E+00  0.00000000000E+00 -0.13966655726E+04  0.13966655726E+04  0.25500000920E-02 0.  1.
    10030    2    1    2    0    0  0.00000000000E+00  0.00000000000E+00  0.13545577149E+04  0.41478888602E+04  0.39204789750E+04 0.  0.
        2    1    3    3  502    0  0.11451115074E+04  0.83686138878E+03  0.21088826636E+04  0.25414569517E+04  0.25500000920E-02 0. -1.
       -2    1    3    3    0  502 -0.11451115074E+04 -0.83686138878E+03 -0.75432494869E+03  0.16064319085E+04  0.25500000920E-02 0.  1.
</event>
<event>
 5   0  0.7675750E-08  0.3861038E+04  0.7818609E-02  0.8033182E-01
       -1   -1    0    0    0  501  0.00000000000E+00  0.00000000000E+00  0.21344290179E+04  0.21344290180E+04  0.50400001928E-02 0. -1.
        1   -1    0    0  501    0  0.00000000000E+00  0.00000000000E+00 -0.17460890837E+04  0.17460890837E+04  0.50400001928E-02 0.  1.
    10030    2    1    2    0    0  0.00000000000E+00  0.00000000000E+00  0.38833993428E+03  0.38805181016E+04  0.38610377922E+04 0.  0.
        1    1    3    3  502    0 -0.15274264017E+04 -0.23348503657E+03  0.13573147078E+04  0.20566598871E+04  0.50400001928E-02 0. -1.
       -1    1    3    3    0  502  0.15274264017E+04  0.23348503657E+03 -0.96897477352E+03  0.18238582146E+04  0.50400001928E-02 0.  1.
</event>
<event>
 5   0  0.7731706E-08  0.3937299E+04  0.7818609E-02  0.8017316E-01
        1   -1    0    0  501    0  0.00000000000E+00  0.00000000000E+00  0.15763831479E+04  0.15763831479E+04  0.50400001928E-02 0.  1.
       -1   -1    0    0    0  501  0.00000000000E+00  0.00000000000E+00 -0.24585269122E+04  0.24585269122E+04  0.50400001928E-02 0. -1.
    10030    2    1    2    0    0  0.00000000000E+00  0.00000000000E+00 -0.88214376432E+03  0.40349100601E+04  0.39372987659E+04 0.  0.
        3    1    3    3  502    0  0.19531148753E+04 -0.12272071858E+03 -0.22160784494E+03  0.19694740766E+04  0.10100000352E+00 0.  1.
       -3    1    3    3    0  502 -0.19531148753E+04  0.12272071858E+03 -0.66053591938E+03  0.20654359835E+04  0.10100000352E+00 0. -1.
</event>
<event>
 5   0  0.2395572E-07  0.3542539E+04  0.7818609E-02  0.8103782E-01
        2   -1    0    0  501    0  0.00000000000E+00  0.00000000000E+00  0.21206495305E+04  0.21206495305E+04  0.25500000920E-02 0. -1.
       -2   -1    0    0    0  501  0.00000000000E+00  0.00000000000E+00 -0.14794506092E+04  0.14794506092E+04  0.25500000920E-02 0.  1.
    10030    2    1    2    0    0  0.00000000000E+00  0.00000000000E+00  0.64119892125E+03  0.36001001397E+04  0.35425393377E+04 0.  0.
        3    1    3    3  502    0  0.30831868638E+03  0.31114152456E+03  0.20647396388E+04  0.21106916513E+04  0.10100000352E+00 0. -1.
       -3    1    3    3    0  502 -0.30831868638E+03 -0.31114152456E+03 -0.14235407175E+04  0.14894084884E+04  0.10100000352E+00 0.  1.
</event>
<event>
 5   0  0.2384787E-07  0.3976403E+04  0.7818609E-02  0.8009324E-01
        2   -1    0    0  501    0  0.00000000000E+00  0.00000000000E+00  0.13317087876E+04  0.13317087876E+04  0.25500000920E-02 0. -1.
       -2   -1    0    0    0  501  0.00000000000E+00  0.00000000000E+00 -0.29683258469E+04  0.29683258469E+04  0.25500000920E-02 0.  1.
    10030    2    1    2    0    0  0.00000000000E+00  0.00000000000E+00 -0.16366170593E+04  0.43000346345E+04  0.39764032063E+04 0.  0.
        4    1    3    3  502    0  0.62234331649E+03  0.15606611128E+04  0.33120724459E+03  0.17125052305E+04  0.12699999809E+01 0. -1.
       -4    1    3    3    0  502 -0.62234331649E+03 -0.15606611128E+04 -0.19678243039E+04  0.25875294040E+04  0.12699999809E+01 0.  1.
</event>
<event>
 5   0  0.7675750E-08  0.3844287E+04  0.7818609E-02  0.8036717E-01
       -1   -1    0    0    0  501  0.00000000000E+00  0.00000000000E+00  0.18124939085E+04  0.18124939085E+04  0.50400001928E-02 0.  1.
        1   -1    0    0  501    0  0.00000000000E+00  0.00000000000E+00 -0.20384268079E+04  0.20384268079E+04  0.50400001928E-02 0. -1.
    10030    2    1    2    0    0  0.00000000000E+00  0.00000000000E+00 -0.22593289945E+03  0.38509207164E+04  0.38442872797E+04 0.  0.
        1    1    3    3  502    0  0.71516063831E+03  0.21401088936E+03 -0.18872881256E+04  0.20295595257E+04  0.50400001928E-02 0. -1.
       -1    1    3    3    0  502 -0.71516063831E+03 -0.21401088936E+03  0.16613552262E+04  0.18213611907E+04  0.50400001928E-02 0.  1.
</event>
<event>
 5   0  0.7675750E-08  0.3914182E+04  0.7818609E-02  0.8022086E-01
        1   -1    0    0  501    0  0.00000000000E+00  0.00000000000E+00  0.15666665982E+04  0.15666665983E+04  0.50400001928E-02 0. -1.
       -1   -1    0    0    0  501  0.00000000000E+00  0.00000000000E+00 -0.24448121616E+04  0.24448121617E+04  0.50400001928E-02 0.  1.
    10030    2    1    2    0    0  0.00000000000E+00  0.00000000000E+00 -0.87814556340E+03  0.40114787599E+04  0.39141821893E+04 0.  0.
        5    1    3    3  502    0 -0.18050277384E+04 -0.11755856338E+02  0.33597977012E+03  0.18360740270E+04  0.46999998093E+01 0. -1.
       -5    1    3    3    0  502  0.18050277384E+04  0.11755856338E+02 -0.12141253335E+04  0.21754047329E+04  0.46999998093E+01 0.  1.
</event>
<event>
 5   0  0.2395572E-07  0.3910585E+04  0.7818609E-02  0.8022831E-01
       -2   -1    0    0    0  501  0.00000000000E+00  0.00000000000E+00  0.19440392931E+04  0.19440392932E+04  0.25500000920E-02 0. -1.
        2   -1    0    0  501    0  0.00000000000E+00  0.00000000000E+00 -0.19666112682E+04  0.19666112682E+04  0.25500000920E-02 0.  1.
    10030    2    1    2    0    0  0.00000000000E+00  0.00000000000E+00 -0.22571975088E+02  0.39106505614E+04  0.39105854190E+04 0.  0.
        3    1    3    3  502    0 -0.62187700134E+02  0.19447990684E+04  0.18122395452E+03  0.19542141281E+04  0.10100000352E+00 0. -1.
       -3    1    3    3    0  502  0.62187700134E+02 -0.19447990684E+04 -0.20379592960E+03  0.19564364333E+04  0.10100000352E+00 0.  1.
</event>
<event>
 5   0  0.7675750E-08  0.3255327E+04  0.7818609E-02  0.8174356E-01
       -1   -1    0    0    0  501  0.00000000000E+00  0.00000000000E+00  0.13394208125E+04  0.13394208125E+04  0.50400001928E-02 0. -1.
        1   -1    0    0  501    0  0.00000000000E+00  0.00000000000E+00 -0.19779354604E+04  0.19779354604E+04  0.50400001928E-02 0.  1.
    10030    2    1    2    0    0  0.00000000000E+00  0.00000000000E+00 -0.63851464785E+03  0.33173562729E+04  0.32553266635E+04 0.  0.
        4    1    3    3  502    0  0.30677718880E+03 -0.14855102901E+04 -0.92078737961E+03  0.17744588124E+04  0.12699999809E+01 0. -1.
       -4    1    3    3    0  502 -0.30677718880E+03  0.14855102901E+04  0.28227273176E+03  0.15428974605E+04  0.12699999809E+01 0.  1.
</event>
<event>
 5   0  0.2395572E-07  0.3872647E+04  0.7818609E-02  0.8030742E-01
       -2   -1    0    0    0  501  0.00000000000E+00  0.00000000000E+00  0.19797192234E+04  0.19797192234E+04  0.25500000920E-02 0. -1.
        2   -1    0    0  501    0  0.00000000000E+00  0.00000000000E+00 -0.18938792558E+04  0.18938792558E+04  0.25500000920E-02 0.  1.
    10030    2    1    2    0    0  0.00000000000E+00  0.00000000000E+00  0.85839967627E+02  0.38735984793E+04  0.38726472443E+04 0.  0.
        3    1    3    3  502    0  0.15850411108E+03  0.10580852663E+04 -0.15713789054E+04  0.19010259489E+04  0.10100000352E+00 0.  1.
       -3    1    3    3    0  502 -0.15850411108E+03 -0.10580852663E+04  0.16572188730E+04  0.19725725303E+04  0.10100000352E+00 0. -1.
</event>
<event>
 5   0  0.7675750E-08  0.3879163E+04  0.7818609E-02  0.8029377E-01
       -3   -1    0    0    0  501  0.00000000000E+00  0.00000000000E+00  0.21068464710E+04  0.21068464735E+04  0.10100000352E+00 0. -1.
        3   -1    0    0  501    0  0.00000000000E+00  0.00000000000E+00 -0.17855956355E+04  0.17855956383E+04  0.10100000352E+00 0.  1.
    10030    2    1    2    0    0  0.00000000000E+00  0.00000000000E+00  0.32125083559E+03  0.38924421118E+04  0.38791627311E+04 0.  0.
        5    1    3    3  502    0 -0.14286554006E+03  0.53414625480E+03  0.20260837136E+04  0.21001809656E+04  0.46999998093E+01 0. -1.
       -5    1    3    3    0  502  0.14286554006E+03 -0.53414625480E+03 -0.17048328780E+04  0.17922611461E+04  0.46999998093E+01 0.  1.
</event>
<event>
 5   0  0.7675750E-08  0.3914067E+04  0.7818609E-02  0.8022110E-01
        1   -1    0    0  501    0  0.00000000000E+00  0.00000000000E+00  0.20485064166E+04  0.20485064166E+04  0.50400001928E-02 0. -1.
       -1   -1    0    0    0  501  0.00000000000E+00  0.00000000000E+00 -0.18696456015E+04  0.18696456015E+04  0.50400001928E-02 0.  1.
    10030    2    1    2    0    0  0.00000000000E+00  0.00000000000E+00  0.17886081515E+03  0.39181520181E+04  0.39140674555E+04 0.  0.
        2    1    3    3  502    0 -0.63334583793E+03  0.53531749564E+03 -0.16850698021E+04  0.18780713537E+04  0.25500000920E-02 0.  1.
       -2    1    3    3    0  502  0.63334583793E+03 -0.53531749564E+03  0.18639306173E+04  0.20400806645E+04  0.25500000920E-02 0. -1.
</event>
<event>
 5   0  0.2486268E-07  0.3880682E+04  0.7818609E-02  0.8029059E-01
        2   -1    0    0  501    0  0.00000000000E+00  0.00000000000E+00  0.21366849805E+04  0.21366849805E+04  0.25500000920E-02 0.  1.
       -2   -1    0    0    0  501  0.00000000000E+00  0.00000000000E+00 -0.17620392847E+04  0.17620392847E+04  0.25500000920E-02 0. -1.
    10030    2    1    2    0    0  0.00000000000E+00  0.00000000000E+00  0.37464569584E+03  0.38987242653E+04  0.38806818343E+04 0.  0.
        5    1    3    3  502    0  0.15711014743E+04  0.31490618203E+03 -0.91201095877E+03  0.18437222743E+04  0.46999998093E+01 0. -1.
       -5    1    3    3    0  502 -0.15711014743E+04 -0.31490618203E+03  0.12866566546E+04  0.20550019909E+04  0.46999998093E+01 0.  1.
</event>
<event>
 5   0  0.7675750E-08  0.3776342E+04  0.7818609E-02  0.8051251E-01
        1   -1    0    0  501    0  0.00000000000E+00  0.00000000000E+00  0.25996622976E+04  0.25996622976E+04  0.50400001928E-02 0.  1.
       -1   -1    0    0    0  501  0.00000000000E+00  0.00000000000E+00 -0.13714047954E+04  0.13714047955E+04  0.50400001928E-02 0. -1.
    10030    2    1    2    0    0  0.00000000000E+00  0.00000000000E+00  0.12282575022E+04  0.39710670931E+04  0.37763417968E+04 0.  0.
        1    1    3    3  502    0 -0.68751168012E+03 -0.48660899125E+03 -0.11628997937E+04  0.14358957312E+04  0.50400001928E-02 0. -1.
       -1    1    3    3    0  502  0.68751168012E+03  0.48660899125E+03  0.23911572959E+04  0.25351713619E+04  0.50400001928E-02 0.  1.
</event>
<event>
 5   0  0.7675750E-08  0.3772179E+04  0.7818609E-02  0.8052152E-01
       -1   -1    0    0    0  501  0.00000000000E+00  0.00000000000E+00  0.29823809228E+04  0.29823809228E+04  0.50400001928E-02 0. -1.
        1   -1    0    0  501    0  0.00000000000E+00  0.00000000000E+00 -0.11927828304E+04  0.11927828304E+04  0.50400001928E-02 0.  1.
    10030    2    1    2    0    0  0.00000000000E+00  0.00000000000E+00  0.17895980925E+04  0.41751637532E+04  0.37721785527E+04 0.  0.
        1    1    3    3  502    0 -0.99902244433E+03 -0.13137002601E+04  0.19052808175E+04  0.25207041102E+04  0.50400001928E-02 0. -1.
       -1    1    3    3    0  502  0.99902244433E+03  0.13137002601E+04 -0.11568272501E+03  0.16544596431E+04  0.50400001928E-02 0.  1.
</event>
<event>
 5   0  0.2395572E-07  0.3826668E+04  0.7818609E-02  0.8040456E-01
       -2   -1    0    0    0  501  0.00000000000E+00  0.00000000000E+00  0.14788747034E+04  0.14788747034E+04  0.25500000920E-02 0. -1.
        2   -1    0    0  501    0  0.00000000000E+00  0.00000000000E+00 -0.24754274321E+04  0.24754274321E+04  0.25500000920E-02 0.  1.
    10030    2    1    2    0    0  0.00000000000E+00  0.00000000000E+00 -0.99655272864E+03  0.39543021355E+04  0.38266680073E+04 0.  0.
        3    1    3    3  502    0  0.16524935859E+04  0.55085114256E+03 -0.13163082593E+04  0.21833092947E+04  0.10100000352E+00 0.  1.
       -3    1    3    3    0  502 -0.16524935859E+04 -0.55085114256E+03  0.31975553066E+03  0.17709928408E+04  0.10100000352E+00 0. -1.
</event>
<event>
 5   0  0.7675750E-08  0.4000951E+04  0.7818609E-02  0.8004355E-01
        1   -1    0    0  501    0  0.00000000000E+00  0.00000000000E+00  0.27916932691E+04  0.27916932691E+04  0.50400001928E-02 0.  1.
       -1   -1    0    0    0  501  0.00000000000E+00  0.00000000000E+00 -0.14335034275E+04  0.14335034275E+04  0.50400001928E-02 0. -1.
    10030    2    1    2    0    0  0.00000000000E+00  0.00000000000E+00  0.13581898416E+04  0.42251966966E+04  0.40009508218E+04 0.  0.
        4    1    3    3  502    0 -0.12476109458E+04  0.21972900404E+03  0.23141242887E+04  0.26381786792E+04  0.12699999809E+01 0.  1.
       -4    1    3    3    0  502  0.12476109458E+04 -0.21972900404E+03 -0.95593444712E+03  0.15870180173E+04  0.12699999809E+01 0. -1.
</event>
<event>
 5   0  0.7675750E-08  0.3931525E+04  0.7818609E-02  0.8018504E-01
        1   -1    0    0  501    0  0.00000000000E+00  0.00000000000E+00  0.18939324787E+04  0.18939324788E+04  0.50400001928E-02 0. -1.
       -1   -1    0    0    0  501  0.00000000000E+00  0.00000000000E+00 -0.20403169065E+04  0.20403169065E+04  0.50400001928E-02 0.  1.
    10030    2    1    2    0    0  0.00000000000E+00  0.00000000000E+00 -0.14638442773E+03  0.39342493852E+04  0.39315251270E+04 0.  0.
        1    1    3    3  502    0  0.86015152574E+02  0.19576404865E+04  0.83337321536E+02  0.19613005864E+04  0.50400001928E-02 0.  1.
       -1    1    3    3    0  502 -0.86015152574E+02 -0.19576404865E+04 -0.22972174927E+03  0.19729487989E+04  0.50400001928E-02 0. -1.
</event>
<event>
 5   0  0.2486268E-07  0.3894139E+04  0.7818609E-02  0.8026249E-01
       -2   -1    0    0    0  501  0.00000000000E+00  0.00000000000E+00  0.13986255419E+04  0.13986255419E+04  0.25500000920E-02 0.  1.
        2   -1    0    0  501    0  0.00000000000E+00  0.00000000000E+00 -0.27105746421E+04  0.27105746421E+04  0.25500000920E-02 0. -1.
    10030    2    1    2    0    0  0.00000000000E+00  0.00000000000E+00 -0.13119491003E+04  0.41092001840E+04  0.38941386352E+04 0.  0.
        5    1    3    3  502    0  0.43702211904E+03  0.18824322497E+04 -0.90683760711E+03  0.21346934306E+04  0.46999998093E+01 0.  1.
       -5    1    3    3    0  502 -0.43702211904E+03 -0.18824322497E+04 -0.40511149318E+03  0.19745067534E+04  0.46999998093E+01 0. -1.
</event>
<event>
 5   0  0.7675750E-08  0.3883212E+04  0.7818609E-02  0.8028530E-01
       -1   -1    0    0    0  501  0.00000000000E+00  0.00000000000E+00  0.15543839411E+04  0.15543839411E+04  0.50400001928E-02 0.  1.
        1   -1    0    0  501    0  0.00000000000E+00  0.00000000000E+00 -0.24252907286E+04  0.24252907286E+04  0.50400001928E-02 0. -1.
    10030    2    1    2    0    0  0.00000000000E+00  0.00000000000E+00 -0.87090678749E+03  0.39796746698E+04  0.38832115375E+04 0.  0.
        5    1    3    3  502    0  0.95988527790E+03  0.12362546355E+04  0.74204645038E+03  0.17321548127E+04  0.46999998093E+01 0.  1.
       -5    1    3    3    0  502 -0.95988527790E+03 -0.12362546355E+04 -0.16129532379E+04  0.22475198571E+04  0.46999998093E+01 0. -1.
</event>
<event>
 5   0  0.2395572E-07  0.3868596E+04  0.7818609E-02  0.8031593E-01
       -2   -1    0    0    0  501  0.00000000000E+00  0.00000000000E+00  0.16505734134E+04  0.16505734134E+04  0.25500000920E-02 0. -1.
        2   -1    0    0  501    0  0.00000000000E+00  0.00000000000E+00 -0.22667927534E+04  0.22667927534E+04  0.25500000920E-02 0.  1.
    10030    2    1    2    0    0  0.00000000000E+00  0.00000000000E+00 -0.61621933995E+03  0.39173661668E+04  0.38685955345E+04 0.  0.
        3    1    3    3  502    0  0.18929916389E+04 -0.30705890125E+03 -0.52328060544E+02  0.19184474843E+04  0.10100000352E+00 0. -1.
       -3    1    3    3    0  502 -0.18929916389E+04  0.30705890125E+03 -0.56389127941E+03  0.19989186825E+04  0.10100000352E+00 0.  1.
</event>
<event>
 5   0  0.7675750E-08  0.3898716E+04  0.7818609E-02  0.8025296E-01
       -1   -1    0    0    0  501  0.00000000000E+00  0.00000000000E+00  0.21656327264E+04  0.21656327264E+04  0.50400001928E-02 0.  1.
        1   -1    0    0  501    0  0.00000000000E+00  0.00000000000E+00 -0.17546816104E+04  0.17546816104E+04  0.50400001928E-02 0. -1.
    10030    2    1    2    0    0  0.00000000000E+00  0.00000000000E+00  0.41095111596E+03  0.39203143368E+04  0.38987156449E+04 0.  0.
        2    1    3    3  502    0 -0.11178490587E+04  0.14216675465E+04 -0.52606480385E+03  0.18834726727E+04  0.25500000920E-02 0.  1.
       -2    1    3    3    0  502  0.11178490587E+04 -0.14216675465E+04  0.93701591980E+03  0.20368416641E+04  0.25500000920E-02 0. -1.
</event>
<event>
 5   0  0.7675750E-08  0.3911708E+04  0.7818609E-02  0.8022598E-01
       -1   -1    0    0    0  501  0.00000000000E+00  0.00000000000E+00  0.15657248381E+04  0.15657248381E+04  0.50400001928E-02 0. -1.
        1   -1    0    0  501    0  0.00000000000E+00  0.00000000000E+00 -0.24431914497E+04  0.24431914497E+04  0.50400001928E-02 0.  1.
    10030    2    1    2    0    0  0.00000000000E+00  0.00000000000E+00 -0.87746661167E+03  0.40089162878E+04  0.39117083414E+04 0.  0.
        4    1    3    3  502    0  0.17192676583E+04  0.93143796238E+03 -0.39399103186E+03  0.19946650106E+04  0.12699999809E+01 0.  1.
       -4    1    3    3    0  502 -0.17192676583E+04 -0.93143796238E+03 -0.48347557981E+03  0.20142512772E+04  0.12699999809E+01 0. -1.
</event>
<event>
 5   0  0.7675750E-08  0.3895386E+04  0.7818609E-02  0.8025989E-01
        1   -1    0    0  501    0  0.00000000000E+00  0.00000000000E+00  0.19942173178E+04  0.19942173178E+04  0.50400001928E-02 0.  1.
       -1   -1    0    0    0  501  0.00000000000E+00  0.00000000000E+00 -0.19022541414E+04  0.19022541414E+04  0.50400001928E-02 0. -1.
    10030    2    1    2    0    0  0.00000000000E+00  0.00000000000E+00  0.91963176405E+02  0.38964714592E+04  0.38953860665E+04 0.  0.
        1    1    3    3  502    0  0.17354596283E+04  0.30501849535E+03  0.87606325095E+03  0.19678270309E+04  0.50400001928E-02 0.  1.
       -1    1    3    3    0  502 -0.17354596283E+04 -0.30501849535E+03 -0.78410007455E+03  0.19286444283E+04  0.50400001928E-02 0. -1.
</event>
<event>
 5   0  0.7675750E-08  0.3887355E+04  0.7818609E-02  0.8027664E-01
        1   -1    0    0  501    0  0.00000000000E+00  0.00000000000E+00  0.19633521652E+04  0.19633521652E+04  0.50400001928E-02 0.  1.
       -1   -1    0    0    0  501  0.00000000000E+00  0.00000000000E+00 -0.19242002220E+04  0.19242002220E+04  0.50400001928E-02 0. -1.
    10030    2    1    2    0    0  0.00000000000E+00  0.00000000000E+00  0.39151943246E+02  0.38875523872E+04  0.38873552305E+04 0.  0.
        4    1    3    3  502    0  0.16073047657E+04 -0.21455754601E+03  0.10912727576E+04  0.19545693631E+04  0.12699999809E+01 0.  1.
       -4    1    3    3    0  502 -0.16073047657E+04  0.21455754601E+03 -0.10521208144E+04  0.19329830241E+04  0.12699999809E+01 0. -1.
</event>
<event>
 5   0  0.2473224E-07  0.3911811E+04  0.7818609E-02  0.8022577E-01
       -2   -1    0    0    0  501  0.00000000000E+00  0.00000000000E+00  0.19016449511E+04  0.19016449511E+04  0.25500000920E-02 0.  1.
        2   -1    0    0  501    0  0.00000000000E+00  0.00000000000E+00 -0.20117139147E+04  0.20117139147E+04  0.25500000920E-02 0. -1.
    10030    2    1    2    0    0  0.00000000000E+00  0.00000000000E+00 -0.11006896359E+03  0.39133588658E+04  0.39118106340E+04 0.  0.
        2    1    3    3  502    0  0.96663201780E+02  0.11624464299E+04 -0.16256686485E+04  0.20008558248E+04  0.25500000920E-02 0. -1.
       -2    1    3    3    0  502 -0.96663201780E+02 -0.11624464299E+04  0.15155996849E+04  0.19125030410E+04  0.25500000920E-02 0.  1.
</event>
<event>
 5   0  0.2446281E-07  0.4008725E+04  0.7818609E-02  0.8002789E-01
       -2   -1    0    0    0  501  0.00000000000E+00  0.00000000000E+00  0.13293592005E+04  0.13293592005E+04  0.25500000920E-02 0.  1.
        2   -1    0    0  501    0  0.00000000000E+00  0.00000000000E+00 -0.30221100595E+04  0.30221100595E+04  0.25500000920E-02 0. -1.
    10030    2    1    2    0    0  0.00000000000E+00  0.00000000000E+00 -0.16927508589E+04  0.43514692600E+04  0.40087253898E+04 0.  0.
        1    1    3    3  502    0  0.38123475362E+03  0.14534203329E+04  0.59357928091E+03  0.16155825464E+04  0.50400001928E-02 0.  1.
       -1    1    3    3    0  502 -0.38123475362E+03 -0.14534203329E+04 -0.22863301398E+04  0.27358867136E+04  0.50400001928E-02 0. -1.
</event>
<event>
 5   0  0.2395572E-07  0.3903169E+04  0.7818609E-02  0.8024371E-01
       -2   -1    0    0    0  501  0.00000000000E+00  0.00000000000E+00  0.16038588635E+04  0.16038588635E+04  0.25500000920E-02 0.  1.
        2   -1    0    0  501    0  0.00000000000E+00  0.00000000000E+00 -0.23746985527E+04  0.23746985527E+04  0.25500000920E-02 0. -1.
    10030    2    1    2    0    0  0.00000000000E+00  0.00000000000E+00 -0.77083968923E+03  0.39785574161E+04  0.39031686214E+04 0.  0.
        3    1    3    3  502    0  0.16824890893E+04 -0.24830871339E+03  0.59028034731E+03  0.18002382208E+04  0.10100000352E+00 0.  1.
       -3    1    3    3    0  502 -0.16824890893E+04  0.24830871339E+03 -0.13611200365E+04  0.21783191954E+04  0.10100000352E+00 0. -1.
</event>
<event>
 5   0  0.2446281E-07  0.3897937E+04  0.7818609E-02  0.8025458E-01
        2   -1    0    0  501    0  0.00000000000E+00  0.00000000000E+00  0.15200358277E+04  0.15200358277E+04  0.25500000920E-02 0.  1.
       -2   -1    0    0    0  501  0.00000000000E+00  0.00000000000E+00 -0.24989396433E+04  0.24989396433E+04  0.25500000920E-02 0. -1.
    10030    2    1    2    0    0  0.00000000000E+00  0.00000000000E+00 -0.97890381564E+03  0.40189754709E+04  0.38979367819E+04 0.  0.
        1    1    3    3  502    0 -0.96404330272E+03 -0.15509283718E+04 -0.11915668839E+04  0.21805022226E+04  0.50400001928E-02 0.  1.
       -1    1    3    3    0  502  0.96404330272E+03  0.15509283718E+04  0.21266306825E+03  0.18384732483E+04  0.50400001928E-02 0. -1.
</event>
<event>
 5   0  0.2384787E-07  0.3560871E+04  0.7818609E-02  0.8099514E-01
       -2   -1    0    0    0  501  0.00000000000E+00  0.00000000000E+00  0.15152403897E+04  0.15152403897E+04  0.25500000920E-02 0.  1.
        2   -1    0    0  501    0  0.00000000000E+00  0.00000000000E+00 -0.20920449316E+04  0.20920449316E+04  0.25500000920E-02 0. -1.
    10030    2    1    2    0    0  0.00000000000E+00  0.00000000000E+00 -0.57680454193E+03  0.36072853213E+04  0.35608712290E+04 0.  0.
        4    1    3    3  502    0 -0.10767525329E+03 -0.17707757583E+04 -0.44106027440E+03  0.18280526593E+04  0.12699999809E+01 0. -1.
       -4    1    3    3    0  502  0.10767525329E+03  0.17707757583E+04 -0.13574426753E+03  0.17792326620E+04  0.12699999809E+01 0.  1.
</event>
<event>
 5   0  0.7731706E-08  0.3925804E+04  0.7818609E-02  0.8019684E-01
       -1   -1    0    0    0  501  0.00000000000E+00  0.00000000000E+00  0.29472706223E+04  0.29472706223E+04  0.50400001928E-02 0. -1.
        1   -1    0    0  501    0  0.00000000000E+00  0.00000000000E+00 -0.13073057676E+04  0.13073057677E+04  0.50400001928E-02 0.  1.
    10030    2    1    2    0    0  0.00000000000E+00  0.00000000000E+00  0.16399648547E+04  0.42545763900E+04  0.39258038073E+04 0.  0.
        3    1    3    3  502    0  0.14312012555E+04 -0.13419576036E+04  0.75320543581E+03  0.21015484011E+04  0.10100000352E+00 0.  1.
       -3    1    3    3    0  502 -0.14312012555E+04  0.13419576036E+04  0.88675941888E+03  0.21530279889E+04  0.10100000352E+00 0. -1.
</event>
<event>
 5   0  0.7675750E-08  0.3872743E+04  0.7818609E-02  0.8030722E-01
        1   -1    0    0  501    0  0.00000000000E+00  0.00000000000E+00  0.18490261249E+04  0.18490261249E+04  0.50400001928E-02 0. -1.
       -1   -1    0    0    0  501  0.00000000000E+00  0.00000000000E+00 -0.20278428895E+04  0.20278428895E+04  0.50400001928E-02 0.  1.
    10030    2    1    2    0    0  0.00000000000E+00  0.00000000000E+00 -0.17881676458E+03  0.38768690145E+04  0.38727429452E+04 0.  0.
        1    1    3    3  502    0  0.14267721185E+04 -0.36416763808E+03  0.11694041015E+04  0.18803730213E+04  0.50400001928E-02 0.  1.
       -1    1    3    3    0  502 -0.14267721185E+04  0.36416763808E+03 -0.13482208661E+04  0.19964959931E+04  0.50400001928E-02 0. -1.
</event>
<event>
 5   0  0.7675750E-08  0.3851217E+04  0.7818609E-02  0.8035252E-01
       -1   -1    0    0    0  501  0.00000000000E+00  0.00000000000E+00  0.14102711172E+04  0.14102711172E+04  0.50400001928E-02 0. -1.
        1   -1    0    0  501    0  0.00000000000E+00  0.00000000000E+00 -0.26292590227E+04  0.26292590227E+04  0.50400001928E-02 0.  1.
    10030    2    1    2    0    0  0.00000000000E+00  0.00000000000E+00 -0.12189879055E+04  0.40395301399E+04  0.38512169814E+04 0.  0.
        1    1    3    3  502    0 -0.35236233440E+03 -0.17612748616E+04 -0.13374917607E+04  0.22394491650E+04  0.50400001928E-02 0.  1.
       -1    1    3    3    0  502  0.35236233440E+03  0.17612748616E+04  0.11850385515E+03  0.18000809749E+04  0.50400001928E-02 0. -1.
</event>
<event>
 5   0  0.7675750E-08  0.3873502E+04  0.7818609E-02  0.8030563E-01
        1   -1    0    0  501    0  0.00000000000E+00  0.00000000000E+00  0.27857401802E+04  0.27857401802E+04  0.50400001928E-02 0.  1.
       -1   -1    0    0    0  501  0.00000000000E+00  0.00000000000E+00 -0.13465019407E+04  0.13465019407E+04  0.50400001928E-02 0. -1.
    10030    2    1    2    0    0  0.00000000000E+00  0.00000000000E+00  0.14392382395E+04  0.41322421208E+04  0.38735020634E+04 0.  0.
        4    1    3    3  502    0 -0.18877756820E+04  0.41345335127E+03  0.85607851326E+03  0.21136491509E+04  0.12699999809E+01 0.  1.
       -4    1    3    3    0  502  0.18877756820E+04 -0.41345335127E+03  0.58315972623E+03  0.20185929700E+04  0.12699999809E+01 0. -1.
</event>
<event>
 5   0  0.7731706E-08  0.3902974E+04  0.7818609E-02  0.8024411E-01
       -1   -1    0    0    0  501  0.00000000000E+00  0.00000000000E+00  0.20354895850E+04  0.20354895851E+04  0.50400001928E-02 0. -1.
        1   -1    0    0  501    0  0.00000000000E+00  0.00000000000E+00 -0.18709509639E+04  0.18709509639E+04  0.50400001928E-02 0.  1.
    10030    2    1    2    0    0  0.00000000000E+00  0.00000000000E+00  0.16453862116E+03  0.39064405489E+04  0.39029738411E+04 0.  0.
        3    1    3    3  502    0  0.34991019643E+03  0.35666582110E+03 -0.18058456475E+04  0.18736931889E+04  0.10100000352E+00 0.  1.
       -3    1    3    3    0  502 -0.34991019643E+03 -0.35666582110E+03  0.19703842686E+04  0.20327473600E+04  0.10100000352E+00 0. -1.
</event>
<event>
 5   0  0.2384787E-07  0.3912220E+04  0.7818609E-02  0.8022493E-01
        2   -1    0    0  501    0  0.00000000000E+00  0.00000000000E+00  0.18289149140E+04  0.18289149140E+04  0.25500000920E-02 0.  1.
       -2   -1    0    0    0  501  0.00000000000E+00  0.00000000000E+00 -0.20921509137E+04  0.20921509137E+04  0.25500000920E-02 0. -1.
    10030    2    1    2    0    0  0.00000000000E+00  0.00000000000E+00 -0.26323599972E+03  0.39210658277E+04  0.39122198345E+04 0.  0.
        4    1    3    3  502    0  0.46959425396E+03  0.12024343158E+04  0.13413980938E+04  0.18616437646E+04  0.12699999809E+01 0.  1.
       -4    1    3    3    0  502 -0.46959425396E+03 -0.12024343158E+04 -0.16046340936E+04  0.20594220631E+04  0.12699999809E+01 0. -1.
</event>
<event>
 5   0  0.7675750E-08  0.3943070E+04  0.7818609E-02  0.8016131E-01
       -1   -1    0    0    0  501  0.00000000000E+00  0.00000000000E+00  0.31689663516E+04  0.31689663516E+04  0.50400001928E-02 0. -1.
        1   -1    0    0  501    0  0.00000000000E+00  0.00000000000E+00 -0.12265673974E+04  0.12265673974E+04  0.50400001928E-02 0.  1.
    10030    2    1    2    0    0  0.00000000000E+00  0.00000000000E+00  0.19423989541E+04  0.43955337490E+04  0.39430702811E+04 0.  0.
        2    1    3    3  502    0  0.12054614705E+04  0.27028105843E+03  0.26839857253E+04  0.29546520236E+04  0.25500000920E-02 0. -1.
       -2    1    3    3    0  502 -0.12054614705E+04 -0.27028105843E+03 -0.74158677111E+03  0.14408817254E+04  0.25500000920E-02 0.  1.
</event>
<event>
 5   0  0.7731706E-08  0.3870994E+04  0.7818609E-02  0.8031089E-01
       -1   -1    0    0    0  501  0.00000000000E+00  0.00000000000E+00  0.23693470010E+04  0.23693470011E+04  0.50400001928E-02 0.  1.
        1   -1    0    0  501    0  0.00000000000E+00  0.00000000000E+00 -0.15810891345E+04  0.15810891345E+04  0.50400001928E-02 0. -1.
    10030    2    1    2    0    0  0.00000000000E+00  0.00000000000E+00  0.78825786656E+03  0.39504361355E+04  0.38709940838E+04 0.  0.
        3    1    3    3  502    0 -0.15443704128E+04  0.84901259564E+03  0.12107040098E+04  0.21381549450E+04  0.10100000352E+00 0.  1.
       -3    1    3    3    0  502  0.15443704128E+04 -0.84901259564E+03 -0.42244614326E+03  0.18122811905E+04  0.10100000352E+00 0. -1.
</event>
<event>
 5   0  0.2486268E-07  0.3993300E+04  0.7818609E-02  0.8005900E-01
       -2   -1    0    0    0  501  0.00000000000E+00  0.00000000000E+00  0.28117420559E+04  0.28117420559E+04  0.25500000920E-02 0. -1.
        2   -1    0    0  501    0  0.00000000000E+00  0.00000000000E+00 -0.14178436913E+04  0.14178436913E+04  0.25500000920E-02 0.  1.
    10030    2    1    2    0    0  0.00000000000E+00  0.00000000000E+00  0.13938983645E+04  0.42295857472E+04  0.39932997562E+04 0.  0.
        5    1    3    3  502    0 -0.99072135120E+03 -0.20834211434E+03  0.25197240808E+04  0.27155048823E+04  0.46999998093E+01 0. -1.
       -5    1    3    3    0  502  0.99072135120E+03  0.20834211434E+03 -0.11258257162E+04  0.15140808650E+04  0.46999998093E+01 0.  1.
</event>
<event>
 5   0  0.7675750E-08  0.3902755E+04  0.7818609E-02  0.8024457E-01
       -1   -1    0    0    0  501  0.00000000000E+00  0.00000000000E+00  0.30170591623E+04  0.30170591623E+04  0.50400001928E-02 0. -1.
        1   -1    0    0  501    0  0.00000000000E+00  0.00000000000E+00 -0.12621142898E+04  0.12621142898E+04  0.50400001928E-02 0.  1.
    10030    2    1    2    0    0  0.00000000000E+00  0.00000000000E+00  0.17549448726E+04  0.42791734521E+04  0.39027546589E+04 0.  0.
        2    1    3    3  502    0 -0.32571230062E+03 -0.13972052494E+04 -0.57282918108E+03  0.15447991075E+04  0.25500000920E-02 0.  1.
       -2    1    3    3    0  502  0.32571230062E+03  0.13972052494E+04  0.23277740537E+04  0.27343743446E+04  0.25500000920E-02 0. -1.
</event>
<event>
 5   0  0.7675750E-08  0.3890655E+04  0.7818609E-02  0.8026976E-01
       -1   -1    0    0    0  501  0.00000000000E+00  0.00000000000E+00  0.27006289306E+04  0.27006289306E+04  0.50400001928E-02 0.  1.
        1   -1    0    0  501    0  0.00000000000E+00  0.00000000000E+00 -0.14012656321E+04  0.14012656321E+04  0.50400001928E-02 0. -1.
    10030    2    1    2    0    0  0.00000000000E+00  0.00000000000E+00  0.12993632985E+04  0.41018945627E+04  0.38906547035E+04 0.  0.
        5    1    3    3  502    0 -0.34335501545E+03 -0.14905375553E+02 -0.13689989300E+04  0.14114868038E+04  0.46999998093E+01 0. -1.
       -5    1    3    3    0  502  0.34335501545E+03  0.14905375553E+02  0.26683622285E+04  0.26904077589E+04  0.46999998093E+01 0.  1.
</event>
<event>
 5   0  0.7675750E-08  0.3175281E+04  0.7818609E-02  0.8195376E-01
        1   -1    0    0  501    0  0.00000000000E+00  0.00000000000E+00  0.22248638869E+04  0.22248638869E+04  0.50400001928E-02 0.  1.
       -1   -1    0    0    0  501  0.00000000000E+00  0.00000000000E+00 -0.11329241964E+04  0.11329241964E+04  0.50400001928E-02 0. -1.
    10030    2    1    2    0    0  0.00000000000E+00  0.00000000000E+00  0.10919396905E+04  0.33577880834E+04  0.31752808576E+04 0.  0.
        5    1    3    3  502    0  0.10373333669E+04  0.10233457988E+04 -0.12056226472E+03  0.14621403789E+04  0.46999998093E+01 0. -1.
       -5    1    3    3    0  502 -0.10373333669E+04 -0.10233457988E+04  0.12125019553E+04  0.18956477045E+04  0.46999998093E+01 0.  1.
</event>
<event>
 5   0  0.2473224E-07  0.3965036E+04  0.7818609E-02  0.8011637E-01
       -2   -1    0    0    0  501  0.00000000000E+00  0.00000000000E+00  0.22008060970E+04  0.22008060970E+04  0.25500000920E-02 0.  1.
        2   -1    0    0  501    0  0.00000000000E+00  0.00000000000E+00 -0.17858806812E+04  0.17858806812E+04  0.25500000920E-02 0. -1.
    10030    2    1    2    0    0  0.00000000000E+00  0.00000000000E+00  0.41492541579E+03  0.39866867783E+04  0.39650357334E+04 0.  0.
        2    1    3    3  502    0 -0.31486290582E+03 -0.57662039484E+03  0.20881704063E+04  0.21890832270E+04  0.25500000920E-02 0.  1.
       -2    1    3    3    0  502  0.31486290582E+03  0.57662039484E+03 -0.16732449905E+04  0.17976035512E+04  0.25500000920E-02 0. -1.
</event>
<event>
 5   0  0.2473224E-07  0.3853820E+04  0.7818609E-02  0.8034703E-01
        2   -1    0    0  501    0  0.00000000000E+00  0.00000000000E+00  0.14579617120E+04  0.14579617120E+04  0.25500000920E-02 0.  1.
       -2   -1    0    0    0  501  0.00000000000E+00  0.00000000000E+00 -0.25466938518E+04  0.25466938518E+04  0.25500000920E-02 0. -1.
    10030    2    1    2    0    0  0.00000000000E+00  0.00000000000E+00 -0.10887321398E+04  0.40046555638E+04  0.38538199896E+04 0.  0.
        2    1    3    3  502    0 -0.18636912596E+04  0.47515589903E+03 -0.42201260426E+03  0.19690639598E+04  0.25500000920E-02 0.  1.
       -2    1    3    3    0  502  0.18636912596E+04 -0.47515589903E+03 -0.66671953558E+03  0.20355916041E+04  0.25500000920E-02 0. -1.
</event>
<event>
 5   0  0.2395572E-07  0.3832636E+04  0.7818609E-02  0.8039187E-01
        2   -1    0    0  501    0  0.00000000000E+00  0.00000000000E+00  0.28899427166E+04  0.28899427166E+04  0.25500000920E-02 0. -1.
       -2   -1    0    0    0  501  0.00000000000E+00  0.00000000000E+00 -0.12707085934E+04  0.12707085934E+04  0.25500000920E-02 0.  1.
    10030    2    1    2    0    0  0.00000000000E+00  0.00000000000E+00  0.16192341231E+04  0.41606513100E+04  0.38326361917E+04 0.  0.
        3    1    3    3  502    0 -0.18950410267E+04  0.22058262389E+03  0.61409771489E+03  0.20042338188E+04  0.10100000352E+00 0.  1.
       -3    1    3    3    0  502  0.18950410267E+04 -0.22058262389E+03  0.10051364082E+04  0.21564174912E+04  0.10100000352E+00 0. -1.
</event>
<event>
 5   0  0.2384787E-07  0.3915103E+04  0.7818609E-02  0.8021895E-01
        2   -1    0    0  501    0  0.00000000000E+00  0.00000000000E+00  0.19009625682E+04  0.19009625682E+04  0.25500000920E-02 0.  1.
       -2   -1    0    0    0  501  0.00000000000E+00  0.00000000000E+00 -0.20158247677E+04  0.20158247677E+04  0.25500000920E-02 0. -1.
    10030    2    1    2    0    0  0.00000000000E+00  0.00000000000E+00 -0.11486219955E+03  0.39167873360E+04  0.39151027713E+04 0.  0.
        4    1    3    3  502    0  0.36387790358E+02 -0.48571460216E+03 -0.19542329334E+04  0.20140185493E+04  0.12699999809E+01 0. -1.
       -4    1    3    3    0  502 -0.36387790358E+02  0.48571460216E+03  0.18393707338E+04  0.19027687867E+04  0.12699999809E+01 0.  1.
</event>
<event>
 5   0  0.7675750E-08  0.3836234E+04  0.7818609E-02  0.8038424E-01
        1   -1    0    0  501    0  0.00000000000E+00  0.00000000000E+00  0.18296096197E+04  0.18296096197E+04  0.50400001928E-02 0.  1.
       -1   -1    0    0    0  501  0.00000000000E+00  0.00000000000E+00 -0.20109061183E+04  0.20109061183E+04  0.50400001928E-02 0. -1.
    10030    2    1    2    0    0  0.00000000000E+00  0.00000000000E+00 -0.18129649858E+03  0.38405157379E+04  0.38362341838E+04 0.  0.
        1    1    3    3  502    0  0.10277751635E+04 -0.11710122102E+04  0.10293415236E+04  0.18673873073E+04  0.50400001928E-02 0.  1.
       -1    1    3    3    0  502 -0.10277751635E+04  0.11710122102E+04 -0.12106380222E+04  0.19731284307E+04  0.50400001928E-02 0. -1.
</event>
<event>
 5   0  0.2384787E-07  0.3895518E+04  0.7818609E-02  0.8025962E-01
       -2   -1    0    0    0  501  0.00000000000E+00  0.00000000000E+00  0.20835510088E+04  0.20835510088E+04  0.25500000920E-02 0. -1.
        2   -1    0    0  501    0  0.00000000000E+00  0.00000000000E+00 -0.18208169448E+04  0.18208169449E+04  0.25500000920E-02 0.  1.
    10030    2    1    2    0    0  0.00000000000E+00  0.00000000000E+00  0.26273406396E+03  0.39043679537E+04  0.38955179282E+04 0.  0.
        4    1    3    3  502    0 -0.95243296682E+03  0.15409150082E+03 -0.15644848202E+04  0.18380661339E+04  0.12699999809E+01 0.  1.
       -4    1    3    3    0  502  0.95243296682E+03 -0.15409150082E+03  0.18272188842E+04  0.20663018198E+04  0.12699999809E+01 0. -1.
</event>
<event>
 5   0  0.7675750E-08  0.3902218E+04  0.7818609E-02  0.8024568E-01
       -1   -1    0    0    0  501  0.00000000000E+00  0.00000000000E+00  0.22221343148E+04  0.22221343148E+04  0.50400001928E-02 0. -1.
        1   -1    0    0  501    0  0.00000000000E+00  0.00000000000E+00 -0.17131393598E+04  0.17131393598E+04  0.50400001928E-02 0.  1.
    10030    2    1    2    0    0  0.00000000000E+00  0.00000000000E+00  0.50899495505E+03  0.39352736746E+04  0.39022177066E+04 0.  0.
        4    1    3    3  502    0 -0.50265783865E+03 -0.74308243612E+03  0.20017991872E+04  0.21936357967E+04  0.12699999809E+01 0. -1.
       -4    1    3    3    0  502  0.50265783865E+03  0.74308243612E+03 -0.14928042321E+04  0.17416378780E+04  0.12699999809E+01 0.  1.
</event>
<event>
 5   0  0.2446281E-07  0.3908614E+04  0.7818609E-02  0.8023240E-01
        2   -1    0    0  501    0  0.00000000000E+00  0.00000000000E+00  0.20958817474E+04  0.20958817474E+04  0.25500000920E-02 0. -1.
       -2   -1    0    0    0  501  0.00000000000E+00  0.00000000000E+00 -0.18222956308E+04  0.18222956308E+04  0.25500000920E-02 0.  1.
    10030    2    1    2    0    0  0.00000000000E+00  0.00000000000E+00  0.27358611665E+03  0.39181773782E+04  0.39086141538E+04 0.  0.
        1    1    3    3  502    0  0.15016910964E+04  0.12395812430E+04  0.30356820938E+03  0.19707337377E+04  0.50400001928E-02 0.  1.
       -1    1    3    3    0  502 -0.15016910964E+04 -0.12395812430E+04 -0.29982092722E+02  0.19474436405E+04  0.50400001928E-02 0. -1.
</event>
<event>
 5   0  0.7731706E-08  0.3519059E+04  0.7818609E-02  0.8109288E-01
        1   -1    0    0  501    0  0.00000000000E+00  0.00000000000E+00  0.22158560635E+04  0.22158560635E+04  0.50400001928E-02 0.  1.
       -1   -1    0    0    0  501  0.00000000000E+00  0.00000000000E+00 -0.13971776293E+04  0.13971776293E+04  0.50400001928E-02 0. -1.
    10030    2    1    2    0    0  0.00000000000E+00  0.00000000000E+00  0.81867843413E+03  0.36130336928E+04  0.35190592616E+04 0.  0.
        3    1    3    3  502    0  0.49513150003E+03 -0.13441864793E+04 -0.63968544928E+03  0.15688180193E+04  0.10100000352E+00 0. -1.
       -3    1    3    3    0  502 -0.49513150003E+03  0.13441864793E+04  0.14583638834E+04  0.20442156735E+04  0.10100000352E+00 0.  1.
</event>
<event>
 5   0  0.2395572E-07  0.3900245E+04  0.7818609E-02  0.8024978E-01
       -2   -1    0    0    0  501  0.00000000000E+00  0.00000000000E+00  0.17893762357E+04  0.17893762357E+04  0.25500000920E-02 0. -1.
        2   -1    0    0  501    0  0.00000000000E+00  0.00000000000E+00 -0.21253091113E+04  0.21253091114E+04  0.25500000920E-02 0.  1.
    10030    2    1    2    0    0  0.00000000000E+00  0.00000000000E+00 -0.33593287564E+03  0.39146853471E+04  0.39002449243E+04 0.  0.
        3    1    3    3  502    0 -0.48569163495E+03  0.10772448108E+03  0.17246120403E+04  0.17949338784E+04  0.10100000352E+00 0. -1.
       -3    1    3    3    0  502  0.48569163495E+03 -0.10772448108E+03 -0.20605449159E+04  0.21197514687E+04  0.10100000352E+00 0.  1.
</event>
<event>
 5   0  0.7675750E-08  0.3889278E+04  0.7818609E-02  0.8027263E-01
       -1   -1    0    0    0  501  0.00000000000E+00  0.00000000000E+00  0.17392507359E+04  0.17392507360E+04  0.50400001928E-02 0.  1.
        1   -1    0    0  501    0  0.00000000000E+00  0.00000000000E+00 -0.21742821225E+04  0.21742821225E+04  0.50400001928E-02 0. -1.
    10030    2    1    2    0    0  0.00000000000E+00  0.00000000000E+00 -0.43503138656E+03  0.39135328585E+04  0.38892784841E+04 0.  0.
        5    1    3    3  502    0  0.16189486893E+04 -0.43343054595E+03 -0.12099435700E+04  0.20670854915E+04  0.46999998093E+01 0.  1.
       -5    1    3    3    0  502 -0.16189486893E+04  0.43343054595E+03  0.77491218348E+03  0.18464473669E+04  0.46999998093E+01 0. -1.
</event>
<event>
 5   0  0.2446281E-07  0.3893313E+04  0.7818609E-02  0.8026421E-01
       -2   -1    0    0    0  501  0.00000000000E+00  0.00000000000E+00  0.18724885146E+04  0.18724885146E+04  0.25500000920E-02 0. -1.
        2   -1    0    0  501    0  0.00000000000E+00  0.00000000000E+00 -0.20237620364E+04  0.20237620364E+04  0.25500000920E-02 0.  1.
    10030    2    1    2    0    0  0.00000000000E+00  0.00000000000E+00 -0.15127352186E+03  0.38962505510E+04  0.38933128153E+04 0.  0.
        1    1    3    3  502    0  0.16938463932E+04 -0.48080137573E+03  0.75516168508E+03  0.19158691859E+04  0.50400001928E-02 0. -1.
       -1    1    3    3    0  502 -0.16938463932E+04  0.48080137573E+03 -0.90643520694E+03  0.19803813651E+04  0.50400001928E-02 0.  1.
</event>
<event>
 5   0  0.2395572E-07  0.3917216E+04  0.7818609E-02  0.8021458E-01
        2   -1    0    0  501    0  0.00000000000E+00  0.00000000000E+00  0.18053485730E+04  0.18053485730E+04  0.25500000920E-02 0.  1.
       -2   -1    0    0    0  501  0.00000000000E+00  0.00000000000E+00 -0.21248781999E+04  0.21248781999E+04  0.25500000920E-02 0. -1.
    10030    2    1    2    0    0  0.00000000000E+00  0.00000000000E+00 -0.31952962692E+03  0.39302267729E+04  0.39172162697E+04 0.  0.
        3    1    3    3  502    0  0.50659996302E+03 -0.35239276538E+03  0.17052586488E+04  0.18134859396E+04  0.10100000352E+00 0.  1.
       -3    1    3    3    0  502 -0.50659996302E+03  0.35239276538E+03 -0.20247882757E+04  0.21167408333E+04  0.10100000352E+00 0. -1.
</event>
<event>
 5   0  0.7675750E-08  0.4003477E+04  0.7818609E-02  0.8003846E-01
        1   -1    0    0  501    0  0.00000000000E+00  0.00000000000E+00  0.16918303124E+04  0.16918303124E+04  0.50400001928E-02 0.  1.
       -1   -1    0    0    0  501  0.00000000000E+00  0.00000000000E+00 -0.23684151185E+04  0.23684151185E+04  0.50400001928E-02 0. -1.
    10030    2    1    2    0    0  0.00000000000E+00  0.00000000000E+00 -0.67658480609E+03  0.40602454308E+04  0.40034767339E+04 0.  0.
        4    1    3    3  502    0 -0.94179130592E+03  0.11869090301E+04  0.98839709936E+03  0.18090479122E+04  0.12699999809E+01 0.  1.
       -4    1    3    3    0  502  0.94179130592E+03 -0.11869090301E+04 -0.16649819055E+04  0.22511975187E+04  0.12699999809E+01 0. -1.
</event>
<event>
 5   0  0.7675750E-08  0.3834319E+04  0.7818609E-02  0.8038830E-01
        1   -1    0    0  501    0  0.00000000000E+00  0.00000000000E+00  0.12494931213E+04  0.12494931213E+04  0.50400001928E-02 0. -1.
       -1   -1    0    0    0  501  0.00000000000E+00  0.00000000000E+00 -0.29415931499E+04  0.29415931499E+04  0.50400001928E-02 0.  1.
    10030    2    1    2    0    0  0.00000000000E+00  0.00000000000E+00 -0.16921000286E+04  0.41910862712E+04  0.38343189260E+04 0.  0.
        2    1    3    3  502    0 -0.90940996397E+03 -0.16535670998E+03 -0.26819541508E+04  0.28367670668E+04  0.25500000920E-02 0.  1.
       -2    1    3    3    0  502  0.90940996397E+03  0.16535670998E+03  0.98985412228E+03  0.13543192044E+04  0.25500000920E-02 0. -1.
</event>
<event>
 5   0  0.2384787E-07  0.3904954E+04  0.7818609E-02  0.8024000E-01
       -2   -1    0    0    0  501  0.00000000000E+00  0.00000000000E+00  0.20240736441E+04  0.20240736441E+04  0.25500000920E-02 0. -1.
        2   -1    0    0  501    0  0.00000000000E+00  0.00000000000E+00 -0.18834130474E+04  0.18834130474E+04  0.25500000920E-02 0.  1.
    10030    2    1    2    0    0  0.00000000000E+00  0.00000000000E+00  0.14066059675E+03  0.39074866915E+04  0.39049541407E+04 0.  0.
        4    1    3    3  502    0  0.17223492809E+04  0.52027249811E+02 -0.84839979611E+03  0.19206711606E+04  0.12699999809E+01 0.  1.
       -4    1    3    3    0  502 -0.17223492809E+04 -0.52027249811E+02  0.98906039285E+03  0.19868155309E+04  0.12699999809E+01 0. -1.
</event>
<event>
 5   0  0.2446281E-07  0.3893279E+04  0.7818609E-02  0.8026428E-01
       -2   -1    0    0    0  501  0.00000000000E+00  0.00000000000E+00  0.27988649883E+04  0.27988649883E+04  0.25500000920E-02 0. -1.
        2   -1    0    0  501    0  0.00000000000E+00  0.00000000000E+00 -0.13539079829E+04  0.13539079829E+04  0.25500000920E-02 0.  1.
    10030    2    1    2    0    0  0.00000000000E+00  0.00000000000E+00  0.14449570055E+04  0.41527729712E+04  0.38932791581E+04 0.  0.
        1    1    3    3  502    0 -0.13015807148E+04 -0.94893772815E+03  0.18884076416E+04  0.24820714313E+04  0.50400001928E-02 0. -1.
       -1    1    3    3    0  502  0.13015807148E+04  0.94893772815E+03 -0.44345063617E+03  0.16707015400E+04  0.50400001928E-02 0.  1.
</event>
<event>
 5   0  0.7675750E-08  0.3898952E+04  0.7818609E-02  0.8025247E-01
        1   -1    0    0  501    0  0.00000000000E+00  0.00000000000E+00  0.14945697529E+04  0.14945697529E+04  0.50400001928E-02 0. -1.
       -1   -1    0    0    0  501  0.00000000000E+00  0.00000000000E+00 -0.25428430757E+04  0.25428430757E+04  0.50400001928E-02 0.  1.
    10030    2    1    2    0    0  0.00000000000E+00  0.00000000000E+00 -0.10482733228E+04  0.40374128286E+04  0.38989518322E+04 0.  0.
        1    1    3    3  502    0  0.81406677563E+03 -0.13863198973E+04 -0.16659592788E+04  0.23151690849E+04  0.50400001928E-02 0.  1.
       -1    1    3    3    0  502 -0.81406677563E+03  0.13863198973E+04  0.61768595602E+03  0.17222437438E+04  0.50400001928E-02 0. -1.
</event>
<event>
 5   0  0.2486268E-07  0.3870197E+04  0.7818609E-02  0.8031256E-01
        2   -1    0    0  501    0  0.00000000000E+00  0.00000000000E+00  0.20080065107E+04  0.20080065107E+04  0.25500000920E-02 0. -1.
       -2   -1    0    0    0  501  0.00000000000E+00  0.00000000000E+00 -0.18648380645E+04  0.18648380645E+04  0.25500000920E-02 0.  1.
    10030    2    1    2    0    0  0.00000000000E+00  0.00000000000E+00  0.14316844619E+03  0.38728445751E+04  0.38701973979E+04 0.  0.
        5    1    3    3  502    0 -0.16352727137E+04 -0.17954649248E+03  0.10912174214E+04  0.19741153315E+04  0.46999998093E+01 0. -1.
       -5    1    3    3    0  502  0.16352727137E+04  0.17954649248E+03 -0.94804897521E+03  0.18987292436E+04  0.46999998093E+01 0.  1.
</event>
<event>
 5   0  0.7675750E-08  0.3655137E+04  0.7818609E-02  0.8077977E-01
        1   -1    0    0  501    0  0.00000000000E+00  0.00000000000E+00  0.20711547884E+04  0.20711547884E+04  0.50400001928E-02 0. -1.
       -1   -1    0    0    0  501  0.00000000000E+00  0.00000000000E+00 -0.16126305357E+04  0.16126305357E+04  0.50400001928E-02 0.  1.
    10030    2    1    2    0    0  0.00000000000E+00  0.00000000000E+00  0.45852425271E+03  0.36837853241E+04  0.36551374562E+04 0.  0.
        4    1    3    3  502    0 -0.74693192208E+03 -0.15371543923E+04  0.88183600228E+03  0.19231191512E+04  0.12699999809E+01 0. -1.
       -4    1    3    3    0  502  0.74693192208E+03  0.15371543923E+04 -0.42331174957E+03  0.17606661729E+04  0.12699999809E+01 0.  1.
</event>
<event>
 5   0  0.7675750E-08  0.4145851E+04  0.7818609E-02  0.7975753E-01
        1   -1    0    0  501    0  0.00000000000E+00  0.00000000000E+00  0.23858693711E+04  0.23858693711E+04  0.50400001928E-02 0. -1.
       -1   -1    0    0    0  501  0.00000000000E+00  0.00000000000E+00 -0.18010287152E+04  0.18010287152E+04  0.50400001928E-02 0.  1.
    10030    2    1    2    0    0  0.00000000000E+00  0.00000000000E+00  0.58484065591E+03  0.41868980863E+04  0.41458505752E+04 0.  0.
        5    1    3    3  502    0 -0.12461106542E+04  0.10065110152E+04  0.16211754823E+04  0.22790542382E+04  0.46999998093E+01 0. -1.
       -5    1    3    3    0  502  0.12461106542E+04 -0.10065110152E+04 -0.10363348264E+04  0.19078438481E+04  0.46999998093E+01 0.  1.
</event>
<event>
 5   0  0.7675750E-08  0.4016329E+04  0.7818609E-02  0.8001260E-01
        1   -1    0    0  501    0  0.00000000000E+00  0.00000000000E+00  0.24529346156E+04  0.24529346156E+04  0.50400001928E-02 0. -1.
       -1   -1    0    0    0  501  0.00000000000E+00  0.00000000000E+00 -0.16440411917E+04  0.16440411917E+04  0.50400001928E-02 0.  1.
    10030    2    1    2    0    0  0.00000000000E+00  0.00000000000E+00  0.80889342387E+03  0.40969758073E+04  0.40163294430E+04 0.  0.
        2    1    3    3  502    0 -0.14527625707E+04 -0.11310190766E+04 -0.41352886571E+03  0.18869894968E+04  0.25500000920E-02 0.  1.
       -2    1    3    3    0  502  0.14527625707E+04  0.11310190766E+04  0.12224222896E+04  0.22099863105E+04  0.25500000920E-02 0. -1.
</event>
<event>
 5   0  0.2384787E-07  0.3871951E+04  0.7818609E-02  0.8030888E-01
        2   -1    0    0  501    0  0.00000000000E+00  0.00000000000E+00  0.15290920578E+04  0.15290920578E+04  0.25500000920E-02 0. -1.
       -2   -1    0    0    0  501  0.00000000000E+00  0.00000000000E+00 -0.24511289826E+04  0.24511289826E+04  0.25500000920E-02 0.  1.
    10030    2    1    2    0    0  0.00000000000E+00  0.00000000000E+00 -0.92203692480E+03  0.39802210404E+04  0.38719513736E+04 0.  0.
        4    1    3    3  502    0 -0.15961853941E+00  0.10998882687E+04 -0.20987554345E+04  0.23694999928E+04  0.12699999809E+01 0.  1.
       -4    1    3    3    0  502  0.15961853941E+00 -0.10998882687E+04  0.11767185097E+04  0.16107210476E+04  0.12699999809E+01 0. -1.
</event>
<event>
 5   0  0.7675750E-08  0.3969765E+04  0.7818609E-02  0.8010674E-01
       -1   -1    0    0    0  501  0.00000000000E+00  0.00000000000E+00  0.22896984504E+04  0.22896984504E+04  0.50400001928E-02 0. -1.
        1   -1    0    0  501    0  0.00000000000E+00  0.00000000000E+00 -0.17206450021E+04  0.17206450021E+04  0.50400001928E-02 0.  1.
    10030    2    1    2    0    0  0.00000000000E+00  0.00000000000E+00  0.56905344829E+03  0.40103434525E+04  0.39697648268E+04 0.  0.
        1    1    3    3  502    0  0.28962555085E+03 -0.11341657025E+03  0.22649255221E+04  0.22861832602E+04  0.50400001928E-02 0. -1.
       -1    1    3    3    0  502 -0.28962555085E+03  0.11341657025E+03 -0.16958720739E+04  0.17241601924E+04  0.50400001928E-02 0.  1.
</event>
<event>
 5   0  0.7731706E-08  0.3919475E+04  0.7818609E-02  0.8020991E-01
        1   -1    0    0  501    0  0.00000000000E+00  0.00000000000E+00  0.20772253630E+04  0.20772253630E+04  0.50400001928E-02 0.  1.
       -1   -1    0    0    0  501  0.00000000000E+00  0.00000000000E+00 -0.18488947956E+04  0.18488947956E+04  0.50400001928E-02 0. -1.
    10030    2    1    2    0    0  0.00000000000E+00  0.00000000000E+00  0.22833056740E+03  0.39261201586E+04  0.39194750480E+04 0.  0.
        3    1    3    3  502    0  0.15311389341E+04  0.85159298501E+03 -0.76537468301E+03  0.19119088533E+04  0.10100000352E+00 0. -1.
       -3    1    3    3    0  502 -0.15311389341E+04 -0.85159298501E+03  0.99370525041E+03  0.20142113053E+04  0.10100000352E+00 0.  1.
</event>
<event>
 5   0  0.2473224E-07  0.3931114E+04  0.7818609E-02  0.8018589E-01
        2   -1    0    0  501    0  0.00000000000E+00  0.00000000000E+00  0.25543774900E+04  0.25543774900E+04  0.25500000920E-02 0. -1.
       -2   -1    0    0    0  501  0.00000000000E+00  0.00000000000E+00 -0.15124680251E+04  0.15124680251E+04  0.25500000920E-02 0.  1.
    10030    2    1    2    0    0  0.00000000000E+00  0.00000000000E+00  0.10419094649E+04  0.40668455151E+04  0.39311139784E+04 0.  0.
        2    1    3    3  502    0  0.55835062866E+03 -0.66755975513E+03 -0.13022874541E+04  0.15663154421E+04  0.25500000920E-02 0.  1.
       -2    1    3    3    0  502 -0.55835062866E+03  0.66755975513E+03  0.23441969190E+04  0.25005300730E+04  0.25500000920E-02 0. -1.
</event>
<event>
 5   0  0.2384787E-07  0.3917779E+04  0.7818609E-02  0.8021342E-01
       -2   -1    0    0    0  501  0.00000000000E+00  0.00000000000E+00  0.22168630739E+04  0.22168630739E+04  0.25500000920E-02 0. -1.
        2   -1    0    0  501    0  0.00000000000E+00  0.00000000000E+00 -0.17309359623E+04  0.17309359623E+04  0.25500000920E-02 0.  1.
    10030    2    1    2    0    0  0.00000000000E+00  0.00000000000E+00  0.48592711169E+03  0.39477990362E+04  0.39177789719E+04 0.  0.
        4    1    3    3  502    0  0.10608248186E+04  0.13115696606E+04  0.12464265255E+04  0.20974138759E+04  0.12699999809E+01 0. -1.
       -4    1    3    3    0  502 -0.10608248186E+04 -0.13115696606E+04 -0.76049941379E+03  0.18503851603E+04  0.12699999809E+01 0.  1.
</event>
<event>
 5   0  0.7675750E-08  0.3898937E+04  0.7818609E-02  0.8025250E-01
       -1   -1    0    0    0  501  0.00000000000E+00  0.00000000000E+00  0.18591239573E+04  0.18591239573E+04  0.50400001928E-02 0.  1.
        1   -1    0    0  501    0  0.00000000000E+00  0.00000000000E+00 -0.20442028491E+04  0.20442028491E+04  0.50400001928E-02 0. -1.
    10030    2    1    2    0    0  0.00000000000E+00  0.00000000000E+00 -0.18507889182E+03  0.39033268064E+04  0.38989365167E+04 0.  0.
        5    1    3    3  502    0 -0.14890842532E+04 -0.12557438790E+04 -0.14094354638E+02  0.19479438759E+04  0.46999998093E+01 0.  1.
       -5    1    3    3    0  502  0.14890842532E+04  0.12557438790E+04 -0.17098453718E+03  0.19553829305E+04  0.46999998093E+01 0. -1.
</event>
<event>
 5   0  0.2384787E-07  0.3863302E+04  0.7818609E-02  0.8032705E-01
       -2   -1    0    0    0  501  0.00000000000E+00  0.00000000000E+00  0.24727595471E+04  0.24727595471E+04  0.25500000920E-02 0. -1.
        2   -1    0    0  501    0  0.00000000000E+00  0.00000000000E+00 -0.15089516630E+04  0.15089516630E+04  0.25500000920E-02 0.  1.
    10030    2    1    2    0    0  0.00000000000E+00  0.00000000000E+00  0.96380788415E+03  0.39817112101E+04  0.38633015056E+04 0.  0.
        4    1    3    3  502    0  0.11413105816E+04  0.14619592051E+04  0.10382243203E+04  0.21255177989E+04  0.12699999809E+01 0.  1.
       -4    1    3    3    0  502 -0.11413105816E+04 -0.14619592051E+04 -0.74416436154E+02  0.18561934113E+04  0.12699999809E+01 0. -1.
</event>
<event>
 5   0  0.7675750E-08  0.3915987E+04  0.7818609E-02  0.8021712E-01
       -1   -1    0    0    0  501  0.00000000000E+00  0.00000000000E+00  0.23196982909E+04  0.23196982909E+04  0.50400001928E-02 0.  1.
        1   -1    0    0  501    0  0.00000000000E+00  0.00000000000E+00 -0.16526886400E+04  0.16526886400E+04  0.50400001928E-02 0. -1.
    10030    2    1    2    0    0  0.00000000000E+00  0.00000000000E+00  0.66700965093E+03  0.39723869309E+04  0.39159872388E+04 0.  0.
        2    1    3    3  502    0  0.96409954077E+03 -0.33127344745E+03 -0.13622498854E+04  0.17014566618E+04  0.25500000920E-02 0. -1.
       -2    1    3    3    0  502 -0.96409954077E+03  0.33127344745E+03  0.20292595363E+04  0.22709302692E+04  0.25500000920E-02 0.  1.
</event>
<event>
 5   0  0.2486268E-07  0.3466482E+04  0.7818609E-02  0.8121780E-01
        2   -1    0    0  501    0  0.00000000000E+00  0.00000000000E+00  0.19644690076E+04  0.19644690076E+04  0.25500000920E-02 0.  1.
       -2   -1    0    0    0  501  0.00000000000E+00  0.00000000000E+00 -0.15292294676E+04  0.15292294676E+04  0.25500000920E-02 0. -1.
    10030    2    1    2    0    0  0.00000000000E+00  0.00000000000E+00  0.43523953997E+03  0.34936984753E+04  0.34664817292E+04 0.  0.
        5    1    3    3  502    0 -0.64194717987E+03  0.44829174801E+03 -0.13408196953E+04  0.15527012650E+04  0.46999998093E+01 0. -1.
       -5    1    3    3    0  502  0.64194717987E+03 -0.44829174801E+03  0.17760592353E+04  0.19409972102E+04  0.46999998093E+01 0.  1.
</event>
<event>
 5   0  0.7675750E-08  0.3823542E+04  0.7818609E-02  0.8041122E-01
        1   -1    0    0  501    0  0.00000000000E+00  0.00000000000E+00  0.16336747878E+04  0.16336747878E+04  0.50400001928E-02 0. -1.
       -1   -1    0    0    0  501  0.00000000000E+00  0.00000000000E+00 -0.22372072354E+04  0.22372072354E+04  0.50400001928E-02 0.  1.
    10030    2    1    2    0    0  0.00000000000E+00  0.00000000000E+00 -0.60353244761E+03  0.38708820232E+04  0.38235423657E+04 0.  0.
        4    1    3    3  502    0 -0.11048464296E+04  0.10254374886E+04 -0.14921902711E+04  0.21210471692E+04  0.12699999809E+01 0.  1.
       -4    1    3    3    0  502  0.11048464296E+04 -0.10254374886E+04  0.88865782347E+03  0.17498348540E+04  0.12699999809E+01 0. -1.
</event>
<event>
 5   0  0.2395572E-07  0.3886924E+04  0.7818609E-02  0.8027754E-01
       -2   -1    0    0    0  501  0.00000000000E+00  0.00000000000E+00  0.12957562878E+04  0.12957562878E+04  0.25500000920E-02 0.  1.
        2   -1    0    0  501    0  0.00000000000E+00  0.00000000000E+00 -0.29149342487E+04  0.29149342487E+04  0.25500000920E-02 0. -1.
    10030    2    1    2    0    0  0.00000000000E+00  0.00000000000E+00 -0.16191779609E+04  0.42106905365E+04  0.38869239156E+04 0.  0.
        3    1    3    3  502    0 -0.89645296331E+03 -0.34107732348E+02  0.10580381763E+04  0.13871683552E+04  0.10100000352E+00 0.  1.
       -3    1    3    3    0  502  0.89645296331E+03  0.34107732348E+02 -0.26772161373E+04  0.28235221814E+04  0.10100000352E+00 0. -1.
</event>
<event>
 5   0  0.7675750E-08  0.3903829E+04  0.7818609E-02  0.8024233E-01
       -1   -1    0    0    0  501  0.00000000000E+00  0.00000000000E+00  0.31746598689E+04  0.31746598689E+04  0.50400001928E-02 0.  1.
        1   -1    0    0  501    0  0.00000000000E+00  0.00000000000E+00 -0.12001194288E+04  0.12001194289E+04  0.50400001928E-02 0. -1.
    10030    2    1    2    0    0  0.00000000000E+00  0.00000000000E+00  0.19745404400E+04  0.43747792977E+04  0.39038293962E+04 0.  0.
        2    1    3    3  502    0  0.19163241506E+04 -0.25307398282E+03  0.12913459787E+04  0.23246331168E+04  0.25500000920E-02 0. -1.
       -2    1    3    3    0  502 -0.19163241506E+04  0.25307398282E+03  0.68319446135E+03  0.20501461809E+04  0.25500000920E-02 0.  1.
</event>
<event>
 5   0  0.2473224E-07  0.3894759E+04  0.7818609E-02  0.8026120E-01
        2   -1    0    0  501    0  0.00000000000E+00  0.00000000000E+00  0.14117049396E+04  0.14117049396E+04  0.25500000920E-02 0. -1.
       -2   -1    0    0    0  501  0.00000000000E+00  0.00000000000E+00 -0.26863165417E+04  0.26863165417E+04  0.25500000920E-02 0.  1.
    10030    2    1    2    0    0  0.00000000000E+00  0.00000000000E+00 -0.12746116021E+04  0.40980214812E+04  0.38947586991E+04 0.  0.
        2    1    3    3  502    0  0.17880008320E+04  0.35112578952E+03  0.85609957807E+02  0.18241615499E+04  0.25500000920E-02 0. -1.
       -2    1    3    3    0  502 -0.17880008320E+04 -0.35112578952E+03 -0.13602215599E+04  0.22738599313E+04  0.25500000920E-02 0.  1.
</event>
<event>
 5   0  0.2384787E-07  0.3908577E+04  0.7818609E-02  0.8023248E-01
       -2   -1    0    0    0  501  0.00000000000E+00  0.00000000000E+00  0.23053995667E+04  0.23053995667E+04  0.25500000920E-02 0. -1.
        2   -1    0    0  501    0  0.00000000000E+00  0.00000000000E+00 -0.16566511256E+04  0.16566511256E+04  0.25500000920E-02 0.  1.
    10030    2    1    2    0    0  0.00000000000E+00  0.00000000000E+00  0.64874844106E+03  0.39620506923E+04  0.39085766142E+04 0.  0.
        4    1    3    3  502    0 -0.11540097854E+02  0.11180305525E+04 -0.13004007822E+04  0.17149837601E+04  0.12699999809E+01 0.  1.
       -4    1    3    3    0  502  0.11540097854E+02 -0.11180305525E+04  0.19491492233E+04  0.22470669322E+04  0.12699999809E+01 0. -1.
</event>
<event>
 5   0  0.2486268E-07  0.3902541E+04  0.7818609E-02  0.8024501E-01
       -2   -1    0    0    0  501  0.00000000000E+00  0.00000000000E+00  0.15672883616E+04  0.15672883616E+04  0.25500000920E-02 0. -1.
        2   -1    0    0  501    0  0.00000000000E+00  0.00000000000E+00 -0.24293269735E+04  0.24293269735E+04  0.25500000920E-02 0.  1.
    10030    2    1    2    0    0  0.00000000000E+00  0.00000000000E+00 -0.86203861193E+03  0.39966153351E+04  0.39025406555E+04 0.  0.
        5    1    3    3  502    0 -0.68614525603E+03 -0.15892745740E+04  0.49115663417E+03  0.17994015430E+04  0.46999998093E+01 0. -1.
       -5    1    3    3    0  502  0.68614525603E+03  0.15892745740E+04 -0.13531952461E+04  0.21972137920E+04  0.46999998093E+01 0.  1.
</event>
<event>
 5   0  0.7675750E-08  0.3910296E+04  0.7818609E-02  0.8022891E-01
       -1   -1    0    0    0  501  0.00000000000E+00  0.00000000000E+00  0.21064415817E+04  0.21064415817E+04  0.50400001928E-02 0. -1.
        1   -1    0    0  501    0  0.00000000000E+00  0.00000000000E+00 -0.18147213345E+04  0.18147213345E+04  0.50400001928E-02 0.  1.
    10030    2    1    2    0    0  0.00000000000E+00  0.00000000000E+00  0.29172024722E+03  0.39211629162E+04  0.39102963971E+04 0.  0.
        1    1    3    3  502    0  0.26743347475E+03 -0.72062368384E+03  0.19485725854E+04  0.20946967031E+04  0.50400001928E-02 0. -1.
       -1    1    3    3    0  502 -0.26743347475E+03  0.72062368384E+03 -0.16568523382E+04  0.18264662132E+04  0.50400001928E-02 0.  1.
</event>
<event>
 5   0  0.7675750E-08  0.3301899E+04  0.7818609E-02  0.8162412E-01
        1   -1    0    0  501    0  0.00000000000E+00  0.00000000000E+00  0.16632363508E+04  0.16632363508E+04  0.50400001928E-02 0. -1.
       -1   -1    0    0    0  501  0.00000000000E+00  0.00000000000E+00 -0.16387530267E+04  0.16387530267E+04  0.50400001928E-02 0.  1.
    10030    2    1    2    0    0  0.00000000000E+00  0.00000000000E+00  0.24483324161E+02  0.33019893775E+04  0.33018986078E+04 0.  0.
        2    1    3    3  502    0 -0.29688904945E+02  0.19680476039E+03 -0.16267115830E+04  0.16388423106E+04  0.25500000920E-02 0.  1.
       -2    1    3    3    0  502  0.29688904945E+02 -0.19680476039E+03  0.16511949071E+04  0.16631470669E+04  0.25500000920E-02 0. -1.
</event>
<event>
 5   0  0.2486268E-07  0.3921779E+04  0.7818609E-02  0.8020515E-01
        2   -1    0    0  501    0  0.00000000000E+00  0.00000000000E+00  0.21942822116E+04  0.21942822116E+04  0.25500000920E-02 0. -1.
       -2   -1    0    0    0  501  0.00000000000E+00  0.00000000000E+00 -0.17523214597E+04  0.17523214597E+04  0.25500000920E-02 0.  1.
    10030    2    1    2    0    0  0.00000000000E+00  0.00000000000E+00  0.44196075185E+03  0.39466036713E+04  0.39217790902E+04 0.  0.
        5    1    3    3  502    0  0.17035536589E+04  0.14384620353E+02  0.11980866959E+04  0.20827231710E+04  0.46999998093E+01 0. -1.
       -5    1    3    3    0  502 -0.17035536589E+04 -0.14384620353E+02 -0.75612594405E+03  0.18638805003E+04  0.46999998093E+01 0.  1.
</event>
<event>
 5   0  0.7731706E-08  0.3911966E+04  0.7818609E-02  0.8022545E-01
        1   -1    0    0  501    0  0.00000000000E+00  0.00000000000E+00  0.21211596520E+04  0.21211596520E+04  0.50400001928E-02 0. -1.
       -1   -1    0    0    0  501  0.00000000000E+00  0.00000000000E+00 -0.18036689072E+04  0.18036689072E+04  0.50400001928E-02 0.  1.
    10030    2    1    2    0    0  0.00000000000E+00  0.00000000000E+00  0.31749074480E+03  0.39248285592E+04  0.39119661100E+04 0.  0.
        3    1    3    3  502    0 -0.89014230524E+03  0.10259193549E+04  0.15708552368E+04  0.20766439347E+04  0.10100000352E+00 0. -1.
       -3    1    3    3    0  502  0.89014230524E+03 -0.10259193549E+04 -0.12533644920E+04  0.18481846245E+04  0.10100000352E+00 0.  1.
</event>
<event>
 5   0  0.2446281E-07  0.3904600E+04  0.7818609E-02  0.8024073E-01
        2   -1    0    0  501    0  0.00000000000E+00  0.00000000000E+00  0.25794947291E+04  0.25794947291E+04  0.25500000920E-02 0.  1.
       -2   -1    0    0    0  501  0.00000000000E+00  0.00000000000E+00 -0.14776054354E+04  0.14776054354E+04  0.25500000920E-02 0. -1.
    10030    2    1    2    0    0  0.00000000000E+00  0.00000000000E+00  0.11018892937E+04  0.40571001645E+04  0.39046000729E+04 0.  0.
        1    1    3    3  502    0  0.19380295230E+04 -0.16526342506E+02  0.30672462811E+03  0.19622210756E+04  0.50400001928E-02 0. -1.
       -1    1    3    3    0  502 -0.19380295230E+04  0.16526342506E+02  0.79516466558E+03  0.20948790890E+04  0.50400001928E-02 0.  1.
</event>
<event>
 5   0  0.7675750E-08  0.3326310E+04  0.7818609E-02  0.8156233E-01
       -1   -1    0    0    0  501  0.00000000000E+00  0.00000000000E+00  0.13927976891E+04  0.13927976891E+04  0.50400001928E-02 0.  1.
        1   -1    0    0  501    0  0.00000000000E+00  0.00000000000E+00 -0.19859915919E+04  0.19859915919E+04  0.50400001928E-02 0. -1.
    10030    2    1    2    0    0  0.00000000000E+00  0.00000000000E+00 -0.59319390279E+03  0.33787892811E+04  0.33263099675E+04 0.  0.
        1    1    3    3  502    0  0.14654090780E+03 -0.16422644340E+04 -0.75032272770E+02  0.16504958500E+04  0.50400001928E-02 0.  1.
       -1    1    3    3    0  502 -0.14654090780E+03  0.16422644340E+04 -0.51816163002E+03  0.17282934311E+04  0.50400001928E-02 0. -1.
</event>
<event>
 5   0  0.2446281E-07  0.3935017E+04  0.7818609E-02  0.8017785E-01
        2   -1    0    0  501    0  0.00000000000E+00  0.00000000000E+00  0.19914376045E+04  0.19914376045E+04  0.25500000920E-02 0. -1.
       -2   -1    0    0    0  501  0.00000000000E+00  0.00000000000E+00 -0.19438672317E+04  0.19438672317E+04  0.25500000920E-02 0.  1.
    10030    2    1    2    0    0  0.00000000000E+00  0.00000000000E+00  0.47570372796E+02  0.39353048363E+04  0.39350173080E+04 0.  0.
        1    1    3    3  502    0 -0.12776943849E+04 -0.14723739810E+04  0.28970351046E+03  0.19708668664E+04  0.50400001928E-02 0.  1.
       -1    1    3    3    0  502  0.12776943849E+04  0.14723739810E+04 -0.24213313766E+03  0.19644379699E+04  0.50400001928E-02 0. -1.
</event>
<event>
 5   0  0.2446281E-07  0.3883538E+04  0.7818609E-02  0.8028462E-01
        2   -1    0    0  501    0  0.00000000000E+00  0.00000000000E+00  0.22088113480E+04  0.22088113480E+04  0.25500000920E-02 0. -1.
       -2   -1    0    0    0  501  0.00000000000E+00  0.00000000000E+00 -0.17070115123E+04  0.17070115123E+04  0.25500000920E-02 0.  1.
    10030    2    1    2    0    0  0.00000000000E+00  0.00000000000E+00  0.50179983573E+03  0.39158228603E+04  0.38835377684E+04 0.  0.
        1    1    3    3  502    0  0.15670535847E+04 -0.11212151636E+04  0.87240918510E+01  0.19268773936E+04  0.50400001928E-02 0.  1.
       -1    1    3    3    0  502 -0.15670535847E+04  0.11212151636E+04  0.49307574388E+03  0.19889454667E+04  0.50400001928E-02 0. -1.
</event>
<event>
 5   0  0.2486268E-07  0.3879182E+04  0.7818609E-02  0.8029373E-01
       -2   -1    0    0    0  501  0.00000000000E+00  0.00000000000E+00  0.25161681381E+04  0.25161681381E+04  0.25500000920E-02 0. -1.
        2   -1    0    0  501    0  0.00000000000E+00  0.00000000000E+00 -0.14951362584E+04  0.14951362584E+04  0.25500000920E-02 0.  1.
    10030    2    1    2    0    0  0.00000000000E+00  0.00000000000E+00  0.10210318797E+04  0.40113043964E+04  0.38791824991E+04 0.  0.
        5    1    3    3  502    0 -0.46784180314E+03  0.24744966763E+03  0.24400507100E+04  0.24967933131E+04  0.46999998093E+01 0. -1.
       -5    1    3    3    0  502  0.46784180314E+03 -0.24744966763E+03 -0.14190188303E+04  0.15145110834E+04  0.46999998093E+01 0.  1.
</event>
<event>
 5   0  0.2395572E-07  0.3923551E+04  0.7818609E-02  0.8020149E-01
        2   -1    0    0  501    0  0.00000000000E+00  0.00000000000E+00  0.29823909072E+04  0.29823909072E+04  0.25500000920E-02 0.  1.
       -2   -1    0    0    0  501  0.00000000000E+00  0.00000000000E+00 -0.12904285330E+04  0.12904285330E+04  0.25500000920E-02 0. -1.
    10030    2    1    2    0    0  0.00000000000E+00  0.00000000000E+00  0.16919623742E+04  0.42728194401E+04  0.39235505976E+04 0.  0.
        3    1    3    3  502    0  0.12016626985E+04 -0.33903000457E+03  0.24938313574E+04  0.27889298009E+04  0.10100000352E+00 0.  1.
       -3    1    3    3    0  502 -0.12016626985E+04  0.33903000457E+03 -0.80186898317E+03  0.14838896392E+04  0.10100000352E+00 0. -1.
</event>
<event>
 5   0  0.7675750E-08  0.3850061E+04  0.7818609E-02  0.8035496E-01
       -1   -1    0    0    0  501  0.00000000000E+00  0.00000000000E+00  0.17163438860E+04  0.17163438860E+04  0.50400001928E-02 0. -1.
        1   -1    0    0  501    0  0.00000000000E+00  0.00000000000E+00 -0.21590907033E+04  0.21590907034E+04  0.50400001928E-02 0.  1.
    10030    2    1    2    0    0  0.00000000000E+00  0.00000000000E+00 -0.44274681731E+03  0.38754345894E+04  0.38500608453E+04 0.  0.
        4    1    3    3  502    0  0.32840242543E+03  0.62568772244E+03  0.15810721583E+04  0.17317979275E+04  0.12699999809E+01 0. -1.
       -4    1    3    3    0  502 -0.32840242543E+03 -0.62568772244E+03 -0.20238189756E+04  0.21436366619E+04  0.12699999809E+01 0.  1.
</event>
<event>
 5   0  0.7731706E-08  0.3707982E+04  0.7818609E-02  0.8066195E-01
        1   -1    0    0  501    0  0.00000000000E+00  0.00000000000E+00  0.24665605067E+04  0.24665605067E+04  0.50400001928E-02 0. -1.
       -1   -1    0    0    0  501  0.00000000000E+00  0.00000000000E+00 -0.13935528681E+04  0.13935528681E+04  0.50400001928E-02 0.  1.
    10030    2    1    2    0    0  0.00000000000E+00  0.00000000000E+00  0.10730076387E+04  0.38601133748E+04  0.37079819139E+04 0.  0.
        3    1    3    3  502    0 -0.88099745581E+03 -0.87111979421E+03  0.19723213304E+04  0.23291753162E+04  0.10100000352E+00 0. -1.
       -3    1    3    3    0  502  0.88099745581E+03  0.87111979421E+03 -0.89931369176E+03  0.15309380586E+04  0.10100000352E+00 0.  1.
</event>
<event>
 5   0  0.7675750E-08  0.3840751E+04  0.7818609E-02  0.8037466E-01
       -1   -1    0    0    0  501  0.00000000000E+00  0.00000000000E+00  0.25189605043E+04  0.25189605043E+04  0.50400001928E-02 0. -1.
        1   -1    0    0  501    0  0.00000000000E+00  0.00000000000E+00 -0.14640335789E+04  0.14640335789E+04  0.50400001928E-02 0.  1.
    10030    2    1    2    0    0  0.00000000000E+00  0.00000000000E+00  0.10549269254E+04  0.39829940831E+04  0.38407513651E+04 0.  0.
        2    1    3    3  502    0 -0.16121040082E+04  0.15813544221E+03  0.15971472818E+04  0.22748111111E+04  0.25500000920E-02 0. -1.
       -2    1    3    3    0  502  0.16121040082E+04 -0.15813544221E+03 -0.54222035642E+03  0.17081829721E+04  0.25500000920E-02 0.  1.
</event>
<event>
 5   0  0.7675750E-08  0.4006329E+04  0.7818609E-02  0.8003271E-01
        1   -1    0    0  501    0  0.00000000000E+00  0.00000000000E+00  0.28652694931E+04  0.28652694931E+04  0.50400001928E-02 0.  1.
       -1   -1    0    0    0  501  0.00000000000E+00  0.00000000000E+00 -0.14004502163E+04  0.14004502163E+04  0.50400001928E-02 0. -1.
    10030    2    1    2    0    0  0.00000000000E+00  0.00000000000E+00  0.14648192768E+04  0.42657197094E+04  0.40063286343E+04 0.  0.
        1    1    3    3  502    0  0.65890772977E+03 -0.27706367009E+03  0.27248618638E+04  0.28170544635E+04  0.50400001928E-02 0.  1.
       -1    1    3    3    0  502 -0.65890772977E+03  0.27706367009E+03 -0.12600425870E+04  0.14486652459E+04  0.50400001928E-02 0. -1.
</event>
<event>
 5   0  0.2384787E-07  0.3863964E+04  0.7818609E-02  0.8032566E-01
       -2   -1    0    0    0  501  0.00000000000E+00  0.00000000000E+00  0.15392907961E+04  0.15392907961E+04  0.25500000920E-02 0.  1.
        2   -1    0    0  501    0  0.00000000000E+00  0.00000000000E+00 -0.24248528880E+04  0.24248528880E+04  0.25500000920E-02 0. -1.
    10030    2    1    2    0    0  0.00000000000E+00  0.00000000000E+00 -0.88556209190E+03  0.39641436840E+04  0.38639636294E+04 0.  0.
        4    1    3    3  502    0  0.13890586637E+04 -0.12276728766E+04 -0.10008394270E+04  0.21067381979E+04  0.12699999809E+01 0. -1.
       -4    1    3    3    0  502 -0.13890586637E+04  0.12276728766E+04  0.11527733513E+03  0.18574054861E+04  0.12699999809E+01 0.  1.
</event>
<event>
 5   0  0.7731706E-08  0.3899291E+04  0.7818609E-02  0.8025177E-01
       -1   -1    0    0    0  501  0.00000000000E+00  0.00000000000E+00  0.12489881882E+04  0.12489881882E+04  0.50400001928E-02 0. -1.
        1   -1    0    0  501    0  0.00000000000E+00  0.00000000000E+00 -0.30433579643E+04  0.30433579643E+04  0.50400001928E-02 0.  1.
    10030    2    1    2    0    0  0.00000000000E+00  0.00000000000E+00 -0.17943697761E+04  0.42923461525E+04  0.38992912945E+04 0.  0.
        3    1    3    3  502    0 -0.19000954023E+04  0.42340790397E+03 -0.10151369432E+04  0.21954816817E+04  0.10100000352E+00 0.  1.
       -3    1    3    3    0  502  0.19000954023E+04 -0.42340790397E+03 -0.77923283289E+03  0.20968644708E+04  0.10100000352E+00 0. -1.
</event>
<event>
 5   0  0.2473224E-07  0.3846705E+04  0.7818609E-02  0.8036206E-01
       -2   -1    0    0    0  501  0.00000000000E+00  0.00000000000E+00  0.18437655124E+04  0.18437655124E+04  0.25500000920E-02 0.  1.
        2   -1    0    0  501    0  0.00000000000E+00  0.00000000000E+00 -0.20063743812E+04  0.20063743812E+04  0.25500000920E-02 0. -1.
    10030    2    1    2    0    0  0.00000000000E+00  0.00000000000E+00 -0.16260886873E+03  0.38501398936E+04  0.38467045059E+04 0.  0.
        2    1    3    3  502    0  0.22342272670E+03  0.12960587595E+04 -0.14859814172E+04  0.19843958262E+04  0.25500000920E-02 0. -1.
       -2    1    3    3    0  502 -0.22342272670E+03 -0.12960587595E+04  0.13233725485E+04  0.18657440674E+04  0.25500000920E-02 0.  1.
</event>
<event>
 5   0  0.7675750E-08  0.3892637E+04  0.7818609E-02  0.8026562E-01
        1   -1    0    0  501    0  0.00000000000E+00  0.00000000000E+00  0.21218726073E+04  0.21218726073E+04  0.50400001928E-02 0. -1.
       -1   -1    0    0    0  501  0.00000000000E+00  0.00000000000E+00 -0.17852885910E+04  0.17852885910E+04  0.50400001928E-02 0.  1.
    10030    2    1    2    0    0  0.00000000000E+00  0.00000000000E+00  0.33658401625E+03  0.39071611983E+04  0.38926366166E+04 0.  0.
        5    1    3    3  502    0 -0.14850499257E+04  0.67395444761E+02 -0.10926667568E+04  0.18449547852E+04  0.46999998093E+01 0.  1.
       -5    1    3    3    0  502  0.14850499257E+04 -0.67395444761E+02  0.14292507731E+04  0.20622064131E+04  0.46999998093E+01 0. -1.
</event>
<event>
 5   0  0.2384787E-07  0.3902010E+04  0.7818609E-02  0.8024611E-01
        2   -1    0    0  501    0  0.00000000000E+00  0.00000000000E+00  0.25568518595E+04  0.25568518595E+04  0.25500000920E-02 0.  1.
       -2   -1    0    0    0  501  0.00000000000E+00  0.00000000000E+00 -0.14887135766E+04  0.14887135766E+04  0.25500000920E-02 0. -1.
    10030    2    1    2    0    0  0.00000000000E+00  0.00000000000E+00  0.10681382830E+04  0.40455654361E+04  0.39020097778E+04 0.  0.
        4    1    3    3  502    0 -0.10930803695E+04 -0.13481711003E+04 -0.38979669910E+03  0.17788572425E+04  0.12699999809E+01 0. -1.
       -4    1    3    3    0  502  0.10930803695E+04  0.13481711003E+04  0.14579349821E+04  0.22667081936E+04  0.12699999809E+01 0.  1.
</event>
<event>
 5   0  0.2446281E-07  0.3727018E+04  0.7818609E-02  0.8062000E-01
        2   -1    0    0  501    0  0.00000000000E+00  0.00000000000E+00  0.25916912353E+04  0.25916912353E+04  0.25500000920E-02 0. -1.
       -2   -1    0    0    0  501  0.00000000000E+00  0.00000000000E+00 -0.13399229778E+04  0.13399229778E+04  0.25500000920E-02 0.  1.
    10030    2    1    2    0    0  0.00000000000E+00  0.00000000000E+00  0.12517682575E+04  0.39316142131E+04  0.37270184532E+04 0.  0.
        1    1    3    3  502    0 -0.92520126309E+03  0.62558452103E+03 -0.94775422511E+03  0.14647837524E+04  0.50400001928E-02 0.  1.
       -1    1    3    3    0  502  0.92520126309E+03 -0.62558452103E+03  0.21995224826E+04  0.24668304607E+04  0.50400001928E-02 0. -1.
</event>
<event>
 5   0  0.2446281E-07  0.3910084E+04  0.7818609E-02  0.8022935E-01
        2   -1    0    0  501    0  0.00000000000E+00  0.00000000000E+00  0.25225234049E+04  0.25225234049E+04  0.25500000920E-02 0.  1.
       -2   -1    0    0    0  501  0.00000000000E+00  0.00000000000E+00 -0.15152246521E+04  0.15152246521E+04  0.25500000920E-02 0. -1.
    10030    2    1    2    0    0  0.00000000000E+00  0.00000000000E+00  0.10072987528E+04  0.40377480570E+04  0.39100842183E+04 0.  0.
        1    1    3    3  502    0  0.16988888450E+04 -0.60149107636E+02  0.15007574346E+04  0.22676230067E+04  0.50400001928E-02 0.  1.
       -1    1    3    3    0  502 -0.16988888450E+04  0.60149107636E+02 -0.49345868178E+03  0.17701250503E+04  0.50400001928E-02 0. -1.
</event>
<event>
 5   0  0.7675750E-08  0.3616706E+04  0.7818609E-02  0.8086676E-01
       -1   -1    0    0    0  501  0.00000000000E+00  0.00000000000E+00  0.24788447147E+04  0.24788447147E+04  0.50400001928E-02 0.  1.
        1   -1    0    0  501    0  0.00000000000E+00  0.00000000000E+00 -0.13192195531E+04  0.13192195531E+04  0.50400001928E-02 0. -1.
    10030    2    1    2    0    0  0.00000000000E+00  0.00000000000E+00  0.11596251616E+04  0.37980642679E+04  0.36167059139E+04 0.  0.
        4    1    3    3  502    0 -0.12657812892E+04 -0.12051628357E+04  0.10673320528E+04  0.20478816022E+04  0.12699999809E+01 0.  1.
       -4    1    3    3    0  502  0.12657812892E+04  0.12051628357E+04  0.92293108791E+02  0.17501826657E+04  0.12699999809E+01 0. -1.
</event>
<event>
 5   0  0.2384787E-07  0.3950051E+04  0.7818609E-02  0.8014699E-01
       -2   -1    0    0    0  501  0.00000000000E+00  0.00000000000E+00  0.23753768365E+04  0.23753768365E+04  0.25500000920E-02 0. -1.
        2   -1    0    0  501    0  0.00000000000E+00  0.00000000000E+00 -0.16421499714E+04  0.16421499714E+04  0.25500000920E-02 0.  1.
    10030    2    1    2    0    0  0.00000000000E+00  0.00000000000E+00  0.73322686513E+03  0.40175268079E+04  0.39500506347E+04 0.  0.
        4    1    3    3  502    0  0.78245450220E+03  0.15390291153E+04 -0.60887286186E+03  0.18307303025E+04  0.12699999809E+01 0.  1.
       -4    1    3    3    0  502 -0.78245450220E+03 -0.15390291153E+04  0.13420997270E+04  0.21867965054E+04  0.12699999809E+01 0. -1.
</event>
<event>
 5   0  0.2384787E-07  0.3887521E+04  0.7818609E-02  0.8027630E-01
       -2   -1    0    0    0  501  0.00000000000E+00  0.00000000000E+00  0.22964466665E+04  0.22964466665E+04  0.25500000920E-02 0. -1.
        2   -1    0    0  501    0  0.00000000000E+00  0.00000000000E+00 -0.16452398268E+04  0.16452398268E+04  0.25500000920E-02 0.  1.
    10030    2    1    2    0    0  0.00000000000E+00  0.00000000000E+00  0.65120683972E+03  0.39416864934E+04  0.38875213265E+04 0.  0.
        4    1    3    3  502    0 -0.11853272023E+04  0.13972391741E+04  0.98343115416E+03  0.20795231025E+04  0.12699999809E+01 0. -1.
       -4    1    3    3    0  502  0.11853272023E+04 -0.13972391741E+04 -0.33222431444E+03  0.18621633908E+04  0.12699999809E+01 0.  1.
</event>
<event>
 5   0  0.7675750E-08  0.3880480E+04  0.7818609E-02  0.8029101E-01
        1   -1    0    0  501    0  0.00000000000E+00  0.00000000000E+00  0.12585174319E+04  0.12585174319E+04  0.50400001928E-02 0.  1.
       -1   -1    0    0    0  501  0.00000000000E+00  0.00000000000E+00 -0.29912428801E+04  0.29912428801E+04  0.50400001928E-02 0. -1.
    10030    2    1    2    0    0  0.00000000000E+00  0.00000000000E+00 -0.17327254482E+04  0.42497603120E+04  0.38804800258E+04 0.  0.
        2    1    3    3  502    0  0.12869650444E+04  0.11073343134E+04 -0.18949207248E+04  0.25442470124E+04  0.25500000920E-02 0. -1.
       -2    1    3    3    0  502 -0.12869650444E+04 -0.11073343134E+04  0.16219527652E+03  0.17055132995E+04  0.25500000920E-02 0.  1.
</event>
<event>
 5   0  0.2384787E-07  0.3870095E+04  0.7818609E-02  0.8031278E-01
       -2   -1    0    0    0  501  0.00000000000E+00  0.00000000000E+00  0.15850150402E+04  0.15850150402E+04  0.25500000920E-02 0.  1.
        2   -1    0    0  501    0  0.00000000000E+00  0.00000000000E+00 -0.23623810933E+04  0.23623810933E+04  0.25500000920E-02 0. -1.
    10030    2    1    2    0    0  0.00000000000E+00  0.00000000000E+00 -0.77736605310E+03  0.39473961335E+04  0.38700953805E+04 0.  0.
        4    1    3    3  502    0 -0.82248527476E+03  0.87862085912E+03 -0.19341879028E+04  0.22780564298E+04  0.12699999809E+01 0. -1.
       -4    1    3    3    0  502  0.82248527476E+03 -0.87862085912E+03  0.11568218497E+04  0.16693397036E+04  0.12699999809E+01 0.  1.
</event>
<event>
 5   0  0.7675750E-08  0.3873408E+04  0.7818609E-02  0.8030583E-01
       -1   -1    0    0    0  501  0.00000000000E+00  0.00000000000E+00  0.18021347700E+04  0.18021347700E+04  0.50400001928E-02 0. -1.
        1   -1    0    0  501    0  0.00000000000E+00  0.00000000000E+00 -0.20813219005E+04  0.20813219005E+04  0.50400001928E-02 0.  1.
    10030    2    1    2    0    0  0.00000000000E+00  0.00000000000E+00 -0.27918713057E+03  0.38834566705E+04  0.38734080934E+04 0.  0.
        5    1    3    3  502    0 -0.90955663131E+03  0.88772450542E+02  0.15723567829E+04  0.18186538308E+04  0.46999998093E+01 0. -1.
       -5    1    3    3    0  502  0.90955663131E+03 -0.88772450542E+02 -0.18515439134E+04  0.20648028397E+04  0.46999998093E+01 0.  1.
</event>
<event>
 5   0  0.7675750E-08  0.3761805E+04  0.7818609E-02  0.8054401E-01
       -1   -1    0    0    0  501  0.00000000000E+00  0.00000000000E+00  0.27875582752E+04  0.27875582752E+04  0.50400001928E-02 0. -1.
        1   -1    0    0  501    0  0.00000000000E+00  0.00000000000E+00 -0.12691371484E+04  0.12691371484E+04  0.50400001928E-02 0.  1.
    10030    2    1    2    0    0  0.00000000000E+00  0.00000000000E+00  0.15184211268E+04  0.40566954236E+04  0.37618047586E+04 0.  0.
        5    1    3    3  502    0 -0.57763522983E+03 -0.38804719867E+03  0.26436281361E+04  0.27336852231E+04  0.46999998093E+01 0. -1.
       -5    1    3    3    0  502  0.57763522983E+03  0.38804719867E+03 -0.11252070092E+04  0.13230102006E+04  0.46999998093E+01 0.  1.
</event>
<event>
 5   0  0.7675750E-08  0.3914739E+04  0.7818609E-02  0.8021971E-01
        1   -1    0    0  501    0  0.00000000000E+00  0.00000000000E+00  0.31222877090E+04  0.31222877090E+04  0.50400001928E-02 0. -1.
       -1   -1    0    0    0  501  0.00000000000E+00  0.00000000000E+00 -0.12270797352E+04  0.12270797352E+04  0.50400001928E-02 0.  1.
    10030    2    1    2    0    0  0.00000000000E+00  0.00000000000E+00  0.18952079738E+04  0.43493674443E+04  0.39147393146E+04 0.  0.
        5    1    3    3  502    0 -0.15559644810E+04 -0.19036807165E+01  0.22669858349E+04  0.27495955986E+04  0.46999998093E+01 0. -1.
       -5    1    3    3    0  502  0.15559644810E+04  0.19036807165E+01 -0.37177786108E+03  0.15997718457E+04  0.46999998093E+01 0.  1.
</event>
<event>
 5   0  0.7675750E-08  0.3693577E+04  0.7818609E-02  0.8069387E-01
        1   -1    0    0  501    0  0.00000000000E+00  0.00000000000E+00  0.25049975905E+04  0.25049975905E+04  0.50400001928E-02 0. -1.
       -1   -1    0    0    0  501  0.00000000000E+00  0.00000000000E+00 -0.13615297246E+04  0.13615297246E+04  0.50400001928E-02 0.  1.
    10030    2    1    2    0    0  0.00000000000E+00  0.00000000000E+00  0.11434678659E+04  0.38665273151E+04  0.36935774959E+04 0.  0.
        2    1    3    3  502    0  0.13559136629E+04 -0.10106882511E+04 -0.20506066822E+03  0.17035382237E+04  0.25500000920E-02 0. -1.
       -2    1    3    3    0  502 -0.13559136629E+04  0.10106882511E+04  0.13485285341E+04  0.21629890914E+04  0.25500000920E-02 0.  1.
</event>
<event>
 5   0  0.2395572E-07  0.3790527E+04  0.7818609E-02  0.8048191E-01
        2   -1    0    0  501    0  0.00000000000E+00  0.00000000000E+00  0.18825141176E+04  0.18825141176E+04  0.25500000920E-02 0. -1.
       -2   -1    0    0    0  501  0.00000000000E+00  0.00000000000E+00 -0.19080993757E+04  0.19080993757E+04  0.25500000920E-02 0.  1.
    10030    2    1    2    0    0  0.00000000000E+00  0.00000000000E+00 -0.25585258133E+02  0.37906134933E+04  0.37905271467E+04 0.  0.
        3    1    3    3  502    0  0.12413768259E+04 -0.13887572255E+04 -0.36260189378E+03  0.18976678315E+04  0.10100000352E+00 0.  1.
       -3    1    3    3    0  502 -0.12413768259E+04  0.13887572255E+04  0.33701663565E+03  0.18929456617E+04  0.10100000352E+00 0. -1.
</event>
<event>
 5   0  0.2486268E-07  0.3895641E+04  0.7818609E-02  0.8025936E-01
       -2   -1    0    0    0  501  0.00000000000E+00  0.00000000000E+00  0.16130861475E+04  0.16130861475E+04  0.25500000920E-02 0. -1.
        2   -1    0    0  501    0  0.00000000000E+00  0.00000000000E+00 -0.23520166364E+04  0.23520166364E+04  0.25500000920E-02 0.  1.
    10030    2    1    2    0    0  0.00000000000E+00  0.00000000000E+00 -0.73893048892E+03  0.39651027839E+04  0.38956413875E+04 0.  0.
        5    1    3    3  502    0 -0.11173853122E+04 -0.85516470106E+03  0.10014458581E+04  0.17270704961E+04  0.46999998093E+01 0. -1.
       -5    1    3    3    0  502  0.11173853122E+04  0.85516470106E+03 -0.17403763470E+04  0.22380322878E+04  0.46999998093E+01 0.  1.
</event>
<event>
 5   0  0.2473224E-07  0.3920559E+04  0.7818609E-02  0.8020767E-01
       -2   -1    0    0    0  501  0.00000000000E+00  0.00000000000E+00  0.19017826134E+04  0.19017826134E+04  0.25500000920E-02 0. -1.
        2   -1    0    0  501    0  0.00000000000E+00  0.00000000000E+00 -0.20205756110E+04  0.20205756110E+04  0.25500000920E-02 0.  1.
    10030    2    1    2    0    0  0.00000000000E+00  0.00000000000E+00 -0.11879299763E+03  0.39223582244E+04  0.39205589224E+04 0.  0.
        2    1    3    3  502    0  0.11957048336E+04 -0.14595620019E+04  0.47250931164E+03  0.19450697509E+04  0.25500000920E-02 0. -1.
       -2    1    3    3    0  502 -0.11957048336E+04  0.14595620019E+04 -0.59130230927E+03  0.19772884735E+04  0.25500000920E-02 0.  1.
</event>
<event>
 5   0  0.7675750E-08  0.3920616E+04  0.7818609E-02  0.8020755E-01
       -1   -1    0    0    0  501  0.00000000000E+00  0.00000000000E+00  0.32871801166E+04  0.32871801166E+04  0.50400001928E-02 0.  1.
        1   -1    0    0  501    0  0.00000000000E+00  0.00000000000E+00 -0.11690286375E+04  0.11690286375E+04  0.50400001928E-02 0. -1.
    10030    2    1    2    0    0  0.00000000000E+00  0.00000000000E+00  0.21181514791E+04  0.44562087541E+04  0.39206161215E+04 0.  0.
        4    1    3    3  502    0  0.16640263367E+04  0.44172313595E+03  0.21245238068E+04  0.27345394487E+04  0.12699999809E+01 0.  1.
       -4    1    3    3    0  502 -0.16640263367E+04 -0.44172313595E+03 -0.63723276773E+01  0.17216693055E+04  0.12699999809E+01 0. -1.
</event>
<event>
 5   0  0.2446281E-07  0.4425615E+04  0.7818609E-02  0.7923790E-01
       -2   -1    0    0    0  501  0.00000000000E+00  0.00000000000E+00  0.15853637240E+04  0.15853637240E+04  0.25500000920E-02 0.  1.
        2   -1    0    0  501    0  0.00000000000E+00  0.00000000000E+00 -0.30885769033E+04  0.30885769033E+04  0.25500000920E-02 0. -1.
    10030    2    1    2    0    0  0.00000000000E+00  0.00000000000E+00 -0.15032131793E+04  0.46739406273E+04  0.44256153386E+04 0.  0.
        1    1    3    3  502    0 -0.11206797546E+04 -0.18148375347E+04 -0.12952284741E+03  0.21368983499E+04  0.50400001928E-02 0.  1.
       -1    1    3    3    0  502  0.11206797546E+04  0.18148375347E+04 -0.13736903319E+04  0.25370422775E+04  0.50400001928E-02 0. -1.
</event>
<event>
 5   0  0.7675750E-08  0.3908434E+04  0.7818609E-02  0.8023277E-01
        1   -1    0    0  501    0  0.00000000000E+00  0.00000000000E+00  0.27027956520E+04  0.27027956520E+04  0.50400001928E-02 0. -1.
       -1   -1    0    0    0  501  0.00000000000E+00  0.00000000000E+00 -0.14129684660E+04  0.14129684660E+04  0.50400001928E-02 0.  1.
    10030    2    1    2    0    0  0.00000000000E+00  0.00000000000E+00  0.12898271861E+04  0.41157641180E+04  0.39084344827E+04 0.  0.
        2    1    3    3  502    0 -0.26944403761E+03 -0.16662797311E+03  0.26755743501E+04  0.26942648485E+04  0.25500000920E-02 0. -1.
       -2    1    3    3    0  502  0.26944403761E+03  0.16662797311E+03 -0.13857471640E+04  0.14214992696E+04  0.25500000920E-02 0.  1.
</event>
<event>
 5   0  0.7675750E-08  0.3919372E+04  0.7818609E-02  0.8021012E-01
        1   -1    0    0  501    0  0.00000000000E+00  0.00000000000E+00  0.31949038104E+04  0.31949038104E+04  0.50400001928E-02 0.  1.
       -1   -1    0    0    0  501  0.00000000000E+00  0.00000000000E+00 -0.12020297491E+04  0.12020297491E+04  0.50400001928E-02 0. -1.
    10030    2    1    2    0    0  0.00000000000E+00  0.00000000000E+00  0.19928740613E+04  0.43969335595E+04  0.39193721057E+04 0.  0.
        1    1    3    3  502    0  0.64793572211E+02  0.12593605755E+04 -0.68640071407E+03  0.14357343788E+04  0.50400001928E-02 0. -1.
       -1    1    3    3    0  502 -0.64793572211E+02 -0.12593605755E+04  0.26792747753E+04  0.29611991807E+04  0.50400001928E-02 0.  1.
</event>
<event>
 5   0  0.7731706E-08  0.3813275E+04  0.7818609E-02  0.8043312E-01
       -1   -1    0    0    0  501  0.00000000000E+00  0.00000000000E+00  0.15935231791E+04  0.15935231792E+04  0.50400001928E-02 0.  1.
        1   -1    0    0  501    0  0.00000000000E+00  0.00000000000E+00 -0.22812758056E+04  0.22812758056E+04  0.50400001928E-02 0. -1.
    10030    2    1    2    0    0  0.00000000000E+00  0.00000000000E+00 -0.68775262643E+03  0.38747989847E+04  0.38132746422E+04 0.  0.
        3    1    3    3  502    0 -0.38561178070E+03 -0.84886251520E+03  0.13460871871E+04  0.16374415228E+04  0.10100000352E+00 0.  1.
       -3    1    3    3    0  502  0.38561178070E+03  0.84886251520E+03 -0.20338398135E+04  0.22373574619E+04  0.10100000352E+00 0. -1.
</event>
<event>
 5   0  0.7675750E-08  0.3940322E+04  0.7818609E-02  0.8016695E-01
        1   -1    0    0  501    0  0.00000000000E+00  0.00000000000E+00  0.17041806453E+04  0.17041806453E+04  0.50400001928E-02 0.  1.
       -1   -1    0    0    0  501  0.00000000000E+00  0.00000000000E+00 -0.22776538250E+04  0.22776538250E+04  0.50400001928E-02 0. -1.
    10030    2    1    2    0    0  0.00000000000E+00  0.00000000000E+00 -0.57347317972E+03  0.39818344703E+04  0.39403215936E+04 0.  0.
        2    1    3    3  502    0  0.15715507616E+04  0.23125355612E+03  0.89099617016E+03  0.18212973889E+04  0.25500000920E-02 0.  1.
       -2    1    3    3    0  502 -0.15715507616E+04 -0.23125355612E+03 -0.14644693499E+04  0.21605370814E+04  0.25500000920E-02 0. -1.
</event>
<event>
 5   0  0.7731706E-08  0.3849918E+04  0.7818609E-02  0.8035527E-01
       -1   -1    0    0    0  501  0.00000000000E+00  0.00000000000E+00  0.10557299082E+04  0.10557299082E+04  0.50400001928E-02 0. -1.
        1   -1    0    0  501    0  0.00000000000E+00  0.00000000000E+00 -0.35098623327E+04  0.35098623327E+04  0.50400001928E-02 0.  1.
    10030    2    1    2    0    0  0.00000000000E+00  0.00000000000E+00 -0.24541324245E+04  0.45655922409E+04  0.38499177333E+04 0.  0.
        3    1    3    3  502    0 -0.11631318201E+04 -0.43018477389E+03  0.51887025734E+03  0.13443068566E+04  0.10100000352E+00 0. -1.
       -3    1    3    3    0  502  0.11631318201E+04  0.43018477389E+03 -0.29730026818E+04  0.32212853843E+04  0.10100000352E+00 0.  1.
</event>
<event>
 5   0  0.7675750E-08  0.3747888E+04  0.7818609E-02  0.8057431E-01
       -1   -1    0    0    0  501  0.00000000000E+00  0.00000000000E+00  0.20683819441E+04  0.20683819441E+04  0.50400001928E-02 0.  1.
        1   -1    0    0  501    0  0.00000000000E+00  0.00000000000E+00 -0.16977838906E+04  0.16977838906E+04  0.50400001928E-02 0. -1.
    10030    2    1    2    0    0  0.00000000000E+00  0.00000000000E+00  0.37059805351E+03  0.37661658348E+04  0.37478876955E+04 0.  0.
        1    1    3    3  502    0 -0.83073674933E+03  0.15122714789E+04  0.92001248259E+03  0.19553801524E+04  0.50400001928E-02 0.  1.
       -1    1    3    3    0  502  0.83073674933E+03 -0.15122714789E+04 -0.54941442909E+03  0.18107856823E+04  0.50400001928E-02 0. -1.
</event>
<event>
 5   0  0.7675750E-08  0.3790808E+04  0.7818609E-02  0.8048130E-01
        1   -1    0    0  501    0  0.00000000000E+00  0.00000000000E+00  0.12079767719E+04  0.12079767719E+04  0.50400001928E-02 0.  1.
       -1   -1    0    0    0  501  0.00000000000E+00  0.00000000000E+00 -0.29740281936E+04  0.29740281936E+04  0.50400001928E-02 0. -1.
    10030    2    1    2    0    0  0.00000000000E+00  0.00000000000E+00 -0.17660514218E+04  0.41820049655E+04  0.37908083448E+04 0.  0.
        2    1    3    3  502    0  0.12603981591E+04  0.12754634266E+04 -0.15605233088E+04  0.23771082158E+04  0.25500000920E-02 0. -1.
       -2    1    3    3    0  502 -0.12603981591E+04 -0.12754634266E+04 -0.20552811295E+03  0.18048967497E+04  0.25500000920E-02 0.  1.
</event>
<event>
 5   0  0.2473224E-07  0.3968268E+04  0.7818609E-02  0.8010979E-01
       -2   -1    0    0    0  501  0.00000000000E+00  0.00000000000E+00  0.15186805520E+04  0.15186805520E+04  0.25500000920E-02 0.  1.
        2   -1    0    0  501    0  0.00000000000E+00  0.00000000000E+00 -0.25922420646E+04  0.25922420646E+04  0.25500000920E-02 0. -1.
    10030    2    1    2    0    0  0.00000000000E+00  0.00000000000E+00 -0.10735615126E+04  0.41109226166E+04  0.39682679394E+04 0.  0.
        2    1    3    3  502    0  0.13804653931E+04 -0.15770598400E+03 -0.20041143514E+04  0.24386533605E+04  0.25500000920E-02 0. -1.
       -2    1    3    3    0  502 -0.13804653931E+04  0.15770598400E+03  0.93055283887E+03  0.16722692561E+04  0.25500000920E-02 0.  1.
</event>
<event>
 5   0  0.7675750E-08  0.3938725E+04  0.7818609E-02  0.8017023E-01
        1   -1    0    0  501    0  0.00000000000E+00  0.00000000000E+00  0.18962354792E+04  0.18962354792E+04  0.50400001928E-02 0.  1.
       -1   -1    0    0    0  501  0.00000000000E+00  0.00000000000E+00 -0.20453095717E+04  0.20453095717E+04  0.50400001928E-02 0. -1.
    10030    2    1    2    0    0  0.00000000000E+00  0.00000000000E+00 -0.14907409251E+03  0.39415450510E+04  0.39387249591E+04 0.  0.
        2    1    3    3  502    0  0.12765794653E+04 -0.58462899544E+03 -0.14564466190E+04  0.20230380490E+04  0.25500000920E-02 0. -1.
       -2    1    3    3    0  502 -0.12765794653E+04  0.58462899544E+03  0.13073725265E+04  0.19185070020E+04  0.25500000920E-02 0.  1.
</event>
<event>
 5   0  0.7675750E-08  0.3944279E+04  0.7818609E-02  0.8015882E-01
       -1   -1    0    0    0  501  0.00000000000E+00  0.00000000000E+00  0.14980909740E+04  0.14980909740E+04  0.50400001928E-02 0.  1.
        1   -1    0    0  501    0  0.00000000000E+00  0.00000000000E+00 -0.25961938352E+04  0.25961938352E+04  0.50400001928E-02 0. -1.
    10030    2    1    2    0    0  0.00000000000E+00  0.00000000000E+00 -0.10981028612E+04  0.40942848092E+04  0.39442791743E+04 0.  0.
        5    1    3    3  502    0  0.17698480635E+04  0.76661951069E+03 -0.12201188406E+03  0.19326087632E+04  0.46999998093E+01 0.  1.
       -5    1    3    3    0  502 -0.17698480635E+04 -0.76661951069E+03 -0.97609097716E+03  0.21616760459E+04  0.46999998093E+01 0. -1.
</event>
<event>
 5   0  0.2395572E-07  0.3868789E+04  0.7818609E-02  0.8031552E-01
        2   -1    0    0  501    0  0.00000000000E+00  0.00000000000E+00  0.17569280969E+04  0.17569280969E+04  0.25500000920E-02 0. -1.
       -2   -1    0    0    0  501  0.00000000000E+00  0.00000000000E+00 -0.21297863438E+04  0.21297863438E+04  0.25500000920E-02 0.  1.
    10030    2    1    2    0    0  0.00000000000E+00  0.00000000000E+00 -0.37285824685E+03  0.38867144407E+04  0.38687886827E+04 0.  0.
        3    1    3    3  502    0  0.84185969887E+03 -0.15182164670E+04 -0.10437131886E+04  0.20255977447E+04  0.10100000352E+00 0.  1.
       -3    1    3    3    0  502 -0.84185969887E+03  0.15182164670E+04  0.67085494173E+03  0.18611166960E+04  0.10100000352E+00 0. -1.
</event>
<event>
 5   0  0.2395572E-07  0.3909213E+04  0.7818609E-02  0.8023116E-01
       -2   -1    0    0    0  501  0.00000000000E+00  0.00000000000E+00  0.20503780245E+04  0.20503780245E+04  0.25500000920E-02 0.  1.
        2   -1    0    0  501    0  0.00000000000E+00  0.00000000000E+00 -0.18633083102E+04  0.18633083102E+04  0.25500000920E-02 0. -1.
    10030    2    1    2    0    0  0.00000000000E+00  0.00000000000E+00  0.18706971438E+03  0.39136863347E+04  0.39092129193E+04 0.  0.
        3    1    3    3  502    0  0.14656263320E+04  0.12853583222E+04 -0.49035408572E+02  0.19500284723E+04  0.10100000352E+00 0.  1.
       -3    1    3    3    0  502 -0.14656263320E+04 -0.12853583222E+04  0.23610512296E+03  0.19636578624E+04  0.10100000352E+00 0. -1.
</event>
<event>
 5   0  0.2384787E-07  0.3892533E+04  0.7818609E-02  0.8026584E-01
        2   -1    0    0  501    0  0.00000000000E+00  0.00000000000E+00  0.19143497999E+04  0.19143497999E+04  0.25500000920E-02 0. -1.
       -2   -1    0    0    0  501  0.00000000000E+00  0.00000000000E+00 -0.19787150230E+04  0.19787150230E+04  0.25500000920E-02 0.  1.
    10030    2    1    2    0    0  0.00000000000E+00  0.00000000000E+00 -0.64365223072E+02  0.38930648229E+04  0.38925327016E+04 0.  0.
        4    1    3    3  502    0 -0.11939899201E+04 -0.89922893852E+03  0.12144734395E+04  0.19259210683E+04  0.12699999809E+01 0. -1.
       -4    1    3    3    0  502  0.11939899201E+04  0.89922893852E+03 -0.12788386626E+04  0.19671437546E+04  0.12699999809E+01 0.  1.
</event>
<event>
 5   0  0.2395572E-07  0.3894069E+04  0.7818609E-02  0.8026264E-01
       -2   -1    0    0    0  501  0.00000000000E+00  0.00000000000E+00  0.18259958407E+04  0.18259958407E+04  0.25500000920E-02 0.  1.
        2   -1    0    0  501    0  0.00000000000E+00  0.00000000000E+00 -0.20760960674E+04  0.20760960674E+04  0.25500000920E-02 0. -1.
    10030    2    1    2    0    0  0.00000000000E+00  0.00000000000E+00 -0.25010022672E+03  0.39020919080E+04  0.38940687122E+04 0.  0.
        3    1    3    3  502    0 -0.15297511470E+04  0.76118378740E+03 -0.10604633685E+04  0.20110002228E+04  0.10100000352E+00 0. -1.
       -3    1    3    3    0  502  0.15297511470E+04 -0.76118378740E+03  0.81036314177E+03  0.18910916852E+04  0.10100000352E+00 0.  1.
</event>
<event>
 5   0  0.2446281E-07  0.3910426E+04  0.7818609E-02  0.8022864E-01
       -2   -1    0    0    0  501  0.00000000000E+00  0.00000000000E+00  0.18047474564E+04  0.18047474564E+04  0.25500000920E-02 0.  1.
        2   -1    0    0  501    0  0.00000000000E+00  0.00000000000E+00 -0.21182232791E+04  0.21182232791E+04  0.25500000920E-02 0. -1.
    10030    2    1    2    0    0  0.00000000000E+00  0.00000000000E+00 -0.31347582270E+03  0.39229707355E+04  0.39104261021E+04 0.  0.
        1    1    3    3  502    0  0.16927303301E+04 -0.65309950807E+03 -0.88776143051E+03  0.20198998231E+04  0.50400001928E-02 0.  1.
       -1    1    3    3    0  502 -0.16927303301E+04  0.65309950807E+03  0.57428560781E+03  0.19030709123E+04  0.50400001928E-02 0. -1.
</event>
<event>
 5   0  0.2395572E-07  0.3943100E+04  0.7818609E-02  0.8016124E-01
       -2   -1    0    0    0  501  0.00000000000E+00  0.00000000000E+00  0.21146819514E+04  0.21146819514E+04  0.25500000920E-02 0.  1.
        2   -1    0    0  501    0  0.00000000000E+00  0.00000000000E+00 -0.18381062915E+04  0.18381062915E+04  0.25500000920E-02 0. -1.
    10030    2    1    2    0    0  0.00000000000E+00  0.00000000000E+00  0.27657565986E+03  0.39527882429E+04  0.39431004042E+04 0.  0.
        3    1    3    3  502    0 -0.15707390642E+04  0.12880791006E+03 -0.10491889197E+04  0.18933066537E+04  0.10100000352E+00 0. -1.
       -3    1    3    3    0  502  0.15707390642E+04 -0.12880791006E+03  0.13257645795E+04  0.20594815892E+04  0.10100000352E+00 0.  1.
</event>
<event>
 5   0  0.2486268E-07  0.3729115E+04  0.7818609E-02  0.8061540E-01
        2   -1    0    0  501    0  0.00000000000E+00  0.00000000000E+00  0.22474816864E+04  0.22474816864E+04  0.25500000920E-02 0.  1.
       -2   -1    0    0    0  501  0.00000000000E+00  0.00000000000E+00 -0.15468757040E+04  0.15468757040E+04  0.25500000920E-02 0. -1.
    10030    2    1    2    0    0  0.00000000000E+00  0.00000000000E+00  0.70060598241E+03  0.37943573904E+04  0.37291150778E+04 0.  0.
        5    1    3    3  502    0  0.61526490153E+03  0.58530489217E+03  0.20392901709E+04  0.22090403362E+04  0.46999998093E+01 0.  1.
       -5    1    3    3    0  502 -0.61526490153E+03 -0.58530489217E+03 -0.13386841885E+04  0.15853170542E+04  0.46999998093E+01 0. -1.
</event>
<event>
 5   0  0.7675750E-08  0.3890068E+04  0.7818609E-02  0.8027098E-01
        1   -1    0    0  501    0  0.00000000000E+00  0.00000000000E+00  0.22860360418E+04  0.22860360418E+04  0.50400001928E-02 0. -1.
       -1   -1    0    0    0  501  0.00000000000E+00  0.00000000000E+00 -0.16548986340E+04  0.16548986340E+04  0.50400001928E-02 0.  1.
    10030    2    1    2    0    0  0.00000000000E+00  0.00000000000E+00  0.63113740779E+03  0.39409346757E+04  0.38900683401E+04 0.  0.
        5    1    3    3  502    0 -0.49036674530E+03 -0.68699624522E+03  0.20908271183E+04  0.22547734952E+04  0.46999998093E+01 0. -1.
       -5    1    3    3    0  502  0.49036674530E+03  0.68699624522E+03 -0.14596897105E+04  0.16861611806E+04  0.46999998093E+01 0.  1.
</event>
<event>
 5   0  0.7675750E-08  0.3983197E+04  0.7818609E-02  0.8007945E-01
       -1   -1    0    0    0  501  0.00000000000E+00  0.00000000000E+00  0.15921294590E+04  0.15921294590E+04  0.50400001928E-02 0.  1.
        1   -1    0    0  501    0  0.00000000000E+00  0.00000000000E+00 -0.24912948824E+04  0.24912948824E+04  0.50400001928E-02 0. -1.
    10030    2    1    2    0    0  0.00000000000E+00  0.00000000000E+00 -0.89916542343E+03  0.40834243415E+04  0.39831966928E+04 0.  0.
        1    1    3    3  502    0  0.67882523724E+03  0.18012371047E+04 -0.97352522552E+03  0.21570837199E+04  0.50400001928E-02 0.  1.
       -1    1    3    3    0  502 -0.67882523724E+03 -0.18012371047E+04  0.74359802089E+02  0.19263406215E+04  0.50400001928E-02 0. -1.
</event>
<event>
 5   0  0.7731706E-08  0.3912322E+04  0.7818609E-02  0.8022471E-01
        1   -1    0    0  501    0  0.00000000000E+00  0.00000000000E+00  0.20681430977E+04  0.20681430977E+04  0.50400001928E-02 0.  1.
       -1   -1    0    0    0  501  0.00000000000E+00  0.00000000000E+00 -0.18502424221E+04  0.18502424221E+04  0.50400001928E-02 0. -1.
    10030    2    1    2    0    0  0.00000000000E+00  0.00000000000E+00  0.21790067552E+03  0.39183855198E+04  0.39123221209E+04 0.  0.
        3    1    3    3  502    0 -0.11102785956E+04  0.98117630157E+03 -0.11701901781E+04  0.18880599984E+04  0.10100000352E+00 0. -1.
       -3    1    3    3    0  502  0.11102785956E+04 -0.98117630157E+03  0.13880908536E+04  0.20303255214E+04  0.10100000352E+00 0.  1.
</event>
<event>
 5   0  0.7675750E-08  0.3922465E+04  0.7818609E-02  0.8020373E-01
       -1   -1    0    0    0  501  0.00000000000E+00  0.00000000000E+00  0.18227404097E+04  0.18227404097E+04  0.50400001928E-02 0.  1.
        1   -1    0    0  501    0  0.00000000000E+00  0.00000000000E+00 -0.21102471764E+04  0.21102471764E+04  0.50400001928E-02 0. -1.
    10030    2    1    2    0    0  0.00000000000E+00  0.00000000000E+00 -0.28750676671E+03  0.39329875860E+04  0.39224649407E+04 0.  0.
        1    1    3    3  502    0  0.13276267302E+04  0.73430878057E+03  0.11024124328E+04  0.18753973691E+04  0.50400001928E-02 0. -1.
       -1    1    3    3    0  502 -0.13276267302E+04 -0.73430878057E+03 -0.13899191995E+04  0.20575902170E+04  0.50400001928E-02 0.  1.
</event>
<event>
 5   0  0.7675750E-08  0.3914215E+04  0.7818609E-02  0.8022079E-01
       -1   -1    0    0    0  501  0.00000000000E+00  0.00000000000E+00  0.17348312234E+04  0.17348312234E+04  0.50400001928E-02 0.  1.
        1   -1    0    0  501    0  0.00000000000E+00  0.00000000000E+00 -0.22078635873E+04  0.22078635873E+04  0.50400001928E-02 0. -1.
    10030    2    1    2    0    0  0.00000000000E+00  0.00000000000E+00 -0.47303236387E+03  0.39426948107E+04  0.39142154709E+04 0.  0.
        4    1    3    3  502    0 -0.15194440982E+04 -0.10259341271E+04 -0.92634785260E+03  0.20541112817E+04  0.12699999809E+01 0. -1.
       -4    1    3    3    0  502  0.15194440982E+04  0.10259341271E+04  0.45331548874E+03  0.18885835290E+04  0.12699999809E+01 0.  1.
</event>
<event>
 5   0  0.2384787E-07  0.3892047E+04  0.7818609E-02  0.8026685E-01
       -2   -1    0    0    0  501  0.00000000000E+00  0.00000000000E+00  0.25439520676E+04  0.25439520676E+04  0.25500000920E-02 0. -1.
        2   -1    0    0  501    0  0.00000000000E+00  0.00000000000E+00 -0.14886313756E+04  0.14886313756E+04  0.25500000920E-02 0.  1.
    10030    2    1    2    0    0  0.00000000000E+00  0.00000000000E+00  0.10553206920E+04  0.40325834432E+04  0.38920466934E+04 0.  0.
        4    1    3    3  502    0 -0.83057025355E+03  0.85127345246E+03 -0.10682470311E+04  0.15986452919E+04  0.12699999809E+01 0.  1.
       -4    1    3    3    0  502  0.83057025355E+03 -0.85127345246E+03  0.21235677231E+04  0.24339381513E+04  0.12699999809E+01 0. -1.
</event>
<event>
 5   0  0.2486268E-07  0.3878089E+04  0.7818609E-02  0.8029602E-01
        2   -1    0    0  501    0  0.00000000000E+00  0.00000000000E+00  0.28308967268E+04  0.28308967268E+04  0.25500000920E-02 0. -1.
       -2   -1    0    0    0  501  0.00000000000E+00  0.00000000000E+00 -0.13281637918E+04  0.13281637918E+04  0.25500000920E-02 0.  1.
    10030    2    1    2    0    0  0.00000000000E+00  0.00000000000E+00  0.15027329349E+04  0.41590605186E+04  0.38780894940E+04 0.  0.
        5    1    3    3  502    0  0.53176435559E+03  0.14983021323E+04  0.19418303477E+04  0.25096632840E+04  0.46999998093E+01 0. -1.
       -5    1    3    3    0  502 -0.53176435559E+03 -0.14983021323E+04 -0.43909741281E+03  0.16493972346E+04  0.46999998093E+01 0.  1.
</event>
<event>
 5   0  0.7675750E-08  0.3887783E+04  0.7818609E-02  0.8027575E-01
        1   -1    0    0  501    0  0.00000000000E+00  0.00000000000E+00  0.14245813489E+04  0.14245813489E+04  0.50400001928E-02 0.  1.
       -1   -1    0    0    0  501  0.00000000000E+00  0.00000000000E+00 -0.26525082765E+04  0.26525082765E+04  0.50400001928E-02 0. -1.
    10030    2    1    2    0    0  0.00000000000E+00  0.00000000000E+00 -0.12279269276E+04  0.40770896255E+04  0.38877828225E+04 0.  0.
        1    1    3    3  502    0  0.30932949278E+03 -0.40940016256E+02  0.13981478060E+04  0.14325425326E+04  0.50400001928E-02 0.  1.
       -1    1    3    3    0  502 -0.30932949278E+03  0.40940016256E+02 -0.26260747336E+04  0.26445470929E+04  0.50400001928E-02 0. -1.
</event>
<event>
 5   0  0.2395572E-07  0.3198387E+04  0.7818609E-02  0.8189243E-01
        2   -1    0    0  501    0  0.00000000000E+00  0.00000000000E+00  0.17407753556E+04  0.17407753556E+04  0.25500000920E-02 0.  1.
       -2   -1    0    0    0  501  0.00000000000E+00  0.00000000000E+00 -0.14691270034E+04  0.14691270034E+04  0.25500000920E-02 0. -1.
    10030    2    1    2    0    0  0.00000000000E+00  0.00000000000E+00  0.27164835212E+03  0.32099023590E+04  0.31983871446E+04 0.  0.
        3    1    3    3  502    0  0.12818300020E+04  0.31642096520E+03  0.10414085586E+04  0.16815891821E+04  0.10100000352E+00 0.  1.
       -3    1    3    3    0  502 -0.12818300020E+04 -0.31642096520E+03 -0.76976020645E+03  0.15283131769E+04  0.10100000352E+00 0. -1.
</event>
<event>
 5   0  0.2446281E-07  0.3824446E+04  0.7818609E-02  0.8040929E-01
        2   -1    0    0  501    0  0.00000000000E+00  0.00000000000E+00  0.31290413057E+04  0.31290413057E+04  0.25500000920E-02 0. -1.
       -2   -1    0    0    0  501  0.00000000000E+00  0.00000000000E+00 -0.11685994394E+04  0.11685994394E+04  0.25500000920E-02 0.  1.
    10030    2    1    2    0    0  0.00000000000E+00  0.00000000000E+00  0.19604418663E+04  0.42976407450E+04  0.38244455365E+04 0.  0.
        1    1    3    3  502    0 -0.15438550709E+04  0.79692074334E+03  0.82625992885E+02  0.17393671854E+04  0.50400001928E-02 0.  1.
       -1    1    3    3    0  502  0.15438550709E+04 -0.79692074334E+03  0.18778158734E+04  0.25582735596E+04  0.50400001928E-02 0. -1.
</event>
<event>
 5   0  0.2473224E-07  0.3520421E+04  0.7818609E-02  0.8108967E-01
       -2   -1    0    0    0  501  0.00000000000E+00  0.00000000000E+00  0.28216693021E+04  0.28216693021E+04  0.25500000920E-02 0.  1.
        2   -1    0    0  501    0  0.00000000000E+00  0.00000000000E+00 -0.10980527258E+04  0.10980527258E+04  0.25500000920E-02 0. -1.
    10030    2    1    2    0    0  0.00000000000E+00  0.00000000000E+00  0.17236165764E+04  0.39197220279E+04  0.35204213773E+04 0.  0.
        2    1    3    3  502    0 -0.15673406812E+02  0.10036849924E+04 -0.74812460096E+03  0.12519263710E+04  0.25500000920E-02 0. -1.
       -2    1    3    3    0  502  0.15673406812E+02 -0.10036849924E+04  0.24717411773E+04  0.26677956570E+04  0.25500000920E-02 0.  1.
</event>
<event>
 5   0  0.7675750E-08  0.3839658E+04  0.7818609E-02  0.8037698E-01
        1   -1    0    0  501    0  0.00000000000E+00  0.00000000000E+00  0.24737226465E+04  0.24737226465E+04  0.50400001928E-02 0. -1.
       -1   -1    0    0    0  501  0.00000000000E+00  0.00000000000E+00 -0.14899579193E+04  0.14899579193E+04  0.50400001928E-02 0.  1.
    10030    2    1    2    0    0  0.00000000000E+00  0.00000000000E+00  0.98376472723E+03  0.39636805657E+04  0.38396576135E+04 0.  0.
        2    1    3    3  502    0 -0.75557504187E+03  0.16183129467E+04  0.12188390715E+04  0.21622671250E+04  0.25500000920E-02 0. -1.
       -2    1    3    3    0  502  0.75557504187E+03 -0.16183129467E+04 -0.23507434431E+03  0.18014134408E+04  0.25500000920E-02 0.  1.
</event>
<event>
 5   0  0.7675750E-08  0.3904484E+04  0.7818609E-02  0.8024097E-01
        1   -1    0    0  501    0  0.00000000000E+00  0.00000000000E+00  0.26956553835E+04  0.26956553835E+04  0.50400001928E-02 0.  1.
       -1   -1    0    0    0  501  0.00000000000E+00  0.00000000000E+00 -0.14138490427E+04  0.14138490427E+04  0.50400001928E-02 0. -1.
    10030    2    1    2    0    0  0.00000000000E+00  0.00000000000E+00  0.12818063408E+04  0.41095044262E+04  0.39044844902E+04 0.  0.
        4    1    3    3  502    0  0.15202122996E+04 -0.10725399431E+03 -0.64328671470E+03  0.16541971664E+04  0.12699999809E+01 0. -1.
       -4    1    3    3    0  502 -0.15202122996E+04  0.10725399431E+03  0.19250930555E+04  0.24553072599E+04  0.12699999809E+01 0.  1.
</event>
<event>
 5   0  0.2486268E-07  0.3929679E+04  0.7818609E-02  0.8018885E-01
       -2   -1    0    0    0  501  0.00000000000E+00  0.00000000000E+00  0.16168717268E+04  0.16168717268E+04  0.25500000920E-02 0. -1.
        2   -1    0    0  501    0  0.00000000000E+00  0.00000000000E+00 -0.23876938166E+04  0.23876938166E+04  0.25500000920E-02 0.  1.
    10030    2    1    2    0    0  0.00000000000E+00  0.00000000000E+00 -0.77082208972E+03  0.40045655434E+04  0.39296791851E+04 0.  0.
        5    1    3    3  502    0  0.75626216307E+03  0.14969005450E+04 -0.14286029413E+04  0.22030824212E+04  0.46999998093E+01 0.  1.
       -5    1    3    3    0  502 -0.75626216307E+03 -0.14969005450E+04  0.65778085156E+03  0.18014831222E+04  0.46999998093E+01 0. -1.
</event>
<event>
 5   0  0.7675750E-08  0.3930189E+04  0.7818609E-02  0.8018780E-01
       -1   -1    0    0    0  501  0.00000000000E+00  0.00000000000E+00  0.23075950105E+04  0.23075950105E+04  0.50400001928E-02 0. -1.
        1   -1    0    0  501    0  0.00000000000E+00  0.00000000000E+00 -0.16734291857E+04  0.16734291857E+04  0.50400001928E-02 0.  1.
    10030    2    1    2    0    0  0.00000000000E+00  0.00000000000E+00  0.63416582488E+03  0.39810241962E+04  0.39301892267E+04 0.  0.
        2    1    3    3  502    0  0.20668087265E+03  0.18856930654E+04 -0.20242660526E+03  0.19077557104E+04  0.25500000920E-02 0.  1.
       -2    1    3    3    0  502 -0.20668087265E+03 -0.18856930654E+04  0.83659243014E+03  0.20732684858E+04  0.25500000920E-02 0. -1.
</event>
<event>
 5   0  0.7675750E-08  0.3898337E+04  0.7818609E-02  0.8025375E-01
       -1   -1    0    0    0  501  0.00000000000E+00  0.00000000000E+00  0.16174103594E+04  0.16174103594E+04  0.50400001928E-02 0.  1.
        1   -1    0    0  501    0  0.00000000000E+00  0.00000000000E+00 -0.23489763486E+04  0.23489763486E+04  0.50400001928E-02 0. -1.
    10030    2    1    2    0    0  0.00000000000E+00  0.00000000000E+00 -0.73156598918E+03  0.39663867080E+04  0.38983374303E+04 0.  0.
        5    1    3    3  502    0  0.69973244818E+03  0.13113103511E+04 -0.16487769261E+04  0.22198305741E+04  0.46999998093E+01 0. -1.
       -5    1    3    3    0  502 -0.69973244818E+03 -0.13113103511E+04  0.91721093692E+03  0.17465561338E+04  0.46999998093E+01 0.  1.
</event>
<event>
 5   0  0.7675750E-08  0.3984634E+04  0.7818609E-02  0.8007653E-01
       -1   -1    0    0    0  501  0.00000000000E+00  0.00000000000E+00  0.17014950784E+04  0.17014950784E+04  0.50400001928E-02 0. -1.
        1   -1    0    0  501    0  0.00000000000E+00  0.00000000000E+00 -0.23328468893E+04  0.23328468893E+04  0.50400001928E-02 0.  1.
    10030    2    1    2    0    0  0.00000000000E+00  0.00000000000E+00 -0.63135181092E+03  0.40343419677E+04  0.39846342371E+04 0.  0.
        4    1    3    3  502    0 -0.67316622977E+03  0.17782393807E+04  0.28675754018E+03  0.19228935404E+04  0.12699999809E+01 0.  1.
       -4    1    3    3    0  502  0.67316622977E+03 -0.17782393807E+04 -0.91810935110E+03  0.21114484274E+04  0.12699999809E+01 0. -1.
</event>
<event>
 5   0  0.7731706E-08  0.3893401E+04  0.7818609E-02  0.8026403E-01
        1   -1    0    0  501    0  0.00000000000E+00  0.00000000000E+00  0.28964349679E+04  0.28964349679E+04  0.50400001928E-02 0.  1.
       -1   -1    0    0    0  501  0.00000000000E+00  0.00000000000E+00 -0.13083817168E+04  0.13083817168E+04  0.50400001928E-02 0. -1.
    10030    2    1    2    0    0  0.00000000000E+00  0.00000000000E+00  0.15880532511E+04  0.42048166848E+04  0.38934008558E+04 0.  0.
        3    1    3    3  502    0 -0.34805730856E+03 -0.10630851165E+04  0.25146807788E+04  0.27522560354E+04  0.10100000352E+00 0.  1.
       -3    1    3    3    0  502  0.34805730856E+03  0.10630851165E+04 -0.92662752769E+03  0.14525606494E+04  0.10100000352E+00 0. -1.
</event>
<event>
 5   0  0.7675750E-08  0.3883441E+04  0.7818609E-02  0.8028482E-01
        1   -1    0    0  501    0  0.00000000000E+00  0.00000000000E+00  0.13301182196E+04  0.13301182196E+04  0.50400001928E-02 0. -1.
       -1   -1    0    0    0  501  0.00000000000E+00  0.00000000000E+00 -0.28345436199E+04  0.28345436199E+04  0.50400001928E-02 0.  1.
    10030    2    1    2    0    0  0.00000000000E+00  0.00000000000E+00 -0.15044254004E+04  0.41646618395E+04  0.38834408007E+04 0.  0.
        5    1    3    3  502    0  0.25317340993E+03  0.14405552815E+04 -0.21217840841E+04  0.25770692820E+04  0.46999998093E+01 0.  1.
       -5    1    3    3    0  502 -0.25317340993E+03 -0.14405552815E+04  0.61735868374E+03  0.15875925576E+04  0.46999998093E+01 0. -1.
</event>
<event>
 5   0  0.7675750E-08  0.3897103E+04  0.7818609E-02  0.8025632E-01
        1   -1    0    0  501    0  0.00000000000E+00  0.00000000000E+00  0.19324241564E+04  0.19324241564E+04  0.50400001928E-02 0. -1.
       -1   -1    0    0    0  501  0.00000000000E+00  0.00000000000E+00 -0.19648135483E+04  0.19648135483E+04  0.50400001928E-02 0.  1.
    10030    2    1    2    0    0  0.00000000000E+00  0.00000000000E+00 -0.32389391927E+02  0.38972377046E+04  0.38971031105E+04 0.  0.
        1    1    3    3  502    0 -0.10374948002E+04  0.55234936001E+03 -0.15703937596E+04  0.19615355812E+04  0.50400001928E-02 0.  1.
       -1    1    3    3    0  502  0.10374948002E+04 -0.55234936001E+03  0.15380043677E+04  0.19357021235E+04  0.50400001928E-02 0. -1.
</event>
<event>
 5   0  0.2446281E-07  0.3899898E+04  0.7818609E-02  0.8025050E-01
        2   -1    0    0  501    0  0.00000000000E+00  0.00000000000E+00  0.16221538598E+04  0.16221538598E+04  0.25500000920E-02 0.  1.
       -2   -1    0    0    0  501  0.00000000000E+00  0.00000000000E+00 -0.23439828860E+04  0.23439828860E+04  0.25500000920E-02 0. -1.
    10030    2    1    2    0    0  0.00000000000E+00  0.00000000000E+00 -0.72182902625E+03  0.39661367458E+04  0.38998978888E+04 0.  0.
        1    1    3    3  502    0 -0.97965069550E+01  0.12007599363E+04 -0.19233620939E+04  0.22674307356E+04  0.50400001928E-02 0. -1.
       -1    1    3    3    0  502  0.97965069550E+01 -0.12007599363E+04  0.12015330677E+04  0.16987060102E+04  0.50400001928E-02 0.  1.
</event>
<event>
 5   0  0.7675750E-08  0.3898960E+04  0.7818609E-02  0.8025246E-01
       -1   -1    0    0    0  501  0.00000000000E+00  0.00000000000E+00  0.29349355554E+04  0.29349355554E+04  0.50400001928E-02 0. -1.
        1   -1    0    0  501    0  0.00000000000E+00  0.00000000000E+00 -0.12949079291E+04  0.12949079291E+04  0.50400001928E-02 0.  1.
    10030    2    1    2    0    0  0.00000000000E+00  0.00000000000E+00  0.16400276263E+04  0.42298434846E+04  0.38989595136E+04 0.  0.
        1    1    3    3  502    0 -0.15471138674E+04 -0.10497914446E+04  0.14190005342E+04  0.23471655059E+04  0.50400001928E-02 0. -1.
       -1    1    3    3    0  502  0.15471138674E+04  0.10497914446E+04  0.22102709210E+03  0.18826779787E+04  0.50400001928E-02 0.  1.
</event>
<event>
 5   0  0.2384787E-07  0.3905216E+04  0.7818609E-02  0.8023945E-01
        2   -1    0    0  501    0  0.00000000000E+00  0.00000000000E+00  0.15054714757E+04  0.15054714757E+04  0.25500000920E-02 0.  1.
       -2   -1    0    0    0  501  0.00000000000E+00  0.00000000000E+00 -0.25325477671E+04  0.25325477671E+04  0.25500000920E-02 0. -1.
    10030    2    1    2    0    0  0.00000000000E+00  0.00000000000E+00 -0.10270762915E+04  0.40380192428E+04  0.39052162164E+04 0.  0.
        4    1    3    3  502    0 -0.59804077505E+03  0.21438154277E+02  0.14083138975E+04  0.15301836524E+04  0.12699999809E+01 0.  1.
       -4    1    3    3    0  502  0.59804077505E+03 -0.21438154277E+02 -0.24353901890E+04  0.25078355904E+04  0.12699999809E+01 0. -1.
</event>
<event>
 5   0  0.2486268E-07  0.3881447E+04  0.7818609E-02  0.8028899E-01
        2   -1    0    0  501    0  0.00000000000E+00  0.00000000000E+00  0.20699411052E+04  0.20699411052E+04  0.25500000920E-02 0. -1.
       -2   -1    0    0    0  501  0.00000000000E+00  0.00000000000E+00 -0.18195727767E+04  0.18195727767E+04  0.25500000920E-02 0.  1.
    10030    2    1    2    0    0  0.00000000000E+00  0.00000000000E+00  0.25036832854E+03  0.38895138819E+04  0.38814474023E+04 0.  0.
        5    1    3    3  502    0  0.15309909857E+04  0.11926551320E+04  0.13036521910E+03  0.19450904459E+04  0.46999998093E+01 0.  1.
       -5    1    3    3    0  502 -0.15309909857E+04 -0.11926551320E+04  0.12000310944E+03  0.19444234360E+04  0.46999998093E+01 0. -1.
</event>
<event>
 5   0  0.7675750E-08  0.3913607E+04  0.7818609E-02  0.8022205E-01
        1   -1    0    0  501    0  0.00000000000E+00  0.00000000000E+00  0.19389973999E+04  0.19389973999E+04  0.50400001928E-02 0.  1.
       -1   -1    0    0    0  501  0.00000000000E+00  0.00000000000E+00 -0.19747734027E+04  0.19747734028E+04  0.50400001928E-02 0. -1.
    10030    2    1    2    0    0  0.00000000000E+00  0.00000000000E+00 -0.35776002832E+02  0.39137708027E+04  0.39136072840E+04 0.  0.
        2    1    3    3  502    0  0.10005380506E+04  0.23048889393E+03 -0.16837543999E+04  0.19721131814E+04  0.25500000920E-02 0. -1.
       -2    1    3    3    0  502 -0.10005380506E+04 -0.23048889393E+03  0.16479783971E+04  0.19416576213E+04  0.25500000920E-02 0.  1.
</event>
<event>
 5   0  0.7675750E-08  0.3908391E+04  0.7818609E-02  0.8023286E-01
       -1   -1    0    0    0  501  0.00000000000E+00  0.00000000000E+00  0.19350666383E+04  0.19350666383E+04  0.50400001928E-02 0. -1.
        1   -1    0    0  501    0  0.00000000000E+00  0.00000000000E+00 -0.19735138814E+04  0.19735138814E+04  0.50400001928E-02 0.  1.
    10030    2    1    2    0    0  0.00000000000E+00  0.00000000000E+00 -0.38447243173E+02  0.39085805197E+04  0.39083914196E+04 0.  0.
        1    1    3    3  502    0 -0.11504976003E+04 -0.15044853302E+04 -0.50066153251E+03  0.19590259843E+04  0.50400001928E-02 0.  1.
       -1    1    3    3    0  502  0.11504976003E+04  0.15044853302E+04  0.46221428933E+03  0.19495545354E+04  0.50400001928E-02 0. -1.
</event>
<event>
 5   0  0.2473224E-07  0.4018583E+04  0.7818609E-02  0.8000808E-01
       -2   -1    0    0    0  501  0.00000000000E+00  0.00000000000E+00  0.22516918431E+04  0.22516918431E+04  0.25500000920E-02 0.  1.
        2   -1    0    0  501    0  0.00000000000E+00  0.00000000000E+00 -0.17929859465E+04  0.17929859465E+04  0.25500000920E-02 0. -1.
    10030    2    1    2    0    0  0.00000000000E+00  0.00000000000E+00  0.45870589666E+03  0.40446777896E+04  0.40185827504E+04 0.  0.
        2    1    3    3  502    0 -0.87819108746E+03 -0.11020520020E+04 -0.12122584842E+04  0.18588461027E+04  0.25500000920E-02 0. -1.
       -2    1    3    3    0  502  0.87819108746E+03  0.11020520020E+04  0.16709643809E+04  0.21858316869E+04  0.25500000920E-02 0.  1.
</event>
<event>
 5   0  0.7731706E-08  0.3938172E+04  0.7818609E-02  0.8017137E-01
       -1   -1    0    0    0  501  0.00000000000E+00  0.00000000000E+00  0.17679889867E+04  0.17679889867E+04  0.50400001928E-02 0. -1.
        1   -1    0    0  501    0  0.00000000000E+00  0.00000000000E+00 -0.21930561683E+04  0.21930561683E+04  0.50400001928E-02 0.  1.
    10030    2    1    2    0    0  0.00000000000E+00  0.00000000000E+00 -0.42506718157E+03  0.39610451550E+04  0.39381717346E+04 0.  0.
        3    1    3    3  502    0 -0.86969020803E+02 -0.38196343823E+03  0.17283997378E+04  0.17722373832E+04  0.10100000352E+00 0. -1.
       -3    1    3    3    0  502  0.86969020803E+02  0.38196343823E+03 -0.21534669194E+04  0.21888077718E+04  0.10100000352E+00 0.  1.
</event>
<event>
 5   0  0.7731706E-08  0.3872112E+04  0.7818609E-02  0.8030854E-01
        1   -1    0    0  501    0  0.00000000000E+00  0.00000000000E+00  0.13708983300E+04  0.13708983300E+04  0.50400001928E-02 0. -1.
       -1   -1    0    0    0  501  0.00000000000E+00  0.00000000000E+00 -0.27342024003E+04  0.27342024003E+04  0.50400001928E-02 0.  1.
    10030    2    1    2    0    0  0.00000000000E+00  0.00000000000E+00 -0.13633040703E+04  0.41051007302E+04  0.38721123457E+04 0.  0.
        3    1    3    3  502    0 -0.10387764723E+03 -0.13701129180E+04 -0.21276541895E+04  0.25327677221E+04  0.10100000352E+00 0.  1.
       -3    1    3    3    0  502  0.10387764723E+03  0.13701129180E+04  0.76435011915E+03  0.15723330082E+04  0.10100000352E+00 0. -1.
</event>
<event>
 5   0  0.2473224E-07  0.3912876E+04  0.7818609E-02  0.8022357E-01
        2   -1    0    0  501    0  0.00000000000E+00  0.00000000000E+00  0.29035927845E+04  0.29035927845E+04  0.25500000920E-02 0.  1.
       -2   -1    0    0    0  501  0.00000000000E+00  0.00000000000E+00 -0.13182458047E+04  0.13182458047E+04  0.25500000920E-02 0. -1.
    10030    2    1    2    0    0  0.00000000000E+00  0.00000000000E+00  0.15853469798E+04  0.42218385893E+04  0.39128756724E+04 0.  0.
        2    1    3    3  502    0  0.65060163676E+03  0.70271367379E+03 -0.10480724673E+04  0.14196988744E+04  0.25500000920E-02 0. -1.
       -2    1    3    3    0  502 -0.65060163676E+03 -0.70271367379E+03  0.26334194471E+04  0.28021397149E+04  0.25500000920E-02 0.  1.
</event>
<event>
 5   0  0.7675750E-08  0.3892688E+04  0.7818609E-02  0.8026552E-01
       -1   -1    0    0    0  501  0.00000000000E+00  0.00000000000E+00  0.25112017937E+04  0.25112017937E+04  0.50400001928E-02 0.  1.
        1   -1    0    0  501    0  0.00000000000E+00  0.00000000000E+00 -0.15085426230E+04  0.15085426230E+04  0.50400001928E-02 0. -1.
    10030    2    1    2    0    0  0.00000000000E+00  0.00000000000E+00  0.10026591707E+04  0.40197444167E+04  0.38926879869E+04 0.  0.
        5    1    3    3  502    0 -0.18708650212E+04  0.52796715447E+03  0.40149085076E+03  0.19849690771E+04  0.46999998093E+01 0.  1.
       -5    1    3    3    0  502  0.18708650212E+04 -0.52796715447E+03  0.60116831995E+03  0.20347753396E+04  0.46999998093E+01 0. -1.
</event>
<event>
 5   0  0.2395572E-07  0.4044540E+04  0.7818609E-02  0.7995621E-01
       -2   -1    0    0    0  501  0.00000000000E+00  0.00000000000E+00  0.20012447903E+04  0.20012447903E+04  0.25500000920E-02 0.  1.
        2   -1    0    0  501    0  0.00000000000E+00  0.00000000000E+00 -0.20435164096E+04  0.20435164096E+04  0.25500000920E-02 0. -1.
    10030    2    1    2    0    0  0.00000000000E+00  0.00000000000E+00 -0.42271619270E+02  0.40447611999E+04  0.40445403045E+04 0.  0.
        3    1    3    3  502    0 -0.47990945390E+03 -0.78186520394E+02 -0.19841873217E+04  0.20428963639E+04  0.10100000352E+00 0. -1.
       -3    1    3    3    0  502  0.47990945390E+03  0.78186520394E+02  0.19419157024E+04  0.20018648360E+04  0.10100000352E+00 0.  1.
</event>
<event>
 5   0  0.2395572E-07  0.3914890E+04  0.7818609E-02  0.8021939E-01
       -2   -1    0    0    0  501  0.00000000000E+00  0.00000000000E+00  0.12059555003E+04  0.12059555003E+04  0.25500000920E-02 0. -1.
        2   -1    0    0  501    0  0.00000000000E+00  0.00000000000E+00 -0.31772243562E+04  0.31772243562E+04  0.25500000920E-02 0.  1.
    10030    2    1    2    0    0  0.00000000000E+00  0.00000000000E+00 -0.19712688558E+04  0.43831798565E+04  0.39148901328E+04 0.  0.
        3    1    3    3  502    0 -0.18926456420E+04 -0.19343108657E+01 -0.42640823776E+03  0.19400864061E+04  0.10100000352E+00 0. -1.
       -3    1    3    3    0  502  0.18926456420E+04  0.19343108657E+01 -0.15448606181E+04  0.24430934504E+04  0.10100000352E+00 0.  1.
</event>
<event>
 5   0  0.2473224E-07  0.3902220E+04  0.7818609E-02  0.8024568E-01
        2   -1    0    0  501    0  0.00000000000E+00  0.00000000000E+00  0.23418745690E+04  0.23418745690E+04  0.25500000920E-02 0.  1.
       -2   -1    0    0    0  501  0.00000000000E+00  0.00000000000E+00 -0.16255480455E+04  0.16255480455E+04  0.25500000920E-02 0. -1.
    10030    2    1    2    0    0  0.00000000000E+00  0.00000000000E+00  0.71632652351E+03  0.39674226144E+04  0.39022196905E+04 0.  0.
        2    1    3    3  502    0  0.87714192217E+02  0.11277511481E+04  0.19744792951E+04  0.22755405771E+04  0.25500000920E-02 0.  1.
       -2    1    3    3    0  502 -0.87714192217E+02 -0.11277511481E+04 -0.12581527715E+04  0.16918820373E+04  0.25500000920E-02 0. -1.
</event>
<event>
 5   0  0.7675750E-08  0.3890677E+04  0.7818609E-02  0.8026971E-01
        1   -1    0    0  501    0  0.00000000000E+00  0.00000000000E+00  0.22575898597E+04  0.22575898597E+04  0.50400001928E-02 0. -1.
       -1   -1    0    0    0  501  0.00000000000E+00  0.00000000000E+00 -0.16762750831E+04  0.16762750831E+04  0.50400001928E-02 0.  1.
    10030    2    1    2    0    0  0.00000000000E+00  0.00000000000E+00  0.58131477665E+03  0.39338649428E+04  0.38906768715E+04 0.  0.
        4    1    3    3  502    0 -0.55034254128E+03 -0.56965075991E+03 -0.15058495496E+04  0.17014591914E+04  0.12699999809E+01 0.  1.
       -4    1    3    3    0  502  0.55034254128E+03  0.56965075991E+03  0.20871643263E+04  0.22324057514E+04  0.12699999809E+01 0. -1.
</event>
<event>
 5   0  0.2446281E-07  0.3146767E+04  0.7818609E-02  0.8203019E-01
       -2   -1    0    0    0  501  0.00000000000E+00  0.00000000000E+00  0.11248478795E+04  0.11248478795E+04  0.25500000920E-02 0. -1.
        2   -1    0    0  501    0  0.00000000000E+00  0.00000000000E+00 -0.22007735395E+04  0.22007735395E+04  0.25500000920E-02 0.  1.
    10030    2    1    2    0    0  0.00000000000E+00  0.00000000000E+00 -0.10759256600E+04  0.33256214191E+04  0.31467668800E+04 0.  0.
        1    1    3    3  502    0 -0.35055222064E+03  0.19236624639E+03 -0.21461778633E+04  0.21831104079E+04  0.50400001928E-02 0.  1.
       -1    1    3    3    0  502  0.35055222064E+03 -0.19236624639E+03  0.10702522033E+04  0.11425110112E+04  0.50400001928E-02 0. -1.
</event>
<event>
 5   0  0.2473224E-07  0.3887814E+04  0.7818609E-02  0.8027568E-01
        2   -1    0    0  501    0  0.00000000000E+00  0.00000000000E+00  0.24101628536E+04  0.24101628536E+04  0.25500000920E-02 0.  1.
       -2   -1    0    0    0  501  0.00000000000E+00  0.00000000000E+00 -0.15678501658E+04  0.15678501658E+04  0.25500000920E-02 0. -1.
    10030    2    1    2    0    0  0.00000000000E+00  0.00000000000E+00  0.84231268778E+03  0.39780130193E+04  0.38878138996E+04 0.  0.
        2    1    3    3  502    0 -0.11042126599E+04  0.49921684704E+03  0.19763777004E+04  0.23183122898E+04  0.25500000920E-02 0.  1.
       -2    1    3    3    0  502  0.11042126599E+04 -0.49921684704E+03 -0.11340650126E+04  0.16597007295E+04  0.25500000920E-02 0. -1.
</event>
<event>
 5   0  0.2446281E-07  0.3920453E+04  0.7818609E-02  0.8020789E-01
        2   -1    0    0  501    0  0.00000000000E+00  0.00000000000E+00  0.22717021492E+04  0.22717021492E+04  0.25500000920E-02 0. -1.
       -2   -1    0    0    0  501  0.00000000000E+00  0.00000000000E+00 -0.16914576114E+04  0.16914576114E+04  0.25500000920E-02 0.  1.
    10030    2    1    2    0    0  0.00000000000E+00  0.00000000000E+00  0.58024453787E+03  0.39631597606E+04  0.39204529795E+04 0.  0.
        1    1    3    3  502    0 -0.12483655621E+04 -0.90939128471E+03  0.15103667464E+04  0.21602353562E+04  0.50400001928E-02 0. -1.
       -1    1    3    3    0  502  0.12483655621E+04  0.90939128471E+03 -0.93012220855E+03  0.18029244044E+04  0.50400001928E-02 0.  1.
</event>
<event>
 5   0  0.2395572E-07  0.3922925E+04  0.7818609E-02  0.8020278E-01
        2   -1    0    0  501    0  0.00000000000E+00  0.00000000000E+00  0.26792153371E+04  0.26792153371E+04  0.25500000920E-02 0. -1.
       -2   -1    0    0    0  501  0.00000000000E+00  0.00000000000E+00 -0.14359931069E+04  0.14359931069E+04  0.25500000920E-02 0.  1.
    10030    2    1    2    0    0  0.00000000000E+00  0.00000000000E+00  0.12432222302E+04  0.41152084440E+04  0.39229248047E+04 0.  0.
        3    1    3    3  502    0  0.28154608697E+03  0.12881196863E+04  0.21449657393E+04  0.25178162280E+04  0.10100000352E+00 0. -1.
       -3    1    3    3    0  502 -0.28154608697E+03 -0.12881196863E+04 -0.90174350902E+03  0.15973922159E+04  0.10100000352E+00 0.  1.
</event>
<event>
 5   0  0.7675750E-08  0.3913565E+04  0.7818609E-02  0.8022214E-01
        1   -1    0    0  501    0  0.00000000000E+00  0.00000000000E+00  0.14069030360E+04  0.14069030360E+04  0.50400001928E-02 0.  1.
       -1   -1    0    0    0  501  0.00000000000E+00  0.00000000000E+00 -0.27215783419E+04  0.27215783419E+04  0.50400001928E-02 0. -1.
    10030    2    1    2    0    0  0.00000000000E+00  0.00000000000E+00 -0.13146753059E+04  0.41284813779E+04  0.39135645297E+04 0.  0.
        2    1    3    3  502    0 -0.30710926783E+03  0.83416487068E+01  0.13813022726E+04  0.14150553536E+04  0.25500000920E-02 0.  1.
       -2    1    3    3    0  502  0.30710926783E+03 -0.83416487068E+01 -0.26959775785E+04  0.27134260243E+04  0.25500000920E-02 0. -1.
</event>
<event>
 5   0  0.2446281E-07  0.3907649E+04  0.7818609E-02  0.8023440E-01
        2   -1    0    0  501    0  0.00000000000E+00  0.00000000000E+00  0.27603451991E+04  0.27603451991E+04  0.25500000920E-02 0.  1.
       -2   -1    0    0    0  501  0.00000000000E+00  0.00000000000E+00 -0.13829536288E+04  0.13829536288E+04  0.25500000920E-02 0. -1.
    10030    2    1    2    0    0  0.00000000000E+00  0.00000000000E+00  0.13773915703E+04  0.41432988278E+04  0.39076486074E+04 0.  0.
        1    1    3    3  502    0  0.81946069640E+01  0.22937071214E+03 -0.13686102585E+04  0.13877219156E+04  0.50400001928E-02 0. -1.
       -1    1    3    3    0  502 -0.81946069640E+01 -0.22937071214E+03  0.27460018288E+04  0.27555769122E+04  0.50400001928E-02 0.  1.
</event>
<event>
 5   0  0.2384787E-07  0.3946647E+04  0.7818609E-02  0.8015397E-01
        2   -1    0    0  501    0  0.00000000000E+00  0.00000000000E+00  0.26994642972E+04  0.26994642972E+04  0.25500000920E-02 0. -1.
       -2   -1    0    0    0  501  0.00000000000E+00  0.00000000000E+00 -0.14425102469E+04  0.14425102469E+04  0.25500000920E-02 0.  1.
    10030    2    1    2    0    0  0.00000000000E+00  0.00000000000E+00  0.12569540503E+04  0.41419745441E+04  0.39466466321E+04 0.  0.
        4    1    3    3  502    0 -0.72361352966E+03  0.11573679513E+04 -0.86714542223E+03  0.16171146871E+04  0.12699999809E+01 0.  1.
       -4    1    3    3    0  502  0.72361352966E+03 -0.11573679513E+04  0.21240994726E+04  0.25248598570E+04  0.12699999809E+01 0. -1.
</event>
<event>
 5   0  0.7675750E-08  0.3967541E+04  0.7818609E-02  0.8011127E-01
        1   -1    0    0  501    0  0.00000000000E+00  0.00000000000E+00  0.22026696475E+04  0.22026696475E+04  0.50400001928E-02 0.  1.
       -1   -1    0    0    0  501  0.00000000000E+00  0.00000000000E+00 -0.17866256361E+04  0.17866256362E+04  0.50400001928E-02 0. -1.
    10030    2    1    2    0    0  0.00000000000E+00  0.00000000000E+00  0.41604401134E+03  0.39892952837E+04  0.39675413345E+04 0.  0.
        1    1    3    3  502    0  0.11428302367E+04  0.81305918301E+03  0.16186468550E+04  0.21417618510E+04  0.50400001928E-02 0.  1.
       -1    1    3    3    0  502 -0.11428302367E+04 -0.81305918301E+03 -0.12026028437E+04  0.18475334327E+04  0.50400001928E-02 0. -1.
</event>
<event>
 5   0  0.7675750E-08  0.3892608E+04  0.7818609E-02  0.8026568E-01
       -1   -1    0    0    0  501  0.00000000000E+00  0.00000000000E+00  0.11679430887E+04  0.11679430887E+04  0.50400001928E-02 0.  1.
        1   -1    0    0  501    0  0.00000000000E+00  0.00000000000E+00 -0.32433929114E+04  0.32433929114E+04  0.50400001928E-02 0. -1.
    10030    2    1    2    0    0  0.00000000000E+00  0.00000000000E+00 -0.20754498228E+04  0.44113360001E+04  0.38926075244E+04 0.  0.
        2    1    3    3  502    0 -0.12791911625E+04  0.37292861371E+03  0.57002405946E+03  0.14492526382E+04  0.25500000920E-02 0.  1.
       -2    1    3    3    0  502  0.12791911625E+04 -0.37292861371E+03 -0.26454738822E+04  0.29620833619E+04  0.25500000920E-02 0. -1.
</event>
<event>
 5   0  0.7675750E-08  0.3864930E+04  0.7818609E-02  0.8032363E-01
        1   -1    0    0  501    0  0.00000000000E+00  0.00000000000E+00  0.27373399625E+04  0.27373399625E+04  0.50400001928E-02 0. -1.
       -1   -1    0    0    0  501  0.00000000000E+00  0.00000000000E+00 -0.13642519273E+04  0.13642519273E+04  0.50400001928E-02 0.  1.
    10030    2    1    2    0    0  0.00000000000E+00  0.00000000000E+00  0.13730880351E+04  0.41015918898E+04  0.38649301777E+04 0.  0.
        5    1    3    3  502    0  0.58764608700E+03 -0.12669697916E+04  0.21039394771E+04  0.25252967726E+04  0.46999998093E+01 0. -1.
       -5    1    3    3    0  502 -0.58764608700E+03  0.12669697916E+04 -0.73085144193E+03  0.15762951172E+04  0.46999998093E+01 0.  1.
</event>
<event>
 5   0  0.7731706E-08  0.3905560E+04  0.7818609E-02  0.8023874E-01
       -1   -1    0    0    0  501  0.00000000000E+00  0.00000000000E+00  0.15808033003E+04  0.15808033003E+04  0.50400001928E-02 0. -1.
        1   -1    0    0  501    0  0.00000000000E+00  0.00000000000E+00 -0.24122856108E+04  0.24122856109E+04  0.50400001928E-02 0.  1.
    10030    2    1    2    0    0  0.00000000000E+00  0.00000000000E+00 -0.83148231055E+03  0.39930889112E+04  0.39055596551E+04 0.  0.
        3    1    3    3  502    0  0.11012374408E+04 -0.83057122811E+03 -0.18290291157E+04  0.22908339054E+04  0.10100000352E+00 0. -1.
       -3    1    3    3    0  502 -0.11012374408E+04  0.83057122811E+03  0.99754680511E+03  0.17022550057E+04  0.10100000352E+00 0.  1.
</event>
<event>
 5   0  0.2384787E-07  0.3832101E+04  0.7818609E-02  0.8039301E-01
       -2   -1    0    0    0  501  0.00000000000E+00  0.00000000000E+00  0.27490588183E+04  0.27490588183E+04  0.25500000920E-02 0.  1.
        2   -1    0    0  501    0  0.00000000000E+00  0.00000000000E+00 -0.13354567311E+04  0.13354567311E+04  0.25500000920E-02 0. -1.
    10030    2    1    2    0    0  0.00000000000E+00  0.00000000000E+00  0.14136020872E+04  0.40845155493E+04  0.38321007831E+04 0.  0.
        4    1    3    3  502    0 -0.11361882899E+04  0.54770587063E+01  0.23512443349E+04  0.26113799731E+04  0.12699999809E+01 0.  1.
       -4    1    3    3    0  502  0.11361882899E+04 -0.54770587063E+01 -0.93764224776E+03  0.14731355762E+04  0.12699999809E+01 0. -1.
</event>
<event>
 5   0  0.7675750E-08  0.4042852E+04  0.7818609E-02  0.7995957E-01
       -1   -1    0    0    0  501  0.00000000000E+00  0.00000000000E+00  0.23246728680E+04  0.23246728680E+04  0.50400001928E-02 0.  1.
        1   -1    0    0  501    0  0.00000000000E+00  0.00000000000E+00 -0.17577365927E+04  0.17577365927E+04  0.50400001928E-02 0. -1.
    10030    2    1    2    0    0  0.00000000000E+00  0.00000000000E+00  0.56693627532E+03  0.40824094606E+04  0.40428517490E+04 0.  0.
        1    1    3    3  502    0 -0.15225968607E+04 -0.82106345844E+02  0.16235249461E+04  0.22273023825E+04  0.50400001928E-02 0.  1.
       -1    1    3    3    0  502  0.15225968607E+04  0.82106345844E+02 -0.10565886708E+04  0.18551070782E+04  0.50400001928E-02 0. -1.
</event>
<event>
 5   0  0.2486268E-07  0.3760537E+04  0.7818609E-02  0.8054677E-01
       -2   -1    0    0    0  501  0.00000000000E+00  0.00000000000E+00  0.32659747006E+04  0.32659747006E+04  0.25500000920E-02 0. -1.
        2   -1    0    0  501    0  0.00000000000E+00  0.00000000000E+00 -0.10824975524E+04  0.10824975524E+04  0.25500000920E-02 0.  1.
    10030    2    1    2    0    0  0.00000000000E+00  0.00000000000E+00  0.21834771482E+04  0.43484722530E+04  0.37605369934E+04 0.  0.
        5    1    3    3  502    0  0.11794356643E+03 -0.19265917056E+03  0.32502199380E+04  0.32580638385E+04  0.46999998093E+01 0. -1.
       -5    1    3    3    0  502 -0.11794356643E+03  0.19265917056E+03 -0.10667427898E+04  0.10904084145E+04  0.46999998093E+01 0.  1.
</event>
<event>
 5   0  0.2486268E-07  0.3889224E+04  0.7818609E-02  0.8027274E-01
        2   -1    0    0  501    0  0.00000000000E+00  0.00000000000E+00  0.26264157542E+04  0.26264157542E+04  0.25500000920E-02 0.  1.
       -2   -1    0    0    0  501  0.00000000000E+00  0.00000000000E+00 -0.14398010748E+04  0.14398010748E+04  0.25500000920E-02 0. -1.
    10030    2    1    2    0    0  0.00000000000E+00  0.00000000000E+00  0.11866146794E+04  0.40662168290E+04  0.38892242033E+04 0.  0.
        5    1    3    3  502    0  0.89012998124E+03  0.49125129247E+03  0.23264043491E+04  0.25388655934E+04  0.46999998093E+01 0.  1.
       -5    1    3    3    0  502 -0.89012998124E+03 -0.49125129247E+03 -0.11397896697E+04  0.15273512356E+04  0.46999998093E+01 0. -1.
</event>
<event>
 5   0  0.2486268E-07  0.3924773E+04  0.7818609E-02  0.8019897E-01
       -2   -1    0    0    0  501  0.00000000000E+00  0.00000000000E+00  0.14820220846E+04  0.14820220846E+04  0.25500000920E-02 0. -1.
        2   -1    0    0  501    0  0.00000000000E+00  0.00000000000E+00 -0.25984496781E+04  0.25984496781E+04  0.25500000920E-02 0.  1.
    10030    2    1    2    0    0  0.00000000000E+00  0.00000000000E+00 -0.11164275936E+04  0.40804717627E+04  0.39247725073E+04 0.  0.
        5    1    3    3  502    0  0.90098573206E+03 -0.16728543143E+04 -0.48116804945E+02  0.19006720294E+04  0.46999998093E+01 0.  1.
       -5    1    3    3    0  502 -0.90098573206E+03  0.16728543143E+04 -0.10683107886E+04  0.21797997333E+04  0.46999998093E+01 0. -1.
</event>
<event>
 5   0  0.2473224E-07  0.3898344E+04  0.7818609E-02  0.8025374E-01
       -2   -1    0    0    0  501  0.00000000000E+00  0.00000000000E+00  0.33045341533E+04  0.33045341533E+04  0.25500000920E-02 0. -1.
        2   -1    0    0  501    0  0.00000000000E+00  0.00000000000E+00 -0.11497147159E+04  0.11497147159E+04  0.25500000920E-02 0.  1.
    10030    2    1    2    0    0  0.00000000000E+00  0.00000000000E+00  0.21548194374E+04  0.44542488692E+04  0.38983440306E+04 0.  0.
        2    1    3    3  502    0 -0.12804039477E+03  0.17127167051E+04  0.21305120149E+04  0.27365807681E+04  0.25500000920E-02 0. -1.
       -2    1    3    3    0  502  0.12804039477E+03 -0.17127167051E+04  0.24307422508E+02  0.17176681011E+04  0.25500000920E-02 0.  1.
</event>
<event>
 5   0  0.7675750E-08  0.3921795E+04  0.7818609E-02  0.8020511E-01
       -1   -1    0    0    0  501  0.00000000000E+00  0.00000000000E+00  0.15263331770E+04  0.15263331770E+04  0.50400001928E-02 0.  1.
        1   -1    0    0  501    0  0.00000000000E+00  0.00000000000E+00 -0.25191870652E+04  0.25191870652E+04  0.50400001928E-02 0. -1.
    10030    2    1    2    0    0  0.00000000000E+00  0.00000000000E+00 -0.99285388825E+03  0.40455202422E+04  0.39217948935E+04 0.  0.
        4    1    3    3  502    0  0.12543830112E+04 -0.17601671785E+03 -0.20405337704E+04  0.24017157002E+04  0.12699999809E+01 0. -1.
       -4    1    3    3    0  502 -0.12543830112E+04  0.17601671785E+03  0.10476798821E+04  0.16438045419E+04  0.12699999809E+01 0.  1.
</event>
<event>
 5   0  0.2446281E-07  0.3897820E+04  0.7818609E-02  0.8025483E-01
        2   -1    0    0  501    0  0.00000000000E+00  0.00000000000E+00  0.20399947057E+04  0.20399947057E+04  0.25500000920E-02 0. -1.
       -2   -1    0    0    0  501  0.00000000000E+00  0.00000000000E+00 -0.18618923830E+04  0.18618923830E+04  0.25500000920E-02 0.  1.
    10030    2    1    2    0    0  0.00000000000E+00  0.00000000000E+00  0.17810232278E+03  0.39018870887E+04  0.38978202133E+04 0.  0.
        1    1    3    3  502    0  0.13759964360E+03 -0.14169222562E+04  0.14214727034E+04  0.20117621601E+04  0.50400001928E-02 0.  1.
       -1    1    3    3    0  502 -0.13759964360E+03  0.14169222562E+04 -0.12433703807E+04  0.18901249286E+04  0.50400001928E-02 0. -1.
</event>
<event>
 5   0  0.2486268E-07  0.3885659E+04  0.7818609E-02  0.8028018E-01
       -2   -1    0    0    0  501  0.00000000000E+00  0.00000000000E+00  0.15782905585E+04  0.15782905585E+04  0.25500000920E-02 0. -1.
        2   -1    0    0  501    0  0.00000000000E+00  0.00000000000E+00 -0.23915662942E+04  0.23915662942E+04  0.25500000920E-02 0.  1.
    10030    2    1    2    0    0  0.00000000000E+00  0.00000000000E+00 -0.81327573570E+03  0.39698568527E+04  0.38856590186E+04 0.  0.
        5    1    3    3  502    0 -0.95916048103E+03 -0.11480683571E+03 -0.21288076476E+04  0.23377368390E+04  0.46999998093E+01 0.  1.
       -5    1    3    3    0  502  0.95916048103E+03  0.11480683571E+03  0.13155319119E+04  0.16321200137E+04  0.46999998093E+01 0. -1.
</event>
<event>
 5   0  0.2384787E-07  0.3930363E+04  0.7818609E-02  0.8018744E-01
       -2   -1    0    0    0  501  0.00000000000E+00  0.00000000000E+00  0.30557706150E+04  0.30557706150E+04  0.25500000920E-02 0.  1.
        2   -1    0    0  501    0  0.00000000000E+00  0.00000000000E+00 -0.12638181822E+04  0.12638181822E+04  0.25500000920E-02 0. -1.
    10030    2    1    2    0    0  0.00000000000E+00  0.00000000000E+00  0.17919524328E+04  0.43195887972E+04  0.39303630692E+04 0.  0.
        4    1    3    3  502    0  0.19184808917E+04 -0.42325540917E+03  0.84416094795E+03  0.21382991821E+04  0.12699999809E+01 0. -1.
       -4    1    3    3    0  502 -0.19184808917E+04  0.42325540917E+03  0.94779148484E+03  0.21812896151E+04  0.12699999809E+01 0.  1.
</event>
<event>
 5   0  0.2395572E-07  0.3800895E+04  0.7818609E-02  0.8045963E-01
        2   -1    0    0  501    0  0.00000000000E+00  0.00000000000E+00  0.19001255973E+04  0.19001255973E+04  0.25500000920E-02 0.  1.
       -2   -1    0    0    0  501  0.00000000000E+00  0.00000000000E+00 -0.19007694229E+04  0.19007694229E+04  0.25500000920E-02 0. -1.
    10030    2    1    2    0    0  0.00000000000E+00  0.00000000000E+00 -0.64382553930E+00  0.38008950202E+04  0.38008949657E+04 0.  0.
        3    1    3    3  502    0 -0.60499194812E+03  0.17938258341E+04  0.16663390500E+03  0.19004192298E+04  0.10100000352E+00 0. -1.
       -3    1    3    3    0  502  0.60499194812E+03 -0.17938258341E+04 -0.16727773054E+03  0.19004757904E+04  0.10100000352E+00 0.  1.
</event>
<event>
 5   0  0.2486268E-07  0.3894960E+04  0.7818609E-02  0.8026078E-01
       -2   -1    0    0    0  501  0.00000000000E+00  0.00000000000E+00  0.25618586975E+04  0.25618586975E+04  0.25500000920E-02 0. -1.
        2   -1    0    0  501    0  0.00000000000E+00  0.00000000000E+00 -0.14804401100E+04  0.14804401100E+04  0.25500000920E-02 0.  1.
    10030    2    1    2    0    0  0.00000000000E+00  0.00000000000E+00  0.10814185875E+04  0.40422988075E+04  0.38949600111E+04 0.  0.
        5    1    3    3  502    0  0.14598376025E+04 -0.11978384784E+04  0.46553331341E+02  0.18889500122E+04  0.46999998093E+01 0.  1.
       -5    1    3    3    0  502 -0.14598376025E+04  0.11978384784E+04  0.10348652561E+04  0.21533487953E+04  0.46999998093E+01 0. -1.
</event>
<event>
 5   0  0.7675750E-08  0.3917170E+04  0.7818609E-02  0.8021468E-01
       -1   -1    0    0    0  501  0.00000000000E+00  0.00000000000E+00  0.25549091333E+04  0.25549091333E+04  0.50400001928E-02 0. -1.
        1   -1    0    0  501    0  0.00000000000E+00  0.00000000000E+00 -0.15014449529E+04  0.15014449529E+04  0.50400001928E-02 0.  1.
    10030    2    1    2    0    0  0.00000000000E+00  0.00000000000E+00  0.10534641805E+04  0.40563540862E+04  0.39171701128E+04 0.  0.
        4    1    3    3  502    0 -0.18368783121E+04 -0.37091276914E+03  0.11164904731E+04  0.21813415150E+04  0.12699999809E+01 0. -1.
       -4    1    3    3    0  502  0.18368783121E+04  0.37091276914E+03 -0.63026292647E+02  0.18750125712E+04  0.12699999809E+01 0.  1.
</event>
<event>
 5   0  0.7731706E-08  0.3904691E+04  0.7818609E-02  0.8024054E-01
        1   -1    0    0  501    0  0.00000000000E+00  0.00000000000E+00  0.19953135463E+04  0.19953135463E+04  0.50400001928E-02 0. -1.
       -1   -1    0    0    0  501  0.00000000000E+00  0.00000000000E+00 -0.19103024697E+04  0.19103024697E+04  0.50400001928E-02 0.  1.
    10030    2    1    2    0    0  0.00000000000E+00  0.00000000000E+00  0.85011076589E+02  0.39056160161E+04  0.39046907153E+04 0.  0.
        3    1    3    3  502    0  0.16483624417E+04  0.61189768485E+02 -0.10021601983E+04  0.19300694289E+04  0.10100000352E+00 0.  1.
       -3    1    3    3    0  502 -0.16483624417E+04 -0.61189768485E+02  0.10871712749E+04  0.19755465872E+04  0.10100000352E+00 0. -1.
</event>
<event>
 5   0  0.7675750E-08  0.3842406E+04  0.7818609E-02  0.8037115E-01
        3   -1    0    0  501    0  0.00000000000E+00  0.00000000000E+00  0.23831119775E+04  0.23831119796E+04  0.10100000352E+00 0.  1.
       -3   -1    0    0    0  501  0.00000000000E+00  0.00000000000E+00 -0.15488237759E+04  0.15488237792E+04  0.10100000352E+00 0. -1.
    10030    2    1    2    0    0  0.00000000000E+00  0.00000000000E+00  0.83428820159E+03  0.39319357588E+04  0.38424057579E+04 0.  0.
        2    1    3    3  502    0 -0.53158177359E+03  0.13407612076E+04 -0.88160151516E+03  0.16903967077E+04  0.25500000920E-02 0. -1.
       -2    1    3    3    0  502  0.53158177359E+03 -0.13407612076E+04  0.17158897167E+04  0.22415390511E+04  0.25500000920E-02 0.  1.
</event>
<event>
 5   0  0.2446281E-07  0.3908168E+04  0.7818609E-02  0.8023333E-01
       -2   -1    0    0    0  501  0.00000000000E+00  0.00000000000E+00  0.11480075846E+04  0.11480075846E+04  0.25500000920E-02 0.  1.
        2   -1    0    0  501    0  0.00000000000E+00  0.00000000000E+00 -0.33261485113E+04  0.33261485113E+04  0.25500000920E-02 0. -1.
    10030    2    1    2    0    0  0.00000000000E+00  0.00000000000E+00 -0.21781409268E+04  0.44741560959E+04  0.39081677131E+04 0.  0.
        1    1    3    3  502    0 -0.14215003377E+04 -0.10420882580E+04 -0.12318224829E+03  0.17668573836E+04  0.50400001928E-02 0.  1.
       -1    1    3    3    0  502  0.14215003377E+04  0.10420882580E+04 -0.20549586785E+04  0.27072987123E+04  0.50400001928E-02 0. -1.
</event>
<event>
 5   0  0.2486268E-07  0.3849179E+04  0.7818609E-02  0.8035683E-01
        2   -1    0    0  501    0  0.00000000000E+00  0.00000000000E+00  0.24994325454E+04  0.24994325454E+04  0.25500000920E-02 0.  1.
       -2   -1    0    0    0  501  0.00000000000E+00  0.00000000000E+00 -0.14819539281E+04  0.14819539281E+04  0.25500000920E-02 0. -1.
    10030    2    1    2    0    0  0.00000000000E+00  0.00000000000E+00  0.10174786173E+04  0.39813864735E+04  0.38491785506E+04 0.  0.
        5    1    3    3  502    0 -0.12720154420E+04  0.92397353051E+03 -0.63946578041E+03  0.16972592448E+04  0.46999998093E+01 0.  1.
       -5    1    3    3    0  502  0.12720154420E+04 -0.92397353051E+03  0.16569443977E+04  0.22841272287E+04  0.46999998093E+01 0. -1.
</event>
<event>
 5   0  0.7675750E-08  0.3886553E+04  0.7818609E-02  0.8027832E-01
       -3   -1    0    0    0  501  0.00000000000E+00  0.00000000000E+00  0.13761058005E+04  0.13761058042E+04  0.10100000352E+00 0.  1.
        3   -1    0    0  501    0  0.00000000000E+00  0.00000000000E+00 -0.27442102917E+04  0.27442102936E+04  0.10100000352E+00 0. -1.
    10030    2    1    2    0    0  0.00000000000E+00  0.00000000000E+00 -0.13681044913E+04  0.41203160977E+04  0.38865530803E+04 0.  0.
        4    1    3    3  502    0  0.97214317934E+01  0.18909513888E+04 -0.11587925264E+04  0.22177902050E+04  0.12699999809E+01 0. -1.
       -4    1    3    3    0  502 -0.97214317934E+01 -0.18909513888E+04 -0.20931196488E+03  0.19025258928E+04  0.12699999809E+01 0.  1.
</event>
<event>
 5   0  0.7675750E-08  0.3980414E+04  0.7818609E-02  0.8008509E-01
       -1   -1    0    0    0  501  0.00000000000E+00  0.00000000000E+00  0.18923255527E+04  0.18923255527E+04  0.50400001928E-02 0. -1.
        1   -1    0    0  501    0  0.00000000000E+00  0.00000000000E+00 -0.20931516297E+04  0.20931516297E+04  0.50400001928E-02 0.  1.
    10030    2    1    2    0    0  0.00000000000E+00  0.00000000000E+00 -0.20082607700E+03  0.39854771824E+04  0.39804142069E+04 0.  0.
        1    1    3    3  502    0  0.10557287745E+04  0.16168345873E+04  0.38207849919E+03  0.19684260991E+04  0.50400001928E-02 0.  1.
       -1    1    3    3    0  502 -0.10557287745E+04 -0.16168345873E+04 -0.58290457620E+03  0.20170510834E+04  0.50400001928E-02 0. -1.
</event>
<event>
 5   0  0.2384787E-07  0.3935133E+04  0.7818609E-02  0.8017762E-01
        2   -1    0    0  501    0  0.00000000000E+00  0.00000000000E+00  0.21946316590E+04  0.21946316590E+04  0.25500000920E-02 0. -1.
       -2   -1    0    0    0  501  0.00000000000E+00  0.00000000000E+00 -0.17639941473E+04  0.17639941473E+04  0.25500000920E-02 0.  1.
    10030    2    1    2    0    0  0.00000000000E+00  0.00000000000E+00  0.43063751168E+03  0.39586258064E+04  0.39351327307E+04 0.  0.
        4    1    3    3  502    0  0.14974977450E+04  0.66654371702E+03 -0.87954267059E+03  0.18602088445E+04  0.12699999809E+01 0.  1.
       -4    1    3    3    0  502 -0.14974977450E+04 -0.66654371702E+03  0.13101801823E+04  0.20984169619E+04  0.12699999809E+01 0. -1.
</event>
<event>
 5   0  0.7675750E-08  0.3876425E+04  0.7818609E-02  0.8029950E-01
       -1   -1    0    0    0  501  0.00000000000E+00  0.00000000000E+00  0.21576307900E+04  0.21576307900E+04  0.50400001928E-02 0.  1.
        1   -1    0    0  501    0  0.00000000000E+00  0.00000000000E+00 -0.17411079749E+04  0.17411079750E+04  0.50400001928E-02 0. -1.
    10030    2    1    2    0    0  0.00000000000E+00  0.00000000000E+00  0.41652281505E+03  0.38987387650E+04  0.38764252478E+04 0.  0.
        1    1    3    3  502    0  0.76690820364E+02  0.78217944317E+02  0.21545149674E+04  0.21572979102E+04  0.50400001928E-02 0.  1.
       -1    1    3    3    0  502 -0.76690820364E+02 -0.78217944317E+02 -0.17379921524E+04  0.17414408547E+04  0.50400001928E-02 0. -1.
</event>
<event>
 5   0  0.2384787E-07  0.3905293E+04  0.7818609E-02  0.8023929E-01
        2   -1    0    0  501    0  0.00000000000E+00  0.00000000000E+00  0.14517644040E+04  0.14517644040E+04  0.25500000920E-02 0. -1.
       -2   -1    0    0    0  501  0.00000000000E+00  0.00000000000E+00 -0.26263404949E+04  0.26263404949E+04  0.25500000920E-02 0.  1.
    10030    2    1    2    0    0  0.00000000000E+00  0.00000000000E+00 -0.11745760909E+04  0.40781048989E+04  0.39052926360E+04 0.  0.
        4    1    3    3  502    0 -0.13221617184E+04  0.46268044551E+02  0.91242975727E+03  0.16071036110E+04  0.12699999809E+01 0. -1.
       -4    1    3    3    0  502  0.13221617184E+04 -0.46268044551E+02 -0.20870058482E+04  0.24710012879E+04  0.12699999809E+01 0.  1.
</event>
<event>
 5   0  0.2446281E-07  0.3938572E+04  0.7818609E-02  0.8017054E-01
       -2   -1    0    0    0  501  0.00000000000E+00  0.00000000000E+00  0.19798264399E+04  0.19798264399E+04  0.25500000920E-02 0.  1.
        2   -1    0    0  501    0  0.00000000000E+00  0.00000000000E+00 -0.19588018509E+04  0.19588018509E+04  0.25500000920E-02 0. -1.
    10030    2    1    2    0    0  0.00000000000E+00  0.00000000000E+00  0.21024589045E+02  0.39386282908E+04  0.39385721753E+04 0.  0.
        1    1    3    3  502    0 -0.17250994393E+04  0.80922595364E+03  0.50778487731E+03  0.19719686106E+04  0.50400001928E-02 0.  1.
       -1    1    3    3    0  502  0.17250994393E+04 -0.80922595364E+03 -0.48676028827E+03  0.19666596802E+04  0.50400001928E-02 0. -1.
</event>
<event>
 5   0  0.7675750E-08  0.3902949E+04  0.7818609E-02  0.8024416E-01
        4   -1    0    0  501    0  0.00000000000E+00  0.00000000000E+00  0.25413514746E+04  0.25413517919E+04  0.12699999809E+01 0.  1.
       -4   -1    0    0    0  501  0.00000000000E+00  0.00000000000E+00 -0.14985139148E+04  0.14985144530E+04  0.12699999809E+01 0. -1.
    10030    2    1    2    0    0  0.00000000000E+00  0.00000000000E+00  0.10428375598E+04  0.40398662449E+04  0.39029487699E+04 0.  0.
        3    1    3    3  502    0 -0.33700293724E+03  0.46062523365E+03  0.24530314805E+04  0.25185531641E+04  0.10100000352E+00 0.  1.
       -3    1    3    3    0  502  0.33700293724E+03 -0.46062523365E+03 -0.14101939207E+04  0.15213130808E+04  0.10100000352E+00 0. -1.
</event>
<event>
 5   0  0.7675750E-08  0.3611782E+04  0.7818609E-02  0.8087798E-01
       -1   -1    0    0    0  501  0.00000000000E+00  0.00000000000E+00  0.95618385068E+03  0.95618385069E+03  0.50400001928E-02 0.  1.
        1   -1    0    0  501    0  0.00000000000E+00  0.00000000000E+00 -0.34106856108E+04  0.34106856108E+04  0.50400001928E-02 0. -1.
    10030    2    1    2    0    0  0.00000000000E+00  0.00000000000E+00 -0.24545017601E+04  0.43668694615E+04  0.36117821090E+04 0.  0.
        1    1    3    3  502    0  0.74119826016E+03  0.16372138318E+04 -0.14414921724E+04  0.23038540915E+04  0.50400001928E-02 0. -1.
       -1    1    3    3    0  502 -0.74119826016E+03 -0.16372138318E+04 -0.10130095877E+04  0.20630153700E+04  0.50400001928E-02 0.  1.
</event>
<event>
 5   0  0.2384787E-07  0.4072017E+04  0.7818609E-02  0.7990174E-01
        2   -1    0    0  501    0  0.00000000000E+00  0.00000000000E+00  0.12787641307E+04  0.12787641307E+04  0.25500000920E-02 0.  1.
       -2   -1    0    0    0  501  0.00000000000E+00  0.00000000000E+00 -0.32416687733E+04  0.32416687733E+04  0.25500000920E-02 0. -1.
    10030    2    1    2    0    0  0.00000000000E+00  0.00000000000E+00 -0.19629046426E+04  0.45204329041E+04  0.40720165771E+04 0.  0.
        4    1    3    3  502    0 -0.15527477618E+04  0.93567462963E+03 -0.20102273891E+04  0.27069407813E+04  0.12699999809E+01 0. -1.
       -4    1    3    3    0  502  0.15527477618E+04 -0.93567462963E+03  0.47322746531E+02  0.18134921228E+04  0.12699999809E+01 0.  1.
</event>
<event>
 5   0  0.7675750E-08  0.3912167E+04  0.7818609E-02  0.8022503E-01
        1   -1    0    0  501    0  0.00000000000E+00  0.00000000000E+00  0.25583182861E+04  0.25583182861E+04  0.50400001928E-02 0. -1.
       -1   -1    0    0    0  501  0.00000000000E+00  0.00000000000E+00 -0.14956165116E+04  0.14956165116E+04  0.50400001928E-02 0.  1.
    10030    2    1    2    0    0  0.00000000000E+00  0.00000000000E+00  0.10627017745E+04  0.40539347977E+04  0.39121672105E+04 0.  0.
        4    1    3    3  502    0 -0.44600448952E+03  0.18580278495E+04  0.96493177715E+03  0.21406266470E+04  0.12699999809E+01 0. -1.
       -4    1    3    3    0  502  0.44600448952E+03 -0.18580278495E+04  0.97769997302E+02  0.19133081507E+04  0.12699999809E+01 0.  1.
</event>
<event>
 5   0  0.2384787E-07  0.3886983E+04  0.7818609E-02  0.8027742E-01
        2   -1    0    0  501    0  0.00000000000E+00  0.00000000000E+00  0.22462649327E+04  0.22462649327E+04  0.25500000920E-02 0.  1.
       -2   -1    0    0    0  501  0.00000000000E+00  0.00000000000E+00 -0.16815287096E+04  0.16815287096E+04  0.25500000920E-02 0. -1.
    10030    2    1    2    0    0  0.00000000000E+00  0.00000000000E+00  0.56473622312E+03  0.39277936423E+04  0.38869828781E+04 0.  0.
        4    1    3    3  502    0  0.72501440334E+03  0.13782826796E+04  0.14572657201E+04  0.21328230170E+04  0.12699999809E+01 0.  1.
       -4    1    3    3    0  502 -0.72501440334E+03 -0.13782826796E+04 -0.89252949697E+03  0.17949706253E+04  0.12699999809E+01 0. -1.
</event>
<event>
 5   0  0.7675750E-08  0.4054741E+04  0.7818609E-02  0.7993594E-01
        1   -1    0    0  501    0  0.00000000000E+00  0.00000000000E+00  0.31404296083E+04  0.31404296083E+04  0.50400001928E-02 0.  1.
       -1   -1    0    0    0  501  0.00000000000E+00  0.00000000000E+00 -0.13088120324E+04  0.13088120324E+04  0.50400001928E-02 0. -1.
    10030    2    1    2    0    0  0.00000000000E+00  0.00000000000E+00  0.18316175760E+04  0.44492416407E+04  0.40547414508E+04 0.  0.
        2    1    3    3  502    0 -0.71707160316E+03  0.12929585751E+04  0.24379643772E+04  0.28512460198E+04  0.25500000920E-02 0.  1.
       -2    1    3    3    0  502  0.71707160316E+03 -0.12929585751E+04 -0.60634680127E+03  0.15979956209E+04  0.25500000920E-02 0. -1.
</event>
<event>
 5   0  0.2446281E-07  0.3973991E+04  0.7818609E-02  0.8009814E-01
        2   -1    0    0  501    0  0.00000000000E+00  0.00000000000E+00  0.21245258232E+04  0.21245258232E+04  0.25500000920E-02 0. -1.
       -2   -1    0    0    0  501  0.00000000000E+00  0.00000000000E+00 -0.18583678951E+04  0.18583678951E+04  0.25500000920E-02 0.  1.
    10030    2    1    2    0    0  0.00000000000E+00  0.00000000000E+00  0.26615792816E+03  0.39828937183E+04  0.39739907308E+04 0.  0.
        1    1    3    3  502    0 -0.18638481284E+04 -0.58903411813E+03 -0.22445478999E+03  0.19675545713E+04  0.50400001928E-02 0. -1.
       -1    1    3    3    0  502  0.18638481284E+04  0.58903411813E+03  0.49061271815E+03  0.20153391470E+04  0.50400001928E-02 0.  1.
</event>
<event>
 5   0  0.7731706E-08  0.4105318E+04  0.7818609E-02  0.7983631E-01
       -1   -1    0    0    0  501  0.00000000000E+00  0.00000000000E+00  0.16966365289E+04  0.16966365289E+04  0.50400001928E-02 0. -1.
        1   -1    0    0  501    0  0.00000000000E+00  0.00000000000E+00 -0.24833898840E+04  0.24833898840E+04  0.50400001928E-02 0.  1.
    10030    2    1    2    0    0  0.00000000000E+00  0.00000000000E+00 -0.78675335510E+03  0.41800264129E+04  0.41053184981E+04 0.  0.
        3    1    3    3  502    0 -0.72061505853E+03  0.12926952131E+04 -0.18416044585E+04  0.23625947533E+04  0.10100000352E+00 0.  1.
       -3    1    3    3    0  502  0.72061505853E+03 -0.12926952131E+04  0.10548511034E+04  0.18174316596E+04  0.10100000352E+00 0. -1.
</event>
<event>
 5   0  0.7675750E-08  0.3906389E+04  0.7818609E-02  0.8023702E-01
       -1   -1    0    0    0  501  0.00000000000E+00  0.00000000000E+00  0.26845177156E+04  0.26845177156E+04  0.50400001928E-02 0.  1.
        1   -1    0    0  501    0  0.00000000000E+00  0.00000000000E+00 -0.14211005434E+04  0.14211005434E+04  0.50400001928E-02 0. -1.
    10030    2    1    2    0    0  0.00000000000E+00  0.00000000000E+00  0.12634171722E+04  0.41056182590E+04  0.39063894248E+04 0.  0.
        1    1    3    3  502    0 -0.37940226975E+03 -0.47599345277E+03  0.25822860779E+04  0.26530580916E+04  0.50400001928E-02 0.  1.
       -1    1    3    3    0  502  0.37940226975E+03  0.47599345277E+03 -0.13188689057E+04  0.14525601674E+04  0.50400001928E-02 0. -1.
</event>
<event>
 5   0  0.7731706E-08  0.3942747E+04  0.7818609E-02  0.8016197E-01
       -1   -1    0    0    0  501  0.00000000000E+00  0.00000000000E+00  0.20684578040E+04  0.20684578040E+04  0.50400001928E-02 0. -1.
        1   -1    0    0  501    0  0.00000000000E+00  0.00000000000E+00 -0.18788462921E+04  0.18788462921E+04  0.50400001928E-02 0.  1.
    10030    2    1    2    0    0  0.00000000000E+00  0.00000000000E+00  0.18961151187E+03  0.39473040961E+04  0.39427474052E+04 0.  0.
        3    1    3    3  502    0 -0.10975680369E+03  0.13479721561E+04  0.15307711752E+04  0.20426296509E+04  0.10100000352E+00 0. -1.
       -3    1    3    3    0  502  0.10975680369E+03 -0.13479721561E+04 -0.13411596633E+04  0.19046744452E+04  0.10100000352E+00 0.  1.
</event>
<event>
 5   0  0.2395572E-07  0.3135936E+04  0.7818609E-02  0.8205944E-01
       -2   -1    0    0    0  501  0.00000000000E+00  0.00000000000E+00  0.15390020726E+04  0.15390020726E+04  0.25500000920E-02 0.  1.
        2   -1    0    0  501    0  0.00000000000E+00  0.00000000000E+00 -0.15974794191E+04  0.15974794191E+04  0.25500000920E-02 0. -1.
    10030    2    1    2    0    0  0.00000000000E+00  0.00000000000E+00 -0.58477346527E+02  0.31364814918E+04  0.31359363112E+04 0.  0.
        3    1    3    3  502    0 -0.12915314121E+04  0.62667256639E+03 -0.66002432853E+03  0.15800012716E+04  0.10100000352E+00 0. -1.
       -3    1    3    3    0  502  0.12915314121E+04 -0.62667256639E+03  0.60154698200E+03  0.15564802201E+04  0.10100000352E+00 0.  1.
</event>
<event>
 5   0  0.2473224E-07  0.3902148E+04  0.7818609E-02  0.8024583E-01
       -2   -1    0    0    0  501  0.00000000000E+00  0.00000000000E+00  0.13531331195E+04  0.13531331195E+04  0.25500000920E-02 0.  1.
        2   -1    0    0  501    0  0.00000000000E+00  0.00000000000E+00 -0.28132407566E+04  0.28132407566E+04  0.25500000920E-02 0. -1.
    10030    2    1    2    0    0  0.00000000000E+00  0.00000000000E+00 -0.14601076371E+04  0.41663738762E+04  0.39021477373E+04 0.  0.
        2    1    3    3  502    0  0.11089751883E+04  0.10030474568E+04  0.60811011298E+03  0.16142267741E+04  0.25500000920E-02 0. -1.
       -2    1    3    3    0  502 -0.11089751883E+04 -0.10030474568E+04 -0.20682177501E+04  0.25521471020E+04  0.25500000920E-02 0.  1.
</event>
<event>
 5   0  0.7675750E-08  0.3912129E+04  0.7818609E-02  0.8022511E-01
       -1   -1    0    0    0  501  0.00000000000E+00  0.00000000000E+00  0.13291998774E+04  0.13291998774E+04  0.50400001928E-02 0.  1.
        1   -1    0    0  501    0  0.00000000000E+00  0.00000000000E+00 -0.28785644230E+04  0.28785644230E+04  0.50400001928E-02 0. -1.
    10030    2    1    2    0    0  0.00000000000E+00  0.00000000000E+00 -0.15493645456E+04  0.42077643003E+04  0.39121285654E+04 0.  0.
        4    1    3    3  502    0 -0.77464065011E+03 -0.17961239888E+04 -0.76660868209E+03  0.21009093279E+04  0.12699999809E+01 0.  1.
       -4    1    3    3    0  502  0.77464065011E+03  0.17961239888E+04 -0.78275586353E+03  0.21068549724E+04  0.12699999809E+01 0. -1.
</event>
<event>
 5   0  0.2446281E-07  0.3897563E+04  0.7818609E-02  0.8025536E-01
       -2   -1    0    0    0  501  0.00000000000E+00  0.00000000000E+00  0.20243548405E+04  0.20243548405E+04  0.25500000920E-02 0. -1.
        2   -1    0    0  501    0  0.00000000000E+00  0.00000000000E+00 -0.18760291738E+04  0.18760291738E+04  0.25500000920E-02 0.  1.
    10030    2    1    2    0    0  0.00000000000E+00  0.00000000000E+00  0.14832566670E+03  0.39003840142E+04  0.38975626942E+04 0.  0.
        1    1    3    3  502    0 -0.79352466939E+03  0.17795806319E+04  0.40077757430E+02  0.19488958036E+04  0.50400001928E-02 0. -1.
       -1    1    3    3    0  502  0.79352466939E+03 -0.17795806319E+04  0.10824790927E+03  0.19514882107E+04  0.50400001928E-02 0.  1.
</event>
<event>
 5   0  0.2486268E-07  0.3909815E+04  0.7818609E-02  0.8022991E-01
       -2   -1    0    0    0  501  0.00000000000E+00  0.00000000000E+00  0.29390311320E+04  0.29390311320E+04  0.25500000920E-02 0.  1.
        2   -1    0    0  501    0  0.00000000000E+00  0.00000000000E+00 -0.13003141616E+04  0.13003141616E+04  0.25500000920E-02 0. -1.
    10030    2    1    2    0    0  0.00000000000E+00  0.00000000000E+00  0.16387169704E+04  0.42393452936E+04  0.39098152398E+04 0.  0.
        5    1    3    3  502    0 -0.18737254032E+04 -0.53544278951E+03  0.65104704550E+03  0.20546119373E+04  0.46999998093E+01 0.  1.
       -5    1    3    3    0  502  0.18737254032E+04  0.53544278951E+03  0.98766992494E+03  0.21847333563E+04  0.46999998093E+01 0. -1.
</event>
<event>
 5   0  0.7675750E-08  0.3939027E+04  0.7818609E-02  0.8016961E-01
        1   -1    0    0  501    0  0.00000000000E+00  0.00000000000E+00  0.27062398225E+04  0.27062398225E+04  0.50400001928E-02 0.  1.
       -1   -1    0    0    0  501  0.00000000000E+00  0.00000000000E+00 -0.14333482838E+04  0.14333482838E+04  0.50400001928E-02 0. -1.
    10030    2    1    2    0    0  0.00000000000E+00  0.00000000000E+00  0.12728915387E+04  0.41395881063E+04  0.39390273953E+04 0.  0.
        4    1    3    3  502    0 -0.64349715077E+03 -0.16914617008E+04  0.14530904558E+04  0.23209060201E+04  0.12699999809E+01 0.  1.
       -4    1    3    3    0  502  0.64349715077E+03  0.16914617008E+04 -0.18019891711E+03  0.18186820863E+04  0.12699999809E+01 0. -1.
</event>
<event>
 5   0  0.2446281E-07  0.3899004E+04  0.7818609E-02  0.8025236E-01
        2   -1    0    0  501    0  0.00000000000E+00  0.00000000000E+00  0.21486138920E+04  0.21486138920E+04  0.25500000920E-02 0.  1.
       -2   -1    0    0    0  501  0.00000000000E+00  0.00000000000E+00 -0.17688414302E+04  0.17688414302E+04  0.25500000920E-02 0. -1.
    10030    2    1    2    0    0  0.00000000000E+00  0.00000000000E+00  0.37977246179E+03  0.39174553221E+04  0.38990036007E+04 0.  0.
        1    1    3    3  502    0 -0.35471688139E+03 -0.18200185109E+04  0.79461982888E+03  0.20173527502E+04  0.50400001928E-02 0.  1.
       -1    1    3    3    0  502  0.35471688139E+03  0.18200185109E+04 -0.41484736709E+03  0.19001025720E+04  0.50400001928E-02 0. -1.
</event>
<event>
 5   0  0.7675750E-08  0.3890885E+04  0.7818609E-02  0.8026928E-01
        1   -1    0    0  501    0  0.00000000000E+00  0.00000000000E+00  0.30754125949E+04  0.30754125949E+04  0.50400001928E-02 0. -1.
       -1   -1    0    0    0  501  0.00000000000E+00  0.00000000000E+00 -0.12306470287E+04  0.12306470287E+04  0.50400001928E-02 0.  1.
    10030    2    1    2    0    0  0.00000000000E+00  0.00000000000E+00  0.18447655662E+04  0.43060596236E+04  0.38908854375E+04 0.  0.
        1    1    3    3  502    0  0.58760444363E+03  0.11671489307E+03 -0.11260207441E+04  0.12754701348E+04  0.50400001928E-02 0.  1.
       -1    1    3    3    0  502 -0.58760444363E+03 -0.11671489307E+03  0.29707863103E+04  0.30305894888E+04  0.50400001928E-02 0. -1.
</event>
<event>
 5   0  0.2446281E-07  0.3946265E+04  0.7818609E-02  0.8015475E-01
       -2   -1    0    0    0  501  0.00000000000E+00  0.00000000000E+00  0.13805832457E+04  0.13805832457E+04  0.25500000920E-02 0. -1.
        2   -1    0    0  501    0  0.00000000000E+00  0.00000000000E+00 -0.28200044426E+04  0.28200044426E+04  0.25500000920E-02 0.  1.
    10030    2    1    2    0    0  0.00000000000E+00  0.00000000000E+00 -0.14394211969E+04  0.42005876883E+04  0.39462645052E+04 0.  0.
        1    1    3    3  502    0 -0.42317239941E+03 -0.16430730521E+04  0.35241853321E+03  0.17329058707E+04  0.50400001928E-02 0. -1.
       -1    1    3    3    0  502  0.42317239941E+03  0.16430730521E+04 -0.17918397301E+04  0.24676818176E+04  0.50400001928E-02 0.  1.
</event>
<event>
 5   0  0.7675750E-08  0.3911570E+04  0.7818609E-02  0.8022627E-01
        1   -1    0    0  501    0  0.00000000000E+00  0.00000000000E+00  0.13946970052E+04  0.13946970052E+04  0.50400001928E-02 0. -1.
       -1   -1    0    0    0  501  0.00000000000E+00  0.00000000000E+00 -0.27425995906E+04  0.27425995906E+04  0.50400001928E-02 0.  1.
    10030    2    1    2    0    0  0.00000000000E+00  0.00000000000E+00 -0.13479025854E+04  0.41372965957E+04  0.39115702398E+04 0.  0.
        4    1    3    3  502    0  0.15394527418E+04 -0.50911635415E+03 -0.18306690734E+04  0.24454989420E+04  0.12699999809E+01 0.  1.
       -4    1    3    3    0  502 -0.15394527418E+04  0.50911635415E+03  0.48276648796E+03  0.16917976537E+04  0.12699999809E+01 0. -1.
</event>
<event>
 5   0  0.2473224E-07  0.3942928E+04  0.7818609E-02  0.8016160E-01
       -2   -1    0    0    0  501  0.00000000000E+00  0.00000000000E+00  0.16602690264E+04  0.16602690264E+04  0.25500000920E-02 0. -1.
        2   -1    0    0  501    0  0.00000000000E+00  0.00000000000E+00 -0.23409876707E+04  0.23409876707E+04  0.25500000920E-02 0.  1.
    10030    2    1    2    0    0  0.00000000000E+00  0.00000000000E+00 -0.68071864424E+03  0.40012566971E+04  0.39429275017E+04 0.  0.
        2    1    3    3  502    0  0.13910615152E+04 -0.83519849303E+03 -0.14767741564E+04  0.21939622993E+04  0.25500000920E-02 0.  1.
       -2    1    3    3    0  502 -0.13910615152E+04  0.83519849303E+03  0.79605551211E+03  0.18072943978E+04  0.25500000920E-02 0. -1.
</event>
<event>
 5   0  0.2473224E-07  0.3293804E+04  0.7818609E-02  0.8164474E-01
        2   -1    0    0  501    0  0.00000000000E+00  0.00000000000E+00  0.21989820411E+04  0.21989820411E+04  0.25500000920E-02 0. -1.
       -2   -1    0    0    0  501  0.00000000000E+00  0.00000000000E+00 -0.12334279938E+04  0.12334279938E+04  0.25500000920E-02 0.  1.
    10030    2    1    2    0    0  0.00000000000E+00  0.00000000000E+00  0.96555404725E+03  0.34324100349E+04  0.32938038844E+04 0.  0.
        2    1    3    3  502    0 -0.13322814235E+04  0.77321536062E+03  0.10899179014E+04  0.18869967719E+04  0.25500000920E-02 0. -1.
       -2    1    3    3    0  502  0.13322814235E+04 -0.77321536062E+03 -0.12436385413E+03  0.15454132630E+04  0.25500000920E-02 0.  1.
</event>
<event>
 5   0  0.7675750E-08  0.3879691E+04  0.7818609E-02  0.8029266E-01
        1   -1    0    0  501    0  0.00000000000E+00  0.00000000000E+00  0.19138958125E+04  0.19138958125E+04  0.50400001928E-02 0.  1.
       -1   -1    0    0    0  501  0.00000000000E+00  0.00000000000E+00 -0.19661474167E+04  0.19661474167E+04  0.50400001928E-02 0. -1.
    10030    2    1    2    0    0  0.00000000000E+00  0.00000000000E+00 -0.52251604209E+02  0.38800432293E+04  0.38796913835E+04 0.  0.
        4    1    3    3  502    0 -0.14969931656E+04 -0.11802681735E+03 -0.12542765961E+04  0.19565608245E+04  0.12699999809E+01 0. -1.
       -4    1    3    3    0  502  0.14969931656E+04  0.11802681735E+03  0.12020249919E+04  0.19234824048E+04  0.12699999809E+01 0.  1.
</event>
<event>
 5   0  0.7675750E-08  0.3909938E+04  0.7818609E-02  0.8022966E-01
       -1   -1    0    0    0  501  0.00000000000E+00  0.00000000000E+00  0.28746378368E+04  0.28746378368E+04  0.50400001928E-02 0. -1.
        1   -1    0    0  501    0  0.00000000000E+00  0.00000000000E+00 -0.13295251122E+04  0.13295251122E+04  0.50400001928E-02 0.  1.
    10030    2    1    2    0    0  0.00000000000E+00  0.00000000000E+00  0.15451127247E+04  0.42041629490E+04  0.39099376939E+04 0.  0.
        5    1    3    3  502    0 -0.27392549233E+03  0.84145649776E+03 -0.11018361481E+04  0.14132052930E+04  0.46999998093E+01 0.  1.
       -5    1    3    3    0  502  0.27392549233E+03 -0.84145649776E+03  0.26469488727E+04  0.27909576560E+04  0.46999998093E+01 0. -1.
</event>
<event>
 5   0  0.7675750E-08  0.3883398E+04  0.7818609E-02  0.8028491E-01
       -1   -1    0    0    0  501  0.00000000000E+00  0.00000000000E+00  0.12384521234E+04  0.12384521234E+04  0.50400001928E-02 0. -1.
        1   -1    0    0  501    0  0.00000000000E+00  0.00000000000E+00 -0.30442800321E+04  0.30442800321E+04  0.50400001928E-02 0.  1.
    10030    2    1    2    0    0  0.00000000000E+00  0.00000000000E+00 -0.18058279087E+04  0.42827321555E+04  0.38833980327E+04 0.  0.
        2    1    3    3  502    0  0.68066598988E+03 -0.13769655233E+03  0.10968106629E+04  0.12981757048E+04  0.25500000920E-02 0. -1.
       -2    1    3    3    0  502 -0.68066598988E+03  0.13769655233E+03 -0.29026385716E+04  0.29845564507E+04  0.25500000920E-02 0.  1.
</event>
<event>
 5   0  0.2395572E-07  0.3824062E+04  0.7818609E-02  0.8041011E-01
        2   -1    0    0  501    0  0.00000000000E+00  0.00000000000E+00  0.17820052847E+04  0.17820052847E+04  0.25500000920E-02 0. -1.
       -2   -1    0    0    0  501  0.00000000000E+00  0.00000000000E+00 -0.20515444438E+04  0.20515444438E+04  0.25500000920E-02 0.  1.
    10030    2    1    2    0    0  0.00000000000E+00  0.00000000000E+00 -0.26953915903E+03  0.38335497285E+04  0.38240622593E+04 0.  0.
        3    1    3    3  502    0  0.33343339213E+03  0.48739407191E+03 -0.19578336262E+04  0.20449555805E+04  0.10100000352E+00 0.  1.
       -3    1    3    3    0  502 -0.33343339213E+03 -0.48739407191E+03  0.16882944671E+04  0.17885941480E+04  0.10100000352E+00 0. -1.
</event>
<event>
 5   0  0.7675750E-08  0.3916152E+04  0.7818609E-02  0.8021678E-01
       -1   -1    0    0    0  501  0.00000000000E+00  0.00000000000E+00  0.15011367220E+04  0.15011367220E+04  0.50400001928E-02 0.  1.
        1   -1    0    0  501    0  0.00000000000E+00  0.00000000000E+00 -0.25541056958E+04  0.25541056958E+04  0.50400001928E-02 0. -1.
    10030    2    1    2    0    0  0.00000000000E+00  0.00000000000E+00 -0.10529689738E+04  0.40552424178E+04  0.39161521175E+04 0.  0.
        2    1    3    3  502    0 -0.14885717352E+04  0.25629226419E+03 -0.18167447215E+04  0.23626453222E+04  0.25500000920E-02 0. -1.
       -2    1    3    3    0  502  0.14885717352E+04 -0.25629226419E+03  0.76377574763E+03  0.16925970956E+04  0.25500000920E-02 0.  1.
</event>
<event>
 5   0  0.7675750E-08  0.3797290E+04  0.7818609E-02  0.8046737E-01
        1   -1    0    0  501    0  0.00000000000E+00  0.00000000000E+00  0.29481692120E+04  0.29481692120E+04  0.50400001928E-02 0. -1.
       -1   -1    0    0    0  501  0.00000000000E+00  0.00000000000E+00 -0.12227429585E+04  0.12227429585E+04  0.50400001928E-02 0.  1.
    10030    2    1    2    0    0  0.00000000000E+00  0.00000000000E+00  0.17254262535E+04  0.41709121706E+04  0.37972901625E+04 0.  0.
        1    1    3    3  502    0 -0.17883185869E+04  0.18062888670E+03  0.15345689133E+04  0.23633899197E+04  0.50400001928E-02 0.  1.
       -1    1    3    3    0  502  0.17883185869E+04 -0.18062888670E+03  0.19085734021E+03  0.18075222508E+04  0.50400001928E-02 0. -1.
</event>
<event>
 5   0  0.2446281E-07  0.3975735E+04  0.7818609E-02  0.8009459E-01
        2   -1    0    0  501    0  0.00000000000E+00  0.00000000000E+00  0.22848693683E+04  0.22848693683E+04  0.25500000920E-02 0. -1.
       -2   -1    0    0    0  501  0.00000000000E+00  0.00000000000E+00 -0.17294721560E+04  0.17294721561E+04  0.25500000920E-02 0.  1.
    10030    2    1    2    0    0  0.00000000000E+00  0.00000000000E+00  0.55539721228E+03  0.40143415244E+04  0.39757353799E+04 0.  0.
        1    1    3    3  502    0  0.79777666698E+03  0.15566952839E+04 -0.67586058822E+03  0.18752427448E+04  0.50400001928E-02 0.  1.
       -1    1    3    3    0  502 -0.79777666698E+03 -0.15566952839E+04  0.12312578005E+04  0.21390987795E+04  0.50400001928E-02 0. -1.
</event>
<event>
 5   0  0.7675750E-08  0.3889965E+04  0.7818609E-02  0.8027120E-01
        3   -1    0    0  501    0  0.00000000000E+00  0.00000000000E+00  0.30912633648E+04  0.30912633664E+04  0.10100000352E+00 0. -1.
       -3   -1    0    0    0  501  0.00000000000E+00  0.00000000000E+00 -0.12237574863E+04  0.12237574904E+04  0.10100000352E+00 0.  1.
    10030    2    1    2    0    0  0.00000000000E+00  0.00000000000E+00  0.18675058785E+04  0.43150208569E+04  0.38899648827E+04 0.  0.
        5    1    3    3  502    0 -0.47425385500E+03  0.11473391131E+04 -0.72705443983E+03  0.14387265230E+04  0.46999998093E+01 0.  1.
       -5    1    3    3    0  502  0.47425385500E+03 -0.11473391131E+04  0.25945603184E+04  0.28762943339E+04  0.46999998093E+01 0. -1.
</event>
<event>
 5   0  0.7675750E-08  0.3893008E+04  0.7818609E-02  0.8026485E-01
        1   -1    0    0  501    0  0.00000000000E+00  0.00000000000E+00  0.18186668995E+04  0.18186668995E+04  0.50400001928E-02 0. -1.
       -1   -1    0    0    0  501  0.00000000000E+00  0.00000000000E+00 -0.20833267901E+04  0.20833267901E+04  0.50400001928E-02 0.  1.
    10030    2    1    2    0    0  0.00000000000E+00  0.00000000000E+00 -0.26465989062E+03  0.39019936895E+04  0.38930078211E+04 0.  0.
        5    1    3    3  502    0  0.18437342351E+04 -0.58449502160E+03 -0.35161570350E+03  0.19658703042E+04  0.46999998093E+01 0.  1.
       -5    1    3    3    0  502 -0.18437342351E+04  0.58449502160E+03  0.86955812880E+02  0.19361233854E+04  0.46999998093E+01 0. -1.
</event>
<event>
 5   0  0.2473224E-07  0.3900946E+04  0.7818609E-02  0.8024833E-01
       -2   -1    0    0    0  501  0.00000000000E+00  0.00000000000E+00  0.15410754534E+04  0.15410754534E+04  0.25500000920E-02 0. -1.
        2   -1    0    0  501    0  0.00000000000E+00  0.00000000000E+00 -0.24686293227E+04  0.24686293227E+04  0.25500000920E-02 0.  1.
    10030    2    1    2    0    0  0.00000000000E+00  0.00000000000E+00 -0.92755386936E+03  0.40097047761E+04  0.39009455535E+04 0.  0.
        2    1    3    3  502    0  0.14527956157E+04 -0.13014316376E+04 -0.46156174073E+03  0.20043399534E+04  0.25500000920E-02 0. -1.
       -2    1    3    3    0  502 -0.14527956157E+04  0.13014316376E+04 -0.46599212863E+03  0.20053648227E+04  0.25500000920E-02 0.  1.
</event>
<event>
 5   0  0.2473224E-07  0.3894341E+04  0.7818609E-02  0.8026207E-01
       -2   -1    0    0    0  501  0.00000000000E+00  0.00000000000E+00  0.17707132480E+04  0.17707132480E+04  0.25500000920E-02 0.  1.
        2   -1    0    0  501    0  0.00000000000E+00  0.00000000000E+00 -0.21412127309E+04  0.21412127309E+04  0.25500000920E-02 0. -1.
    10030    2    1    2    0    0  0.00000000000E+00  0.00000000000E+00 -0.37049948298E+03  0.39119259789E+04  0.38943414074E+04 0.  0.
        2    1    3    3  502    0 -0.36523497353E+03 -0.14694453395E+04  0.10445362545E+04  0.18394896517E+04  0.25500000920E-02 0.  1.
       -2    1    3    3    0  502  0.36523497353E+03  0.14694453395E+04 -0.14150357375E+04  0.20724363272E+04  0.25500000920E-02 0. -1.
</event>
<event>
 5   0  0.7731706E-08  0.3923822E+04  0.7818609E-02  0.8020093E-01
       -1   -1    0    0    0  501  0.00000000000E+00  0.00000000000E+00  0.13074023632E+04  0.13074023632E+04  0.50400001928E-02 0. -1.
        1   -1    0    0  501    0  0.00000000000E+00  0.00000000000E+00 -0.29440778085E+04  0.29440778085E+04  0.50400001928E-02 0.  1.
    10030    2    1    2    0    0  0.00000000000E+00  0.00000000000E+00 -0.16366754452E+04  0.42514801717E+04  0.39238217515E+04 0.  0.
        3    1    3    3  502    0  0.24101830244E+03 -0.68235915843E+03 -0.27941797047E+04  0.28863721305E+04  0.10100000352E+00 0.  1.
       -3    1    3    3    0  502 -0.24101830244E+03  0.68235915843E+03  0.11575042595E+04  0.13651080412E+04  0.10100000352E+00 0. -1.
</event>
<event>
 5   0  0.2486268E-07  0.3880678E+04  0.7818609E-02  0.8029060E-01
       -2   -1    0    0    0  501  0.00000000000E+00  0.00000000000E+00  0.12125809475E+04  0.12125809475E+04  0.25500000920E-02 0. -1.
        2   -1    0    0  501    0  0.00000000000E+00  0.00000000000E+00 -0.31048777196E+04  0.31048777196E+04  0.25500000920E-02 0.  1.
    10030    2    1    2    0    0  0.00000000000E+00  0.00000000000E+00 -0.18922967722E+04  0.43174586671E+04  0.38806780681E+04 0.  0.
        5    1    3    3  502    0  0.95293392917E+03  0.81399954861E+03  0.70186287860E+03  0.14364233112E+04  0.46999998093E+01 0. -1.
       -5    1    3    3    0  502 -0.95293392917E+03 -0.81399954861E+03 -0.25941596508E+04  0.28810353559E+04  0.46999998093E+01 0.  1.
</event>
<event>
 5   0  0.7675750E-08  0.3984321E+04  0.7818609E-02  0.8007717E-01
       -1   -1    0    0    0  501  0.00000000000E+00  0.00000000000E+00  0.18998767962E+04  0.18998767962E+04  0.50400001928E-02 0. -1.
        1   -1    0    0  501    0  0.00000000000E+00  0.00000000000E+00 -0.20889267209E+04  0.20889267209E+04  0.50400001928E-02 0.  1.
    10030    2    1    2    0    0  0.00000000000E+00  0.00000000000E+00 -0.18904992463E+03  0.39888035171E+04  0.39843209740E+04 0.  0.
        4    1    3    3  502    0 -0.91112504088E+03 -0.17654722664E+04 -0.24186604716E+03  0.20013850108E+04  0.12699999809E+01 0.  1.
       -4    1    3    3    0  502  0.91112504088E+03  0.17654722664E+04  0.52816122526E+02  0.19874185063E+04  0.12699999809E+01 0. -1.
</event>
<event>
 5   0  0.2473224E-07  0.3850848E+04  0.7818609E-02  0.8035330E-01
       -2   -1    0    0    0  501  0.00000000000E+00  0.00000000000E+00  0.13445839813E+04  0.13445839813E+04  0.25500000920E-02 0.  1.
        2   -1    0    0  501    0  0.00000000000E+00  0.00000000000E+00 -0.27571774534E+04  0.27571774534E+04  0.25500000920E-02 0. -1.
    10030    2    1    2    0    0  0.00000000000E+00  0.00000000000E+00 -0.14125934721E+04  0.41017614347E+04  0.38508475106E+04 0.  0.
        2    1    3    3  502    0 -0.58573781357E+03 -0.13357906582E+04 -0.20451081770E+04  0.25119500243E+04  0.25500000920E-02 0. -1.
       -2    1    3    3    0  502  0.58573781357E+03  0.13357906582E+04  0.63251470495E+03  0.15898114104E+04  0.25500000920E-02 0.  1.
</event>
<event>
 5   0  0.7675750E-08  0.3919073E+04  0.7818609E-02  0.8021074E-01
        1   -1    0    0  501    0  0.00000000000E+00  0.00000000000E+00  0.15914282600E+04  0.15914282600E+04  0.50400001928E-02 0. -1.
       -1   -1    0    0    0  501  0.00000000000E+00  0.00000000000E+00 -0.24127908156E+04  0.24127908156E+04  0.50400001928E-02 0.  1.
    10030    2    1    2    0    0  0.00000000000E+00  0.00000000000E+00 -0.82136255564E+03  0.40042190756E+04  0.39190730993E+04 0.  0.
        5    1    3    3  502    0 -0.12991822391E+04 -0.13068378239E+04 -0.10915387045E+04  0.21417699274E+04  0.46999998093E+01 0.  1.
       -5    1    3    3    0  502  0.12991822391E+04  0.13068378239E+04  0.27017614882E+03  0.18624491482E+04  0.46999998093E+01 0. -1.
</event>
<event>
 5   0  0.7675750E-08  0.3903552E+04  0.7818609E-02  0.8024291E-01
        1   -1    0    0  501    0  0.00000000000E+00  0.00000000000E+00  0.18273089928E+04  0.18273089928E+04  0.50400001928E-02 0. -1.
       -1   -1    0    0    0  501  0.00000000000E+00  0.00000000000E+00 -0.20847209994E+04  0.20847209995E+04  0.50400001928E-02 0.  1.
    10030    2    1    2    0    0  0.00000000000E+00  0.00000000000E+00 -0.25741200669E+03  0.39120299922E+04  0.39035519362E+04 0.  0.
        2    1    3    3  502    0  0.59047287329E+03 -0.46536872702E+03  0.16763730870E+04  0.18372405921E+04  0.25500000920E-02 0. -1.
       -2    1    3    3    0  502 -0.59047287329E+03  0.46536872702E+03 -0.19337850937E+04  0.20747894001E+04  0.25500000920E-02 0.  1.
</event>
<event>
 5   0  0.7675750E-08  0.3888862E+04  0.7818609E-02  0.8027350E-01
       -1   -1    0    0    0  501  0.00000000000E+00  0.00000000000E+00  0.16309826742E+04  0.16309826742E+04  0.50400001928E-02 0. -1.
        1   -1    0    0  501    0  0.00000000000E+00  0.00000000000E+00 -0.23181184294E+04  0.23181184294E+04  0.50400001928E-02 0.  1.
    10030    2    1    2    0    0  0.00000000000E+00  0.00000000000E+00 -0.68713575522E+03  0.39491011036E+04  0.38888615276E+04 0.  0.
        5    1    3    3  502    0 -0.12951605699E+04  0.14439721424E+04 -0.20622321884E+03  0.19506528537E+04  0.46999998093E+01 0. -1.
       -5    1    3    3    0  502  0.12951605699E+04 -0.14439721424E+04 -0.48091253639E+03  0.19984482499E+04  0.46999998093E+01 0.  1.
</event>
<event>
 5   0  0.2473224E-07  0.3885622E+04  0.7818609E-02  0.8028026E-01
        2   -1    0    0  501    0  0.00000000000E+00  0.00000000000E+00  0.24194967684E+04  0.24194967684E+04  0.25500000920E-02 0. -1.
       -2   -1    0    0    0  501  0.00000000000E+00  0.00000000000E+00 -0.15600409997E+04  0.15600409997E+04  0.25500000920E-02 0.  1.
    10030    2    1    2    0    0  0.00000000000E+00  0.00000000000E+00  0.85945576873E+03  0.39795377681E+04  0.38856217815E+04 0.  0.
        2    1    3    3  502    0  0.88004028637E+03 -0.79047753642E+03  0.20081426980E+04  0.23306571470E+04  0.25500000920E-02 0. -1.
       -2    1    3    3    0  502 -0.88004028637E+03  0.79047753642E+03 -0.11486869292E+04  0.16488806211E+04  0.25500000920E-02 0.  1.
</event>
<event>
 5   0  0.2473224E-07  0.3892411E+04  0.7818609E-02  0.8026609E-01
       -2   -1    0    0    0  501  0.00000000000E+00  0.00000000000E+00  0.20386685143E+04  0.20386685143E+04  0.25500000920E-02 0.  1.
        2   -1    0    0  501    0  0.00000000000E+00  0.00000000000E+00 -0.18579359207E+04  0.18579359207E+04  0.25500000920E-02 0. -1.
    10030    2    1    2    0    0  0.00000000000E+00  0.00000000000E+00  0.18073259358E+03  0.38966044350E+04  0.38924108021E+04 0.  0.
        2    1    3    3  502    0  0.10750869475E+04  0.71247184877E+03  0.15494301091E+04  0.20159766226E+04  0.25500000920E-02 0.  1.
       -2    1    3    3    0  502 -0.10750869475E+04 -0.71247184877E+03 -0.13686975155E+04  0.18806278124E+04  0.25500000920E-02 0. -1.
</event>
<event>
 5   0  0.7675750E-08  0.3919266E+04  0.7818609E-02  0.8021034E-01
        1   -1    0    0  501    0  0.00000000000E+00  0.00000000000E+00  0.19421425276E+04  0.19421425276E+04  0.50400001928E-02 0.  1.
       -1   -1    0    0    0  501  0.00000000000E+00  0.00000000000E+00 -0.19772814093E+04  0.19772814093E+04  0.50400001928E-02 0. -1.
    10030    2    1    2    0    0  0.00000000000E+00  0.00000000000E+00 -0.35138881680E+02  0.39194239369E+04  0.39192664181E+04 0.  0.
        4    1    3    3  502    0  0.83881842661E+03 -0.17104716708E+04 -0.47675127752E+03  0.19638286796E+04  0.12699999809E+01 0. -1.
       -4    1    3    3    0  502 -0.83881842661E+03  0.17104716708E+04  0.44161239584E+03  0.19555952573E+04  0.12699999809E+01 0.  1.
</event>
<event>
 5   0  0.2384787E-07  0.3873256E+04  0.7818609E-02  0.8030615E-01
        2   -1    0    0  501    0  0.00000000000E+00  0.00000000000E+00  0.15324477075E+04  0.15324477075E+04  0.25500000920E-02 0.  1.
       -2   -1    0    0    0  501  0.00000000000E+00  0.00000000000E+00 -0.24474102598E+04  0.24474102598E+04  0.25500000920E-02 0. -1.
    10030    2    1    2    0    0  0.00000000000E+00  0.00000000000E+00 -0.91496255227E+03  0.39798579673E+04  0.38732561195E+04 0.  0.
        4    1    3    3  502    0  0.17201494839E+03  0.12878798376E+04  0.10181151525E+04  0.16506918838E+04  0.12699999809E+01 0.  1.
       -4    1    3    3    0  502 -0.17201494839E+03 -0.12878798376E+04 -0.19330777048E+04  0.23291660834E+04  0.12699999809E+01 0. -1.
</event>
<event>
 5   0  0.7675750E-08  0.3844348E+04  0.7818609E-02  0.8036704E-01
       -1   -1    0    0    0  501  0.00000000000E+00  0.00000000000E+00  0.20631263019E+04  0.20631263019E+04  0.50400001928E-02 0. -1.
        1   -1    0    0  501    0  0.00000000000E+00  0.00000000000E+00 -0.17908515821E+04  0.17908515821E+04  0.50400001928E-02 0.  1.
    10030    2    1    2    0    0  0.00000000000E+00  0.00000000000E+00  0.27227471979E+03  0.38539778840E+04  0.38443480602E+04 0.  0.
        5    1    3    3  502    0  0.71349748986E+03 -0.16717383478E+04 -0.49068331949E+03  0.18827054952E+04  0.46999998093E+01 0.  1.
       -5    1    3    3    0  502 -0.71349748986E+03  0.16717383478E+04  0.76295803927E+03  0.19712723889E+04  0.46999998093E+01 0. -1.
</event>
<event>
 5   0  0.2473224E-07  0.3913586E+04  0.7818609E-02  0.8022210E-01
       -2   -1    0    0    0  501  0.00000000000E+00  0.00000000000E+00  0.16334223087E+04  0.16334223087E+04  0.25500000920E-02 0. -1.
        2   -1    0    0  501    0  0.00000000000E+00  0.00000000000E+00 -0.23441817309E+04  0.23441817309E+04  0.25500000920E-02 0.  1.
    10030    2    1    2    0    0  0.00000000000E+00  0.00000000000E+00 -0.71075942213E+03  0.39776040396E+04  0.39135859438E+04 0.  0.
        2    1    3    3  502    0 -0.52897172608E+03 -0.16518967927E+04  0.56523223341E+03  0.18242975575E+04  0.25500000920E-02 0. -1.
       -2    1    3    3    0  502  0.52897172608E+03  0.16518967927E+04 -0.12759916555E+04  0.21533064821E+04  0.25500000920E-02 0.  1.
</event>
<event>
 5   0  0.7675750E-08  0.3892520E+04  0.7818609E-02  0.8026587E-01
        1   -1    0    0  501    0  0.00000000000E+00  0.00000000000E+00  0.16445598485E+04  0.16445598485E+04  0.50400001928E-02 0.  1.
       -1   -1    0    0    0  501  0.00000000000E+00  0.00000000000E+00 -0.23033076341E+04  0.23033076341E+04  0.50400001928E-02 0. -1.
    10030    2    1    2    0    0  0.00000000000E+00  0.00000000000E+00 -0.65874778555E+03  0.39478674826E+04  0.38925196229E+04 0.  0.
        1    1    3    3  502    0  0.65554805711E+03 -0.97303817681E+03 -0.19043161892E+04  0.22367312528E+04  0.50400001928E-02 0. -1.
       -1    1    3    3    0  502 -0.65554805711E+03  0.97303817681E+03  0.12455684036E+04  0.17111362298E+04  0.50400001928E-02 0.  1.
</event>
<event>
 5   0  0.2473224E-07  0.3897723E+04  0.7818609E-02  0.8025503E-01
       -2   -1    0    0    0  501  0.00000000000E+00  0.00000000000E+00  0.24181337123E+04  0.24181337123E+04  0.25500000920E-02 0.  1.
        2   -1    0    0  501    0  0.00000000000E+00  0.00000000000E+00 -0.15706577739E+04  0.15706577739E+04  0.25500000920E-02 0. -1.
    10030    2    1    2    0    0  0.00000000000E+00  0.00000000000E+00  0.84747593836E+03  0.39887914862E+04  0.38977226753E+04 0.  0.
        2    1    3    3  502    0 -0.71172887232E+03 -0.11894182359E+04 -0.97822927569E+03  0.16965277020E+04  0.25500000920E-02 0. -1.
       -2    1    3    3    0  502  0.71172887232E+03  0.11894182359E+04  0.18257052140E+04  0.22922637842E+04  0.25500000920E-02 0.  1.
</event>
<event>
 5   0  0.2473224E-07  0.3892235E+04  0.7818609E-02  0.8026646E-01
       -2   -1    0    0    0  501  0.00000000000E+00  0.00000000000E+00  0.17629525034E+04  0.17629525034E+04  0.25500000920E-02 0. -1.
        2   -1    0    0  501    0  0.00000000000E+00  0.00000000000E+00 -0.21483131163E+04  0.21483131163E+04  0.25500000920E-02 0.  1.
    10030    2    1    2    0    0  0.00000000000E+00  0.00000000000E+00 -0.38536061291E+03  0.39112656197E+04  0.38922353405E+04 0.  0.
        2    1    3    3  502    0 -0.65601143788E+03 -0.84893235782E+03  0.14389383685E+04  0.17948762585E+04  0.25500000920E-02 0. -1.
       -2    1    3    3    0  502  0.65601143788E+03  0.84893235782E+03 -0.18242989814E+04  0.21163893613E+04  0.25500000920E-02 0.  1.
</event>
<event>
 5   0  0.7675750E-08  0.3886422E+04  0.7818609E-02  0.8027859E-01
       -1   -1    0    0    0  501  0.00000000000E+00  0.00000000000E+00  0.28524593244E+04  0.28524593244E+04  0.50400001928E-02 0. -1.
        1   -1    0    0  501    0  0.00000000000E+00  0.00000000000E+00 -0.13237944653E+04  0.13237944653E+04  0.50400001928E-02 0.  1.
    10030    2    1    2    0    0  0.00000000000E+00  0.00000000000E+00  0.15286648591E+04  0.41762537897E+04  0.38864224506E+04 0.  0.
        5    1    3    3  502    0 -0.17983602064E+04  0.65107565938E+03  0.39512730530E+03  0.19529840305E+04  0.46999998093E+01 0.  1.
       -5    1    3    3    0  502  0.17983602064E+04 -0.65107565938E+03  0.11335375538E+04  0.22232697591E+04  0.46999998093E+01 0. -1.
</event>
<event>
 5   0  0.7675750E-08  0.3896232E+04  0.7818609E-02  0.8025813E-01
        1   -1    0    0  501    0  0.00000000000E+00  0.00000000000E+00  0.22067429470E+04  0.22067429470E+04  0.50400001928E-02 0.  1.
       -1   -1    0    0    0  501  0.00000000000E+00  0.00000000000E+00 -0.17197999021E+04  0.17197999021E+04  0.50400001928E-02 0. -1.
    10030    2    1    2    0    0  0.00000000000E+00  0.00000000000E+00  0.48694304495E+03  0.39265428491E+04  0.38962321821E+04 0.  0.
        1    1    3    3  502    0  0.34890635013E+03 -0.13196477957E+04  0.16442307543E+04  0.21369840241E+04  0.50400001928E-02 0.  1.
       -1    1    3    3    0  502 -0.34890635013E+03  0.13196477957E+04 -0.11572877093E+04  0.17895588250E+04  0.50400001928E-02 0. -1.
</event>
<event>
 5   0  0.7731706E-08  0.3860732E+04  0.7818609E-02  0.8033246E-01
        1   -1    0    0  501    0  0.00000000000E+00  0.00000000000E+00  0.21431917124E+04  0.21431917124E+04  0.50400001928E-02 0. -1.
       -1   -1    0    0    0  501  0.00000000000E+00  0.00000000000E+00 -0.17386748359E+04  0.17386748359E+04  0.50400001928E-02 0.  1.
    10030    2    1    2    0    0  0.00000000000E+00  0.00000000000E+00  0.40451687650E+03  0.38818665483E+04  0.38607323134E+04 0.  0.
        3    1    3    3  502    0  0.76094323109E+03  0.10341972762E+04  0.16515771046E+04  0.20919621291E+04  0.10100000352E+00 0. -1.
       -3    1    3    3    0  502 -0.76094323109E+03 -0.10341972762E+04 -0.12470602281E+04  0.17899044192E+04  0.10100000352E+00 0.  1.
</event>
<event>
 5   0  0.7675750E-08  0.3898849E+04  0.7818609E-02  0.8025269E-01
        1   -1    0    0  501    0  0.00000000000E+00  0.00000000000E+00  0.14729322582E+04  0.14729322582E+04  0.50400001928E-02 0. -1.
       -1   -1    0    0    0  501  0.00000000000E+00  0.00000000000E+00 -0.25800619621E+04  0.25800619621E+04  0.50400001928E-02 0.  1.
    10030    2    1    2    0    0  0.00000000000E+00  0.00000000000E+00 -0.11071297039E+04  0.40529942203E+04  0.38988493134E+04 0.  0.
        4    1    3    3  502    0 -0.11914720859E+04 -0.99985138056E+03  0.66803209739E+03  0.16928015272E+04  0.12699999809E+01 0. -1.
       -4    1    3    3    0  502  0.11914720859E+04  0.99985138056E+03 -0.17751618013E+04  0.23601926930E+04  0.12699999809E+01 0.  1.
</event>
<event>
 5   0  0.7675750E-08  0.3882878E+04  0.7818609E-02  0.8028600E-01
        1   -1    0    0  501    0  0.00000000000E+00  0.00000000000E+00  0.19434860044E+04  0.19434860044E+04  0.50400001928E-02 0.  1.
       -1   -1    0    0    0  501  0.00000000000E+00  0.00000000000E+00 -0.19393937503E+04  0.19393937503E+04  0.50400001928E-02 0. -1.
    10030    2    1    2    0    0  0.00000000000E+00  0.00000000000E+00  0.40922540724E+01  0.38828797547E+04  0.38828775982E+04 0.  0.
        4    1    3    3  502    0 -0.53669448129E+03 -0.18635394460E+04 -0.89402077346E+02  0.19413434980E+04  0.12699999809E+01 0.  1.
       -4    1    3    3    0  502  0.53669448129E+03  0.18635394460E+04  0.93494331418E+02  0.19415362566E+04  0.12699999809E+01 0. -1.
</event>
<event>
 5   0  0.2446281E-07  0.3865718E+04  0.7818609E-02  0.8032197E-01
        2   -1    0    0  501    0  0.00000000000E+00  0.00000000000E+00  0.26773766553E+04  0.26773766553E+04  0.25500000920E-02 0.  1.
       -2   -1    0    0    0  501  0.00000000000E+00  0.00000000000E+00 -0.13953750454E+04  0.13953750454E+04  0.25500000920E-02 0. -1.
    10030    2    1    2    0    0  0.00000000000E+00  0.00000000000E+00  0.12820016099E+04  0.40727517007E+04  0.38657183405E+04 0.  0.
        1    1    3    3  502    0  0.25326320766E+03  0.14106880884E+04 -0.72527985506E+03  0.16063044553E+04  0.50400001928E-02 0. -1.
       -1    1    3    3    0  502 -0.25326320766E+03 -0.14106880884E+04  0.20072814649E+04  0.24664472454E+04  0.50400001928E-02 0.  1.
</event>
<event>
 5   0  0.2395572E-07  0.3875049E+04  0.7818609E-02  0.8030239E-01
       -2   -1    0    0    0  501  0.00000000000E+00  0.00000000000E+00  0.18572125362E+04  0.18572125362E+04  0.25500000920E-02 0.  1.
        2   -1    0    0  501    0  0.00000000000E+00  0.00000000000E+00 -0.20213092634E+04  0.20213092634E+04  0.25500000920E-02 0. -1.
    10030    2    1    2    0    0  0.00000000000E+00  0.00000000000E+00 -0.16409672719E+03  0.38785217996E+04  0.38750488531E+04 0.  0.
        3    1    3    3  502    0  0.74793870489E+03 -0.67974544388E+03 -0.17365678977E+04  0.20092621154E+04  0.10100000352E+00 0. -1.
       -3    1    3    3    0  502 -0.74793870489E+03  0.67974544388E+03  0.15724711705E+04  0.18692596842E+04  0.10100000352E+00 0.  1.
</event>
<event>
 5   0  0.2473224E-07  0.3935780E+04  0.7818609E-02  0.8017628E-01
        2   -1    0    0  501    0  0.00000000000E+00  0.00000000000E+00  0.21935121993E+04  0.21935121993E+04  0.25500000920E-02 0.  1.
       -2   -1    0    0    0  501  0.00000000000E+00  0.00000000000E+00 -0.17654753299E+04  0.17654753299E+04  0.25500000920E-02 0. -1.
    10030    2    1    2    0    0  0.00000000000E+00  0.00000000000E+00  0.42803686938E+03  0.39589875292E+04  0.39357803159E+04 0.  0.
        2    1    3    3  502    0 -0.42259995536E+03  0.89723130194E+03  0.19237397345E+04  0.21643450043E+04  0.25500000920E-02 0.  1.
       -2    1    3    3    0  502  0.42259995536E+03 -0.89723130194E+03 -0.14957028651E+04  0.17946425249E+04  0.25500000920E-02 0. -1.
</event>
<event>
 5   0  0.2384787E-07  0.3879543E+04  0.7818609E-02  0.8029297E-01
       -2   -1    0    0    0  501  0.00000000000E+00  0.00000000000E+00  0.30218549165E+04  0.30218549165E+04  0.25500000920E-02 0. -1.
        2   -1    0    0  501    0  0.00000000000E+00  0.00000000000E+00 -0.12451665813E+04  0.12451665813E+04  0.25500000920E-02 0.  1.
    10030    2    1    2    0    0  0.00000000000E+00  0.00000000000E+00  0.17766883352E+04  0.42670214978E+04  0.38795426305E+04 0.  0.
        4    1    3    3  502    0  0.39129854148E+03  0.69785541955E+03 -0.10552343546E+04  0.13242499353E+04  0.12699999809E+01 0.  1.
       -4    1    3    3    0  502 -0.39129854148E+03 -0.69785541955E+03  0.28319226898E+04  0.29427715625E+04  0.12699999809E+01 0. -1.
</event>
<event>
 5   0  0.7675750E-08  0.3902709E+04  0.7818609E-02  0.8024466E-01
       -1   -1    0    0    0  501  0.00000000000E+00  0.00000000000E+00  0.13371012521E+04  0.13371012521E+04  0.50400001928E-02 0.  1.
        1   -1    0    0  501    0  0.00000000000E+00  0.00000000000E+00 -0.28477905548E+04  0.28477905548E+04  0.50400001928E-02 0. -1.
    10030    2    1    2    0    0  0.00000000000E+00  0.00000000000E+00 -0.15106893027E+04  0.41848918069E+04  0.39027089651E+04 0.  0.
        4    1    3    3  502    0  0.48503239872E+03 -0.10210326359E+04 -0.24609554158E+04  0.27081483052E+04  0.12699999809E+01 0. -1.
       -4    1    3    3    0  502 -0.48503239872E+03  0.10210326359E+04  0.95026611303E+03  0.14767435017E+04  0.12699999809E+01 0.  1.
</event>
<event>
 5   0  0.2486268E-07  0.3905540E+04  0.7818609E-02  0.8023878E-01
        2   -1    0    0  501    0  0.00000000000E+00  0.00000000000E+00  0.24172498863E+04  0.24172498863E+04  0.25500000920E-02 0.  1.
       -2   -1    0    0    0  501  0.00000000000E+00  0.00000000000E+00 -0.15775411007E+04  0.15775411007E+04  0.25500000920E-02 0. -1.
    10030    2    1    2    0    0  0.00000000000E+00  0.00000000000E+00  0.83970878565E+03  0.39947909870E+04  0.39055401912E+04 0.  0.
        5    1    3    3  502    0 -0.25755106304E+03  0.17894100021E+04 -0.33523531483E+03  0.18386749338E+04  0.46999998093E+01 0. -1.
       -5    1    3    3    0  502  0.25755106304E+03 -0.17894100021E+04  0.11749441005E+04  0.21561160533E+04  0.46999998093E+01 0.  1.
</event>
<event>
 5   0  0.2446281E-07  0.3526291E+04  0.7818609E-02  0.8107587E-01
       -2   -1    0    0    0  501  0.00000000000E+00  0.00000000000E+00  0.18622424104E+04  0.18622424104E+04  0.25500000920E-02 0.  1.
        2   -1    0    0  501    0  0.00000000000E+00  0.00000000000E+00 -0.16693217654E+04  0.16693217654E+04  0.25500000920E-02 0. -1.
    10030    2    1    2    0    0  0.00000000000E+00  0.00000000000E+00  0.19292064497E+03  0.35315641758E+04  0.35262908491E+04 0.  0.
        1    1    3    3  502    0  0.14977651182E+04 -0.10601691604E+02  0.10280497595E+04  0.18166725223E+04  0.50400001928E-02 0.  1.
       -1    1    3    3    0  502 -0.14977651182E+04  0.10601691604E+02 -0.83512911454E+03  0.17148916535E+04  0.50400001928E-02 0. -1.
</event>
<event>
 5   0  0.7675750E-08  0.3891614E+04  0.7818609E-02  0.8026776E-01
       -1   -1    0    0    0  501  0.00000000000E+00  0.00000000000E+00  0.28468787603E+04  0.28468787603E+04  0.50400001928E-02 0.  1.
        1   -1    0    0  501    0  0.00000000000E+00  0.00000000000E+00 -0.13299354953E+04  0.13299354953E+04  0.50400001928E-02 0. -1.
    10030    2    1    2    0    0  0.00000000000E+00  0.00000000000E+00  0.15169432650E+04  0.41768142555E+04  0.38916141196E+04 0.  0.
        4    1    3    3  502    0  0.16521826263E+04 -0.83846284434E+03  0.12039790492E+03  0.18566703101E+04  0.12699999809E+01 0. -1.
       -4    1    3    3    0  502 -0.16521826263E+04  0.83846284434E+03  0.13965453601E+04  0.23201439455E+04  0.12699999809E+01 0.  1.
</event>
<event>
 5   0  0.7731706E-08  0.3861376E+04  0.7818609E-02  0.8033110E-01
       -1   -1    0    0    0  501  0.00000000000E+00  0.00000000000E+00  0.15617660289E+04  0.15617660289E+04  0.50400001928E-02 0. -1.
        1   -1    0    0  501    0  0.00000000000E+00  0.00000000000E+00 -0.23867573740E+04  0.23867573740E+04  0.50400001928E-02 0.  1.
    10030    2    1    2    0    0  0.00000000000E+00  0.00000000000E+00 -0.82499134513E+03  0.39485234029E+04  0.38613762241E+04 0.  0.
        3    1    3    3  502    0 -0.11016815850E+04  0.96146072762E+01  0.12087717687E+04  0.16355194754E+04  0.10100000352E+00 0. -1.
       -3    1    3    3    0  502  0.11016815850E+04 -0.96146072762E+01 -0.20337631138E+04  0.23130039275E+04  0.10100000352E+00 0.  1.
</event>
<event>
 5   0  0.2384787E-07  0.3655028E+04  0.7818609E-02  0.8078002E-01
        2   -1    0    0  501    0  0.00000000000E+00  0.00000000000E+00  0.19976443748E+04  0.19976443748E+04  0.25500000920E-02 0.  1.
       -2   -1    0    0    0  501  0.00000000000E+00  0.00000000000E+00 -0.16718724696E+04  0.16718724696E+04  0.25500000920E-02 0. -1.
    10030    2    1    2    0    0  0.00000000000E+00  0.00000000000E+00  0.32577190523E+03  0.36695168444E+04  0.36550275700E+04 0.  0.
        4    1    3    3  502    0  0.13003109303E+04 -0.12683454046E+04 -0.38649554057E+02  0.18168665283E+04  0.12699999809E+01 0. -1.
       -4    1    3    3    0  502 -0.13003109303E+04  0.12683454046E+04  0.36442145929E+03  0.18526503161E+04  0.12699999809E+01 0.  1.
</event>
<event>
 5   0  0.2395572E-07  0.3908482E+04  0.7818609E-02  0.8023268E-01
       -2   -1    0    0    0  501  0.00000000000E+00  0.00000000000E+00  0.12939539870E+04  0.12939539870E+04  0.25500000920E-02 0.  1.
        2   -1    0    0  501    0  0.00000000000E+00  0.00000000000E+00 -0.29514628033E+04  0.29514628033E+04  0.25500000920E-02 0. -1.
    10030    2    1    2    0    0  0.00000000000E+00  0.00000000000E+00 -0.16575088164E+04  0.42454167903E+04  0.39084815782E+04 0.  0.
        3    1    3    3  502    0  0.13878321269E+04  0.13747409057E+04 -0.76860485101E+03  0.20992246181E+04  0.10100000352E+00 0. -1.
       -3    1    3    3    0  502 -0.13878321269E+04 -0.13747409057E+04 -0.88890396535E+03  0.21461921722E+04  0.10100000352E+00 0.  1.
</event>
<event>
 5   0  0.2473224E-07  0.3833442E+04  0.7818609E-02  0.8039016E-01
        2   -1    0    0  501    0  0.00000000000E+00  0.00000000000E+00  0.15944960461E+04  0.15944960461E+04  0.25500000920E-02 0.  1.
       -2   -1    0    0    0  501  0.00000000000E+00  0.00000000000E+00 -0.23040625429E+04  0.23040625429E+04  0.25500000920E-02 0. -1.
    10030    2    1    2    0    0  0.00000000000E+00  0.00000000000E+00 -0.70956649681E+03  0.38985585891E+04  0.38334415946E+04 0.  0.
        2    1    3    3  502    0  0.16265483761E+04  0.10135027596E+04 -0.32309059081E+03  0.19435109965E+04  0.25500000920E-02 0.  1.
       -2    1    3    3    0  502 -0.16265483761E+04 -0.10135027596E+04 -0.38647590601E+03  0.19550475926E+04  0.25500000920E-02 0. -1.
</event>
<event>
 5   0  0.2473224E-07  0.3872556E+04  0.7818609E-02  0.8030761E-01
        2   -1    0    0  501    0  0.00000000000E+00  0.00000000000E+00  0.10850710483E+04  0.10850710483E+04  0.25500000920E-02 0. -1.
       -2   -1    0    0    0  501  0.00000000000E+00  0.00000000000E+00 -0.34552321123E+04  0.34552321123E+04  0.25500000920E-02 0.  1.
    10030    2    1    2    0    0  0.00000000000E+00  0.00000000000E+00 -0.23701610640E+04  0.45403031606E+04  0.38725559158E+04 0.  0.
        2    1    3    3  502    0 -0.94085459893E+03 -0.14338985242E+04 -0.22388993574E+04  0.28202735127E+04  0.25500000920E-02 0.  1.
       -2    1    3    3    0  502  0.94085459893E+03  0.14338985242E+04 -0.13126170654E+03  0.17200296479E+04  0.25500000920E-02 0. -1.
</event>
<event>
 5   0  0.2384787E-07  0.3903464E+04  0.7818609E-02  0.8024309E-01
       -2   -1    0    0    0  501  0.00000000000E+00  0.00000000000E+00  0.18955221933E+04  0.18955221933E+04  0.25500000920E-02 0. -1.
        2   -1    0    0  501    0  0.00000000000E+00  0.00000000000E+00 -0.20096088603E+04  0.20096088603E+04  0.25500000920E-02 0.  1.
    10030    2    1    2    0    0  0.00000000000E+00  0.00000000000E+00 -0.11408666702E+03  0.39051310536E+04  0.39034642022E+04 0.  0.
        4    1    3    3  502    0 -0.17837040070E+04  0.77125719351E+03  0.12419400560E+03  0.19472707585E+04  0.12699999809E+01 0. -1.
       -4    1    3    3    0  502  0.17837040070E+04 -0.77125719351E+03 -0.23828067262E+03  0.19578602950E+04  0.12699999809E+01 0.  1.
</event>
<event>
 5   0  0.2486268E-07  0.3916421E+04  0.7818609E-02  0.8021623E-01
       -2   -1    0    0    0  501  0.00000000000E+00  0.00000000000E+00  0.13142019646E+04  0.13142019646E+04  0.25500000920E-02 0. -1.
        2   -1    0    0  501    0  0.00000000000E+00  0.00000000000E+00 -0.29178078662E+04  0.29178078662E+04  0.25500000920E-02 0.  1.
    10030    2    1    2    0    0  0.00000000000E+00  0.00000000000E+00 -0.16036059016E+04  0.42320098308E+04  0.39164212389E+04 0.  0.
        5    1    3    3  502    0  0.28851068419E+03  0.16104714891E+04 -0.19644747691E+04  0.25565680199E+04  0.46999998093E+01 0. -1.
       -5    1    3    3    0  502 -0.28851068419E+03 -0.16104714891E+04  0.36086886749E+03  0.16754418109E+04  0.46999998093E+01 0.  1.
</event>
<event>
 5   0  0.2486268E-07  0.3798003E+04  0.7818609E-02  0.8046584E-01
        2   -1    0    0  501    0  0.00000000000E+00  0.00000000000E+00  0.23665972863E+04  0.23665972864E+04  0.25500000920E-02 0.  1.
       -2   -1    0    0    0  501  0.00000000000E+00  0.00000000000E+00 -0.15237940514E+04  0.15237940514E+04  0.25500000920E-02 0. -1.
    10030    2    1    2    0    0  0.00000000000E+00  0.00000000000E+00  0.84280323493E+03  0.38903913378E+04  0.37980030895E+04 0.  0.
        5    1    3    3  502    0  0.35673421006E+03  0.89814897876E+03 -0.12530663158E+04  0.15824437325E+04  0.46999998093E+01 0. -1.
       -5    1    3    3    0  502 -0.35673421006E+03 -0.89814897876E+03  0.20958695508E+04  0.23079476052E+04  0.46999998093E+01 0.  1.
</event>
<event>
 5   0  0.2395572E-07  0.3903207E+04  0.7818609E-02  0.8024363E-01
       -2   -1    0    0    0  501  0.00000000000E+00  0.00000000000E+00  0.15213466748E+04  0.15213466748E+04  0.25500000920E-02 0. -1.
        2   -1    0    0  501    0  0.00000000000E+00  0.00000000000E+00 -0.25035424709E+04  0.25035424709E+04  0.25500000920E-02 0.  1.
    10030    2    1    2    0    0  0.00000000000E+00  0.00000000000E+00 -0.98219579609E+03  0.40248891458E+04  0.39032068936E+04 0.  0.
        3    1    3    3  502    0  0.12148458001E+04  0.86803723478E+03 -0.17870255642E+04  0.23286904767E+04  0.10100000352E+00 0.  1.
       -3    1    3    3    0  502 -0.12148458001E+04 -0.86803723478E+03  0.80482976813E+03  0.16961986691E+04  0.10100000352E+00 0. -1.
</event>
<event>
 5   0  0.7675750E-08  0.3916846E+04  0.7818609E-02  0.8021535E-01
       -1   -1    0    0    0  501  0.00000000000E+00  0.00000000000E+00  0.14047124126E+04  0.14047124126E+04  0.50400001928E-02 0.  1.
        1   -1    0    0  501    0  0.00000000000E+00  0.00000000000E+00 -0.27303950439E+04  0.27303950439E+04  0.50400001928E-02 0. -1.
    10030    2    1    2    0    0  0.00000000000E+00  0.00000000000E+00 -0.13256826313E+04  0.41351074565E+04  0.39168455724E+04 0.  0.
        1    1    3    3  502    0  0.14026887830E+04 -0.12717454141E+04 -0.11912810491E+04  0.22369673127E+04  0.50400001928E-02 0. -1.
       -1    1    3    3    0  502 -0.14026887830E+04  0.12717454141E+04 -0.13440158212E+03  0.18981401438E+04  0.50400001928E-02 0.  1.
</event>
<event>
 5   0  0.7675750E-08  0.3891523E+04  0.7818609E-02  0.8026794E-01
       -1   -1    0    0    0  501  0.00000000000E+00  0.00000000000E+00  0.13293061491E+04  0.13293061491E+04  0.50400001928E-02 0.  1.
        1   -1    0    0  501    0  0.00000000000E+00  0.00000000000E+00 -0.28480937377E+04  0.28480937377E+04  0.50400001928E-02 0. -1.
    10030    2    1    2    0    0  0.00000000000E+00  0.00000000000E+00 -0.15187875886E+04  0.41773998868E+04  0.38915233617E+04 0.  0.
        1    1    3    3  502    0 -0.14119432196E+04  0.37732785903E+03 -0.21382917828E+04  0.25900292888E+04  0.50400001928E-02 0. -1.
       -1    1    3    3    0  502  0.14119432196E+04 -0.37732785903E+03  0.61950419422E+03  0.15873705979E+04  0.50400001928E-02 0.  1.
</event>
<event>
 5   0  0.2473224E-07  0.3914346E+04  0.7818609E-02  0.8022052E-01
       -2   -1    0    0    0  501  0.00000000000E+00  0.00000000000E+00  0.13332766047E+04  0.13332766047E+04  0.25500000920E-02 0.  1.
        2   -1    0    0  501    0  0.00000000000E+00  0.00000000000E+00 -0.28730162174E+04  0.28730162174E+04  0.25500000920E-02 0. -1.
    10030    2    1    2    0    0  0.00000000000E+00  0.00000000000E+00 -0.15397396127E+04  0.42062928221E+04  0.39143455686E+04 0.  0.
        2    1    3    3  502    0 -0.83974405666E+03 -0.13747270468E+04 -0.19642932940E+04  0.25403725472E+04  0.25500000920E-02 0. -1.
       -2    1    3    3    0  502  0.83974405666E+03  0.13747270468E+04  0.42455368127E+03  0.16659202749E+04  0.25500000920E-02 0.  1.
</event>
<event>
 5   0  0.2384787E-07  0.3894208E+04  0.7818609E-02  0.8026235E-01
        2   -1    0    0  501    0  0.00000000000E+00  0.00000000000E+00  0.17502700566E+04  0.17502700566E+04  0.25500000920E-02 0.  1.
       -2   -1    0    0    0  501  0.00000000000E+00  0.00000000000E+00 -0.21660732072E+04  0.21660732072E+04  0.25500000920E-02 0. -1.
    10030    2    1    2    0    0  0.00000000000E+00  0.00000000000E+00 -0.41580315055E+03  0.39163432638E+04  0.38942075317E+04 0.  0.
        4    1    3    3  502    0  0.10659472484E+03 -0.11029986384E+04 -0.18180152945E+04  0.21291194555E+04  0.12699999809E+01 0. -1.
       -4    1    3    3    0  502 -0.10659472484E+03  0.11029986384E+04  0.14022121440E+04  0.17872238084E+04  0.12699999809E+01 0.  1.
</event>
<event>
 5   0  0.7675750E-08  0.3496331E+04  0.7818609E-02  0.8114660E-01
       -1   -1    0    0    0  501  0.00000000000E+00  0.00000000000E+00  0.25623073647E+04  0.25623073647E+04  0.50400001928E-02 0.  1.
        1   -1    0    0  501    0  0.00000000000E+00  0.00000000000E+00 -0.11927070792E+04  0.11927070792E+04  0.50400001928E-02 0. -1.
    10030    2    1    2    0    0  0.00000000000E+00  0.00000000000E+00  0.13696002854E+04  0.37550144439E+04  0.34963307241E+04 0.  0.
        5    1    3    3  502    0 -0.68797660691E+03  0.13797401789E+04 -0.20022348462E+03  0.15547045721E+04  0.46999998093E+01 0. -1.
       -5    1    3    3    0  502  0.68797660691E+03 -0.13797401789E+04  0.15698237701E+04  0.22003098718E+04  0.46999998093E+01 0.  1.
</event>
<event>
 5   0  0.2446281E-07  0.3898266E+04  0.7818609E-02  0.8025390E-01
        2   -1    0    0  501    0  0.00000000000E+00  0.00000000000E+00  0.23205781347E+04  0.23205781347E+04  0.25500000920E-02 0. -1.
       -2   -1    0    0    0  501  0.00000000000E+00  0.00000000000E+00 -0.16371435825E+04  0.16371435825E+04  0.25500000920E-02 0.  1.
    10030    2    1    2    0    0  0.00000000000E+00  0.00000000000E+00  0.68343455223E+03  0.39577217172E+04  0.38982660766E+04 0.  0.
        1    1    3    3  502    0 -0.38121823276E+02  0.66577809090E+03 -0.15177201992E+04  0.16577660700E+04  0.50400001928E-02 0.  1.
       -1    1    3    3    0  502  0.38121823276E+02 -0.66577809090E+03  0.22011547514E+04  0.22999556473E+04  0.50400001928E-02 0. -1.
</event>
<event>
 5   0  0.7675750E-08  0.3772408E+04  0.7818609E-02  0.8052102E-01
        1   -1    0    0  501    0  0.00000000000E+00  0.00000000000E+00  0.16907811284E+04  0.16907811284E+04  0.50400001928E-02 0. -1.
       -1   -1    0    0    0  501  0.00000000000E+00  0.00000000000E+00 -0.21042146427E+04  0.21042146427E+04  0.50400001928E-02 0.  1.
    10030    2    1    2    0    0  0.00000000000E+00  0.00000000000E+00 -0.41343351436E+03  0.37949957711E+04  0.37724084657E+04 0.  0.
        5    1    3    3  502    0 -0.24919962592E+03 -0.34425615074E+03  0.16419838151E+04  0.16960971935E+04  0.46999998093E+01 0. -1.
       -5    1    3    3    0  502  0.24919962592E+03  0.34425615074E+03 -0.20554173294E+04  0.20988985776E+04  0.46999998093E+01 0.  1.
</event>
<event>
 5   0  0.7675750E-08  0.3966644E+04  0.7818609E-02  0.8011309E-01
       -1   -1    0    0    0  501  0.00000000000E+00  0.00000000000E+00  0.25651943542E+04  0.25651943542E+04  0.50400001928E-02 0. -1.
        1   -1    0    0  501    0  0.00000000000E+00  0.00000000000E+00 -0.15334380764E+04  0.15334380764E+04  0.50400001928E-02 0.  1.
    10030    2    1    2    0    0  0.00000000000E+00  0.00000000000E+00  0.10317562778E+04  0.40986324306E+04  0.39666442724E+04 0.  0.
        4    1    3    3  502    0 -0.19061432074E+03  0.15935950800E+04 -0.68809108270E+03  0.17462388294E+04  0.12699999809E+01 0.  1.
       -4    1    3    3    0  502  0.19061432074E+03 -0.15935950800E+04  0.17198473605E+04  0.23523936011E+04  0.12699999809E+01 0. -1.
</event>
<event>
 5   0  0.7675750E-08  0.3820455E+04  0.7818609E-02  0.8041780E-01
       -1   -1    0    0    0  501  0.00000000000E+00  0.00000000000E+00  0.26573904629E+04  0.26573904629E+04  0.50400001928E-02 0.  1.
        1   -1    0    0  501    0  0.00000000000E+00  0.00000000000E+00 -0.13731396393E+04  0.13731396393E+04  0.50400001928E-02 0. -1.
    10030    2    1    2    0    0  0.00000000000E+00  0.00000000000E+00  0.12842508236E+04  0.40305301022E+04  0.38204545183E+04 0.  0.
        1    1    3    3  502    0  0.16030112661E+04 -0.35871682768E+03  0.16707487834E+04  0.23430160860E+04  0.50400001928E-02 0.  1.
       -1    1    3    3    0  502 -0.16030112661E+04  0.35871682768E+03 -0.38649795983E+03  0.16875140162E+04  0.50400001928E-02 0. -1.
</event>
<event>
 5   0  0.7675750E-08  0.3895464E+04  0.7818609E-02  0.8025973E-01
        1   -1    0    0  501    0  0.00000000000E+00  0.00000000000E+00  0.23812796147E+04  0.23812796147E+04  0.50400001928E-02 0.  1.
       -1   -1    0    0    0  501  0.00000000000E+00  0.00000000000E+00 -0.15931181108E+04  0.15931181108E+04  0.50400001928E-02 0. -1.
    10030    2    1    2    0    0  0.00000000000E+00  0.00000000000E+00  0.78816150385E+03  0.39743977255E+04  0.38954638651E+04 0.  0.
        1    1    3    3  502    0  0.16595035703E+04  0.69539653471E+03 -0.36677230813E+03  0.18363143430E+04  0.50400001928E-02 0. -1.
       -1    1    3    3    0  502 -0.16595035703E+04 -0.69539653471E+03  0.11549338120E+04  0.21380833825E+04  0.50400001928E-02 0.  1.
</event>
<event>
 5   0  0.7675750E-08  0.3956511E+04  0.7818609E-02  0.8013378E-01
        1   -1    0    0  501    0  0.00000000000E+00  0.00000000000E+00  0.25492295512E+04  0.25492295512E+04  0.50400001928E-02 0. -1.
       -1   -1    0    0    0  501  0.00000000000E+00  0.00000000000E+00 -0.15351678317E+04  0.15351678317E+04  0.50400001928E-02 0.  1.
    10030    2    1    2    0    0  0.00000000000E+00  0.00000000000E+00  0.10140617195E+04  0.40843973828E+04  0.39565111917E+04 0.  0.
        1    1    3    3  502    0  0.10067998586E+04  0.27419497000E+03  0.22420296249E+04  0.24729588908E+04  0.50400001928E-02 0. -1.
       -1    1    3    3    0  502 -0.10067998586E+04 -0.27419497000E+03 -0.12279679054E+04  0.16114384920E+04  0.50400001928E-02 0.  1.
</event>
<event>
 5   0  0.7675750E-08  0.3954141E+04  0.7818609E-02  0.8013862E-01
        1   -1    0    0  501    0  0.00000000000E+00  0.00000000000E+00  0.17902085734E+04  0.17902085734E+04  0.50400001928E-02 0. -1.
       -1   -1    0    0    0  501  0.00000000000E+00  0.00000000000E+00 -0.21834369632E+04  0.21834369632E+04  0.50400001928E-02 0.  1.
    10030    2    1    2    0    0  0.00000000000E+00  0.00000000000E+00 -0.39322838983E+03  0.39736455366E+04  0.39541409034E+04 0.  0.
        2    1    3    3  502    0  0.75284918884E+03 -0.16981798575E+04 -0.87686593772E+03  0.20541398692E+04  0.25500000920E-02 0.  1.
       -2    1    3    3    0  502 -0.75284918884E+03  0.16981798575E+04  0.48363754790E+03  0.19195056674E+04  0.25500000920E-02 0. -1.
</event>
<event>
 5   0  0.7675750E-08  0.3851743E+04  0.7818609E-02  0.8035141E-01
        1   -1    0    0  501    0  0.00000000000E+00  0.00000000000E+00  0.15855503227E+04  0.15855503227E+04  0.50400001928E-02 0.  1.
       -1   -1    0    0    0  501  0.00000000000E+00  0.00000000000E+00 -0.23392389645E+04  0.23392389645E+04  0.50400001928E-02 0. -1.
    10030    2    1    2    0    0  0.00000000000E+00  0.00000000000E+00 -0.75368864173E+03  0.39247892872E+04  0.38517430314E+04 0.  0.
        5    1    3    3  502    0 -0.12294304203E+04  0.13846654875E+04  0.16249630967E+03  0.18588235019E+04  0.46999998093E+01 0.  1.
       -5    1    3    3    0  502  0.12294304203E+04 -0.13846654875E+04 -0.91618495140E+03  0.20659657853E+04  0.46999998093E+01 0. -1.
</event>
<event>
 5   0  0.2395572E-07  0.3838797E+04  0.7818609E-02  0.8037880E-01
       -2   -1    0    0    0  501  0.00000000000E+00  0.00000000000E+00  0.21231532357E+04  0.21231532357E+04  0.25500000920E-02 0. -1.
        2   -1    0    0  501    0  0.00000000000E+00  0.00000000000E+00 -0.17351980661E+04  0.17351980661E+04  0.25500000920E-02 0.  1.
    10030    2    1    2    0    0  0.00000000000E+00  0.00000000000E+00  0.38795516954E+03  0.38583513018E+04  0.38387974099E+04 0.  0.
        3    1    3    3  502    0  0.12356556844E+03 -0.74081151201E+02 -0.17297558219E+04  0.17357452809E+04  0.10100000352E+00 0.  1.
       -3    1    3    3    0  502 -0.12356556844E+03  0.74081151201E+02  0.21177109914E+04  0.21226060209E+04  0.10100000352E+00 0. -1.
</event>
<event>
 5   0  0.7731706E-08  0.3926851E+04  0.7818609E-02  0.8019468E-01
        1   -1    0    0  501    0  0.00000000000E+00  0.00000000000E+00  0.18139437888E+04  0.18139437888E+04  0.50400001928E-02 0. -1.
       -1   -1    0    0    0  501  0.00000000000E+00  0.00000000000E+00 -0.21252254179E+04  0.21252254179E+04  0.50400001928E-02 0.  1.
    10030    2    1    2    0    0  0.00000000000E+00  0.00000000000E+00 -0.31128162907E+03  0.39391692068E+04  0.39268508740E+04 0.  0.
        3    1    3    3  502    0  0.28941909518E+03 -0.13925946769E+04 -0.15133843928E+04  0.20768764232E+04  0.10100000352E+00 0.  1.
       -3    1    3    3    0  502 -0.28941909518E+03  0.13925946769E+04  0.12021027637E+04  0.18622927835E+04  0.10100000352E+00 0. -1.
</event>
<event>
 5   0  0.7675750E-08  0.3932915E+04  0.7818609E-02  0.8018218E-01
       -1   -1    0    0    0  501  0.00000000000E+00  0.00000000000E+00  0.26594871926E+04  0.26594871926E+04  0.50400001928E-02 0. -1.
        1   -1    0    0  501    0  0.00000000000E+00  0.00000000000E+00 -0.14540230502E+04  0.14540230502E+04  0.50400001928E-02 0.  1.
    10030    2    1    2    0    0  0.00000000000E+00  0.00000000000E+00  0.12054641424E+04  0.41135102429E+04  0.39329152953E+04 0.  0.
        2    1    3    3  502    0 -0.17836118739E+04 -0.17062311482E+03  0.14502310967E+04  0.23051147038E+04  0.25500000920E-02 0. -1.
       -2    1    3    3    0  502  0.17836118739E+04  0.17062311482E+03 -0.24476695428E+03  0.18083955391E+04  0.25500000920E-02 0.  1.
</event>
<event>
 5   0  0.2486268E-07  0.3887543E+04  0.7818609E-02  0.8027625E-01
       -2   -1    0    0    0  501  0.00000000000E+00  0.00000000000E+00  0.14465338269E+04  0.14465338269E+04  0.25500000920E-02 0.  1.
        2   -1    0    0  501    0  0.00000000000E+00  0.00000000000E+00 -0.26119317393E+04  0.26119317393E+04  0.25500000920E-02 0. -1.
    10030    2    1    2    0    0  0.00000000000E+00  0.00000000000E+00 -0.11653979124E+04  0.40584655662E+04  0.38875429847E+04 0.  0.
        5    1    3    3  502    0  0.42440151950E+03 -0.14507254098E+04 -0.18585205620E+04  0.23955879515E+04  0.46999998093E+01 0. -1.
       -5    1    3    3    0  502 -0.42440151950E+03  0.14507254098E+04  0.69312264952E+03  0.16628776147E+04  0.46999998093E+01 0.  1.
</event>
<event>
 5   0  0.2395572E-07  0.3518589E+04  0.7818609E-02  0.8109399E-01
        2   -1    0    0  501    0  0.00000000000E+00  0.00000000000E+00  0.17683510122E+04  0.17683510122E+04  0.25500000920E-02 0.  1.
       -2   -1    0    0    0  501  0.00000000000E+00  0.00000000000E+00 -0.17502841224E+04  0.17502841224E+04  0.25500000920E-02 0. -1.
    10030    2    1    2    0    0  0.00000000000E+00  0.00000000000E+00  0.18066889794E+02  0.35186351347E+04  0.35185887510E+04 0.  0.
        3    1    3    3  502    0  0.11301377414E+04 -0.57357610868E+03  0.12292609146E+04  0.17655829840E+04  0.10100000352E+00 0.  1.
       -3    1    3    3    0  502 -0.11301377414E+04  0.57357610868E+03 -0.12111940248E+04  0.17530521507E+04  0.10100000352E+00 0. -1.
</event>
<event>
 5   0  0.7675750E-08  0.3899412E+04  0.7818609E-02  0.8025152E-01
        1   -1    0    0  501    0  0.00000000000E+00  0.00000000000E+00  0.17087846017E+04  0.17087846017E+04  0.50400001928E-02 0.  1.
       -1   -1    0    0    0  501  0.00000000000E+00  0.00000000000E+00 -0.22245948783E+04  0.22245948783E+04  0.50400001928E-02 0. -1.
    10030    2    1    2    0    0  0.00000000000E+00  0.00000000000E+00 -0.51581027657E+03  0.39333794800E+04  0.38994119932E+04 0.  0.
        1    1    3    3  502    0  0.15959239681E+04 -0.49666833639E+03  0.75468224111E+03  0.18339024056E+04  0.50400001928E-02 0.  1.
       -1    1    3    3    0  502 -0.15959239681E+04  0.49666833639E+03 -0.12704925177E+04  0.20994770744E+04  0.50400001928E-02 0. -1.
</event>
<event>
 5   0  0.2384787E-07  0.3829601E+04  0.7818609E-02  0.8039832E-01
       -2   -1    0    0    0  501  0.00000000000E+00  0.00000000000E+00  0.18008970055E+04  0.18008970055E+04  0.25500000920E-02 0. -1.
        2   -1    0    0  501    0  0.00000000000E+00  0.00000000000E+00 -0.20359084350E+04  0.20359084350E+04  0.25500000920E-02 0.  1.
    10030    2    1    2    0    0  0.00000000000E+00  0.00000000000E+00 -0.23501142954E+03  0.38368054405E+04  0.38296012346E+04 0.  0.
        4    1    3    3  502    0  0.24849467849E+03 -0.18568143904E+04 -0.51442077895E+03  0.19427145020E+04  0.12699999809E+01 0. -1.
       -4    1    3    3    0  502 -0.24849467849E+03  0.18568143904E+04  0.27940934941E+03  0.18940909384E+04  0.12699999809E+01 0.  1.
</event>
<event>
 5   0  0.2446281E-07  0.3955395E+04  0.7818609E-02  0.8013606E-01
        2   -1    0    0  501    0  0.00000000000E+00  0.00000000000E+00  0.15554329408E+04  0.15554329408E+04  0.25500000920E-02 0.  1.
       -2   -1    0    0    0  501  0.00000000000E+00  0.00000000000E+00 -0.25145972231E+04  0.25145972231E+04  0.25500000920E-02 0. -1.
    10030    2    1    2    0    0  0.00000000000E+00  0.00000000000E+00 -0.95916428224E+03  0.40700301639E+04  0.39553949758E+04 0.  0.
        1    1    3    3  502    0 -0.50566418794E+03 -0.11331193652E+04  0.11050606646E+04  0.16615699923E+04  0.50400001928E-02 0.  1.
       -1    1    3    3    0  502  0.50566418794E+03  0.11331193652E+04 -0.20642249469E+04  0.24084601716E+04  0.50400001928E-02 0. -1.
</event>
<event>
 5   0  0.2395572E-07  0.3910549E+04  0.7818609E-02  0.8022839E-01
       -2   -1    0    0    0  501  0.00000000000E+00  0.00000000000E+00  0.22499323841E+04  0.22499323841E+04  0.25500000920E-02 0.  1.
        2   -1    0    0  501    0  0.00000000000E+00  0.00000000000E+00 -0.16992057251E+04  0.16992057251E+04  0.25500000920E-02 0. -1.
    10030    2    1    2    0    0  0.00000000000E+00  0.00000000000E+00  0.55072665902E+03  0.39491381091E+04  0.39105488045E+04 0.  0.
        3    1    3    3  502    0 -0.18011479048E+04  0.43624468458E+03  0.90493708762E+03  0.20623661999E+04  0.10100000352E+00 0.  1.
       -3    1    3    3    0  502  0.18011479048E+04 -0.43624468458E+03 -0.35421042860E+03  0.18867719093E+04  0.10100000352E+00 0. -1.
</event>
<event>
 5   0  0.7675750E-08  0.3995989E+04  0.7818609E-02  0.8005356E-01
       -1   -1    0    0    0  501  0.00000000000E+00  0.00000000000E+00  0.15796136343E+04  0.15796136343E+04  0.50400001928E-02 0.  1.
        1   -1    0    0  501    0  0.00000000000E+00  0.00000000000E+00 -0.25271887358E+04  0.25271887358E+04  0.50400001928E-02 0. -1.
    10030    2    1    2    0    0  0.00000000000E+00  0.00000000000E+00 -0.94757510144E+03  0.41068023701E+04  0.39959888806E+04 0.  0.
        5    1    3    3  502    0  0.15088131139E+04 -0.11699774159E+04 -0.10788371948E+04  0.21930061444E+04  0.46999998093E+01 0. -1.
       -5    1    3    3    0  502 -0.15088131139E+04  0.11699774159E+04  0.13126209340E+03  0.19137962257E+04  0.46999998093E+01 0.  1.
</event>
<event>
 5   0  0.7675750E-08  0.3806182E+04  0.7818609E-02  0.8044830E-01
        1   -1    0    0  501    0  0.00000000000E+00  0.00000000000E+00  0.14822326691E+04  0.14822326691E+04  0.50400001928E-02 0. -1.
       -1   -1    0    0    0  501  0.00000000000E+00  0.00000000000E+00 -0.24434457218E+04  0.24434457218E+04  0.50400001928E-02 0.  1.
    10030    2    1    2    0    0  0.00000000000E+00  0.00000000000E+00 -0.96121305275E+03  0.39256783909E+04  0.38061818528E+04 0.  0.
        2    1    3    3  502    0 -0.10415462751E+04  0.64400017407E+03 -0.19831199452E+04  0.23307337009E+04  0.25500000920E-02 0.  1.
       -2    1    3    3    0  502  0.10415462751E+04 -0.64400017407E+03  0.10219068924E+04  0.15949446900E+04  0.25500000920E-02 0. -1.
</event>
<event>
 5   0  0.7731706E-08  0.3892679E+04  0.7818609E-02  0.8026554E-01
        1   -1    0    0  501    0  0.00000000000E+00  0.00000000000E+00  0.25678776454E+04  0.25678776454E+04  0.50400001928E-02 0. -1.
       -1   -1    0    0    0  501  0.00000000000E+00  0.00000000000E+00 -0.14752406857E+04  0.14752406857E+04  0.50400001928E-02 0.  1.
    10030    2    1    2    0    0  0.00000000000E+00  0.00000000000E+00  0.10926369596E+04  0.40431183311E+04  0.38926790664E+04 0.  0.
        3    1    3    3  502    0  0.19210142942E+04 -0.55245036003E+02  0.86626489062E+03  0.21080234352E+04  0.10100000352E+00 0.  1.
       -3    1    3    3    0  502 -0.19210142942E+04  0.55245036003E+02  0.22637206901E+03  0.19350948959E+04  0.10100000352E+00 0. -1.
</event>
<event>
 5   0  0.2473224E-07  0.3905480E+04  0.7818609E-02  0.8023890E-01
       -2   -1    0    0    0  501  0.00000000000E+00  0.00000000000E+00  0.18707685310E+04  0.18707685310E+04  0.25500000920E-02 0. -1.
        2   -1    0    0  501    0  0.00000000000E+00  0.00000000000E+00 -0.20383035835E+04  0.20383035835E+04  0.25500000920E-02 0.  1.
    10030    2    1    2    0    0  0.00000000000E+00  0.00000000000E+00 -0.16753505248E+03  0.39090721145E+04  0.39054803549E+04 0.  0.
        2    1    3    3  502    0  0.70487595698E+03  0.15234850797E+04 -0.10823509762E+04  0.19973333569E+04  0.25500000920E-02 0.  1.
       -2    1    3    3    0  502 -0.70487595698E+03 -0.15234850797E+04  0.91481592371E+03  0.19117387576E+04  0.25500000920E-02 0. -1.
</event>
<event>
 5   0  0.2384787E-07  0.3888280E+04  0.7818609E-02  0.8027471E-01
       -2   -1    0    0    0  501  0.00000000000E+00  0.00000000000E+00  0.16332982537E+04  0.16332982537E+04  0.25500000920E-02 0. -1.
        2   -1    0    0  501    0  0.00000000000E+00  0.00000000000E+00 -0.23141396102E+04  0.23141396102E+04  0.25500000920E-02 0.  1.
    10030    2    1    2    0    0  0.00000000000E+00  0.00000000000E+00 -0.68084135653E+03  0.39474378639E+04  0.38882799201E+04 0.  0.
        4    1    3    3  502    0 -0.50237153029E+03  0.17400418357E+04 -0.10579667553E+04  0.20974789660E+04  0.12699999809E+01 0.  1.
       -4    1    3    3    0  502  0.50237153029E+03 -0.17400418357E+04  0.37712539882E+03  0.18499588979E+04  0.12699999809E+01 0. -1.
</event>
<event>
 5   0  0.7675750E-08  0.3338778E+04  0.7818609E-02  0.8153098E-01
        1   -1    0    0  501    0  0.00000000000E+00  0.00000000000E+00  0.17041322224E+04  0.17041322224E+04  0.50400001928E-02 0. -1.
       -1   -1    0    0    0  501  0.00000000000E+00  0.00000000000E+00 -0.16353545984E+04  0.16353545984E+04  0.50400001928E-02 0.  1.
    10030    2    1    2    0    0  0.00000000000E+00  0.00000000000E+00  0.68777623964E+02  0.33394868208E+04  0.33387784989E+04 0.  0.
        2    1    3    3  502    0 -0.16632263822E+03 -0.11980394477E+04 -0.11164632714E+04  0.16460413040E+04  0.25500000920E-02 0.  1.
       -2    1    3    3    0  502  0.16632263822E+03  0.11980394477E+04  0.11852408954E+04  0.16934455167E+04  0.25500000920E-02 0. -1.
</event>
<event>
 5   0  0.7675750E-08  0.3857268E+04  0.7818609E-02  0.8033976E-01
        1   -1    0    0  501    0  0.00000000000E+00  0.00000000000E+00  0.25780103821E+04  0.25780103821E+04  0.50400001928E-02 0.  1.
       -1   -1    0    0    0  501  0.00000000000E+00  0.00000000000E+00 -0.14428292726E+04  0.14428292726E+04  0.50400001928E-02 0. -1.
    10030    2    1    2    0    0  0.00000000000E+00  0.00000000000E+00  0.11351811095E+04  0.40208396546E+04  0.38572678643E+04 0.  0.
        5    1    3    3  502    0  0.16039441525E+03  0.12025613148E+03  0.25671143174E+04  0.25749341572E+04  0.46999998093E+01 0.  1.
       -5    1    3    3    0  502 -0.16039441525E+03 -0.12025613148E+03 -0.14319332079E+04  0.14459054974E+04  0.46999998093E+01 0. -1.
</event>
<event>
 5   0  0.7675750E-08  0.3938992E+04  0.7818609E-02  0.8016968E-01
       -1   -1    0    0    0  501  0.00000000000E+00  0.00000000000E+00  0.19906389457E+04  0.19906389457E+04  0.50400001928E-02 0. -1.
        1   -1    0    0  501    0  0.00000000000E+00  0.00000000000E+00 -0.19485778605E+04  0.19485778605E+04  0.50400001928E-02 0.  1.
    10030    2    1    2    0    0  0.00000000000E+00  0.00000000000E+00  0.42061085223E+02  0.39392168062E+04  0.39389922457E+04 0.  0.
        2    1    3    3  502    0 -0.19510232887E+04  0.58883022112E+02  0.28364005727E+03  0.19724124227E+04  0.25500000920E-02 0. -1.
       -2    1    3    3    0  502  0.19510232887E+04 -0.58883022112E+02 -0.24157897205E+03  0.19668043835E+04  0.25500000920E-02 0.  1.
</event>
<event>
 5   0  0.2473224E-07  0.3914909E+04  0.7818609E-02  0.8021936E-01
        2   -1    0    0  501    0  0.00000000000E+00  0.00000000000E+00  0.14202674791E+04  0.14202674791E+04  0.25500000920E-02 0. -1.
       -2   -1    0    0    0  501  0.00000000000E+00  0.00000000000E+00 -0.26978217123E+04  0.26978217123E+04  0.25500000920E-02 0.  1.
    10030    2    1    2    0    0  0.00000000000E+00  0.00000000000E+00 -0.12775542332E+04  0.41180891914E+04  0.39149091649E+04 0.  0.
        2    1    3    3  502    0  0.11500942249E+04  0.11577887815E+04  0.49826534168E+03  0.17063000731E+04  0.25500000920E-02 0. -1.
       -2    1    3    3    0  502 -0.11500942249E+04 -0.11577887815E+04 -0.17758195749E+04  0.24117891183E+04  0.25500000920E-02 0.  1.
</event>
<event>
 5   0  0.2395572E-07  0.3955643E+04  0.7818609E-02  0.8013555E-01
        2   -1    0    0  501    0  0.00000000000E+00  0.00000000000E+00  0.17164502824E+04  0.17164502824E+04  0.25500000920E-02 0.  1.
       -2   -1    0    0    0  501  0.00000000000E+00  0.00000000000E+00 -0.22789932392E+04  0.22789932392E+04  0.25500000920E-02 0. -1.
    10030    2    1    2    0    0  0.00000000000E+00  0.00000000000E+00 -0.56254295680E+03  0.39954435217E+04  0.39556433556E+04 0.  0.
        3    1    3    3  502    0  0.47510623199E+03 -0.46855006871E+03  0.15993193529E+04  0.17329418632E+04  0.10100000352E+00 0.  1.
       -3    1    3    3    0  502 -0.47510623199E+03  0.46855006871E+03 -0.21618623097E+04  0.22625016585E+04  0.10100000352E+00 0. -1.
</event>
<event>
 5   0  0.2473224E-07  0.3850149E+04  0.7818609E-02  0.8035478E-01
       -2   -1    0    0    0  501  0.00000000000E+00  0.00000000000E+00  0.24693403117E+04  0.24693403117E+04  0.25500000920E-02 0.  1.
        2   -1    0    0  501    0  0.00000000000E+00  0.00000000000E+00 -0.15007703053E+04  0.15007703053E+04  0.25500000920E-02 0. -1.
    10030    2    1    2    0    0  0.00000000000E+00  0.00000000000E+00  0.96857000637E+03  0.39701106171E+04  0.38501494068E+04 0.  0.
        2    1    3    3  502    0 -0.36743789594E+03  0.18328111238E+04  0.95873558442E+03  0.21008048800E+04  0.25500000920E-02 0.  1.
       -2    1    3    3    0  502  0.36743789594E+03 -0.18328111238E+04  0.98344219490E+01  0.18693057371E+04  0.25500000920E-02 0. -1.
</event>
<event>
 5   0  0.7731706E-08  0.3915819E+04  0.7818609E-02  0.8021747E-01
       -1   -1    0    0    0  501  0.00000000000E+00  0.00000000000E+00  0.23045333554E+04  0.23045333554E+04  0.50400001928E-02 0.  1.
        1   -1    0    0  501    0  0.00000000000E+00  0.00000000000E+00 -0.16634211408E+04  0.16634211408E+04  0.50400001928E-02 0. -1.
    10030    2    1    2    0    0  0.00000000000E+00  0.00000000000E+00  0.64111221459E+03  0.39679544961E+04  0.39158189452E+04 0.  0.
        3    1    3    3  502    0  0.47247844409E+03  0.18687243051E+04 -0.27592252995E+02  0.19277260571E+04  0.10100000352E+00 0. -1.
       -3    1    3    3    0  502 -0.47247844409E+03 -0.18687243051E+04  0.66870446759E+03  0.20402284391E+04  0.10100000352E+00 0.  1.
</event>
<event>
 5   0  0.7675750E-08  0.3928511E+04  0.7818609E-02  0.8019125E-01
        1   -1    0    0  501    0  0.00000000000E+00  0.00000000000E+00  0.29452297015E+04  0.29452297015E+04  0.50400001928E-02 0. -1.
       -1   -1    0    0    0  501  0.00000000000E+00  0.00000000000E+00 -0.13100168466E+04  0.13100168466E+04  0.50400001928E-02 0.  1.
    10030    2    1    2    0    0  0.00000000000E+00  0.00000000000E+00  0.16352128549E+04  0.42552465481E+04  0.39285114362E+04 0.  0.
        5    1    3    3  502    0  0.19250886519E+04  0.60456667119E+02  0.39997848455E+03  0.19671365495E+04  0.46999998093E+01 0. -1.
       -5    1    3    3    0  502 -0.19250886519E+04 -0.60456667119E+02  0.12352343703E+04  0.22881099986E+04  0.46999998093E+01 0.  1.
</event>
<event>
 5   0  0.2486268E-07  0.3906137E+04  0.7818609E-02  0.8023754E-01
       -2   -1    0    0    0  501  0.00000000000E+00  0.00000000000E+00  0.14906931938E+04  0.14906931938E+04  0.25500000920E-02 0. -1.
        2   -1    0    0  501    0  0.00000000000E+00  0.00000000000E+00 -0.25588606085E+04  0.25588606085E+04  0.25500000920E-02 0.  1.
    10030    2    1    2    0    0  0.00000000000E+00  0.00000000000E+00 -0.10681674147E+04  0.40495538023E+04  0.39061367580E+04 0.  0.
        5    1    3    3  502    0  0.90096873414E+03 -0.92552701790E+03  0.98466396480E+03  0.16241705989E+04  0.46999998093E+01 0. -1.
       -5    1    3    3    0  502 -0.90096873414E+03  0.92552701790E+03 -0.20528313795E+04  0.24253832034E+04  0.46999998093E+01 0.  1.
</event>
<event>
 5   0  0.7675750E-08  0.3741753E+04  0.7818609E-02  0.8058771E-01
        1   -1    0    0  501    0  0.00000000000E+00  0.00000000000E+00  0.16276688161E+04  0.16276688161E+04  0.50400001928E-02 0.  1.
       -1   -1    0    0    0  501  0.00000000000E+00  0.00000000000E+00 -0.21504239631E+04  0.21504239631E+04  0.50400001928E-02 0. -1.
    10030    2    1    2    0    0  0.00000000000E+00  0.00000000000E+00 -0.52275514699E+03  0.37780927793E+04  0.37417525446E+04 0.  0.
        5    1    3    3  502    0  0.78717812995E+03  0.13533694070E+04  0.77272623701E+03  0.17459627967E+04  0.46999998093E+01 0.  1.
       -5    1    3    3    0  502 -0.78717812995E+03 -0.13533694070E+04 -0.12954813840E+04  0.20321299826E+04  0.46999998093E+01 0. -1.
</event>
<event>
 5   0  0.7675750E-08  0.3867037E+04  0.7818609E-02  0.8031920E-01
        1   -1    0    0  501    0  0.00000000000E+00  0.00000000000E+00  0.21713623850E+04  0.21713623850E+04  0.50400001928E-02 0.  1.
       -1   -1    0    0    0  501  0.00000000000E+00  0.00000000000E+00 -0.17217271525E+04  0.17217271526E+04  0.50400001928E-02 0. -1.
    10030    2    1    2    0    0  0.00000000000E+00  0.00000000000E+00  0.44963523249E+03  0.38930895376E+04  0.38670368896E+04 0.  0.
        2    1    3    3  502    0  0.10039295641E+04  0.24108446235E+03 -0.14209735003E+04  0.17564629163E+04  0.25500000920E-02 0.  1.
       -2    1    3    3    0  502 -0.10039295641E+04 -0.24108446235E+03  0.18706087328E+04  0.21366266213E+04  0.25500000920E-02 0. -1.
</event>
<event>
 5   0  0.2486268E-07  0.3789718E+04  0.7818609E-02  0.8048365E-01
       -2   -1    0    0    0  501  0.00000000000E+00  0.00000000000E+00  0.24629184165E+04  0.24629184165E+04  0.25500000920E-02 0.  1.
        2   -1    0    0  501    0  0.00000000000E+00  0.00000000000E+00 -0.14578198535E+04  0.14578198535E+04  0.25500000920E-02 0. -1.
    10030    2    1    2    0    0  0.00000000000E+00  0.00000000000E+00  0.10050985630E+04  0.39207382699E+04  0.37897183880E+04 0.  0.
        5    1    3    3  502    0 -0.81460556765E+03 -0.92257565439E+03 -0.98800403847E+03  0.15782592116E+04  0.46999998093E+01 0. -1.
       -5    1    3    3    0  502  0.81460556765E+03  0.92257565439E+03  0.19931026014E+04  0.23424790583E+04  0.46999998093E+01 0.  1.
</event>
<event>
 5   0  0.7675750E-08  0.3868547E+04  0.7818609E-02  0.8031603E-01
       -1   -1    0    0    0  501  0.00000000000E+00  0.00000000000E+00  0.14811608822E+04  0.14811608822E+04  0.50400001928E-02 0.  1.
        1   -1    0    0  501    0  0.00000000000E+00  0.00000000000E+00 -0.25260012282E+04  0.25260012282E+04  0.50400001928E-02 0. -1.
    10030    2    1    2    0    0  0.00000000000E+00  0.00000000000E+00 -0.10448403460E+04  0.40071621103E+04  0.38685471213E+04 0.  0.
        1    1    3    3  502    0  0.10283525007E+04  0.32886517488E+03  0.11400012676E+04  0.15701159381E+04  0.50400001928E-02 0. -1.
       -1    1    3    3    0  502 -0.10283525007E+04 -0.32886517488E+03 -0.21848416136E+04  0.24370461722E+04  0.50400001928E-02 0.  1.
</event>
<event>
 5   0  0.2395572E-07  0.3905564E+04  0.7818609E-02  0.8023873E-01
       -2   -1    0    0    0  501  0.00000000000E+00  0.00000000000E+00  0.15627452739E+04  0.15627452739E+04  0.25500000920E-02 0.  1.
        2   -1    0    0  501    0  0.00000000000E+00  0.00000000000E+00 -0.24401656673E+04  0.24401656673E+04  0.25500000920E-02 0. -1.
    10030    2    1    2    0    0  0.00000000000E+00  0.00000000000E+00 -0.87742039331E+03  0.40029109412E+04  0.39055639102E+04 0.  0.
        3    1    3    3  502    0  0.11541718117E+04 -0.23986463384E+03  0.11569208686E+04  0.16517001907E+04  0.10100000352E+00 0.  1.
       -3    1    3    3    0  502 -0.11541718117E+04  0.23986463384E+03 -0.20343412619E+04  0.23512107505E+04  0.10100000352E+00 0. -1.
</event>
<event>
 5   0  0.2446281E-07  0.3919458E+04  0.7818609E-02  0.8020994E-01
       -2   -1    0    0    0  501  0.00000000000E+00  0.00000000000E+00  0.16928839992E+04  0.16928839992E+04  0.25500000920E-02 0. -1.
        2   -1    0    0  501    0  0.00000000000E+00  0.00000000000E+00 -0.22686364859E+04  0.22686364859E+04  0.25500000920E-02 0.  1.
    10030    2    1    2    0    0  0.00000000000E+00  0.00000000000E+00 -0.57575248671E+03  0.39615204851E+04  0.39194583334E+04 0.  0.
        1    1    3    3  502    0  0.64271960112E+03  0.10144042296E+04 -0.18531840035E+04  0.22082561848E+04  0.50400001928E-02 0.  1.
       -1    1    3    3    0  502 -0.64271960112E+03 -0.10144042296E+04  0.12774315168E+04  0.17532643003E+04  0.50400001928E-02 0. -1.
</event>
<event>
 5   0  0.2395572E-07  0.3853513E+04  0.7818609E-02  0.8034768E-01
        2   -1    0    0  501    0  0.00000000000E+00  0.00000000000E+00  0.19656658326E+04  0.19656658326E+04  0.25500000920E-02 0. -1.
       -2   -1    0    0    0  501  0.00000000000E+00  0.00000000000E+00 -0.18886177920E+04  0.18886177920E+04  0.25500000920E-02 0.  1.
    10030    2    1    2    0    0  0.00000000000E+00  0.00000000000E+00  0.77048040615E+02  0.38542836245E+04  0.38535134433E+04 0.  0.
        3    1    3    3  502    0 -0.19242110023E+04  0.81576048166E+02 -0.17601552406E+02  0.19260198488E+04  0.10100000352E+00 0.  1.
       -3    1    3    3    0  502  0.19242110023E+04 -0.81576048166E+02  0.94649593021E+02  0.19282637757E+04  0.10100000352E+00 0. -1.
</event>
<event>
 5   0  0.7675750E-08  0.3878849E+04  0.7818609E-02  0.8029443E-01
       -1   -1    0    0    0  501  0.00000000000E+00  0.00000000000E+00  0.16709089308E+04  0.16709089308E+04  0.50400001928E-02 0.  1.
        1   -1    0    0  501    0  0.00000000000E+00  0.00000000000E+00 -0.22510904662E+04  0.22510904662E+04  0.50400001928E-02 0. -1.
    10030    2    1    2    0    0  0.00000000000E+00  0.00000000000E+00 -0.58018153538E+03  0.39219993970E+04  0.38788488829E+04 0.  0.
        2    1    3    3  502    0 -0.26498490556E+03  0.19248721956E+03 -0.22229258836E+04  0.22469240783E+04  0.25500000920E-02 0. -1.
       -2    1    3    3    0  502  0.26498490556E+03 -0.19248721956E+03  0.16427443482E+04  0.16750753187E+04  0.25500000920E-02 0.  1.
</event>
<event>
 5   0  0.2384787E-07  0.3891534E+04  0.7818609E-02  0.8026792E-01
        2   -1    0    0  501    0  0.00000000000E+00  0.00000000000E+00  0.27670526234E+04  0.27670526234E+04  0.25500000920E-02 0. -1.
       -2   -1    0    0    0  501  0.00000000000E+00  0.00000000000E+00 -0.13682463825E+04  0.13682463825E+04  0.25500000920E-02 0.  1.
    10030    2    1    2    0    0  0.00000000000E+00  0.00000000000E+00  0.13988062409E+04  0.41352990059E+04  0.38915342693E+04 0.  0.
        4    1    3    3  502    0 -0.11290642671E+04 -0.53747626264E+03 -0.88472912475E+03  0.15318009301E+04  0.12699999809E+01 0.  1.
       -4    1    3    3    0  502  0.11290642671E+04  0.53747626264E+03  0.22835353656E+04  0.26034980759E+04  0.12699999809E+01 0. -1.
</event>
<event>
 5   0  0.7675750E-08  0.3918055E+04  0.7818609E-02  0.8021285E-01
        1   -1    0    0  501    0  0.00000000000E+00  0.00000000000E+00  0.23495300953E+04  0.23495300953E+04  0.50400001928E-02 0. -1.
       -1   -1    0    0    0  501  0.00000000000E+00  0.00000000000E+00 -0.16334281944E+04  0.16334281944E+04  0.50400001928E-02 0.  1.
    10030    2    1    2    0    0  0.00000000000E+00  0.00000000000E+00  0.71610190090E+03  0.39829582897E+04  0.39180549773E+04 0.  0.
        5    1    3    3  502    0  0.15783408624E+04  0.58570638069E+02 -0.82010214579E+03  0.17796572752E+04  0.46999998093E+01 0.  1.
       -5    1    3    3    0  502 -0.15783408624E+04 -0.58570638069E+02  0.15362040467E+04  0.22033010145E+04  0.46999998093E+01 0. -1.
</event>
<event>
 5   0  0.7675750E-08  0.3853160E+04  0.7818609E-02  0.8034842E-01
       -1   -1    0    0    0  501  0.00000000000E+00  0.00000000000E+00  0.16308370908E+04  0.16308370908E+04  0.50400001928E-02 0.  1.
        1   -1    0    0  501    0  0.00000000000E+00  0.00000000000E+00 -0.22759543541E+04  0.22759543541E+04  0.50400001928E-02 0. -1.
    10030    2    1    2    0    0  0.00000000000E+00  0.00000000000E+00 -0.64511726329E+03  0.39067914448E+04  0.38531601459E+04 0.  0.
        2    1    3    3  502    0  0.79413920929E+03  0.12426804223E+04  0.93437316217E+03  0.17458421813E+04  0.25500000920E-02 0.  1.
       -2    1    3    3    0  502 -0.79413920929E+03 -0.12426804223E+04 -0.15794904255E+04  0.21609492636E+04  0.25500000920E-02 0. -1.
</event>
<event>
 5   0  0.7675750E-08  0.3772467E+04  0.7818609E-02  0.8052089E-01
       -1   -1    0    0    0  501  0.00000000000E+00  0.00000000000E+00  0.32709915865E+04  0.32709915865E+04  0.50400001928E-02 0.  1.
        1   -1    0    0  501    0  0.00000000000E+00  0.00000000000E+00 -0.10877056128E+04  0.10877056128E+04  0.50400001928E-02 0. -1.
    10030    2    1    2    0    0  0.00000000000E+00  0.00000000000E+00  0.21832859737E+04  0.43586971993E+04  0.37724665183E+04 0.  0.
        2    1    3    3  502    0  0.22828286508E+03 -0.62406035517E+03  0.31312746139E+04  0.32010068886E+04  0.25500000920E-02 0.  1.
       -2    1    3    3    0  502 -0.22828286508E+03  0.62406035517E+03 -0.94798864020E+03  0.11576903106E+04  0.25500000920E-02 0. -1.
</event>
<event>
 5   0  0.7731706E-08  0.3202913E+04  0.7818609E-02  0.8188048E-01
       -1   -1    0    0    0  501  0.00000000000E+00  0.00000000000E+00  0.14879791892E+04  0.14879791892E+04  0.50400001928E-02 0. -1.
        1   -1    0    0  501    0  0.00000000000E+00  0.00000000000E+00 -0.17235882472E+04  0.17235882472E+04  0.50400001928E-02 0.  1.
    10030    2    1    2    0    0  0.00000000000E+00  0.00000000000E+00 -0.23560905800E+03  0.32115674364E+04  0.32029133254E+04 0.  0.
        3    1    3    3  502    0  0.79865613564E+03  0.47667435664E+03  0.11894024962E+04  0.15098835629E+04  0.10100000352E+00 0. -1.
       -3    1    3    3    0  502 -0.79865613564E+03 -0.47667435664E+03 -0.14250115542E+04  0.17016838735E+04  0.10100000352E+00 0.  1.
</event>
<event>
 5   0  0.7675750E-08  0.3896061E+04  0.7818609E-02  0.8025849E-01
       -1   -1    0    0    0  501  0.00000000000E+00  0.00000000000E+00  0.15417279180E+04  0.15417279180E+04  0.50400001928E-02 0.  1.
        1   -1    0    0  501    0  0.00000000000E+00  0.00000000000E+00 -0.24614086183E+04  0.24614086183E+04  0.50400001928E-02 0. -1.
    10030    2    1    2    0    0  0.00000000000E+00  0.00000000000E+00 -0.91968070024E+03  0.40031365363E+04  0.38960607718E+04 0.  0.
        5    1    3    3  502    0  0.10642611752E+04 -0.10985597163E+04 -0.16993593340E+04  0.22863353943E+04  0.46999998093E+01 0. -1.
       -5    1    3    3    0  502 -0.10642611752E+04  0.10985597163E+04  0.77967863371E+03  0.17168011420E+04  0.46999998093E+01 0.  1.
</event>
<event>
 5   0  0.2486268E-07  0.3888170E+04  0.7818609E-02  0.8027494E-01
        2   -1    0    0  501    0  0.00000000000E+00  0.00000000000E+00  0.26460679587E+04  0.26460679587E+04  0.25500000920E-02 0. -1.
       -2   -1    0    0    0  501  0.00000000000E+00  0.00000000000E+00 -0.14283329486E+04  0.14283329486E+04  0.25500000920E-02 0.  1.
    10030    2    1    2    0    0  0.00000000000E+00  0.00000000000E+00  0.12177350101E+04  0.40744009072E+04  0.38881697749E+04 0.  0.
        5    1    3    3  502    0 -0.13506859727E+04 -0.76187206080E+03 -0.61974065624E+03  0.16700006601E+04  0.46999998093E+01 0.  1.
       -5    1    3    3    0  502  0.13506859727E+04  0.76187206080E+03  0.18374756663E+04  0.24044002471E+04  0.46999998093E+01 0. -1.
</event>
<event>
 5   0  0.7731706E-08  0.3903191E+04  0.7818609E-02  0.8024366E-01
        1   -1    0    0  501    0  0.00000000000E+00  0.00000000000E+00  0.19793945946E+04  0.19793945946E+04  0.50400001928E-02 0.  1.
       -1   -1    0    0    0  501  0.00000000000E+00  0.00000000000E+00 -0.19241863470E+04  0.19241863470E+04  0.50400001928E-02 0. -1.
    10030    2    1    2    0    0  0.00000000000E+00  0.00000000000E+00  0.55208247584E+02  0.39035809416E+04  0.39031905177E+04 0.  0.
        3    1    3    3  502    0 -0.69770050746E+03  0.32953879429E+03  0.18203631992E+04  0.19771454176E+04  0.10100000352E+00 0.  1.
       -3    1    3    3    0  502  0.69770050746E+03 -0.32953879429E+03 -0.17651549516E+04  0.19264355241E+04  0.10100000352E+00 0. -1.
</event>
<event>
 5   0  0.7675750E-08  0.3879722E+04  0.7818609E-02  0.8029260E-01
       -1   -1    0    0    0  501  0.00000000000E+00  0.00000000000E+00  0.32470403499E+04  0.32470403499E+04  0.50400001928E-02 0.  1.
        1   -1    0    0  501    0  0.00000000000E+00  0.00000000000E+00 -0.11589202939E+04  0.11589202939E+04  0.50400001928E-02 0. -1.
    10030    2    1    2    0    0  0.00000000000E+00  0.00000000000E+00  0.20881200560E+04  0.44059606438E+04  0.38797221326E+04 0.  0.
        5    1    3    3  502    0  0.17110760637E+04 -0.39855223710E+02  0.71600822075E+01  0.17115615944E+04  0.46999998093E+01 0.  1.
       -5    1    3    3    0  502 -0.17110760637E+04  0.39855223710E+02  0.20809599738E+04  0.26943990494E+04  0.46999998093E+01 0. -1.
</event>
<event>
 5   0  0.7675750E-08  0.4009896E+04  0.7818609E-02  0.8002553E-01
        1   -1    0    0  501    0  0.00000000000E+00  0.00000000000E+00  0.22585493577E+04  0.22585493577E+04  0.50400001928E-02 0. -1.
       -1   -1    0    0    0  501  0.00000000000E+00  0.00000000000E+00 -0.17798219945E+04  0.17798219945E+04  0.50400001928E-02 0.  1.
    10030    2    1    2    0    0  0.00000000000E+00  0.00000000000E+00  0.47872736318E+03  0.40383713522E+04  0.40098956707E+04 0.  0.
        4    1    3    3  502    0  0.99631287648E+03 -0.94008101999E+02 -0.15103100320E+04  0.18117711988E+04  0.12699999809E+01 0.  1.
       -4    1    3    3    0  502 -0.99631287648E+03  0.94008101999E+02  0.19890373952E+04  0.22266001534E+04  0.12699999809E+01 0. -1.
</event>
<event>
 5   0  0.7675750E-08  0.3899698E+04  0.7818609E-02  0.8025092E-01
        1   -1    0    0  501    0  0.00000000000E+00  0.00000000000E+00  0.19097552428E+04  0.19097552428E+04  0.50400001928E-02 0.  1.
       -1   -1    0    0    0  501  0.00000000000E+00  0.00000000000E+00 -0.19907844720E+04  0.19907844721E+04  0.50400001928E-02 0. -1.
    10030    2    1    2    0    0  0.00000000000E+00  0.00000000000E+00 -0.81029229212E+02  0.39005397149E+04  0.38996979795E+04 0.  0.
        2    1    3    3  502    0  0.11444253912E+04 -0.68363852591E+03 -0.14637904753E+04  0.19798367775E+04  0.25500000920E-02 0. -1.
       -2    1    3    3    0  502 -0.11444253912E+04  0.68363852591E+03  0.13827612460E+04  0.19207029374E+04  0.25500000920E-02 0.  1.
</event>
<event>
 5   0  0.2473224E-07  0.3960501E+04  0.7818609E-02  0.8012562E-01
       -2   -1    0    0    0  501  0.00000000000E+00  0.00000000000E+00  0.14746505683E+04  0.14746505683E+04  0.25500000920E-02 0.  1.
        2   -1    0    0  501    0  0.00000000000E+00  0.00000000000E+00 -0.26592008193E+04  0.26592008193E+04  0.25500000920E-02 0. -1.
    10030    2    1    2    0    0  0.00000000000E+00  0.00000000000E+00 -0.11845502510E+04  0.41338513876E+04  0.39605009781E+04 0.  0.
        2    1    3    3  502    0 -0.14778156218E+04 -0.11734582371E+04 -0.12189272243E+04  0.22464921154E+04  0.25500000920E-02 0.  1.
       -2    1    3    3    0  502  0.14778156218E+04  0.11734582371E+04  0.34376973310E+02  0.18873592722E+04  0.25500000920E-02 0. -1.
</event>
<event>
 5   0  0.2395572E-07  0.3873898E+04  0.7818609E-02  0.8030480E-01
        2   -1    0    0  501    0  0.00000000000E+00  0.00000000000E+00  0.11984172404E+04  0.11984172404E+04  0.25500000920E-02 0. -1.
       -2   -1    0    0    0  501  0.00000000000E+00  0.00000000000E+00 -0.31306060537E+04  0.31306060537E+04  0.25500000920E-02 0.  1.
    10030    2    1    2    0    0  0.00000000000E+00  0.00000000000E+00 -0.19321888133E+04  0.43290232941E+04  0.38738984332E+04 0.  0.
        3    1    3    3  502    0 -0.28133787327E+03  0.44618840776E+03 -0.30487989647E+04  0.30940927962E+04  0.10100000352E+00 0.  1.
       -3    1    3    3    0  502  0.28133787327E+03 -0.44618840776E+03  0.11166101514E+04  0.12349304979E+04  0.10100000352E+00 0. -1.
</event>
<event>
 5   0  0.2384787E-07  0.3905175E+04  0.7818609E-02  0.8023954E-01
        2   -1    0    0  501    0  0.00000000000E+00  0.00000000000E+00  0.15228800304E+04  0.15228800304E+04  0.25500000920E-02 0. -1.
       -2   -1    0    0    0  501  0.00000000000E+00  0.00000000000E+00 -0.25035444008E+04  0.25035444008E+04  0.25500000920E-02 0.  1.
    10030    2    1    2    0    0  0.00000000000E+00  0.00000000000E+00 -0.98066437036E+03  0.40264244311E+04  0.39051749119E+04 0.  0.
        4    1    3    3  502    0  0.59470435193E+03  0.14845403748E+04 -0.16454114436E+04  0.22945400023E+04  0.12699999809E+01 0.  1.
       -4    1    3    3    0  502 -0.59470435193E+03 -0.14845403748E+04  0.66474707328E+03  0.17318844288E+04  0.12699999809E+01 0. -1.
</event>
<event>
 5   0  0.7675750E-08  0.3925555E+04  0.7818609E-02  0.8019735E-01
        1   -1    0    0  501    0  0.00000000000E+00  0.00000000000E+00  0.24085325372E+04  0.24085325372E+04  0.50400001928E-02 0.  1.
       -1   -1    0    0    0  501  0.00000000000E+00  0.00000000000E+00 -0.15995201310E+04  0.15995201310E+04  0.50400001928E-02 0. -1.
    10030    2    1    2    0    0  0.00000000000E+00  0.00000000000E+00  0.80901240614E+03  0.40080526682E+04  0.39255553897E+04 0.  0.
        5    1    3    3  502    0  0.18739583834E+04  0.96828069531E+02 -0.18324627457E+03  0.18853904065E+04  0.46999998093E+01 0. -1.
       -5    1    3    3    0  502 -0.18739583834E+04 -0.96828069531E+02  0.99225868071E+03  0.21226622617E+04  0.46999998093E+01 0.  1.
</event>
<event>
 5   0  0.2446281E-07  0.3900636E+04  0.7818609E-02  0.8024897E-01
        2   -1    0    0  501    0  0.00000000000E+00  0.00000000000E+00  0.31708880358E+04  0.31708880358E+04  0.25500000920E-02 0.  1.
       -2   -1    0    0    0  501  0.00000000000E+00  0.00000000000E+00 -0.11995820338E+04  0.11995820338E+04  0.25500000920E-02 0. -1.
    10030    2    1    2    0    0  0.00000000000E+00  0.00000000000E+00  0.19713060019E+04  0.43704700696E+04  0.39006360091E+04 0.  0.
        1    1    3    3  502    0  0.40800235717E+03  0.65021713316E+03 -0.10232034519E+04  0.12791378142E+04  0.50400001928E-02 0. -1.
       -1    1    3    3    0  502 -0.40800235717E+03 -0.65021713316E+03  0.29945094539E+04  0.30913322554E+04  0.50400001928E-02 0.  1.
</event>
<event>
 5   0  0.2486268E-07  0.3938460E+04  0.7818609E-02  0.8017077E-01
        2   -1    0    0  501    0  0.00000000000E+00  0.00000000000E+00  0.12233326802E+04  0.12233326802E+04  0.25500000920E-02 0.  1.
       -2   -1    0    0    0  501  0.00000000000E+00  0.00000000000E+00 -0.31699206713E+04  0.31699206713E+04  0.25500000920E-02 0. -1.
    10030    2    1    2    0    0  0.00000000000E+00  0.00000000000E+00 -0.19465879911E+04  0.43932533515E+04  0.39384603848E+04 0.  0.
        5    1    3    3  502    0 -0.12375630476E+04  0.12246322703E+03  0.72987419794E+03  0.14419771058E+04  0.46999998093E+01 0.  1.
       -5    1    3    3    0  502  0.12375630476E+04 -0.12246322703E+03 -0.26764621890E+04  0.29512762457E+04  0.46999998093E+01 0. -1.
</event>
<event>
 5   0  0.7675750E-08  0.3813537E+04  0.7818609E-02  0.8043256E-01
       -1   -1    0    0    0  501  0.00000000000E+00  0.00000000000E+00  0.14671834019E+04  0.14671834019E+04  0.50400001928E-02 0.  1.
        1   -1    0    0  501    0  0.00000000000E+00  0.00000000000E+00 -0.24780588402E+04  0.24780588402E+04  0.50400001928E-02 0. -1.
    10030    2    1    2    0    0  0.00000000000E+00  0.00000000000E+00 -0.10108754383E+04  0.39452422421E+04  0.38135373602E+04 0.  0.
        4    1    3    3  502    0  0.12941605935E+04  0.61512970528E+03  0.79599435675E+03  0.16391597924E+04  0.12699999809E+01 0.  1.
       -4    1    3    3    0  502 -0.12941605935E+04 -0.61512970528E+03 -0.18068697950E+04  0.23060824498E+04  0.12699999809E+01 0. -1.
</event>
<event>
 5   0  0.7675750E-08  0.3891997E+04  0.7818609E-02  0.8026696E-01
        1   -1    0    0  501    0  0.00000000000E+00  0.00000000000E+00  0.19924886679E+04  0.19924886679E+04  0.50400001928E-02 0.  1.
       -1   -1    0    0    0  501  0.00000000000E+00  0.00000000000E+00 -0.19005926714E+04  0.19005926714E+04  0.50400001928E-02 0. -1.
    10030    2    1    2    0    0  0.00000000000E+00  0.00000000000E+00  0.91895996490E+02  0.38930813394E+04  0.38919965880E+04 0.  0.
        2    1    3    3  502    0  0.65838248109E+03 -0.13337739342E+04 -0.12091881481E+04  0.19169132417E+04  0.25500000920E-02 0. -1.
       -2    1    3    3    0  502 -0.65838248109E+03  0.13337739342E+04  0.13010841446E+04  0.19761680976E+04  0.25500000920E-02 0.  1.
</event>
<event>
 5   0  0.7675750E-08  0.3914856E+04  0.7818609E-02  0.8021947E-01
        1   -1    0    0  501    0  0.00000000000E+00  0.00000000000E+00  0.13518526363E+04  0.13518526363E+04  0.50400001928E-02 0.  1.
       -1   -1    0    0    0  501  0.00000000000E+00  0.00000000000E+00 -0.28342761564E+04  0.28342761564E+04  0.50400001928E-02 0. -1.
    10030    2    1    2    0    0  0.00000000000E+00  0.00000000000E+00 -0.14824235201E+04  0.41861287926E+04  0.39148556519E+04 0.  0.
        2    1    3    3  502    0 -0.55445639003E+03  0.98076997706E+03 -0.24528133168E+04  0.26991896568E+04  0.25500000920E-02 0. -1.
       -2    1    3    3    0  502  0.55445639003E+03 -0.98076997706E+03  0.97038979664E+03  0.14869391359E+04  0.25500000920E-02 0.  1.
</event>
<event>
 5   0  0.7675750E-08  0.4195935E+04  0.7818609E-02  0.7966146E-01
        1   -1    0    0  501    0  0.00000000000E+00  0.00000000000E+00  0.21637563886E+04  0.21637563886E+04  0.50400001928E-02 0.  1.
       -1   -1    0    0    0  501  0.00000000000E+00  0.00000000000E+00 -0.20341786127E+04  0.20341786127E+04  0.50400001928E-02 0. -1.
    10030    2    1    2    0    0  0.00000000000E+00  0.00000000000E+00  0.12957777590E+03  0.41979350014E+04  0.41959346844E+04 0.  0.
        5    1    3    3  502    0 -0.13781473633E+04 -0.10388270290E+04  0.12582503288E+04  0.21358061080E+04  0.46999998093E+01 0.  1.
       -5    1    3    3    0  502  0.13781473633E+04  0.10388270290E+04 -0.11286725529E+04  0.20621288933E+04  0.46999998093E+01 0. -1.
</event>
<event>
 5   0  0.7675750E-08  0.3755397E+04  0.7818609E-02  0.8055795E-01
        1   -1    0    0  501    0  0.00000000000E+00  0.00000000000E+00  0.18640795929E+04  0.18640795929E+04  0.50400001928E-02 0. -1.
       -1   -1    0    0    0  501  0.00000000000E+00  0.00000000000E+00 -0.18914165461E+04  0.18914165461E+04  0.50400001928E-02 0.  1.
    10030    2    1    2    0    0  0.00000000000E+00  0.00000000000E+00 -0.27336953230E+02  0.37554961390E+04  0.37553966423E+04 0.  0.
        2    1    3    3  502    0  0.12591677634E+04  0.22761805194E+03 -0.13879092191E+04  0.18877514228E+04  0.25500000920E-02 0.  1.
       -2    1    3    3    0  502 -0.12591677634E+04 -0.22761805194E+03  0.13605722659E+04  0.18677447161E+04  0.25500000920E-02 0. -1.
</event>
<event>
 5   0  0.2473224E-07  0.3915337E+04  0.7818609E-02  0.8021847E-01
        2   -1    0    0  501    0  0.00000000000E+00  0.00000000000E+00  0.21040487447E+04  0.21040487447E+04  0.25500000920E-02 0. -1.
       -2   -1    0    0    0  501  0.00000000000E+00  0.00000000000E+00 -0.18214720263E+04  0.18214720263E+04  0.25500000920E-02 0.  1.
    10030    2    1    2    0    0  0.00000000000E+00  0.00000000000E+00  0.28257671833E+03  0.39255207710E+04  0.39153369870E+04 0.  0.
        2    1    3    3  502    0 -0.60750921919E+03 -0.11948208319E+04  0.15718147181E+04  0.20657361351E+04  0.25500000920E-02 0. -1.
       -2    1    3    3    0  502  0.60750921919E+03  0.11948208319E+04 -0.12892379998E+04  0.18597846359E+04  0.25500000920E-02 0.  1.
</event>
<event>
 5   0  0.2473224E-07  0.3870676E+04  0.7818609E-02  0.8031156E-01
       -2   -1    0    0    0  501  0.00000000000E+00  0.00000000000E+00  0.15080828894E+04  0.15080828894E+04  0.25500000920E-02 0. -1.
        2   -1    0    0  501    0  0.00000000000E+00  0.00000000000E+00 -0.24836391417E+04  0.24836391417E+04  0.25500000920E-02 0.  1.
    10030    2    1    2    0    0  0.00000000000E+00  0.00000000000E+00 -0.97555625228E+03  0.39917220312E+04  0.38706762682E+04 0.  0.
        2    1    3    3  502    0  0.15859573366E+04 -0.69359692696E+03 -0.13804076759E+04  0.22140150683E+04  0.25500000920E-02 0.  1.
       -2    1    3    3    0  502 -0.15859573366E+04  0.69359692696E+03  0.40485142366E+03  0.17777069629E+04  0.25500000920E-02 0. -1.
</event>
<event>
 5   0  0.2395572E-07  0.3846147E+04  0.7818609E-02  0.8036324E-01
        2   -1    0    0  501    0  0.00000000000E+00  0.00000000000E+00  0.13489532649E+04  0.13489532649E+04  0.25500000920E-02 0. -1.
       -2   -1    0    0    0  501  0.00000000000E+00  0.00000000000E+00 -0.27415417277E+04  0.27415417277E+04  0.25500000920E-02 0.  1.
    10030    2    1    2    0    0  0.00000000000E+00  0.00000000000E+00 -0.13925884628E+04  0.40904949926E+04  0.38461469886E+04 0.  0.
        3    1    3    3  502    0  0.13463686906E+03  0.14727511911E+04  0.61106499877E+03  0.16001636167E+04  0.10100000352E+00 0.  1.
       -3    1    3    3    0  502 -0.13463686906E+03 -0.14727511911E+04 -0.20036534616E+04  0.24903313759E+04  0.10100000352E+00 0. -1.
</event>
<event>
 5   0  0.7675750E-08  0.3911737E+04  0.7818609E-02  0.8022592E-01
       -1   -1    0    0    0  501  0.00000000000E+00  0.00000000000E+00  0.16979409499E+04  0.16979409499E+04  0.50400001928E-02 0. -1.
        1   -1    0    0  501    0  0.00000000000E+00  0.00000000000E+00 -0.22529773539E+04  0.22529773539E+04  0.50400001928E-02 0.  1.
    10030    2    1    2    0    0  0.00000000000E+00  0.00000000000E+00 -0.55503640397E+03  0.39509183038E+04  0.39117374699E+04 0.  0.
        1    1    3    3  502    0  0.91225213203E+03 -0.13305964148E+04  0.83932946620E+03  0.18185611687E+04  0.50400001928E-02 0. -1.
       -1    1    3    3    0  502 -0.91225213203E+03  0.13305964148E+04 -0.13943658702E+04  0.21323571351E+04  0.50400001928E-02 0.  1.
</event>
<event>
 5   0  0.7675750E-08  0.3884780E+04  0.7818609E-02  0.8028202E-01
        1   -1    0    0  501    0  0.00000000000E+00  0.00000000000E+00  0.20640816090E+04  0.20640816090E+04  0.50400001928E-02 0. -1.
       -1   -1    0    0    0  501  0.00000000000E+00  0.00000000000E+00 -0.18278728670E+04  0.18278728670E+04  0.50400001928E-02 0.  1.
    10030    2    1    2    0    0  0.00000000000E+00  0.00000000000E+00  0.23620874199E+03  0.38919544760E+04  0.38847799260E+04 0.  0.
        2    1    3    3  502    0 -0.37959981310E+03  0.18309024281E+04 -0.40877472747E+03  0.19140001299E+04  0.25500000920E-02 0.  1.
       -2    1    3    3    0  502  0.37959981310E+03 -0.18309024281E+04  0.64498346946E+03  0.19779543461E+04  0.25500000920E-02 0. -1.
</event>
<event>
 5   0  0.7675750E-08  0.3698132E+04  0.7818609E-02  0.8068376E-01
       -1   -1    0    0    0  501  0.00000000000E+00  0.00000000000E+00  0.15440553051E+04  0.15440553051E+04  0.50400001928E-02 0. -1.
        1   -1    0    0  501    0  0.00000000000E+00  0.00000000000E+00 -0.22143286534E+04  0.22143286534E+04  0.50400001928E-02 0.  1.
    10030    2    1    2    0    0  0.00000000000E+00  0.00000000000E+00 -0.67027334829E+03  0.37583839585E+04  0.36981324501E+04 0.  0.
        2    1    3    3  502    0  0.50121685215E+03  0.14593059051E+04  0.70041186119E+03  0.16945113847E+04  0.25500000920E-02 0. -1.
       -2    1    3    3    0  502 -0.50121685215E+03 -0.14593059051E+04 -0.13706852095E+04  0.20638725738E+04  0.25500000920E-02 0.  1.
</event>
<event>
 5   0  0.2395572E-07  0.3912390E+04  0.7818609E-02  0.8022457E-01
       -2   -1    0    0    0  501  0.00000000000E+00  0.00000000000E+00  0.15256828751E+04  0.15256828751E+04  0.25500000920E-02 0.  1.
        2   -1    0    0  501    0  0.00000000000E+00  0.00000000000E+00 -0.25081876069E+04  0.25081876069E+04  0.25500000920E-02 0. -1.
    10030    2    1    2    0    0  0.00000000000E+00  0.00000000000E+00 -0.98250473185E+03  0.40338704820E+04  0.39123900007E+04 0.  0.
        3    1    3    3  502    0 -0.95753504581E+03  0.15939475609E+04  0.13519584655E+03  0.18643551481E+04  0.10100000352E+00 0.  1.
       -3    1    3    3    0  502  0.95753504581E+03 -0.15939475609E+04 -0.11177005784E+04  0.21695153339E+04  0.10100000352E+00 0. -1.
</event>
<event>
 5   0  0.2473224E-07  0.3849933E+04  0.7818609E-02  0.8035524E-01
        2   -1    0    0  501    0  0.00000000000E+00  0.00000000000E+00  0.14524320876E+04  0.14524320876E+04  0.25500000920E-02 0.  1.
       -2   -1    0    0    0  501  0.00000000000E+00  0.00000000000E+00 -0.25512352292E+04  0.25512352292E+04  0.25500000920E-02 0. -1.
    10030    2    1    2    0    0  0.00000000000E+00  0.00000000000E+00 -0.10988031415E+04  0.40036673168E+04  0.38499329397E+04 0.  0.
        2    1    3    3  502    0  0.60149553439E+03  0.11888734996E+04  0.89542208044E+03  0.16053030176E+04  0.25500000920E-02 0.  1.
       -2    1    3    3    0  502 -0.60149553439E+03 -0.11888734996E+04 -0.19942252220E+04  0.23983642992E+04  0.25500000920E-02 0. -1.
</event>
<event>
 5   0  0.2473224E-07  0.3751338E+04  0.7818609E-02  0.8056679E-01
        2   -1    0    0  501    0  0.00000000000E+00  0.00000000000E+00  0.22063258892E+04  0.22063258892E+04  0.25500000920E-02 0. -1.
       -2   -1    0    0    0  501  0.00000000000E+00  0.00000000000E+00 -0.15945665135E+04  0.15945665135E+04  0.25500000920E-02 0.  1.
    10030    2    1    2    0    0  0.00000000000E+00  0.00000000000E+00  0.61175937572E+03  0.38008924026E+04  0.37513375645E+04 0.  0.
        2    1    3    3  502    0  0.19620748350E+03  0.14219309327E+04 -0.91744212688E+03  0.17035507067E+04  0.25500000920E-02 0.  1.
       -2    1    3    3    0  502 -0.19620748350E+03 -0.14219309327E+04  0.15292015026E+04  0.20973416960E+04  0.25500000920E-02 0. -1.
</event>
<event>
 5   0  0.7675750E-08  0.3569195E+04  0.7818609E-02  0.8097585E-01
        1   -1    0    0  501    0  0.00000000000E+00  0.00000000000E+00  0.13517808728E+04  0.13517808728E+04  0.50400001928E-02 0. -1.
       -1   -1    0    0    0  501  0.00000000000E+00  0.00000000000E+00 -0.23559940262E+04  0.23559940262E+04  0.50400001928E-02 0.  1.
    10030    2    1    2    0    0  0.00000000000E+00  0.00000000000E+00 -0.10042131534E+04  0.37077748990E+04  0.35691946772E+04 0.  0.
        4    1    3    3  502    0 -0.17670915491E+04  0.38604997203E+02 -0.24620249390E+03  0.17845784291E+04  0.12699999809E+01 0. -1.
       -4    1    3    3    0  502  0.17670915491E+04 -0.38604997203E+02 -0.75801065952E+03  0.19231964698E+04  0.12699999809E+01 0.  1.
</event>
<event>
 5   0  0.2446281E-07  0.3860712E+04  0.7818609E-02  0.8033250E-01
        2   -1    0    0  501    0  0.00000000000E+00  0.00000000000E+00  0.27739034693E+04  0.27739034693E+04  0.25500000920E-02 0. -1.
       -2   -1    0    0    0  501  0.00000000000E+00  0.00000000000E+00 -0.13433325913E+04  0.13433325913E+04  0.25500000920E-02 0.  1.
    10030    2    1    2    0    0  0.00000000000E+00  0.00000000000E+00  0.14305708779E+04  0.41172360606E+04  0.38607123361E+04 0.  0.
        1    1    3    3  502    0 -0.15399560275E+04  0.11068433746E+04  0.10993656179E+04  0.21920701595E+04  0.50400001928E-02 0. -1.
       -1    1    3    3    0  502  0.15399560275E+04 -0.11068433746E+04  0.33120526007E+03  0.19251659011E+04  0.50400001928E-02 0.  1.
</event>
<event>
 5   0  0.2395572E-07  0.3878445E+04  0.7818609E-02  0.8029527E-01
        2   -1    0    0  501    0  0.00000000000E+00  0.00000000000E+00  0.20184631924E+04  0.20184631924E+04  0.25500000920E-02 0. -1.
       -2   -1    0    0    0  501  0.00000000000E+00  0.00000000000E+00 -0.18630927397E+04  0.18630927397E+04  0.25500000920E-02 0.  1.
    10030    2    1    2    0    0  0.00000000000E+00  0.00000000000E+00  0.15537045264E+03  0.38815559321E+04  0.38784451107E+04 0.  0.
        3    1    3    3  502    0 -0.15432549409E+04  0.11742778099E+04  0.82152143003E+02  0.19409567673E+04  0.10100000352E+00 0.  1.
       -3    1    3    3    0  502  0.15432549409E+04 -0.11742778099E+04  0.73218309638E+02  0.19405991649E+04  0.10100000352E+00 0. -1.
</event>
<event>
 5   0  0.7675750E-08  0.3914331E+04  0.7818609E-02  0.8022055E-01
        1   -1    0    0  501    0  0.00000000000E+00  0.00000000000E+00  0.21187054090E+04  0.21187054090E+04  0.50400001928E-02 0. -1.
       -1   -1    0    0    0  501  0.00000000000E+00  0.00000000000E+00 -0.18079421392E+04  0.18079421392E+04  0.50400001928E-02 0.  1.
    10030    2    1    2    0    0  0.00000000000E+00  0.00000000000E+00  0.31076326975E+03  0.39266475482E+04  0.39143309975E+04 0.  0.
        2    1    3    3  502    0  0.13825877657E+04 -0.13848045191E+04  0.19105056226E+03  0.19661466891E+04  0.25500000920E-02 0. -1.
       -2    1    3    3    0  502 -0.13825877657E+04  0.13848045191E+04  0.11971270749E+03  0.19605008590E+04  0.25500000920E-02 0.  1.
</event>
<event>
 5   0  0.2395572E-07  0.3824897E+04  0.7818609E-02  0.8040833E-01
       -2   -1    0    0    0  501  0.00000000000E+00  0.00000000000E+00  0.14626971795E+04  0.14626971795E+04  0.25500000920E-02 0.  1.
        2   -1    0    0  501    0  0.00000000000E+00  0.00000000000E+00 -0.25004891499E+04  0.25004891499E+04  0.25500000920E-02 0. -1.
    10030    2    1    2    0    0  0.00000000000E+00  0.00000000000E+00 -0.10377919703E+04  0.39631863294E+04  0.38248965617E+04 0.  0.
        3    1    3    3  502    0  0.12839303935E+04 -0.13510141279E+04 -0.96304530490E+03  0.20978972088E+04  0.10100000352E+00 0. -1.
       -3    1    3    3    0  502 -0.12839303935E+04  0.13510141279E+04 -0.74746665450E+02  0.18652891206E+04  0.10100000352E+00 0.  1.
</event>
<event>
 5   0  0.2473224E-07  0.3897722E+04  0.7818609E-02  0.8025503E-01
        2   -1    0    0  501    0  0.00000000000E+00  0.00000000000E+00  0.18650776127E+04  0.18650776127E+04  0.25500000920E-02 0.  1.
       -2   -1    0    0    0  501  0.00000000000E+00  0.00000000000E+00 -0.20364077290E+04  0.20364077290E+04  0.25500000920E-02 0. -1.
    10030    2    1    2    0    0  0.00000000000E+00  0.00000000000E+00 -0.17133011622E+03  0.39014853417E+04  0.38977216246E+04 0.  0.
        2    1    3    3  502    0 -0.10860678390E+04  0.10240388555E+03  0.15308335403E+04  0.18797556317E+04  0.25500000920E-02 0.  1.
       -2    1    3    3    0  502  0.10860678390E+04 -0.10240388555E+03 -0.17021636565E+04  0.20217297100E+04  0.25500000920E-02 0. -1.
</event>
<event>
 5   0  0.2395572E-07  0.3918979E+04  0.7818609E-02  0.8021093E-01
       -2   -1    0    0    0  501  0.00000000000E+00  0.00000000000E+00  0.14093895279E+04  0.14093895279E+04  0.25500000920E-02 0. -1.
        2   -1    0    0  501    0  0.00000000000E+00  0.00000000000E+00 -0.27243000173E+04  0.27243000173E+04  0.25500000920E-02 0.  1.
    10030    2    1    2    0    0  0.00000000000E+00  0.00000000000E+00 -0.13149104894E+04  0.41336895452E+04  0.39189794157E+04 0.  0.
        3    1    3    3  502    0 -0.88915527524E+03 -0.68117551956E+03  0.10384257598E+04  0.15273916527E+04  0.10100000352E+00 0. -1.
       -3    1    3    3    0  502  0.88915527524E+03  0.68117551956E+03 -0.23533362493E+04  0.26062978925E+04  0.10100000352E+00 0.  1.
</event>
<event>
 5   0  0.7675750E-08  0.3964312E+04  0.7818609E-02  0.8011785E-01
        1   -1    0    0  501    0  0.00000000000E+00  0.00000000000E+00  0.18069765170E+04  0.18069765170E+04  0.50400001928E-02 0.  1.
       -1   -1    0    0    0  501  0.00000000000E+00  0.00000000000E+00 -0.21743187242E+04  0.21743187242E+04  0.50400001928E-02 0. -1.
    10030    2    1    2    0    0  0.00000000000E+00  0.00000000000E+00 -0.36734220722E+03  0.39812952412E+04  0.39643122355E+04 0.  0.
        5    1    3    3  502    0 -0.47844104727E+03  0.15173431925E+04  0.10036306786E+04  0.18810988354E+04  0.46999998093E+01 0.  1.
       -5    1    3    3    0  502  0.47844104727E+03 -0.15173431925E+04 -0.13709728858E+04  0.21001964058E+04  0.46999998093E+01 0. -1.
</event>
<event>
 5   0  0.7675750E-08  0.3766137E+04  0.7818609E-02  0.8053461E-01
        3   -1    0    0  501    0  0.00000000000E+00  0.00000000000E+00  0.16857242085E+04  0.16857242115E+04  0.10100000352E+00 0.  1.
       -3   -1    0    0    0  501  0.00000000000E+00  0.00000000000E+00 -0.21035150487E+04  0.21035150511E+04  0.10100000352E+00 0. -1.
    10030    2    1    2    0    0  0.00000000000E+00  0.00000000000E+00 -0.41779084017E+03  0.37892392626E+04  0.37661366151E+04 0.  0.
        2    1    3    3  502    0  0.18031198174E+04  0.43328770341E+03  0.12016886363E+03  0.18583379309E+04  0.25500000920E-02 0. -1.
       -2    1    3    3    0  502 -0.18031198174E+04 -0.43328770341E+03 -0.53795970380E+03  0.19309013317E+04  0.25500000920E-02 0.  1.
</event>
<event>
 5   0  0.2446281E-07  0.3922930E+04  0.7818609E-02  0.8020277E-01
       -2   -1    0    0    0  501  0.00000000000E+00  0.00000000000E+00  0.17330027014E+04  0.17330027014E+04  0.25500000920E-02 0. -1.
        2   -1    0    0  501    0  0.00000000000E+00  0.00000000000E+00 -0.22200457744E+04  0.22200457744E+04  0.25500000920E-02 0.  1.
    10030    2    1    2    0    0  0.00000000000E+00  0.00000000000E+00 -0.48704307306E+03  0.39530484758E+04  0.39229301927E+04 0.  0.
        1    1    3    3  502    0 -0.15787173562E+04  0.13731636307E+03 -0.14083117511E+04  0.21200344956E+04  0.50400001928E-02 0.  1.
       -1    1    3    3    0  502  0.15787173562E+04 -0.13731636307E+03  0.92126867802E+03  0.18330139802E+04  0.50400001928E-02 0. -1.
</event>
<event>
 5   0  0.7675750E-08  0.3850734E+04  0.7818609E-02  0.8035354E-01
       -1   -1    0    0    0  501  0.00000000000E+00  0.00000000000E+00  0.20964387718E+04  0.20964387718E+04  0.50400001928E-02 0.  1.
        1   -1    0    0  501    0  0.00000000000E+00  0.00000000000E+00 -0.17682551767E+04  0.17682551767E+04  0.50400001928E-02 0. -1.
    10030    2    1    2    0    0  0.00000000000E+00  0.00000000000E+00  0.32818359504E+03  0.38646939485E+04  0.38507343252E+04 0.  0.
        4    1    3    3  502    0 -0.93077416576E+03 -0.16453419548E+04  0.53085659660E+03  0.19634920512E+04  0.12699999809E+01 0.  1.
       -4    1    3    3    0  502  0.93077416576E+03  0.16453419548E+04 -0.20267300156E+03  0.19012018973E+04  0.12699999809E+01 0. -1.
</event>
<event>
 5   0  0.2473224E-07  0.3862554E+04  0.7818609E-02  0.8032863E-01
        2   -1    0    0  501    0  0.00000000000E+00  0.00000000000E+00  0.14479463781E+04  0.14479463781E+04  0.25500000920E-02 0. -1.
       -2   -1    0    0    0  501  0.00000000000E+00  0.00000000000E+00 -0.25759449278E+04  0.25759449278E+04  0.25500000920E-02 0.  1.
    10030    2    1    2    0    0  0.00000000000E+00  0.00000000000E+00 -0.11279985497E+04  0.40238913058E+04  0.38625536259E+04 0.  0.
        2    1    3    3  502    0  0.15441254499E+04  0.52335584082E+03 -0.16424223280E+04  0.23142549221E+04  0.25500000920E-02 0.  1.
       -2    1    3    3    0  502 -0.15441254499E+04 -0.52335584082E+03  0.51442377826E+03  0.17096363838E+04  0.25500000920E-02 0. -1.
</event>
<event>
 5   0  0.7675750E-08  0.3764597E+04  0.7818609E-02  0.8053795E-01
        1   -1    0    0  501    0  0.00000000000E+00  0.00000000000E+00  0.14302147208E+04  0.14302147208E+04  0.50400001928E-02 0. -1.
       -1   -1    0    0    0  501  0.00000000000E+00  0.00000000000E+00 -0.24772835621E+04  0.24772835621E+04  0.50400001928E-02 0.  1.
    10030    2    1    2    0    0  0.00000000000E+00  0.00000000000E+00 -0.10470688413E+04  0.39074982829E+04  0.37645968805E+04 0.  0.
        1    1    3    3  502    0  0.13069088031E+04 -0.11818975451E+04 -0.12105936841E+04  0.21378562849E+04  0.50400001928E-02 0. -1.
       -1    1    3    3    0  502 -0.13069088031E+04  0.11818975451E+04  0.16352484284E+03  0.17696419980E+04  0.50400001928E-02 0.  1.
</event>
<event>
 5   0  0.2384787E-07  0.3853354E+04  0.7818609E-02  0.8034801E-01
       -2   -1    0    0    0  501  0.00000000000E+00  0.00000000000E+00  0.23603666127E+04  0.23603666127E+04  0.25500000920E-02 0.  1.
        2   -1    0    0  501    0  0.00000000000E+00  0.00000000000E+00 -0.15726726466E+04  0.15726726466E+04  0.25500000920E-02 0. -1.
    10030    2    1    2    0    0  0.00000000000E+00  0.00000000000E+00  0.78769396611E+03  0.39330392593E+04  0.38533538679E+04 0.  0.
        4    1    3    3  502    0 -0.12600512330E+04  0.12594009823E+04 -0.35498852595E+03  0.18165457359E+04  0.12699999809E+01 0.  1.
       -4    1    3    3    0  502  0.12600512330E+04 -0.12594009823E+04  0.11426824921E+04  0.21164935234E+04  0.12699999809E+01 0. -1.
</event>
<event>
 5   0  0.7675750E-08  0.3938372E+04  0.7818609E-02  0.8017096E-01
        1   -1    0    0  501    0  0.00000000000E+00  0.00000000000E+00  0.15681707977E+04  0.15681707977E+04  0.50400001928E-02 0.  1.
       -1   -1    0    0    0  501  0.00000000000E+00  0.00000000000E+00 -0.24727488817E+04  0.24727488817E+04  0.50400001928E-02 0. -1.
    10030    2    1    2    0    0  0.00000000000E+00  0.00000000000E+00 -0.90457808401E+03  0.40409196793E+04  0.39383715346E+04 0.  0.
        4    1    3    3  502    0 -0.97238920766E+03  0.16112031204E+02 -0.22091500947E+04  0.24137411051E+04  0.12699999809E+01 0. -1.
       -4    1    3    3    0  502  0.97238920766E+03 -0.16112031204E+02  0.13045720106E+04  0.16271785743E+04  0.12699999809E+01 0.  1.
</event>
<event>
 5   0  0.2486268E-07  0.3894026E+04  0.7818609E-02  0.8026273E-01
       -2   -1    0    0    0  501  0.00000000000E+00  0.00000000000E+00  0.15090781807E+04  0.15090781807E+04  0.25500000920E-02 0. -1.
        2   -1    0    0  501    0  0.00000000000E+00  0.00000000000E+00 -0.25120362884E+04  0.25120362884E+04  0.25500000920E-02 0.  1.
    10030    2    1    2    0    0  0.00000000000E+00  0.00000000000E+00 -0.10029581077E+04  0.40211144691E+04  0.38940257585E+04 0.  0.
        5    1    3    3  502    0 -0.37239785595E+02  0.17495727174E+04  0.37986639985E+03  0.17907294790E+04  0.46999998093E+01 0. -1.
       -5    1    3    3    0  502  0.37239785595E+02 -0.17495727174E+04 -0.13828245075E+04  0.22303849901E+04  0.46999998093E+01 0.  1.
</event>
<event>
 5   0  0.7675750E-08  0.3839813E+04  0.7818609E-02  0.8037665E-01
        1   -1    0    0  501    0  0.00000000000E+00  0.00000000000E+00  0.12127482256E+04  0.12127482256E+04  0.50400001928E-02 0. -1.
       -1   -1    0    0    0  501  0.00000000000E+00  0.00000000000E+00 -0.30394116437E+04  0.30394116438E+04  0.50400001928E-02 0.  1.
    10030    2    1    2    0    0  0.00000000000E+00  0.00000000000E+00 -0.18266634181E+04  0.42521598694E+04  0.38398130569E+04 0.  0.
        4    1    3    3  502    0  0.11330365994E+04  0.38415424593E+03 -0.25761439615E+04  0.28403988705E+04  0.12699999809E+01 0.  1.
       -4    1    3    3    0  502 -0.11330365994E+04 -0.38415424593E+03  0.74948054340E+03  0.14117609989E+04  0.12699999809E+01 0. -1.
</event>
<event>
 5   0  0.7675750E-08  0.3900583E+04  0.7818609E-02  0.8024908E-01
        1   -1    0    0  501    0  0.00000000000E+00  0.00000000000E+00  0.19859843553E+04  0.19859843553E+04  0.50400001928E-02 0.  1.
       -1   -1    0    0    0  501  0.00000000000E+00  0.00000000000E+00 -0.19152404716E+04  0.19152404716E+04  0.50400001928E-02 0. -1.
    10030    2    1    2    0    0  0.00000000000E+00  0.00000000000E+00  0.70743883649E+02  0.39012248269E+04  0.39005833478E+04 0.  0.
        5    1    3    3  502    0 -0.47188944216E+03 -0.18413242553E+04  0.47186193603E+03  0.19585276192E+04  0.46999998093E+01 0. -1.
       -5    1    3    3    0  502  0.47188944216E+03  0.18413242553E+04 -0.40111805239E+03  0.19426972076E+04  0.46999998093E+01 0.  1.
</event>
<event>
 5   0  0.2446281E-07  0.3888338E+04  0.7818609E-02  0.8027459E-01
       -2   -1    0    0    0  501  0.00000000000E+00  0.00000000000E+00  0.15004487030E+04  0.15004487030E+04  0.25500000920E-02 0. -1.
        2   -1    0    0  501    0  0.00000000000E+00  0.00000000000E+00 -0.25191080803E+04  0.25191080803E+04  0.25500000920E-02 0.  1.
    10030    2    1    2    0    0  0.00000000000E+00  0.00000000000E+00 -0.10186593773E+04  0.40195567834E+04  0.38883376664E+04 0.  0.
        1    1    3    3  502    0  0.90451000127E+03  0.96706295849E+03  0.96224201681E+03  0.16368441609E+04  0.50400001928E-02 0. -1.
       -1    1    3    3    0  502 -0.90451000127E+03 -0.96706295849E+03 -0.19809013941E+04  0.23827126225E+04  0.50400001928E-02 0.  1.
</event>
<event>
 5   0  0.7675750E-08  0.3863371E+04  0.7818609E-02  0.8032691E-01
       -1   -1    0    0    0  501  0.00000000000E+00  0.00000000000E+00  0.23310192342E+04  0.23310192342E+04  0.50400001928E-02 0.  1.
        1   -1    0    0  501    0  0.00000000000E+00  0.00000000000E+00 -0.16007626088E+04  0.16007626088E+04  0.50400001928E-02 0. -1.
    10030    2    1    2    0    0  0.00000000000E+00  0.00000000000E+00  0.73025662535E+03  0.39317818430E+04  0.38633707720E+04 0.  0.
        5    1    3    3  502    0 -0.94571295868E+03  0.61729432845E+02 -0.13478894070E+04  0.16477291849E+04  0.46999998093E+01 0. -1.
       -5    1    3    3    0  502  0.94571295868E+03 -0.61729432845E+02  0.20781460324E+04  0.22840526581E+04  0.46999998093E+01 0.  1.
</event>
<event>
 5   0  0.2446281E-07  0.3827831E+04  0.7818609E-02  0.8040209E-01
        2   -1    0    0  501    0  0.00000000000E+00  0.00000000000E+00  0.22570106170E+04  0.22570106170E+04  0.25500000920E-02 0.  1.
       -2   -1    0    0    0  501  0.00000000000E+00  0.00000000000E+00 -0.16229756853E+04  0.16229756853E+04  0.25500000920E-02 0. -1.
    10030    2    1    2    0    0  0.00000000000E+00  0.00000000000E+00  0.63403493165E+03  0.38799863023E+04  0.38278314241E+04 0.  0.
        1    1    3    3  502    0  0.16112244496E+04 -0.57171579098E+03  0.11890710696E+04  0.20824968622E+04  0.50400001928E-02 0.  1.
       -1    1    3    3    0  502 -0.16112244496E+04  0.57171579098E+03 -0.55503613791E+03  0.17974894401E+04  0.50400001928E-02 0. -1.
</event>
<event>
 5   0  0.7731706E-08  0.3916021E+04  0.7818609E-02  0.8021705E-01
       -1   -1    0    0    0  501  0.00000000000E+00  0.00000000000E+00  0.21560271514E+04  0.21560271514E+04  0.50400001928E-02 0.  1.
        1   -1    0    0  501    0  0.00000000000E+00  0.00000000000E+00 -0.17781804583E+04  0.17781804583E+04  0.50400001928E-02 0. -1.
    10030    2    1    2    0    0  0.00000000000E+00  0.00000000000E+00  0.37784669307E+03  0.39342076097E+04  0.39160211175E+04 0.  0.
        3    1    3    3  502    0  0.12472370635E+03 -0.93038449876E+03  0.19152264791E+04  0.21329003246E+04  0.10100000352E+00 0.  1.
       -3    1    3    3    0  502 -0.12472370635E+03  0.93038449876E+03 -0.15373797860E+04  0.18013072850E+04  0.10100000352E+00 0. -1.
</event>
<event>
 5   0  0.7675750E-08  0.3892246E+04  0.7818609E-02  0.8026644E-01
       -1   -1    0    0    0  501  0.00000000000E+00  0.00000000000E+00  0.16111682285E+04  0.16111682285E+04  0.50400001928E-02 0.  1.
        1   -1    0    0  501    0  0.00000000000E+00  0.00000000000E+00 -0.23507128878E+04  0.23507128878E+04  0.50400001928E-02 0. -1.
    10030    2    1    2    0    0  0.00000000000E+00  0.00000000000E+00 -0.73954465930E+03  0.39618811163E+04  0.38922455827E+04 0.  0.
        5    1    3    3  502    0  0.10814646586E+04 -0.17228838670E+03  0.12677741618E+04  0.16752678924E+04  0.46999998093E+01 0.  1.
       -5    1    3    3    0  502 -0.10814646586E+04  0.17228838670E+03 -0.20073188211E+04  0.22866132239E+04  0.46999998093E+01 0. -1.
</event>
<event>
 5   0  0.2384787E-07  0.3911217E+04  0.7818609E-02  0.8022700E-01
       -2   -1    0    0    0  501  0.00000000000E+00  0.00000000000E+00  0.23687465886E+04  0.23687465886E+04  0.25500000920E-02 0.  1.
        2   -1    0    0  501    0  0.00000000000E+00  0.00000000000E+00 -0.16145262930E+04  0.16145262930E+04  0.25500000920E-02 0. -1.
    10030    2    1    2    0    0  0.00000000000E+00  0.00000000000E+00  0.75422029566E+03  0.39832728816E+04  0.39112165109E+04 0.  0.
        4    1    3    3  502    0 -0.15693991771E+04  0.11384994902E+04  0.63717153575E+03  0.20408782534E+04  0.12699999809E+01 0. -1.
       -4    1    3    3    0  502  0.15693991771E+04 -0.11384994902E+04  0.11704875991E+03  0.19423946282E+04  0.12699999809E+01 0.  1.
</event>
<event>
 5   0  0.2473224E-07  0.3673250E+04  0.7818609E-02  0.8073916E-01
       -2   -1    0    0    0  501  0.00000000000E+00  0.00000000000E+00  0.15344605285E+04  0.15344605285E+04  0.25500000920E-02 0.  1.
        2   -1    0    0  501    0  0.00000000000E+00  0.00000000000E+00 -0.21982916746E+04  0.21982916746E+04  0.25500000920E-02 0. -1.
    10030    2    1    2    0    0  0.00000000000E+00  0.00000000000E+00 -0.66383114611E+03  0.37327522030E+04  0.36732502254E+04 0.  0.
        2    1    3    3  502    0  0.12946477913E+04  0.76807688025E+03 -0.14011656524E+04  0.20565311043E+04  0.25500000920E-02 0. -1.
       -2    1    3    3    0  502 -0.12946477913E+04 -0.76807688025E+03  0.73733450628E+03  0.16762210987E+04  0.25500000920E-02 0.  1.
</event>
<event>
 5   0  0.7675750E-08  0.3915677E+04  0.7818609E-02  0.8021777E-01
        1   -1    0    0  501    0  0.00000000000E+00  0.00000000000E+00  0.14831222817E+04  0.14831222817E+04  0.50400001928E-02 0. -1.
       -1   -1    0    0    0  501  0.00000000000E+00  0.00000000000E+00 -0.25845009957E+04  0.25845009957E+04  0.50400001928E-02 0.  1.
    10030    2    1    2    0    0  0.00000000000E+00  0.00000000000E+00 -0.11013787140E+04  0.40676232774E+04  0.39156767046E+04 0.  0.
        1    1    3    3  502    0 -0.62051308151E+03  0.66359901587E+03 -0.23522686588E+04  0.25216201104E+04  0.50400001928E-02 0.  1.
       -1    1    3    3    0  502  0.62051308151E+03 -0.66359901587E+03  0.12508899448E+04  0.15460031670E+04  0.50400001928E-02 0. -1.
</event>
<event>
 5   0  0.2486268E-07  0.3894077E+04  0.7818609E-02  0.8026262E-01
       -2   -1    0    0    0  501  0.00000000000E+00  0.00000000000E+00  0.20393108892E+04  0.20393108892E+04  0.25500000920E-02 0. -1.
        2   -1    0    0  501    0  0.00000000000E+00  0.00000000000E+00 -0.18589408000E+04  0.18589408000E+04  0.25500000920E-02 0.  1.
    10030    2    1    2    0    0  0.00000000000E+00  0.00000000000E+00  0.18037008919E+03  0.38982516891E+04  0.38940766380E+04 0.  0.
        5    1    3    3  502    0 -0.97775477365E+02  0.13928626850E+04  0.14485885469E+04  0.20119784720E+04  0.46999998093E+01 0. -1.
       -5    1    3    3    0  502  0.97775477365E+02 -0.13928626850E+04 -0.12682184577E+04  0.18862732172E+04  0.46999998093E+01 0.  1.
</event>
<event>
 5   0  0.7675750E-08  0.3892063E+04  0.7818609E-02  0.8026682E-01
        1   -1    0    0  501    0  0.00000000000E+00  0.00000000000E+00  0.23914832911E+04  0.23914832911E+04  0.50400001928E-02 0.  1.
       -1   -1    0    0    0  501  0.00000000000E+00  0.00000000000E+00 -0.15835518099E+04  0.15835518099E+04  0.50400001928E-02 0. -1.
    10030    2    1    2    0    0  0.00000000000E+00  0.00000000000E+00  0.80793148121E+03  0.39750351010E+04  0.38920625350E+04 0.  0.
        1    1    3    3  502    0 -0.60164033989E+03 -0.87451019832E+03  0.20697791122E+04  0.23260964638E+04  0.50400001928E-02 0.  1.
       -1    1    3    3    0  502  0.60164033989E+03  0.87451019832E+03 -0.12618476310E+04  0.16489386372E+04  0.50400001928E-02 0. -1.
</event>
<event>
 5   0  0.2384787E-07  0.3678951E+04  0.7818609E-02  0.8072643E-01
       -2   -1    0    0    0  501  0.00000000000E+00  0.00000000000E+00  0.15540489219E+04  0.15540489219E+04  0.25500000920E-02 0. -1.
        2   -1    0    0  501    0  0.00000000000E+00  0.00000000000E+00 -0.21773248911E+04  0.21773248911E+04  0.25500000920E-02 0.  1.
    10030    2    1    2    0    0  0.00000000000E+00  0.00000000000E+00 -0.62327596917E+03  0.37313738130E+04  0.36789506111E+04 0.  0.
        4    1    3    3  502    0  0.41484719610E+03  0.17859990083E+04 -0.16196440216E+03  0.18406859412E+04  0.12699999809E+01 0. -1.
       -4    1    3    3    0  502 -0.41484719610E+03 -0.17859990083E+04 -0.46131156700E+03  0.18906878718E+04  0.12699999809E+01 0.  1.
</event>
<event>
 5   0  0.7675750E-08  0.3875483E+04  0.7818609E-02  0.8030148E-01
       -1   -1    0    0    0  501  0.00000000000E+00  0.00000000000E+00  0.22378574483E+04  0.22378574483E+04  0.50400001928E-02 0. -1.
        1   -1    0    0  501    0  0.00000000000E+00  0.00000000000E+00 -0.16778736296E+04  0.16778736297E+04  0.50400001928E-02 0.  1.
    10030    2    1    2    0    0  0.00000000000E+00  0.00000000000E+00  0.55998381862E+03  0.39157310779E+04  0.38754829373E+04 0.  0.
        2    1    3    3  502    0  0.39041382738E+03  0.18978415693E+04  0.25490624159E+03  0.19542780689E+04  0.25500000920E-02 0. -1.
       -2    1    3    3    0  502 -0.39041382738E+03 -0.18978415693E+04  0.30507757703E+03  0.19614530090E+04  0.25500000920E-02 0.  1.
</event>
<event>
 5   0  0.7675750E-08  0.3898918E+04  0.7818609E-02  0.8025254E-01
        1   -1    0    0  501    0  0.00000000000E+00  0.00000000000E+00  0.19695405651E+04  0.19695405651E+04  0.50400001928E-02 0. -1.
       -1   -1    0    0    0  501  0.00000000000E+00  0.00000000000E+00 -0.19295820492E+04  0.19295820492E+04  0.50400001928E-02 0.  1.
    10030    2    1    2    0    0  0.00000000000E+00  0.00000000000E+00  0.39958515879E+02  0.38991226144E+04  0.38989178600E+04 0.  0.
        2    1    3    3  502    0  0.76769905163E+03 -0.16881105578E+04  0.62110235733E+03  0.19557216641E+04  0.25500000920E-02 0. -1.
       -2    1    3    3    0  502 -0.76769905163E+03  0.16881105578E+04 -0.58114384145E+03  0.19434009503E+04  0.25500000920E-02 0.  1.
</event>
<event>
 5   0  0.2473224E-07  0.3907412E+04  0.7818609E-02  0.8023489E-01
        2   -1    0    0  501    0  0.00000000000E+00  0.00000000000E+00  0.19153779620E+04  0.19153779620E+04  0.25500000920E-02 0.  1.
       -2   -1    0    0    0  501  0.00000000000E+00  0.00000000000E+00 -0.19928007458E+04  0.19928007458E+04  0.25500000920E-02 0. -1.
    10030    2    1    2    0    0  0.00000000000E+00  0.00000000000E+00 -0.77422783781E+02  0.39081787079E+04  0.39074117425E+04 0.  0.
        2    1    3    3  502    0 -0.44469346610E+03 -0.55095510689E+03  0.17825421815E+04  0.19180094988E+04  0.25500000920E-02 0.  1.
       -2    1    3    3    0  502  0.44469346610E+03  0.55095510689E+03 -0.18599649653E+04  0.19901692091E+04  0.25500000920E-02 0. -1.
</event>
<event>
 5   0  0.7675750E-08  0.3902564E+04  0.7818609E-02  0.8024496E-01
       -3   -1    0    0    0  501  0.00000000000E+00  0.00000000000E+00  0.20729535930E+04  0.20729535955E+04  0.10100000352E+00 0.  1.
        3   -1    0    0  501    0  0.00000000000E+00  0.00000000000E+00 -0.18367518219E+04  0.18367518247E+04  0.10100000352E+00 0. -1.
    10030    2    1    2    0    0  0.00000000000E+00  0.00000000000E+00  0.23620177115E+03  0.39097054202E+04  0.39025639259E+04 0.  0.
        1    1    3    3  502    0 -0.94123617929E+03 -0.15802406098E+04  0.77076474033E+03  0.19942828824E+04  0.50400001928E-02 0.  1.
       -1    1    3    3    0  502  0.94123617929E+03  0.15802406098E+04 -0.53456296918E+03  0.19154225378E+04  0.50400001928E-02 0. -1.
</event>
<event>
 5   0  0.7675750E-08  0.3761516E+04  0.7818609E-02  0.8054464E-01
        1   -1    0    0  501    0  0.00000000000E+00  0.00000000000E+00  0.16326473718E+04  0.16326473718E+04  0.50400001928E-02 0. -1.
       -1   -1    0    0    0  501  0.00000000000E+00  0.00000000000E+00 -0.21665734045E+04  0.21665734045E+04  0.50400001928E-02 0.  1.
    10030    2    1    2    0    0  0.00000000000E+00  0.00000000000E+00 -0.53392603269E+03  0.37992207763E+04  0.37615158512E+04 0.  0.
        1    1    3    3  502    0  0.29844130279E+02  0.14280750958E+04 -0.15027309184E+04  0.20732798567E+04  0.50400001928E-02 0.  1.
       -1    1    3    3    0  502 -0.29844130279E+02 -0.14280750958E+04  0.96880488568E+03  0.17259409196E+04  0.50400001928E-02 0. -1.
</event>
<event>
 5   0  0.7675750E-08  0.3906380E+04  0.7818609E-02  0.8023704E-01
       -1   -1    0    0    0  501  0.00000000000E+00  0.00000000000E+00  0.16033777074E+04  0.16033777074E+04  0.50400001928E-02 0. -1.
        1   -1    0    0  501    0  0.00000000000E+00  0.00000000000E+00 -0.23793213081E+04  0.23793213081E+04  0.50400001928E-02 0.  1.
    10030    2    1    2    0    0  0.00000000000E+00  0.00000000000E+00 -0.77594360070E+03  0.39826990156E+04  0.39063797789E+04 0.  0.
        5    1    3    3  502    0  0.15774394756E+04  0.11487616651E+04 -0.47302827753E+03  0.20079209406E+04  0.46999998093E+01 0. -1.
       -5    1    3    3    0  502 -0.15774394756E+04 -0.11487616651E+04 -0.30291532317E+03  0.19747780750E+04  0.46999998093E+01 0.  1.
</event>
<event>
 5   0  0.2473224E-07  0.3888283E+04  0.7818609E-02  0.8027471E-01
        2   -1    0    0  501    0  0.00000000000E+00  0.00000000000E+00  0.19893942919E+04  0.19893942919E+04  0.25500000920E-02 0. -1.
       -2   -1    0    0    0  501  0.00000000000E+00  0.00000000000E+00 -0.18999182374E+04  0.18999182374E+04  0.25500000920E-02 0.  1.
    10030    2    1    2    0    0  0.00000000000E+00  0.00000000000E+00  0.89476054514E+02  0.38893125293E+04  0.38882831669E+04 0.  0.
        2    1    3    3  502    0 -0.16250854094E+04 -0.48793925304E+03 -0.90456495345E+03  0.19228169589E+04  0.25500000920E-02 0.  1.
       -2    1    3    3    0  502  0.16250854094E+04  0.48793925304E+03  0.99404100796E+03  0.19664955703E+04  0.25500000920E-02 0. -1.
</event>
<event>
 5   0  0.2473224E-07  0.3844166E+04  0.7818609E-02  0.8036743E-01
        2   -1    0    0  501    0  0.00000000000E+00  0.00000000000E+00  0.16731783245E+04  0.16731783245E+04  0.25500000920E-02 0.  1.
       -2   -1    0    0    0  501  0.00000000000E+00  0.00000000000E+00 -0.22080152921E+04  0.22080152921E+04  0.25500000920E-02 0. -1.
    10030    2    1    2    0    0  0.00000000000E+00  0.00000000000E+00 -0.53483696763E+03  0.38811936166E+04  0.38441661394E+04 0.  0.
        2    1    3    3  502    0 -0.11622475036E+04  0.10698269193E+04  0.83814225752E+03  0.17882481205E+04  0.25500000920E-02 0.  1.
       -2    1    3    3    0  502  0.11622475036E+04 -0.10698269193E+04 -0.13729792251E+04  0.20929454961E+04  0.25500000920E-02 0. -1.
</event>
<event>
 5   0  0.7675750E-08  0.3947092E+04  0.7818609E-02  0.8015306E-01
        1   -1    0    0  501    0  0.00000000000E+00  0.00000000000E+00  0.19162848251E+04  0.19162848251E+04  0.50400001928E-02 0.  1.
       -1   -1    0    0    0  501  0.00000000000E+00  0.00000000000E+00 -0.20325179702E+04  0.20325179702E+04  0.50400001928E-02 0. -1.
    10030    2    1    2    0    0  0.00000000000E+00  0.00000000000E+00 -0.11623314513E+03  0.39488027953E+04  0.39470917613E+04 0.  0.
        1    1    3    3  502    0  0.13180459433E+04 -0.10348528341E+04  0.98479292407E+03  0.19437033210E+04  0.50400001928E-02 0.  1.
       -1    1    3    3    0  502 -0.13180459433E+04  0.10348528341E+04 -0.11010260692E+04  0.20050994743E+04  0.50400001928E-02 0. -1.
</event>
<event>
 5   0  0.2395572E-07  0.3904217E+04  0.7818609E-02  0.8024153E-01
        2   -1    0    0  501    0  0.00000000000E+00  0.00000000000E+00  0.17763492457E+04  0.17763492457E+04  0.25500000920E-02 0. -1.
       -2   -1    0    0    0  501  0.00000000000E+00  0.00000000000E+00 -0.21452581183E+04  0.21452581183E+04  0.25500000920E-02 0.  1.
    10030    2    1    2    0    0  0.00000000000E+00  0.00000000000E+00 -0.36890887254E+03  0.39216073640E+04  0.39042170228E+04 0.  0.
        3    1    3    3  502    0  0.96874962993E+02  0.18974914045E+04 -0.63463514297E+03  0.20031525562E+04  0.10100000352E+00 0.  1.
       -3    1    3    3    0  502 -0.96874962993E+02 -0.18974914045E+04  0.26572627043E+03  0.19184548078E+04  0.10100000352E+00 0. -1.
</event>
<event>
 5   0  0.2395572E-07  0.3896785E+04  0.7818609E-02  0.8025698E-01
       -2   -1    0    0    0  501  0.00000000000E+00  0.00000000000E+00  0.11991849078E+04  0.11991849078E+04  0.25500000920E-02 0. -1.
        2   -1    0    0  501    0  0.00000000000E+00  0.00000000000E+00 -0.31656774386E+04  0.31656774386E+04  0.25500000920E-02 0.  1.
    10030    2    1    2    0    0  0.00000000000E+00  0.00000000000E+00 -0.19664925308E+04  0.43648623464E+04  0.38967846270E+04 0.  0.
        3    1    3    3  502    0  0.98150325898E+03  0.10396306941E+04  0.49940031693E+03  0.15144574323E+04  0.10100000352E+00 0. -1.
       -3    1    3    3    0  502 -0.98150325898E+03 -0.10396306941E+04 -0.24658928477E+04  0.28504049141E+04  0.10100000352E+00 0.  1.
</event>
<event>
 5   0  0.2384787E-07  0.3863812E+04  0.7818609E-02  0.8032598E-01
        2   -1    0    0  501    0  0.00000000000E+00  0.00000000000E+00  0.16640000078E+04  0.16640000078E+04  0.25500000920E-02 0.  1.
       -2   -1    0    0    0  501  0.00000000000E+00  0.00000000000E+00 -0.22429454491E+04  0.22429454492E+04  0.25500000920E-02 0. -1.
    10030    2    1    2    0    0  0.00000000000E+00  0.00000000000E+00 -0.57894544134E+03  0.39069454570E+04  0.38638122340E+04 0.  0.
        4    1    3    3  502    0  0.36366504901E+03 -0.40947693370E+03 -0.21628111103E+04  0.22310708503E+04  0.12699999809E+01 0. -1.
       -4    1    3    3    0  502 -0.36366504901E+03  0.40947693370E+03  0.15838656690E+04  0.16758746067E+04  0.12699999809E+01 0.  1.
</event>
<event>
 5   0  0.7675750E-08  0.3874586E+04  0.7818609E-02  0.8030336E-01
       -1   -1    0    0    0  501  0.00000000000E+00  0.00000000000E+00  0.11785509467E+04  0.11785509467E+04  0.50400001928E-02 0.  1.
        1   -1    0    0  501    0  0.00000000000E+00  0.00000000000E+00 -0.31845078038E+04  0.31845078038E+04  0.50400001928E-02 0. -1.
    10030    2    1    2    0    0  0.00000000000E+00  0.00000000000E+00 -0.20059568571E+04  0.43630587505E+04  0.38745862680E+04 0.  0.
        4    1    3    3  502    0  0.19966272786E+03 -0.88269086829E+03  0.92589082096E+03  0.12947137904E+04  0.12699999809E+01 0.  1.
       -4    1    3    3    0  502 -0.19966272786E+03  0.88269086829E+03 -0.29318476781E+04  0.30683449601E+04  0.12699999809E+01 0. -1.
</event>
<event>
 5   0  0.7675750E-08  0.3469576E+04  0.7818609E-02  0.8121038E-01
       -1   -1    0    0    0  501  0.00000000000E+00  0.00000000000E+00  0.14611002450E+04  0.14611002450E+04  0.50400001928E-02 0.  1.
        1   -1    0    0  501    0  0.00000000000E+00  0.00000000000E+00 -0.20597414499E+04  0.20597414499E+04  0.50400001928E-02 0. -1.
    10030    2    1    2    0    0  0.00000000000E+00  0.00000000000E+00 -0.59864120495E+03  0.35208416949E+04  0.34695756150E+04 0.  0.
        4    1    3    3  502    0 -0.15895594998E+04 -0.46113243417E+03  0.22811359677E+03  0.16707423354E+04  0.12699999809E+01 0.  1.
       -4    1    3    3    0  502  0.15895594998E+04  0.46113243417E+03 -0.82675480171E+03  0.18500993596E+04  0.12699999809E+01 0. -1.
</event>
<event>
 5   0  0.2486268E-07  0.3936910E+04  0.7818609E-02  0.8017396E-01
       -2   -1    0    0    0  501  0.00000000000E+00  0.00000000000E+00  0.11470046137E+04  0.11470046137E+04  0.25500000920E-02 0. -1.
        2   -1    0    0  501    0  0.00000000000E+00  0.00000000000E+00 -0.33782033984E+04  0.33782033984E+04  0.25500000920E-02 0.  1.
    10030    2    1    2    0    0  0.00000000000E+00  0.00000000000E+00 -0.22311987847E+04  0.45252080121E+04  0.39369098968E+04 0.  0.
        5    1    3    3  502    0 -0.75808217272E+03  0.13179602845E+04  0.32145880436E+03  0.15540481798E+04  0.46999998093E+01 0. -1.
       -5    1    3    3    0  502  0.75808217272E+03 -0.13179602845E+04 -0.25526575890E+04  0.29711598323E+04  0.46999998093E+01 0.  1.
</event>
<event>
 5   0  0.7675750E-08  0.3928049E+04  0.7818609E-02  0.8019221E-01
        1   -1    0    0  501    0  0.00000000000E+00  0.00000000000E+00  0.22602074566E+04  0.22602074566E+04  0.50400001928E-02 0. -1.
       -1   -1    0    0    0  501  0.00000000000E+00  0.00000000000E+00 -0.17066542363E+04  0.17066542364E+04  0.50400001928E-02 0.  1.
    10030    2    1    2    0    0  0.00000000000E+00  0.00000000000E+00  0.55355322023E+03  0.39668616929E+04  0.39280492007E+04 0.  0.
        4    1    3    3  502    0 -0.17054501766E+04 -0.95705054012E+03  0.93642640718E+02  0.19578755319E+04  0.12699999809E+01 0.  1.
       -4    1    3    3    0  502  0.17054501766E+04  0.95705054012E+03  0.45991057951E+03  0.20089861611E+04  0.12699999809E+01 0. -1.
</event>
<event>
 5   0  0.2395572E-07  0.3879240E+04  0.7818609E-02  0.8029361E-01
        2   -1    0    0  501    0  0.00000000000E+00  0.00000000000E+00  0.28811000096E+04  0.28811000096E+04  0.25500000920E-02 0.  1.
       -2   -1    0    0    0  501  0.00000000000E+00  0.00000000000E+00 -0.13057950761E+04  0.13057950761E+04  0.25500000920E-02 0. -1.
    10030    2    1    2    0    0  0.00000000000E+00  0.00000000000E+00  0.15753049335E+04  0.41868950858E+04  0.38792402382E+04 0.  0.
        3    1    3    3  502    0 -0.50426632030E+03 -0.11304790550E+04  0.23993520085E+04  0.26998439745E+04  0.10100000352E+00 0.  1.
       -3    1    3    3    0  502  0.50426632030E+03  0.11304790550E+04 -0.82404707504E+03  0.14870511113E+04  0.10100000352E+00 0. -1.
</event>
<event>
 5   0  0.2395572E-07  0.3910776E+04  0.7818609E-02  0.8022792E-01
       -2   -1    0    0    0  501  0.00000000000E+00  0.00000000000E+00  0.17970200528E+04  0.17970200528E+04  0.25500000920E-02 0. -1.
        2   -1    0    0  501    0  0.00000000000E+00  0.00000000000E+00 -0.21277130184E+04  0.21277130184E+04  0.25500000920E-02 0.  1.
    10030    2    1    2    0    0  0.00000000000E+00  0.00000000000E+00 -0.33069296560E+03  0.39247330711E+04  0.39107763733E+04 0.  0.
        3    1    3    3  502    0  0.42835946686E+03 -0.55126600313E+03 -0.19983798749E+04  0.21168155739E+04  0.10100000352E+00 0.  1.
       -3    1    3    3    0  502 -0.42835946686E+03  0.55126600313E+03  0.16676869093E+04  0.18079174972E+04  0.10100000352E+00 0. -1.
</event>
<event>
 5   0  0.7675750E-08  0.3910112E+04  0.7818609E-02  0.8022929E-01
       -1   -1    0    0    0  501  0.00000000000E+00  0.00000000000E+00  0.19347145798E+04  0.19347145798E+04  0.50400001928E-02 0.  1.
        1   -1    0    0  501    0  0.00000000000E+00  0.00000000000E+00 -0.19756109252E+04  0.19756109252E+04  0.50400001928E-02 0. -1.
    10030    2    1    2    0    0  0.00000000000E+00  0.00000000000E+00 -0.40896345450E+02  0.39103255050E+04  0.39101116408E+04 0.  0.
        4    1    3    3  502    0  0.52224370616E+03  0.18635180310E+04 -0.29759814881E+03  0.19580613401E+04  0.12699999809E+01 0. -1.
       -4    1    3    3    0  502 -0.52224370616E+03 -0.18635180310E+04  0.25670180336E+03  0.19522641648E+04  0.12699999809E+01 0.  1.
</event>
<event>
 5   0  0.7731706E-08  0.3912249E+04  0.7818609E-02  0.8022486E-01
       -1   -1    0    0    0  501  0.00000000000E+00  0.00000000000E+00  0.13835946352E+04  0.13835946352E+04  0.50400001928E-02 0. -1.
        1   -1    0    0  501    0  0.00000000000E+00  0.00000000000E+00 -0.27655672273E+04  0.27655672274E+04  0.50400001928E-02 0.  1.
    10030    2    1    2    0    0  0.00000000000E+00  0.00000000000E+00 -0.13819725922E+04  0.41491618625E+04  0.39122494700E+04 0.  0.
        3    1    3    3  502    0 -0.15231779395E+04 -0.60176838567E+03 -0.18254486109E+04  0.24524393706E+04  0.10100000352E+00 0.  1.
       -3    1    3    3    0  502  0.15231779395E+04  0.60176838567E+03  0.44347601870E+03  0.16967224919E+04  0.10100000352E+00 0. -1.
</event>
<event>
 5   0  0.7675750E-08  0.3879930E+04  0.7818609E-02  0.8029216E-01
       -1   -1    0    0    0  501  0.00000000000E+00  0.00000000000E+00  0.13345952449E+04  0.13345952449E+04  0.50400001928E-02 0.  1.
        1   -1    0    0  501    0  0.00000000000E+00  0.00000000000E+00 -0.28199297046E+04  0.28199297046E+04  0.50400001928E-02 0. -1.
    10030    2    1    2    0    0  0.00000000000E+00  0.00000000000E+00 -0.14853344596E+04  0.41545249495E+04  0.38799302956E+04 0.  0.
        4    1    3    3  502    0  0.49291871031E+02  0.19287879428E+04 -0.95898074016E+03  0.21545993339E+04  0.12699999809E+01 0. -1.
       -4    1    3    3    0  502 -0.49291871031E+02 -0.19287879428E+04 -0.52635371947E+03  0.19999256156E+04  0.12699999809E+01 0.  1.
</event>
<event>
 5   0  0.2486268E-07  0.3914705E+04  0.7818609E-02  0.8021978E-01
       -2   -1    0    0    0  501  0.00000000000E+00  0.00000000000E+00  0.14312647138E+04  0.14312647138E+04  0.25500000920E-02 0. -1.
        2   -1    0    0  501    0  0.00000000000E+00  0.00000000000E+00 -0.26768135166E+04  0.26768135166E+04  0.25500000920E-02 0.  1.
    10030    2    1    2    0    0  0.00000000000E+00  0.00000000000E+00 -0.12455488027E+04  0.41080782304E+04  0.39147049604E+04 0.  0.
        5    1    3    3  502    0 -0.17142011480E+04 -0.98420392901E+02  0.36334272877E+03  0.17550533263E+04  0.46999998093E+01 0. -1.
       -5    1    3    3    0  502  0.17142011480E+04  0.98420392901E+02 -0.16088915315E+04  0.23530249042E+04  0.46999998093E+01 0.  1.
</event>
<event>
 5   0  0.7675750E-08  0.3804053E+04  0.7818609E-02  0.8045286E-01
       -1   -1    0    0    0  501  0.00000000000E+00  0.00000000000E+00  0.15739980398E+04  0.15739980398E+04  0.50400001928E-02 0. -1.
        1   -1    0    0  501    0  0.00000000000E+00  0.00000000000E+00 -0.22984173605E+04  0.22984173605E+04  0.50400001928E-02 0.  1.
    10030    2    1    2    0    0  0.00000000000E+00  0.00000000000E+00 -0.72441932069E+03  0.38724154003E+04  0.38040527967E+04 0.  0.
        4    1    3    3  502    0 -0.35719274945E+03  0.13535756353E+04 -0.16729630982E+04  0.21814125702E+04  0.12699999809E+01 0.  1.
       -4    1    3    3    0  502  0.35719274945E+03 -0.13535756353E+04  0.94854377746E+03  0.16910028301E+04  0.12699999809E+01 0. -1.
</event>
<event>
 5   0  0.7675750E-08  0.3832596E+04  0.7818609E-02  0.8039196E-01
        1   -1    0    0  501    0  0.00000000000E+00  0.00000000000E+00  0.12958156787E+04  0.12958156787E+04  0.50400001928E-02 0.  1.
       -1   -1    0    0    0  501  0.00000000000E+00  0.00000000000E+00 -0.28338885074E+04  0.28338885075E+04  0.50400001928E-02 0. -1.
    10030    2    1    2    0    0  0.00000000000E+00  0.00000000000E+00 -0.15380728288E+04  0.41297041862E+04  0.38325955485E+04 0.  0.
        2    1    3    3  502    0  0.43666611758E+03 -0.14290387561E+04  0.52370567541E+03  0.15833814130E+04  0.25500000920E-02 0.  1.
       -2    1    3    3    0  502 -0.43666611758E+03  0.14290387561E+04 -0.20617785042E+04  0.25463227731E+04  0.25500000920E-02 0. -1.
</event>
<event>
 5   0  0.7675750E-08  0.3924466E+04  0.7818609E-02  0.8019960E-01
       -3   -1    0    0    0  501  0.00000000000E+00  0.00000000000E+00  0.18931439425E+04  0.18931439452E+04  0.10100000352E+00 0.  1.
        3   -1    0    0  501    0  0.00000000000E+00  0.00000000000E+00 -0.20338438330E+04  0.20338438355E+04  0.10100000352E+00 0. -1.
    10030    2    1    2    0    0  0.00000000000E+00  0.00000000000E+00 -0.14069989047E+03  0.39269877807E+04  0.39244664059E+04 0.  0.
        4    1    3    3  502    0  0.17606461671E+04 -0.85893175110E+03 -0.18320028643E+03  0.19675372008E+04  0.12699999809E+01 0. -1.
       -4    1    3    3    0  502 -0.17606461671E+04  0.85893175110E+03  0.42500395962E+02  0.19594505799E+04  0.12699999809E+01 0.  1.
</event>
<event>
 5   0  0.2473224E-07  0.3895408E+04  0.7818609E-02  0.8025985E-01
       -2   -1    0    0    0  501  0.00000000000E+00  0.00000000000E+00  0.20759081177E+04  0.20759081177E+04  0.25500000920E-02 0. -1.
        2   -1    0    0  501    0  0.00000000000E+00  0.00000000000E+00 -0.18274174391E+04  0.18274174391E+04  0.25500000920E-02 0.  1.
    10030    2    1    2    0    0  0.00000000000E+00  0.00000000000E+00  0.24849067862E+03  0.39033255568E+04  0.38954079099E+04 0.  0.
        2    1    3    3  502    0 -0.76457834648E+03  0.79767951116E+03 -0.14829717943E+04  0.18493452877E+04  0.25500000920E-02 0.  1.
       -2    1    3    3    0  502  0.76457834648E+03 -0.79767951116E+03  0.17314624729E+04  0.20539802690E+04  0.25500000920E-02 0. -1.
</event>
<event>
 5   0  0.2384787E-07  0.3874787E+04  0.7818609E-02  0.8030293E-01
       -2   -1    0    0    0  501  0.00000000000E+00  0.00000000000E+00  0.21565434098E+04  0.21565434098E+04  0.25500000920E-02 0.  1.
        2   -1    0    0  501    0  0.00000000000E+00  0.00000000000E+00 -0.17405142300E+04  0.17405142300E+04  0.25500000920E-02 0. -1.
    10030    2    1    2    0    0  0.00000000000E+00  0.00000000000E+00  0.41602917982E+03  0.38970576397E+04  0.38747874740E+04 0.  0.
        4    1    3    3  502    0 -0.14132323134E+04  0.91148957509E+03 -0.75951972149E+03  0.18452399945E+04  0.12699999809E+01 0. -1.
       -4    1    3    3    0  502  0.14132323134E+04 -0.91148957509E+03  0.11755489013E+04  0.20518176452E+04  0.12699999809E+01 0.  1.
</event>
<event>
 5   0  0.2395572E-07  0.3912388E+04  0.7818609E-02  0.8022458E-01
        2   -1    0    0  501    0  0.00000000000E+00  0.00000000000E+00  0.21780866685E+04  0.21780866685E+04  0.25500000920E-02 0. -1.
       -2   -1    0    0    0  501  0.00000000000E+00  0.00000000000E+00 -0.17569065613E+04  0.17569065613E+04  0.25500000920E-02 0.  1.
    10030    2    1    2    0    0  0.00000000000E+00  0.00000000000E+00  0.42118010723E+03  0.39349932298E+04  0.39123878944E+04 0.  0.
        3    1    3    3  502    0  0.46272897343E+03 -0.18614654130E+04 -0.17571660089E+03  0.19261484680E+04  0.10100000352E+00 0.  1.
       -3    1    3    3    0  502 -0.46272897343E+03  0.18614654130E+04  0.59689670812E+03  0.20088447618E+04  0.10100000352E+00 0. -1.
</event>
<event>
 5   0  0.7675750E-08  0.3894589E+04  0.7818609E-02  0.8026156E-01
        1   -1    0    0  501    0  0.00000000000E+00  0.00000000000E+00  0.13419950985E+04  0.13419950985E+04  0.50400001928E-02 0.  1.
       -1   -1    0    0    0  501  0.00000000000E+00  0.00000000000E+00 -0.28256107655E+04  0.28256107655E+04  0.50400001928E-02 0. -1.
    10030    2    1    2    0    0  0.00000000000E+00  0.00000000000E+00 -0.14836156670E+04  0.41676058640E+04  0.38945889630E+04 0.  0.
        1    1    3    3  502    0 -0.19347520387E+04  0.39582558497E+02 -0.97410509613E+03  0.21664978579E+04  0.50400001928E-02 0. -1.
       -1    1    3    3    0  502  0.19347520387E+04 -0.39582558497E+02 -0.50951057091E+03  0.20011080061E+04  0.50400001928E-02 0.  1.
</event>
<event>
 5   0  0.7731706E-08  0.3853732E+04  0.7818609E-02  0.8034721E-01
       -1   -1    0    0    0  501  0.00000000000E+00  0.00000000000E+00  0.19871964066E+04  0.19871964066E+04  0.50400001928E-02 0.  1.
        1   -1    0    0  501    0  0.00000000000E+00  0.00000000000E+00 -0.18683676267E+04  0.18683676267E+04  0.50400001928E-02 0. -1.
    10030    2    1    2    0    0  0.00000000000E+00  0.00000000000E+00  0.11882877988E+03  0.38555640334E+04  0.38537324423E+04 0.  0.
        3    1    3    3  502    0 -0.82897590114E+03  0.16068866699E+04 -0.60688081998E+03  0.19072467471E+04  0.10100000352E+00 0. -1.
       -3    1    3    3    0  502  0.82897590114E+03 -0.16068866699E+04  0.72570959986E+03  0.19483172863E+04  0.10100000352E+00 0.  1.
</event>
<event>
 5   0  0.7675750E-08  0.3895333E+04  0.7818609E-02  0.8026001E-01
       -3   -1    0    0    0  501  0.00000000000E+00  0.00000000000E+00  0.17844800740E+04  0.17844800769E+04  0.10100000352E+00 0.  1.
        3   -1    0    0  501    0  0.00000000000E+00  0.00000000000E+00 -0.21257758277E+04  0.21257758301E+04  0.10100000352E+00 0. -1.
    10030    2    1    2    0    0  0.00000000000E+00  0.00000000000E+00 -0.34129575362E+03  0.39102559070E+04  0.38953329083E+04 0.  0.
        2    1    3    3  502    0  0.48348154596E+02 -0.35374100700E+03  0.17513501783E+04  0.17873717272E+04  0.25500000920E-02 0.  1.
       -2    1    3    3    0  502 -0.48348154596E+02  0.35374100700E+03 -0.20926459320E+04  0.21228841798E+04  0.25500000920E-02 0. -1.
</event>
<event>
 5   0  0.7675750E-08  0.3967694E+04  0.7818609E-02  0.8011096E-01
        1   -1    0    0  501    0  0.00000000000E+00  0.00000000000E+00  0.13654428169E+04  0.13654428169E+04  0.50400001928E-02 0. -1.
       -1   -1    0    0    0  501  0.00000000000E+00  0.00000000000E+00 -0.28823241278E+04  0.28823241278E+04  0.50400001928E-02 0.  1.
    10030    2    1    2    0    0  0.00000000000E+00  0.00000000000E+00 -0.15168813109E+04  0.42477669446E+04  0.39676939278E+04 0.  0.
        5    1    3    3  502    0 -0.13547463274E+03 -0.12978895454E+04  0.84127632389E+03  0.15526231324E+04  0.46999998093E+01 0. -1.
       -5    1    3    3    0  502  0.13547463274E+03  0.12978895454E+04 -0.23581576348E+04  0.26951438122E+04  0.46999998093E+01 0.  1.
</event>
<event>
 5   0  0.2473224E-07  0.3880377E+04  0.7818609E-02  0.8029123E-01
       -2   -1    0    0    0  501  0.00000000000E+00  0.00000000000E+00  0.23813582090E+04  0.23813582090E+04  0.25500000920E-02 0. -1.
        2   -1    0    0  501    0  0.00000000000E+00  0.00000000000E+00 -0.15807495701E+04  0.15807495701E+04  0.25500000920E-02 0.  1.
    10030    2    1    2    0    0  0.00000000000E+00  0.00000000000E+00  0.80060863888E+03  0.39621077791E+04  0.38803767679E+04 0.  0.
        2    1    3    3  502    0 -0.93122473130E+03 -0.93056803557E+03  0.18555226468E+04  0.22751045387E+04  0.25500000920E-02 0. -1.
       -2    1    3    3    0  502  0.93122473130E+03  0.93056803557E+03 -0.10549140080E+04  0.16870032404E+04  0.25500000920E-02 0.  1.
</event>
<event>
 5   0  0.2473224E-07  0.3792089E+04  0.7818609E-02  0.8047855E-01
       -2   -1    0    0    0  501  0.00000000000E+00  0.00000000000E+00  0.19342307974E+04  0.19342307974E+04  0.25500000920E-02 0.  1.
        2   -1    0    0  501    0  0.00000000000E+00  0.00000000000E+00 -0.18586122346E+04  0.18586122346E+04  0.25500000920E-02 0. -1.
    10030    2    1    2    0    0  0.00000000000E+00  0.00000000000E+00  0.75618562818E+02  0.37928430321E+04  0.37920891470E+04 0.  0.
        2    1    3    3  502    0 -0.96792129133E+03  0.11496409760E+04 -0.11184651057E+04  0.18733686750E+04  0.25500000920E-02 0. -1.
       -2    1    3    3    0  502  0.96792129133E+03 -0.11496409760E+04  0.11940836685E+04  0.19194743570E+04  0.25500000920E-02 0.  1.
</event>
<event>
 5   0  0.7731706E-08  0.3943272E+04  0.7818609E-02  0.8016089E-01
       -1   -1    0    0    0  501  0.00000000000E+00  0.00000000000E+00  0.21862800834E+04  0.21862800834E+04  0.50400001928E-02 0.  1.
        1   -1    0    0  501    0  0.00000000000E+00  0.00000000000E+00 -0.17780649760E+04  0.17780649760E+04  0.50400001928E-02 0. -1.
    10030    2    1    2    0    0  0.00000000000E+00  0.00000000000E+00  0.40821510743E+03  0.39643450594E+04  0.39432717604E+04 0.  0.
        3    1    3    3  502    0 -0.72958350691E+02  0.10724132814E+04 -0.14575881627E+04  0.18110649986E+04  0.10100000352E+00 0. -1.
       -3    1    3    3    0  502  0.72958350691E+02 -0.10724132814E+04  0.18658032701E+04  0.21532800608E+04  0.10100000352E+00 0.  1.
</event>
<event>
 5   0  0.7675750E-08  0.3890506E+04  0.7818609E-02  0.8027007E-01
       -1   -1    0    0    0  501  0.00000000000E+00  0.00000000000E+00  0.13372178025E+04  0.13372178025E+04  0.50400001928E-02 0.  1.
        1   -1    0    0  501    0  0.00000000000E+00  0.00000000000E+00 -0.28297630027E+04  0.28297630027E+04  0.50400001928E-02 0. -1.
    10030    2    1    2    0    0  0.00000000000E+00  0.00000000000E+00 -0.14925452002E+04  0.41669808052E+04  0.38905061183E+04 0.  0.
        1    1    3    3  502    0 -0.93940344430E+03 -0.53673362876E+03  0.98522661668E+03  0.14632953583E+04  0.50400001928E-02 0.  1.
       -1    1    3    3    0  502  0.93940344430E+03  0.53673362876E+03 -0.24777718169E+04  0.27036854469E+04  0.50400001928E-02 0. -1.
</event>
<event>
 5   0  0.2446281E-07  0.3179113E+04  0.7818609E-02  0.8194355E-01
       -2   -1    0    0    0  501  0.00000000000E+00  0.00000000000E+00  0.11718809533E+04  0.11718809533E+04  0.25500000920E-02 0. -1.
        2   -1    0    0  501    0  0.00000000000E+00  0.00000000000E+00 -0.21560973970E+04  0.21560973970E+04  0.25500000920E-02 0.  1.
    10030    2    1    2    0    0  0.00000000000E+00  0.00000000000E+00 -0.98421644370E+03  0.33279783504E+04  0.31791127524E+04 0.  0.
        1    1    3    3  502    0  0.12241391684E+04  0.96889735893E+03 -0.17909026399E+03  0.15714172324E+04  0.50400001928E-02 0. -1.
       -1    1    3    3    0  502 -0.12241391684E+04 -0.96889735893E+03 -0.80512617970E+03  0.17565611179E+04  0.50400001928E-02 0.  1.
</event>
<event>
 5   0  0.2486268E-07  0.3901283E+04  0.7818609E-02  0.8024762E-01
       -2   -1    0    0    0  501  0.00000000000E+00  0.00000000000E+00  0.15603604392E+04  0.15603604392E+04  0.25500000920E-02 0. -1.
        2   -1    0    0  501    0  0.00000000000E+00  0.00000000000E+00 -0.24385407869E+04  0.24385407869E+04  0.25500000920E-02 0.  1.
    10030    2    1    2    0    0  0.00000000000E+00  0.00000000000E+00 -0.87818034774E+03  0.39989012262E+04  0.39012831599E+04 0.  0.
        5    1    3    3  502    0  0.12645712846E+04  0.59733420504E+03  0.95472565988E+03  0.16933611139E+04  0.46999998093E+01 0. -1.
       -5    1    3    3    0  502 -0.12645712846E+04 -0.59733420504E+03 -0.18329060076E+04  0.23055401123E+04  0.46999998093E+01 0.  1.
</event>
<event>
 5   0  0.7675750E-08  0.3923573E+04  0.7818609E-02  0.8020144E-01
       -1   -1    0    0    0  501  0.00000000000E+00  0.00000000000E+00  0.16304492997E+04  0.16304492997E+04  0.50400001928E-02 0. -1.
        1   -1    0    0  501    0  0.00000000000E+00  0.00000000000E+00 -0.23604578396E+04  0.23604578396E+04  0.50400001928E-02 0.  1.
    10030    2    1    2    0    0  0.00000000000E+00  0.00000000000E+00 -0.73000853984E+03  0.39909071393E+04  0.39235732855E+04 0.  0.
        2    1    3    3  502    0  0.39835318883E+03  0.19099530507E+04 -0.57346258226E+03  0.20335843361E+04  0.25500000920E-02 0.  1.
       -2    1    3    3    0  502 -0.39835318883E+03 -0.19099530507E+04 -0.15654595758E+03  0.19573228032E+04  0.25500000920E-02 0. -1.
</event>
<event>
 5   0  0.7675750E-08  0.3931852E+04  0.7818609E-02  0.8018437E-01
        1   -1    0    0  501    0  0.00000000000E+00  0.00000000000E+00  0.13983836999E+04  0.13983837000E+04  0.50400001928E-02 0. -1.
       -1   -1    0    0    0  501  0.00000000000E+00  0.00000000000E+00 -0.27638086837E+04  0.27638086837E+04  0.50400001928E-02 0.  1.
    10030    2    1    2    0    0  0.00000000000E+00  0.00000000000E+00 -0.13654249838E+04  0.41621923837E+04  0.39318519876E+04 0.  0.
        2    1    3    3  502    0  0.18345233628E+04 -0.34165165190E+03 -0.13375496801E+04  0.22959183275E+04  0.25500000920E-02 0. -1.
       -2    1    3    3    0  502 -0.18345233628E+04  0.34165165190E+03 -0.27875303724E+02  0.18662740561E+04  0.25500000920E-02 0.  1.
</event>
<event>
 5   0  0.7731706E-08  0.3893589E+04  0.7818609E-02  0.8026364E-01
       -1   -1    0    0    0  501  0.00000000000E+00  0.00000000000E+00  0.22225421398E+04  0.22225421398E+04  0.50400001928E-02 0. -1.
        1   -1    0    0  501    0  0.00000000000E+00  0.00000000000E+00 -0.17052587877E+04  0.17052587877E+04  0.50400001928E-02 0.  1.
    10030    2    1    2    0    0  0.00000000000E+00  0.00000000000E+00  0.51728335209E+03  0.39278009276E+04  0.38935893543E+04 0.  0.
        3    1    3    3  502    0 -0.13047276274E+04  0.13803485965E+04 -0.17211503374E+03  0.19071706858E+04  0.10100000352E+00 0.  1.
       -3    1    3    3    0  502  0.13047276274E+04 -0.13803485965E+04  0.68939838583E+03  0.20206302418E+04  0.10100000352E+00 0. -1.
</event>
<event>
 5   0  0.2395572E-07  0.3953041E+04  0.7818609E-02  0.8014087E-01
       -2   -1    0    0    0  501  0.00000000000E+00  0.00000000000E+00  0.16827931037E+04  0.16827931037E+04  0.25500000920E-02 0. -1.
        2   -1    0    0  501    0  0.00000000000E+00  0.00000000000E+00 -0.23215178088E+04  0.23215178088E+04  0.25500000920E-02 0.  1.
    10030    2    1    2    0    0  0.00000000000E+00  0.00000000000E+00 -0.63872470517E+03  0.40043109125E+04  0.39530414411E+04 0.  0.
        3    1    3    3  502    0  0.19146980828E+04  0.27842916998E+03  0.89659928370E+02  0.19369126114E+04  0.10100000352E+00 0. -1.
       -3    1    3    3    0  502 -0.19146980828E+04 -0.27842916998E+03 -0.72838463354E+03  0.20673983012E+04  0.10100000352E+00 0.  1.
</event>
<event>
 5   0  0.7675750E-08  0.3887323E+04  0.7818609E-02  0.8027671E-01
        1   -1    0    0  501    0  0.00000000000E+00  0.00000000000E+00  0.22407408402E+04  0.22407408402E+04  0.50400001928E-02 0. -1.
       -1   -1    0    0    0  501  0.00000000000E+00  0.00000000000E+00 -0.16859690644E+04  0.16859690644E+04  0.50400001928E-02 0.  1.
    10030    2    1    2    0    0  0.00000000000E+00  0.00000000000E+00  0.55477177577E+03  0.39267099046E+04  0.38873228515E+04 0.  0.
        5    1    3    3  502    0 -0.89135692579E+03 -0.14204479184E+04  0.12699959581E+04  0.21035924704E+04  0.46999998093E+01 0. -1.
       -5    1    3    3    0  502  0.89135692579E+03  0.14204479184E+04 -0.71522418230E+03  0.18231174342E+04  0.46999998093E+01 0.  1.
</event>
<event>
 5   0  0.7675750E-08  0.3887299E+04  0.7818609E-02  0.8027676E-01
        1   -1    0    0  501    0  0.00000000000E+00  0.00000000000E+00  0.26853908587E+04  0.26853908587E+04  0.50400001928E-02 0. -1.
       -1   -1    0    0    0  501  0.00000000000E+00  0.00000000000E+00 -0.14067872808E+04  0.14067872808E+04  0.50400001928E-02 0.  1.
    10030    2    1    2    0    0  0.00000000000E+00  0.00000000000E+00  0.12786035779E+04  0.40921781396E+04  0.38872991674E+04 0.  0.
        4    1    3    3  502    0 -0.79687842154E+03 -0.25151021627E+03  0.24866409362E+04  0.26232913231E+04  0.12699999809E+01 0. -1.
       -4    1    3    3    0  502  0.79687842154E+03  0.25151021627E+03 -0.12080373583E+04  0.14688868164E+04  0.12699999809E+01 0.  1.
</event>
<event>
 5   0  0.2395572E-07  0.3869820E+04  0.7818609E-02  0.8031336E-01
        2   -1    0    0  501    0  0.00000000000E+00  0.00000000000E+00  0.21909890748E+04  0.21909890748E+04  0.25500000920E-02 0. -1.
       -2   -1    0    0    0  501  0.00000000000E+00  0.00000000000E+00 -0.17087609659E+04  0.17087609659E+04  0.25500000920E-02 0.  1.
    10030    2    1    2    0    0  0.00000000000E+00  0.00000000000E+00  0.48222810892E+03  0.38997500407E+04  0.38698199481E+04 0.  0.
        3    1    3    3  502    0 -0.17777363865E+04 -0.75167076039E+03  0.10396958619E+03  0.19329162623E+04  0.10100000352E+00 0.  1.
       -3    1    3    3    0  502  0.17777363865E+04  0.75167076039E+03  0.37825852273E+03  0.19668337785E+04  0.10100000352E+00 0. -1.
</event>
<event>
 5   0  0.2486268E-07  0.3902204E+04  0.7818609E-02  0.8024571E-01
        2   -1    0    0  501    0  0.00000000000E+00  0.00000000000E+00  0.12675863288E+04  0.12675863288E+04  0.25500000920E-02 0. -1.
       -2   -1    0    0    0  501  0.00000000000E+00  0.00000000000E+00 -0.30031877546E+04  0.30031877546E+04  0.25500000920E-02 0.  1.
    10030    2    1    2    0    0  0.00000000000E+00  0.00000000000E+00 -0.17356014258E+04  0.42707740834E+04  0.39022043722E+04 0.  0.
        5    1    3    3  502    0  0.12397549739E+04  0.34202895193E+02 -0.25162554504E+04  0.28053031592E+04  0.46999998093E+01 0.  1.
       -5    1    3    3    0  502 -0.12397549739E+04 -0.34202895193E+02  0.78065402466E+03  0.14654709242E+04  0.46999998093E+01 0. -1.
</event>
<event>
 5   0  0.2486268E-07  0.3855039E+04  0.7818609E-02  0.8034446E-01
        2   -1    0    0  501    0  0.00000000000E+00  0.00000000000E+00  0.15382120659E+04  0.15382120659E+04  0.25500000920E-02 0. -1.
       -2   -1    0    0    0  501  0.00000000000E+00  0.00000000000E+00 -0.24153574853E+04  0.24153574853E+04  0.25500000920E-02 0.  1.
    10030    2    1    2    0    0  0.00000000000E+00  0.00000000000E+00 -0.87714541937E+03  0.39535695512E+04  0.38550393136E+04 0.  0.
        5    1    3    3  502    0  0.19203356494E+04  0.13788003339E+03 -0.53373455211E+03  0.19978975379E+04  0.46999998093E+01 0.  1.
       -5    1    3    3    0  502 -0.19203356494E+04 -0.13788003339E+03 -0.34341086725E+03  0.19556720133E+04  0.46999998093E+01 0. -1.
</event>
<event>
 5   0  0.2486268E-07  0.3868004E+04  0.7818609E-02  0.8031717E-01
       -2   -1    0    0    0  501  0.00000000000E+00  0.00000000000E+00  0.18673046119E+04  0.18673046119E+04  0.25500000920E-02 0. -1.
        2   -1    0    0  501    0  0.00000000000E+00  0.00000000000E+00 -0.20030821562E+04  0.20030821562E+04  0.25500000920E-02 0.  1.
    10030    2    1    2    0    0  0.00000000000E+00  0.00000000000E+00 -0.13577754426E+03  0.38703867681E+04  0.38680044200E+04 0.  0.
        5    1    3    3  502    0  0.65782192038E+03 -0.35640492101E+03  0.17166300536E+04  0.18725904458E+04  0.46999998093E+01 0. -1.
       -5    1    3    3    0  502 -0.65782192038E+03  0.35640492101E+03 -0.18524075979E+04  0.19977963223E+04  0.46999998093E+01 0.  1.
</event>
<event>
 5   0  0.2473224E-07  0.3890564E+04  0.7818609E-02  0.8026994E-01
        2   -1    0    0  501    0  0.00000000000E+00  0.00000000000E+00  0.26010091132E+04  0.26010091132E+04  0.25500000920E-02 0. -1.
       -2   -1    0    0    0  501  0.00000000000E+00  0.00000000000E+00 -0.14548671849E+04  0.14548671849E+04  0.25500000920E-02 0.  1.
    10030    2    1    2    0    0  0.00000000000E+00  0.00000000000E+00  0.11461419283E+04  0.40558762981E+04  0.38905643839E+04 0.  0.
        2    1    3    3  502    0 -0.11830049499E+04 -0.54546661536E+03 -0.93298982722E+03  0.16023434581E+04  0.25500000920E-02 0.  1.
       -2    1    3    3    0  502  0.11830049499E+04  0.54546661536E+03  0.20791317556E+04  0.24535328400E+04  0.25500000920E-02 0. -1.
</event>
<event>
 5   0  0.2384787E-07  0.3150359E+04  0.7818609E-02  0.8202052E-01
        2   -1    0    0  501    0  0.00000000000E+00  0.00000000000E+00  0.17710063727E+04  0.17710063727E+04  0.25500000920E-02 0.  1.
       -2   -1    0    0    0  501  0.00000000000E+00  0.00000000000E+00 -0.14010059527E+04  0.14010059527E+04  0.25500000920E-02 0. -1.
    10030    2    1    2    0    0  0.00000000000E+00  0.00000000000E+00  0.37000041992E+03  0.31720123254E+04  0.31503590084E+04 0.  0.
        4    1    3    3  502    0  0.86776940766E+03 -0.12501592196E+04 -0.22432447902E+03  0.15382603499E+04  0.12699999809E+01 0. -1.
       -4    1    3    3    0  502 -0.86776940766E+03  0.12501592196E+04  0.59432489895E+03  0.16337519755E+04  0.12699999809E+01 0.  1.
</event>
<event>
 5   0  0.2395572E-07  0.3940019E+04  0.7818609E-02  0.8016757E-01
       -2   -1    0    0    0  501  0.00000000000E+00  0.00000000000E+00  0.16248660918E+04  0.16248660918E+04  0.25500000920E-02 0. -1.
        2   -1    0    0  501    0  0.00000000000E+00  0.00000000000E+00 -0.23884662532E+04  0.23884662532E+04  0.25500000920E-02 0.  1.
    10030    2    1    2    0    0  0.00000000000E+00  0.00000000000E+00 -0.76360016138E+03  0.40133323450E+04  0.39400192011E+04 0.  0.
        3    1    3    3  502    0  0.88358324500E+03 -0.89032318382E+03 -0.19291256316E+04  0.23010694112E+04  0.10100000352E+00 0.  1.
       -3    1    3    3    0  502 -0.88358324500E+03  0.89032318382E+03  0.11655254702E+04  0.17122629338E+04  0.10100000352E+00 0. -1.
</event>
<event>
 5   0  0.2486268E-07  0.3909804E+04  0.7818609E-02  0.8022993E-01
        2   -1    0    0  501    0  0.00000000000E+00  0.00000000000E+00  0.22792855822E+04  0.22792855822E+04  0.25500000920E-02 0.  1.
       -2   -1    0    0    0  501  0.00000000000E+00  0.00000000000E+00 -0.16766840732E+04  0.16766840732E+04  0.25500000920E-02 0. -1.
    10030    2    1    2    0    0  0.00000000000E+00  0.00000000000E+00  0.60260150900E+03  0.39559696555E+04  0.39098040023E+04 0.  0.
        5    1    3    3  502    0 -0.97388750835E+03 -0.36719708209E+03  0.19756297221E+04  0.22330305562E+04  0.46999998093E+01 0.  1.
       -5    1    3    3    0  502  0.97388750835E+03  0.36719708209E+03 -0.13730282131E+04  0.17229390993E+04  0.46999998093E+01 0. -1.
</event>
<event>
 5   0  0.2384787E-07  0.3802521E+04  0.7818609E-02  0.8045614E-01
       -2   -1    0    0    0  501  0.00000000000E+00  0.00000000000E+00  0.15977831776E+04  0.15977831776E+04  0.25500000920E-02 0.  1.
        2   -1    0    0  501    0  0.00000000000E+00  0.00000000000E+00 -0.22623793560E+04  0.22623793560E+04  0.25500000920E-02 0. -1.
    10030    2    1    2    0    0  0.00000000000E+00  0.00000000000E+00 -0.66459617839E+03  0.38601625335E+04  0.38025210985E+04 0.  0.
        4    1    3    3  502    0 -0.99091913660E+03  0.12378164769E+04 -0.13973344540E+04  0.21134463691E+04  0.12699999809E+01 0. -1.
       -4    1    3    3    0  502  0.99091913660E+03 -0.12378164769E+04  0.73273827560E+03  0.17467161645E+04  0.12699999809E+01 0.  1.
</event>
<event>
 5   0  0.2446281E-07  0.3920749E+04  0.7818609E-02  0.8020728E-01
       -2   -1    0    0    0  501  0.00000000000E+00  0.00000000000E+00  0.17939412243E+04  0.17939412243E+04  0.25500000920E-02 0.  1.
        2   -1    0    0  501    0  0.00000000000E+00  0.00000000000E+00 -0.21422483847E+04  0.21422483847E+04  0.25500000920E-02 0. -1.
    10030    2    1    2    0    0  0.00000000000E+00  0.00000000000E+00 -0.34830716038E+03  0.39361896091E+04  0.39207487500E+04 0.  0.
        1    1    3    3  502    0  0.96137924317E+03  0.25179298770E+03  0.15222994475E+04  0.18179783733E+04  0.50400001928E-02 0.  1.
       -1    1    3    3    0  502 -0.96137924317E+03 -0.25179298770E+03 -0.18706066079E+04  0.21182112358E+04  0.50400001928E-02 0. -1.
</event>
<event>
 5   0  0.7675750E-08  0.3869224E+04  0.7818609E-02  0.8031461E-01
        1   -1    0    0  501    0  0.00000000000E+00  0.00000000000E+00  0.25279357823E+04  0.25279357823E+04  0.50400001928E-02 0. -1.
       -1   -1    0    0    0  501  0.00000000000E+00  0.00000000000E+00 -0.14805455660E+04  0.14805455660E+04  0.50400001928E-02 0.  1.
    10030    2    1    2    0    0  0.00000000000E+00  0.00000000000E+00  0.10473902163E+04  0.40084813484E+04  0.38692242705E+04 0.  0.
        2    1    3    3  502    0  0.46359030659E+03  0.15080976132E+03 -0.14158682661E+04  0.14974453257E+04  0.25500000920E-02 0.  1.
       -2    1    3    3    0  502 -0.46359030659E+03 -0.15080976132E+03  0.24632584824E+04  0.25110360227E+04  0.25500000920E-02 0. -1.
</event>
<event>
 5   0  0.2395572E-07  0.3978955E+04  0.7818609E-02  0.8008805E-01
        2   -1    0    0  501    0  0.00000000000E+00  0.00000000000E+00  0.26973529554E+04  0.26973529554E+04  0.25500000920E-02 0. -1.
       -2   -1    0    0    0  501  0.00000000000E+00  0.00000000000E+00 -0.14673724276E+04  0.14673724276E+04  0.25500000920E-02 0.  1.
    10030    2    1    2    0    0  0.00000000000E+00  0.00000000000E+00  0.12299805278E+04  0.41647253830E+04  0.39789553173E+04 0.  0.
        3    1    3    3  502    0  0.15670631039E+03 -0.80366441646E+02  0.26891780574E+04  0.26949386389E+04  0.10100000352E+00 0. -1.
       -3    1    3    3    0  502 -0.15670631039E+03  0.80366441646E+02 -0.14591975296E+04  0.14697867441E+04  0.10100000352E+00 0.  1.
</event>
<event>
 5   0  0.7675750E-08  0.3948047E+04  0.7818609E-02  0.8015110E-01
       -1   -1    0    0    0  501  0.00000000000E+00  0.00000000000E+00  0.16089934212E+04  0.16089934212E+04  0.50400001928E-02 0. -1.
        1   -1    0    0  501    0  0.00000000000E+00  0.00000000000E+00 -0.24218668781E+04  0.24218668781E+04  0.50400001928E-02 0.  1.
    10030    2    1    2    0    0  0.00000000000E+00  0.00000000000E+00 -0.81287345691E+03  0.40308602994E+04  0.39480465418E+04 0.  0.
        4    1    3    3  502    0  0.23520012229E+03  0.19537820900E+04 -0.24766690853E+03  0.19834122273E+04  0.12699999809E+01 0.  1.
       -4    1    3    3    0  502 -0.23520012229E+03 -0.19537820900E+04 -0.56520654839E+03  0.20474480721E+04  0.12699999809E+01 0. -1.
</event>
<event>
 5   0  0.7675750E-08  0.3927896E+04  0.7818609E-02  0.8019252E-01
       -1   -1    0    0    0  501  0.00000000000E+00  0.00000000000E+00  0.26777205117E+04  0.26777205117E+04  0.50400001928E-02 0.  1.
        1   -1    0    0  501    0  0.00000000000E+00  0.00000000000E+00 -0.14404381799E+04  0.14404381800E+04  0.50400001928E-02 0. -1.
    10030    2    1    2    0    0  0.00000000000E+00  0.00000000000E+00  0.12372823318E+04  0.41181586917E+04  0.39278955487E+04 0.  0.
        1    1    3    3  502    0 -0.13099847575E+04 -0.12418592849E+04 -0.19267468059E+03  0.18153231340E+04  0.50400001928E-02 0. -1.
       -1    1    3    3    0  502  0.13099847575E+04  0.12418592849E+04  0.14299570124E+04  0.23028355577E+04  0.50400001928E-02 0.  1.
</event>
<event>
 5   0  0.7675750E-08  0.3724170E+04  0.7818609E-02  0.8062626E-01
       -3   -1    0    0    0  501  0.00000000000E+00  0.00000000000E+00  0.23066982950E+04  0.23066982972E+04  0.10100000352E+00 0.  1.
        3   -1    0    0  501    0  0.00000000000E+00  0.00000000000E+00 -0.15031703327E+04  0.15031703361E+04  0.10100000352E+00 0. -1.
    10030    2    1    2    0    0  0.00000000000E+00  0.00000000000E+00  0.80352796233E+03  0.38098686334E+04  0.37241699501E+04 0.  0.
        4    1    3    3  502    0 -0.87034522158E+03  0.12694519843E+04 -0.67037435889E+03  0.16788128362E+04  0.12699999809E+01 0.  1.
       -4    1    3    3    0  502  0.87034522158E+03 -0.12694519843E+04  0.14739023212E+04  0.21310557971E+04  0.12699999809E+01 0. -1.
</event>
<event>
 5   0  0.2384787E-07  0.3901693E+04  0.7818609E-02  0.8024677E-01
        2   -1    0    0  501    0  0.00000000000E+00  0.00000000000E+00  0.21865269550E+04  0.21865269550E+04  0.25500000920E-02 0. -1.
       -2   -1    0    0    0  501  0.00000000000E+00  0.00000000000E+00 -0.17405693808E+04  0.17405693808E+04  0.25500000920E-02 0.  1.
    10030    2    1    2    0    0  0.00000000000E+00  0.00000000000E+00  0.44595757416E+03  0.39270963358E+04  0.39016928983E+04 0.  0.
        4    1    3    3  502    0 -0.84822533632E+03  0.10656149561E+04  0.16287753771E+04  0.21231891809E+04  0.12699999809E+01 0. -1.
       -4    1    3    3    0  502  0.84822533632E+03 -0.10656149561E+04 -0.11828178029E+04  0.18039071549E+04  0.12699999809E+01 0.  1.
</event>
<event>
 5   0  0.7675750E-08  0.3669062E+04  0.7818609E-02  0.8074853E-01
       -1   -1    0    0    0  501  0.00000000000E+00  0.00000000000E+00  0.20900534500E+04  0.20900534500E+04  0.50400001928E-02 0. -1.
        1   -1    0    0  501    0  0.00000000000E+00  0.00000000000E+00 -0.16102477733E+04  0.16102477733E+04  0.50400001928E-02 0.  1.
    10030    2    1    2    0    0  0.00000000000E+00  0.00000000000E+00  0.47980567674E+03  0.37003012233E+04  0.36690619586E+04 0.  0.
        2    1    3    3  502    0 -0.11079358550E+03 -0.13791529938E+04  0.14548028557E+04  0.20076826313E+04  0.25500000920E-02 0. -1.
       -2    1    3    3    0  502  0.11079358550E+03  0.13791529938E+04 -0.97499717900E+03  0.16926185920E+04  0.25500000920E-02 0.  1.
</event>
<event>
 5   0  0.2473224E-07  0.3864785E+04  0.7818609E-02  0.8032393E-01
       -2   -1    0    0    0  501  0.00000000000E+00  0.00000000000E+00  0.17314043798E+04  0.17314043798E+04  0.25500000920E-02 0. -1.
        2   -1    0    0  501    0  0.00000000000E+00  0.00000000000E+00 -0.21567116240E+04  0.21567116240E+04  0.25500000920E-02 0.  1.
    10030    2    1    2    0    0  0.00000000000E+00  0.00000000000E+00 -0.42530724414E+03  0.38881160038E+04  0.38647845745E+04 0.  0.
        2    1    3    3  502    0 -0.65720610781E+03  0.25029255049E+03 -0.20234009648E+04  0.21421292429E+04  0.25500000920E-02 0.  1.
       -2    1    3    3    0  502  0.65720610781E+03 -0.25029255049E+03  0.15980937207E+04  0.17459867609E+04  0.25500000920E-02 0. -1.
</event>
<event>
 5   0  0.2446281E-07  0.3888547E+04  0.7818609E-02  0.8027415E-01
       -2   -1    0    0    0  501  0.00000000000E+00  0.00000000000E+00  0.25857068226E+04  0.25857068226E+04  0.25500000920E-02 0.  1.
        2   -1    0    0  501    0  0.00000000000E+00  0.00000000000E+00 -0.14619596513E+04  0.14619596513E+04  0.25500000920E-02 0. -1.
    10030    2    1    2    0    0  0.00000000000E+00  0.00000000000E+00  0.11237471713E+04  0.40476664739E+04  0.38885467953E+04 0.  0.
        1    1    3    3  502    0  0.27064281140E+03  0.17095734582E+04 -0.35997861130E+03  0.17679008855E+04  0.50400001928E-02 0. -1.
       -1    1    3    3    0  502 -0.27064281140E+03 -0.17095734582E+04  0.14837257826E+04  0.22797655884E+04  0.50400001928E-02 0.  1.
</event>
<event>
 5   0  0.2486268E-07  0.3902759E+04  0.7818609E-02  0.8024456E-01
       -2   -1    0    0    0  501  0.00000000000E+00  0.00000000000E+00  0.19978124947E+04  0.19978124947E+04  0.25500000920E-02 0.  1.
        2   -1    0    0  501    0  0.00000000000E+00  0.00000000000E+00 -0.19060255214E+04  0.19060255214E+04  0.25500000920E-02 0. -1.
    10030    2    1    2    0    0  0.00000000000E+00  0.00000000000E+00  0.91786973373E+02  0.39038380161E+04  0.39027588201E+04 0.  0.
        5    1    3    3  502    0 -0.16016647144E+04  0.11010498058E+04  0.21977762777E+03  0.19560073690E+04  0.46999998093E+01 0.  1.
       -5    1    3    3    0  502  0.16016647144E+04 -0.11010498058E+04 -0.12799065440E+03  0.19478306471E+04  0.46999998093E+01 0. -1.
</event>
<event>
 5   0  0.7675750E-08  0.3878795E+04  0.7818609E-02  0.8029454E-01
       -1   -1    0    0    0  501  0.00000000000E+00  0.00000000000E+00  0.14983235649E+04  0.14983235649E+04  0.50400001928E-02 0.  1.
        1   -1    0    0  501    0  0.00000000000E+00  0.00000000000E+00 -0.25103144076E+04  0.25103144076E+04  0.50400001928E-02 0. -1.
    10030    2    1    2    0    0  0.00000000000E+00  0.00000000000E+00 -0.10119908427E+04  0.40086379725E+04  0.38787952935E+04 0.  0.
        2    1    3    3  502    0  0.17256268525E+04  0.87769590450E+03 -0.62439529585E+03  0.20342093355E+04  0.25500000920E-02 0.  1.
       -2    1    3    3    0  502 -0.17256268525E+04 -0.87769590450E+03 -0.38759554684E+03  0.19744286371E+04  0.25500000920E-02 0. -1.
</event>
<event>
 5   0  0.7675750E-08  0.3891829E+04  0.7818609E-02  0.8026731E-01
        1   -1    0    0  501    0  0.00000000000E+00  0.00000000000E+00  0.25314267377E+04  0.25314267377E+04  0.50400001928E-02 0.  1.
       -1   -1    0    0    0  501  0.00000000000E+00  0.00000000000E+00 -0.14958295938E+04  0.14958295938E+04  0.50400001928E-02 0. -1.
    10030    2    1    2    0    0  0.00000000000E+00  0.00000000000E+00  0.10355971439E+04  0.40272563315E+04  0.38918288908E+04 0.  0.
        4    1    3    3  502    0  0.14783295138E+04  0.91973823551E+03 -0.38146689935E+03  0.17823846895E+04  0.12699999809E+01 0.  1.
       -4    1    3    3    0  502 -0.14783295138E+04 -0.91973823551E+03  0.14170640433E+04  0.22448716420E+04  0.12699999809E+01 0. -1.
</event>
<event>
 5   0  0.2384787E-07  0.3898473E+04  0.7818609E-02  0.8025347E-01
        2   -1    0    0  501    0  0.00000000000E+00  0.00000000000E+00  0.21511172367E+04  0.21511172367E+04  0.25500000920E-02 0. -1.
       -2   -1    0    0    0  501  0.00000000000E+00  0.00000000000E+00 -0.17663020547E+04  0.17663020547E+04  0.25500000920E-02 0.  1.
    10030    2    1    2    0    0  0.00000000000E+00  0.00000000000E+00  0.38481518198E+03  0.39174192914E+04  0.38984729293E+04 0.  0.
        4    1    3    3  502    0  0.16990986769E+04 -0.85825144365E+03 -0.22914202792E+03  0.19173000642E+04  0.12699999809E+01 0.  1.
       -4    1    3    3    0  502 -0.16990986769E+04  0.85825144365E+03  0.61395720990E+03  0.20001192272E+04  0.12699999809E+01 0. -1.
</event>
<event>
 5   0  0.2395572E-07  0.3900191E+04  0.7818609E-02  0.8024989E-01
        2   -1    0    0  501    0  0.00000000000E+00  0.00000000000E+00  0.21207618978E+04  0.21207618978E+04  0.25500000920E-02 0. -1.
       -2   -1    0    0    0  501  0.00000000000E+00  0.00000000000E+00 -0.17931632729E+04  0.17931632729E+04  0.25500000920E-02 0.  1.
    10030    2    1    2    0    0  0.00000000000E+00  0.00000000000E+00  0.32759862486E+03  0.39139251706E+04  0.39001909418E+04 0.  0.
        3    1    3    3  502    0 -0.67643426461E+03  0.17034102602E+04 -0.50465632443E+03  0.19010123211E+04  0.10100000352E+00 0.  1.
       -3    1    3    3    0  502  0.67643426461E+03 -0.17034102602E+04  0.83225494929E+03  0.20129128495E+04  0.10100000352E+00 0. -1.
</event>
<event>
 5   0  0.7675750E-08  0.3906236E+04  0.7818609E-02  0.8023733E-01
        1   -1    0    0  501    0  0.00000000000E+00  0.00000000000E+00  0.28781585050E+04  0.28781585050E+04  0.50400001928E-02 0. -1.
       -1   -1    0    0    0  501  0.00000000000E+00  0.00000000000E+00 -0.13253856820E+04  0.13253856820E+04  0.50400001928E-02 0.  1.
    10030    2    1    2    0    0  0.00000000000E+00  0.00000000000E+00  0.15527728230E+04  0.42035441870E+04  0.39062360774E+04 0.  0.
        1    1    3    3  502    0  0.15630310853E+04  0.42335949965E+03  0.19514537794E+04  0.25358373948E+04  0.50400001928E-02 0. -1.
       -1    1    3    3    0  502 -0.15630310853E+04 -0.42335949965E+03 -0.39868095643E+03  0.16677067922E+04  0.50400001928E-02 0.  1.
</event>
<event>
 5   0  0.7731706E-08  0.3741941E+04  0.7818609E-02  0.8058730E-01
        1   -1    0    0  501    0  0.00000000000E+00  0.00000000000E+00  0.23761154949E+04  0.23761154949E+04  0.50400001928E-02 0. -1.
       -1   -1    0    0    0  501  0.00000000000E+00  0.00000000000E+00 -0.14732157008E+04  0.14732157008E+04  0.50400001928E-02 0.  1.
    10030    2    1    2    0    0  0.00000000000E+00  0.00000000000E+00  0.90289979410E+03  0.38493311957E+04  0.37419410226E+04 0.  0.
        3    1    3    3  502    0 -0.79029758818E+03  0.16956640943E+04  0.42455289959E+03  0.19183566335E+04  0.10100000352E+00 0. -1.
       -3    1    3    3    0  502  0.79029758818E+03 -0.16956640943E+04  0.47834689451E+03  0.19309745623E+04  0.10100000352E+00 0.  1.
</event>
<event>
 5   0  0.7675750E-08  0.3871949E+04  0.7818609E-02  0.8030889E-01
       -1   -1    0    0    0  501  0.00000000000E+00  0.00000000000E+00  0.13542803468E+04  0.13542803468E+04  0.50400001928E-02 0. -1.
        1   -1    0    0  501    0  0.00000000000E+00  0.00000000000E+00 -0.27675192701E+04  0.27675192701E+04  0.50400001928E-02 0.  1.
    10030    2    1    2    0    0  0.00000000000E+00  0.00000000000E+00 -0.14132389233E+04  0.41217996169E+04  0.38719488410E+04 0.  0.
        2    1    3    3  502    0  0.83884785457E+03  0.47526318158E+03 -0.24937772769E+04  0.26736615197E+04  0.25500000920E-02 0.  1.
       -2    1    3    3    0  502 -0.83884785457E+03 -0.47526318158E+03  0.10805383536E+04  0.14481380972E+04  0.25500000920E-02 0. -1.
</event>
<event>
 5   0  0.7675750E-08  0.3875917E+04  0.7818609E-02  0.8030057E-01
        1   -1    0    0  501    0  0.00000000000E+00  0.00000000000E+00  0.19255952564E+04  0.19255952565E+04  0.50400001928E-02 0. -1.
       -1   -1    0    0    0  501  0.00000000000E+00  0.00000000000E+00 -0.19504009697E+04  0.19504009697E+04  0.50400001928E-02 0.  1.
    10030    2    1    2    0    0  0.00000000000E+00  0.00000000000E+00 -0.24805713203E+02  0.38759962261E+04  0.38759168491E+04 0.  0.
        2    1    3    3  502    0  0.10401979077E+04 -0.16104624425E+04 -0.29539608888E+03  0.19398092214E+04  0.25500000920E-02 0. -1.
       -2    1    3    3    0  502 -0.10401979077E+04  0.16104624425E+04  0.27059037567E+03  0.19361870047E+04  0.25500000920E-02 0.  1.
</event>
<event>
 5   0  0.2486268E-07  0.3774564E+04  0.7818609E-02  0.8051636E-01
       -2   -1    0    0    0  501  0.00000000000E+00  0.00000000000E+00  0.19055015101E+04  0.19055015101E+04  0.25500000920E-02 0. -1.
        2   -1    0    0  501    0  0.00000000000E+00  0.00000000000E+00 -0.18692366042E+04  0.18692366042E+04  0.25500000920E-02 0.  1.
    10030    2    1    2    0    0  0.00000000000E+00  0.00000000000E+00  0.36264905844E+02  0.37747381143E+04  0.37745639070E+04 0.  0.
        5    1    3    3  502    0 -0.52727630640E+03 -0.16763333688E+04 -0.67015596151E+03  0.18807564886E+04  0.46999998093E+01 0.  1.
       -5    1    3    3    0  502  0.52727630640E+03  0.16763333688E+04  0.70642086735E+03  0.18939816257E+04  0.46999998093E+01 0. -1.
</event>
<event>
 5   0  0.7675750E-08  0.3896246E+04  0.7818609E-02  0.8025810E-01
       -3   -1    0    0    0  501  0.00000000000E+00  0.00000000000E+00  0.15739654851E+04  0.15739654883E+04  0.10100000352E+00 0.  1.
        3   -1    0    0  501    0  0.00000000000E+00  0.00000000000E+00 -0.24112235041E+04  0.24112235062E+04  0.10100000352E+00 0. -1.
    10030    2    1    2    0    0  0.00000000000E+00  0.00000000000E+00 -0.83725801902E+03  0.39851889946E+04  0.38962456714E+04 0.  0.
        4    1    3    3  502    0  0.17086482060E+04 -0.53216809263E+03  0.36868240282E+03  0.18271863336E+04  0.12699999809E+01 0.  1.
       -4    1    3    3    0  502 -0.17086482060E+04  0.53216809263E+03 -0.12059404218E+04  0.21580026609E+04  0.12699999809E+01 0. -1.
</event>
<event>
 5   0  0.7731706E-08  0.3884263E+04  0.7818609E-02  0.8028310E-01
        1   -1    0    0  501    0  0.00000000000E+00  0.00000000000E+00  0.14039025248E+04  0.14039025248E+04  0.50400001928E-02 0. -1.
       -1   -1    0    0    0  501  0.00000000000E+00  0.00000000000E+00 -0.26867070978E+04  0.26867070978E+04  0.50400001928E-02 0.  1.
    10030    2    1    2    0    0  0.00000000000E+00  0.00000000000E+00 -0.12828045730E+04  0.40906096226E+04  0.38842630591E+04 0.  0.
        3    1    3    3  502    0 -0.55580874042E+03  0.14738546377E+04  0.55504269460E+03  0.16701027669E+04  0.10100000352E+00 0. -1.
       -3    1    3    3    0  502  0.55580874042E+03 -0.14738546377E+04 -0.18378472676E+04  0.24205068557E+04  0.10100000352E+00 0.  1.
</event>
<event>
 5   0  0.7675750E-08  0.3869823E+04  0.7818609E-02  0.8031335E-01
        1   -1    0    0  501    0  0.00000000000E+00  0.00000000000E+00  0.11843090061E+04  0.11843090061E+04  0.50400001928E-02 0. -1.
       -1   -1    0    0    0  501  0.00000000000E+00  0.00000000000E+00 -0.31612380017E+04  0.31612380018E+04  0.50400001928E-02 0.  1.
    10030    2    1    2    0    0  0.00000000000E+00  0.00000000000E+00 -0.19769289956E+04  0.43455470079E+04  0.38698230636E+04 0.  0.
        5    1    3    3  502    0 -0.18261187241E+03  0.12346839185E+04 -0.26487595879E+04  0.29280951007E+04  0.46999998093E+01 0.  1.
       -5    1    3    3    0  502  0.18261187241E+03 -0.12346839185E+04  0.67183059222E+03  0.14174519072E+04  0.46999998093E+01 0. -1.
</event>
<event>
 5   0  0.7675750E-08  0.3890852E+04  0.7818609E-02  0.8026935E-01
       -1   -1    0    0    0  501  0.00000000000E+00  0.00000000000E+00  0.16653205496E+04  0.16653205496E+04  0.50400001928E-02 0. -1.
        1   -1    0    0  501    0  0.00000000000E+00  0.00000000000E+00 -0.22726443776E+04  0.22726443776E+04  0.50400001928E-02 0.  1.
    10030    2    1    2    0    0  0.00000000000E+00  0.00000000000E+00 -0.60732382801E+03  0.39379649272E+04  0.38908515181E+04 0.  0.
        1    1    3    3  502    0 -0.58112753931E+03  0.15787190917E+04  0.68521454984E+03  0.18164752040E+04  0.50400001928E-02 0. -1.
       -1    1    3    3    0  502  0.58112753931E+03 -0.15787190917E+04 -0.12925383778E+04  0.21214897232E+04  0.50400001928E-02 0.  1.
</event>
<event>
 5   0  0.2473224E-07  0.3165235E+04  0.7818609E-02  0.8198059E-01
        2   -1    0    0  501    0  0.00000000000E+00  0.00000000000E+00  0.22082315630E+04  0.22082315630E+04  0.25500000920E-02 0. -1.
       -2   -1    0    0    0  501  0.00000000000E+00  0.00000000000E+00 -0.11342458680E+04  0.11342458680E+04  0.25500000920E-02 0.  1.
    10030    2    1    2    0    0  0.00000000000E+00  0.00000000000E+00  0.10739856950E+04  0.33424774310E+04  0.31652346048E+04 0.  0.
        2    1    3    3  502    0  0.14551193453E+04 -0.59790816650E+03  0.71931991635E+03  0.17298230045E+04  0.25500000920E-02 0.  1.
       -2    1    3    3    0  502 -0.14551193453E+04  0.59790816650E+03  0.35466577870E+03  0.16126544265E+04  0.25500000920E-02 0. -1.
</event>
<event>
 5   0  0.2446281E-07  0.3794684E+04  0.7818609E-02  0.8047297E-01
       -2   -1    0    0    0  501  0.00000000000E+00  0.00000000000E+00  0.17360986751E+04  0.17360986751E+04  0.25500000920E-02 0.  1.
        2   -1    0    0  501    0  0.00000000000E+00  0.00000000000E+00 -0.20735613368E+04  0.20735613368E+04  0.25500000920E-02 0. -1.
    10030    2    1    2    0    0  0.00000000000E+00  0.00000000000E+00 -0.33746266173E+03  0.38096600119E+04  0.37946842238E+04 0.  0.
        1    1    3    3  502    0  0.11892459490E+03 -0.17700484163E+04 -0.84421101512E+03  0.19646645244E+04  0.50400001928E-02 0. -1.
       -1    1    3    3    0  502 -0.11892459490E+03  0.17700484163E+04  0.50674835338E+03  0.18449954875E+04  0.50400001928E-02 0.  1.
</event>
<event>
 5   0  0.7675750E-08  0.3916236E+04  0.7818609E-02  0.8021661E-01
       -3   -1    0    0    0  501  0.00000000000E+00  0.00000000000E+00  0.23227041809E+04  0.23227041831E+04  0.10100000352E+00 0. -1.
        3   -1    0    0  501    0  0.00000000000E+00  0.00000000000E+00 -0.16507597448E+04  0.16507597479E+04  0.10100000352E+00 0.  1.
    10030    2    1    2    0    0  0.00000000000E+00  0.00000000000E+00  0.67194443608E+03  0.39734639310E+04  0.39162362397E+04 0.  0.
        5    1    3    3  502    0 -0.54539317285E+03 -0.15673084304E+04  0.13905329280E+04  0.21650665909E+04  0.46999998093E+01 0. -1.
       -5    1    3    3    0  502  0.54539317285E+03  0.15673084304E+04 -0.71858849195E+03  0.18083973401E+04  0.46999998093E+01 0.  1.
</event>
<event>
 5   0  0.7675750E-08  0.3312952E+04  0.7818609E-02  0.8159608E-01
       -1   -1    0    0    0  501  0.00000000000E+00  0.00000000000E+00  0.19298948505E+04  0.19298948505E+04  0.50400001928E-02 0.  1.
        1   -1    0    0  501    0  0.00000000000E+00  0.00000000000E+00 -0.14217937142E+04  0.14217937142E+04  0.50400001928E-02 0. -1.
    10030    2    1    2    0    0  0.00000000000E+00  0.00000000000E+00  0.50810113629E+03  0.33516885647E+04  0.33129517760E+04 0.  0.
        2    1    3    3  502    0  0.31148008675E+03 -0.12710164213E+04  0.12815087762E+04  0.18316023944E+04  0.25500000920E-02 0.  1.
       -2    1    3    3    0  502 -0.31148008675E+03  0.12710164213E+04 -0.77340763994E+03  0.15200861703E+04  0.25500000920E-02 0. -1.
</event>
<event>
 5   0  0.7731706E-08  0.3833429E+04  0.7818609E-02  0.8039019E-01
       -1   -1    0    0    0  501  0.00000000000E+00  0.00000000000E+00  0.22333291461E+04  0.22333291461E+04  0.50400001928E-02 0. -1.
        1   -1    0    0  501    0  0.00000000000E+00  0.00000000000E+00 -0.16449855340E+04  0.16449855340E+04  0.50400001928E-02 0.  1.
    10030    2    1    2    0    0  0.00000000000E+00  0.00000000000E+00  0.58834361213E+03  0.38783146801E+04  0.38334288245E+04 0.  0.
        3    1    3    3  502    0  0.70315876946E+02  0.17086712858E+04  0.11699240487E+04  0.20720096948E+04  0.10100000352E+00 0. -1.
       -3    1    3    3    0  502 -0.70315876946E+02 -0.17086712858E+04 -0.58158043657E+03  0.18063049853E+04  0.10100000352E+00 0.  1.
</event>
<event>
 5   0  0.2473224E-07  0.3917157E+04  0.7818609E-02  0.8021470E-01
       -2   -1    0    0    0  501  0.00000000000E+00  0.00000000000E+00  0.17225383277E+04  0.17225383277E+04  0.25500000920E-02 0.  1.
        2   -1    0    0  501    0  0.00000000000E+00  0.00000000000E+00 -0.22269628644E+04  0.22269628644E+04  0.25500000920E-02 0. -1.
    10030    2    1    2    0    0  0.00000000000E+00  0.00000000000E+00 -0.50442453668E+03  0.39495011921E+04  0.39171565648E+04 0.  0.
        2    1    3    3  502    0  0.63632678578E+03 -0.10673450686E+04 -0.17786122666E+04  0.21697001794E+04  0.25500000920E-02 0. -1.
       -2    1    3    3    0  502 -0.63632678578E+03  0.10673450686E+04  0.12741877299E+04  0.17798010127E+04  0.25500000920E-02 0.  1.
</event>
<event>
 5   0  0.2446281E-07  0.3763200E+04  0.7818609E-02  0.8054098E-01
       -2   -1    0    0    0  501  0.00000000000E+00  0.00000000000E+00  0.14503206210E+04  0.14503206210E+04  0.25500000920E-02 0.  1.
        2   -1    0    0  501    0  0.00000000000E+00  0.00000000000E+00 -0.24411285150E+04  0.24411285150E+04  0.25500000920E-02 0. -1.
    10030    2    1    2    0    0  0.00000000000E+00  0.00000000000E+00 -0.99080789398E+03  0.38914491361E+04  0.37632002466E+04 0.  0.
        1    1    3    3  502    0  0.15174849839E+04  0.20933530223E+03  0.63446106810E+03  0.16580478859E+04  0.50400001928E-02 0.  1.
       -1    1    3    3    0  502 -0.15174849839E+04 -0.20933530223E+03 -0.16252689621E+04  0.22334012501E+04  0.50400001928E-02 0. -1.
</event>
<event>
 5   0  0.7675750E-08  0.3882269E+04  0.7818609E-02  0.8028727E-01
       -1   -1    0    0    0  501  0.00000000000E+00  0.00000000000E+00  0.28165090199E+04  0.28165090199E+04  0.50400001928E-02 0.  1.
        1   -1    0    0  501    0  0.00000000000E+00  0.00000000000E+00 -0.13378276083E+04  0.13378276083E+04  0.50400001928E-02 0. -1.
    10030    2    1    2    0    0  0.00000000000E+00  0.00000000000E+00  0.14786814115E+04  0.41543366282E+04  0.38822691951E+04 0.  0.
        1    1    3    3  502    0  0.36860301688E+03  0.88182089171E+03  0.25472770528E+04  0.27206794469E+04  0.50400001928E-02 0.  1.
       -1    1    3    3    0  502 -0.36860301688E+03 -0.88182089171E+03 -0.10685956412E+04  0.14336571813E+04  0.50400001928E-02 0. -1.
</event>
<event>
 5   0  0.2473224E-07  0.3968904E+04  0.7818609E-02  0.8010849E-01
        2   -1    0    0  501    0  0.00000000000E+00  0.00000000000E+00  0.24122559314E+04  0.24122559314E+04  0.25500000920E-02 0.  1.
       -2   -1    0    0    0  501  0.00000000000E+00  0.00000000000E+00 -0.16325175414E+04  0.16325175414E+04  0.25500000920E-02 0. -1.
    10030    2    1    2    0    0  0.00000000000E+00  0.00000000000E+00  0.77973839000E+03  0.40447734728E+04  0.39689041925E+04 0.  0.
        2    1    3    3  502    0 -0.98339470408E+03 -0.92135654213E+03  0.18744546160E+04  0.23085803277E+04  0.25500000920E-02 0.  1.
       -2    1    3    3    0  502  0.98339470408E+03  0.92135654213E+03 -0.10947162260E+04  0.17361931451E+04  0.25500000920E-02 0. -1.
</event>
<event>
 5   0  0.7675750E-08  0.3184501E+04  0.7818609E-02  0.8192923E-01
        1   -1    0    0  501    0  0.00000000000E+00  0.00000000000E+00  0.16223859872E+04  0.16223859872E+04  0.50400001928E-02 0. -1.
       -1   -1    0    0    0  501  0.00000000000E+00  0.00000000000E+00 -0.15626745552E+04  0.15626745552E+04  0.50400001928E-02 0.  1.
    10030    2    1    2    0    0  0.00000000000E+00  0.00000000000E+00  0.59711432079E+02  0.31850605424E+04  0.31845007778E+04 0.  0.
        4    1    3    3  502    0  0.90662289511E+03  0.12040354534E+04 -0.48364785448E+03  0.15829034421E+04  0.12699999809E+01 0.  1.
       -4    1    3    3    0  502 -0.90662289511E+03 -0.12040354534E+04  0.54335928656E+03  0.16021571003E+04  0.12699999809E+01 0. -1.
</event>
<event>
 5   0  0.7731706E-08  0.3885151E+04  0.7818609E-02  0.8028125E-01
       -1   -1    0    0    0  501  0.00000000000E+00  0.00000000000E+00  0.17538883211E+04  0.17538883212E+04  0.50400001928E-02 0. -1.
        1   -1    0    0  501    0  0.00000000000E+00  0.00000000000E+00 -0.21515624017E+04  0.21515624017E+04  0.50400001928E-02 0.  1.
    10030    2    1    2    0    0  0.00000000000E+00  0.00000000000E+00 -0.39767408055E+03  0.39054507229E+04  0.38851513065E+04 0.  0.
        3    1    3    3  502    0 -0.18671498771E+04 -0.37113178952E+03  0.18998192531E+03  0.19131337149E+04  0.10100000352E+00 0. -1.
       -3    1    3    3    0  502  0.18671498771E+04  0.37113178952E+03 -0.58765600586E+03  0.19923170080E+04  0.10100000352E+00 0.  1.
</event>
<event>
 5   0  0.2486268E-07  0.3909712E+04  0.7818609E-02  0.8023012E-01
        2   -1    0    0  501    0  0.00000000000E+00  0.00000000000E+00  0.18805117977E+04  0.18805117977E+04  0.25500000920E-02 0.  1.
       -2   -1    0    0    0  501  0.00000000000E+00  0.00000000000E+00 -0.20321394600E+04  0.20321394600E+04  0.25500000920E-02 0. -1.
    10030    2    1    2    0    0  0.00000000000E+00  0.00000000000E+00 -0.15162766224E+03  0.39126512577E+04  0.39097121270E+04 0.  0.
        5    1    3    3  502    0  0.13068676958E+03  0.11045541929E+04  0.15329770613E+04  0.18939798725E+04  0.46999998093E+01 0.  1.
       -5    1    3    3    0  502 -0.13068676958E+03 -0.11045541929E+04 -0.16846047236E+04  0.20186713852E+04  0.46999998093E+01 0. -1.
</event>
<event>
 5   0  0.2473224E-07  0.3995732E+04  0.7818609E-02  0.8005408E-01
        2   -1    0    0  501    0  0.00000000000E+00  0.00000000000E+00  0.18480117061E+04  0.18480117061E+04  0.25500000920E-02 0. -1.
       -2   -1    0    0    0  501  0.00000000000E+00  0.00000000000E+00 -0.21598720580E+04  0.21598720580E+04  0.25500000920E-02 0.  1.
    10030    2    1    2    0    0  0.00000000000E+00  0.00000000000E+00 -0.31186035185E+03  0.40078837641E+04  0.39957321467E+04 0.  0.
        2    1    3    3  502    0  0.16442230110E+04  0.11331921333E+04 -0.21836999879E+03  0.20088004324E+04  0.25500000920E-02 0.  1.
       -2    1    3    3    0  502 -0.16442230110E+04 -0.11331921333E+04 -0.93490353057E+02  0.19990833317E+04  0.25500000920E-02 0. -1.
</event>
<event>
 5   0  0.7675750E-08  0.3924724E+04  0.7818609E-02  0.8019907E-01
       -3   -1    0    0    0  501  0.00000000000E+00  0.00000000000E+00  0.12626351731E+04  0.12626351771E+04  0.10100000352E+00 0. -1.
        3   -1    0    0  501    0  0.00000000000E+00  0.00000000000E+00 -0.30498637170E+04  0.30498637186E+04  0.10100000352E+00 0.  1.
    10030    2    1    2    0    0  0.00000000000E+00  0.00000000000E+00 -0.17872285439E+04  0.43124988957E+04  0.39247243034E+04 0.  0.
        1    1    3    3  502    0  0.31656578871E+02 -0.10456862544E+04 -0.27178931315E+04  0.29122851777E+04  0.50400001928E-02 0.  1.
       -1    1    3    3    0  502 -0.31656578871E+02  0.10456862544E+04  0.93066458765E+03  0.14002137181E+04  0.50400001928E-02 0. -1.
</event>
<event>
 5   0  0.7675750E-08  0.3920946E+04  0.7818609E-02  0.8020687E-01
       -1   -1    0    0    0  501  0.00000000000E+00  0.00000000000E+00  0.12747093254E+04  0.12747093254E+04  0.50400001928E-02 0.  1.
        1   -1    0    0  501    0  0.00000000000E+00  0.00000000000E+00 -0.30151607174E+04  0.30151607174E+04  0.50400001928E-02 0. -1.
    10030    2    1    2    0    0  0.00000000000E+00  0.00000000000E+00 -0.17404513919E+04  0.42898700428E+04  0.39209455411E+04 0.  0.
        2    1    3    3  502    0 -0.10134111351E+04 -0.83194926268E+02  0.96365111653E+03  0.14009093472E+04  0.25500000920E-02 0.  1.
       -2    1    3    3    0  502  0.10134111351E+04  0.83194926268E+02 -0.27041025085E+04  0.28889606956E+04  0.25500000920E-02 0. -1.
</event>
<event>
 5   0  0.7675750E-08  0.3926123E+04  0.7818609E-02  0.8019618E-01
        1   -1    0    0  501    0  0.00000000000E+00  0.00000000000E+00  0.17939940185E+04  0.17939940185E+04  0.50400001928E-02 0. -1.
       -1   -1    0    0    0  501  0.00000000000E+00  0.00000000000E+00 -0.21480624079E+04  0.21480624079E+04  0.50400001928E-02 0.  1.
    10030    2    1    2    0    0  0.00000000000E+00  0.00000000000E+00 -0.35406838941E+03  0.39420564264E+04  0.39261233354E+04 0.  0.
        1    1    3    3  502    0  0.43816615377E+03  0.16994573748E+04  0.70600414061E+03  0.18917153046E+04  0.50400001928E-02 0. -1.
       -1    1    3    3    0  502 -0.43816615377E+03 -0.16994573748E+04 -0.10600725300E+04  0.20503411218E+04  0.50400001928E-02 0.  1.
</event>
<event>
 5   0  0.2473224E-07  0.3924647E+04  0.7818609E-02  0.8019923E-01
        2   -1    0    0  501    0  0.00000000000E+00  0.00000000000E+00  0.23583272741E+04  0.23583272741E+04  0.25500000920E-02 0.  1.
       -2   -1    0    0    0  501  0.00000000000E+00  0.00000000000E+00 -0.16328152126E+04  0.16328152126E+04  0.25500000920E-02 0. -1.
    10030    2    1    2    0    0  0.00000000000E+00  0.00000000000E+00  0.72551206151E+03  0.39911424867E+04  0.39246465571E+04 0.  0.
        2    1    3    3  502    0 -0.48389369512E+03  0.87976134849E+03 -0.13518051706E+04  0.16838973715E+04  0.25500000920E-02 0. -1.
       -2    1    3    3    0  502  0.48389369512E+03 -0.87976134849E+03  0.20773172322E+04  0.23072451152E+04  0.25500000920E-02 0.  1.
</event>
<event>
 5   0  0.7675750E-08  0.3701970E+04  0.7818609E-02  0.8067525E-01
       -1   -1    0    0    0  501  0.00000000000E+00  0.00000000000E+00  0.22843444324E+04  0.22843444324E+04  0.50400001928E-02 0. -1.
        1   -1    0    0  501    0  0.00000000000E+00  0.00000000000E+00 -0.14998372580E+04  0.14998372580E+04  0.50400001928E-02 0.  1.
    10030    2    1    2    0    0  0.00000000000E+00  0.00000000000E+00  0.78450717440E+03  0.37841816904E+04  0.37019696864E+04 0.  0.
        1    1    3    3  502    0 -0.10660800873E+04 -0.14854874738E+04  0.68665134375E+03  0.19531231029E+04  0.50400001928E-02 0.  1.
       -1    1    3    3    0  502  0.10660800873E+04  0.14854874738E+04  0.97855830648E+02  0.18310585875E+04  0.50400001928E-02 0. -1.
</event>
<event>
 5   0  0.2486268E-07  0.3927670E+04  0.7818609E-02  0.8019299E-01
        2   -1    0    0  501    0  0.00000000000E+00  0.00000000000E+00  0.22958806748E+04  0.22958806748E+04  0.25500000920E-02 0. -1.
       -2   -1    0    0    0  501  0.00000000000E+00  0.00000000000E+00 -0.16798118016E+04  0.16798118016E+04  0.25500000920E-02 0.  1.
    10030    2    1    2    0    0  0.00000000000E+00  0.00000000000E+00  0.61606887320E+03  0.39756924763E+04  0.39276697684E+04 0.  0.
        5    1    3    3  502    0 -0.17788406891E+04 -0.29099703063E+03 -0.48102985960E+03  0.18655737146E+04  0.46999998093E+01 0. -1.
       -5    1    3    3    0  502  0.17788406891E+04  0.29099703063E+03  0.10970987328E+04  0.21101187617E+04  0.46999998093E+01 0.  1.
</event>
<event>
 5   0  0.7731706E-08  0.3930968E+04  0.7818609E-02  0.8018619E-01
        1   -1    0    0  501    0  0.00000000000E+00  0.00000000000E+00  0.17634885682E+04  0.17634885682E+04  0.50400001928E-02 0. -1.
       -1   -1    0    0    0  501  0.00000000000E+00  0.00000000000E+00 -0.21906169597E+04  0.21906169597E+04  0.50400001928E-02 0.  1.
    10030    2    1    2    0    0  0.00000000000E+00  0.00000000000E+00 -0.42712839154E+03  0.39541055279E+04  0.39309683111E+04 0.  0.
        3    1    3    3  502    0 -0.10920022800E+03  0.15694447895E+04 -0.13986524456E+04  0.21050677687E+04  0.10100000352E+00 0.  1.
       -3    1    3    3    0  502  0.10920022800E+03 -0.15694447895E+04  0.97152405402E+03  0.18490377592E+04  0.10100000352E+00 0. -1.
</event>
<event>
 5   0  0.7675750E-08  0.3892077E+04  0.7818609E-02  0.8026679E-01
        1   -1    0    0  501    0  0.00000000000E+00  0.00000000000E+00  0.19227333938E+04  0.19227333938E+04  0.50400001928E-02 0. -1.
       -1   -1    0    0    0  501  0.00000000000E+00  0.00000000000E+00 -0.19696258013E+04  0.19696258013E+04  0.50400001928E-02 0.  1.
    10030    2    1    2    0    0  0.00000000000E+00  0.00000000000E+00 -0.46892407522E+02  0.38923591951E+04  0.38920767215E+04 0.  0.
        5    1    3    3  502    0  0.68305557514E+03  0.35557043350E+02 -0.18454494423E+04  0.19681298118E+04  0.46999998093E+01 0.  1.
       -5    1    3    3    0  502 -0.68305557514E+03 -0.35557043350E+02  0.17985570348E+04  0.19242293833E+04  0.46999998093E+01 0. -1.
</event>
<event>
 5   0  0.2473224E-07  0.3866380E+04  0.7818609E-02  0.8032058E-01
        2   -1    0    0  501    0  0.00000000000E+00  0.00000000000E+00  0.26035184657E+04  0.26035184657E+04  0.25500000920E-02 0.  1.
       -2   -1    0    0    0  501  0.00000000000E+00  0.00000000000E+00 -0.14354514153E+04  0.14354514153E+04  0.25500000920E-02 0. -1.
    10030    2    1    2    0    0  0.00000000000E+00  0.00000000000E+00  0.11680670504E+04  0.40389698809E+04  0.38663803570E+04 0.  0.
        2    1    3    3  502    0  0.99848611395E+03 -0.84837159948E+03  0.20689332225E+04  0.24489168156E+04  0.25500000920E-02 0.  1.
       -2    1    3    3    0  502 -0.99848611395E+03  0.84837159948E+03 -0.90086617212E+03  0.15900530654E+04  0.25500000920E-02 0. -1.
</event>
<event>
 5   0  0.7675750E-08  0.3426920E+04  0.7818609E-02  0.8131331E-01
        1   -1    0    0  501    0  0.00000000000E+00  0.00000000000E+00  0.17043773211E+04  0.17043773211E+04  0.50400001928E-02 0.  1.
       -1   -1    0    0    0  501  0.00000000000E+00  0.00000000000E+00 -0.17225914833E+04  0.17225914833E+04  0.50400001928E-02 0. -1.
    10030    2    1    2    0    0  0.00000000000E+00  0.00000000000E+00 -0.18214162183E+02  0.34269688044E+04  0.34269204004E+04 0.  0.
        1    1    3    3  502    0 -0.32869402441E+02  0.12378567685E+04 -0.11934278581E+04  0.17197790059E+04  0.50400001928E-02 0. -1.
       -1    1    3    3    0  502  0.32869402441E+02 -0.12378567685E+04  0.11752136959E+04  0.17071897984E+04  0.50400001928E-02 0.  1.
</event>
<event>
 5   0  0.2473224E-07  0.3925426E+04  0.7818609E-02  0.8019762E-01
        2   -1    0    0  501    0  0.00000000000E+00  0.00000000000E+00  0.27832761214E+04  0.27832761214E+04  0.25500000920E-02 0. -1.
       -2   -1    0    0    0  501  0.00000000000E+00  0.00000000000E+00 -0.13840676891E+04  0.13840676891E+04  0.25500000920E-02 0.  1.
    10030    2    1    2    0    0  0.00000000000E+00  0.00000000000E+00  0.13992084323E+04  0.41673438105E+04  0.39254261167E+04 0.  0.
        2    1    3    3  502    0  0.88863305295E+03 -0.12664003571E+04 -0.58264072466E+03  0.16531511671E+04  0.25500000920E-02 0.  1.
       -2    1    3    3    0  502 -0.88863305295E+03  0.12664003571E+04  0.19818491570E+04  0.25141926434E+04  0.25500000920E-02 0. -1.
</event>
<event>
 5   0  0.7675750E-08  0.3919269E+04  0.7818609E-02  0.8021034E-01
       -1   -1    0    0    0  501  0.00000000000E+00  0.00000000000E+00  0.18930633424E+04  0.18930633424E+04  0.50400001928E-02 0.  1.
        1   -1    0    0  501    0  0.00000000000E+00  0.00000000000E+00 -0.20285467332E+04  0.20285467332E+04  0.50400001928E-02 0. -1.
    10030    2    1    2    0    0  0.00000000000E+00  0.00000000000E+00 -0.13548339073E+03  0.39216100756E+04  0.39192690436E+04 0.  0.
        2    1    3    3  502    0 -0.15809389831E+04 -0.75821494564E+03 -0.94342699046E+03  0.19910581254E+04  0.25500000920E-02 0. -1.
       -2    1    3    3    0  502  0.15809389831E+04  0.75821494564E+03  0.80794359973E+03  0.19305519502E+04  0.25500000920E-02 0.  1.
</event>
<event>
 5   0  0.7675750E-08  0.3926504E+04  0.7818609E-02  0.8019539E-01
       -1   -1    0    0    0  501  0.00000000000E+00  0.00000000000E+00  0.17211562974E+04  0.17211562974E+04  0.50400001928E-02 0.  1.
        1   -1    0    0  501    0  0.00000000000E+00  0.00000000000E+00 -0.22394007756E+04  0.22394007756E+04  0.50400001928E-02 0. -1.
    10030    2    1    2    0    0  0.00000000000E+00  0.00000000000E+00 -0.51824447825E+03  0.39605570730E+04  0.39265041690E+04 0.  0.
        2    1    3    3  502    0 -0.91222189974E+03  0.17190688980E+04 -0.52023419126E+03  0.20144454037E+04  0.25500000920E-02 0.  1.
       -2    1    3    3    0  502  0.91222189974E+03 -0.17190688980E+04  0.19897130070E+01  0.19461116693E+04  0.25500000920E-02 0. -1.
</event>
<event>
 5   0  0.7675750E-08  0.3858151E+04  0.7818609E-02  0.8033790E-01
       -1   -1    0    0    0  501  0.00000000000E+00  0.00000000000E+00  0.19239281341E+04  0.19239281341E+04  0.50400001928E-02 0.  1.
        1   -1    0    0  501    0  0.00000000000E+00  0.00000000000E+00 -0.19342370054E+04  0.19342370054E+04  0.50400001928E-02 0. -1.
    10030    2    1    2    0    0  0.00000000000E+00  0.00000000000E+00 -0.10308871304E+02  0.38581651395E+04  0.38581513670E+04 0.  0.
        4    1    3    3  502    0  0.46552990739E+03 -0.27129705855E+02 -0.18770257667E+04  0.19340841391E+04  0.12699999809E+01 0. -1.
       -4    1    3    3    0  502 -0.46552990739E+03  0.27129705855E+02  0.18667168954E+04  0.19240810004E+04  0.12699999809E+01 0.  1.
</event>
<event>
 5   0  0.7675750E-08  0.3806375E+04  0.7818609E-02  0.8044788E-01
       -1   -1    0    0    0  501  0.00000000000E+00  0.00000000000E+00  0.17693348393E+04  0.17693348393E+04  0.50400001928E-02 0.  1.
        1   -1    0    0  501    0  0.00000000000E+00  0.00000000000E+00 -0.20471666385E+04  0.20471666385E+04  0.50400001928E-02 0. -1.
    10030    2    1    2    0    0  0.00000000000E+00  0.00000000000E+00 -0.27783179925E+03  0.38165014778E+04  0.38063753127E+04 0.  0.
        4    1    3    3  502    0 -0.12745001699E+04  0.31626663871E+01 -0.15560977689E+04  0.20114180482E+04  0.12699999809E+01 0. -1.
       -4    1    3    3    0  502  0.12745001699E+04 -0.31626663871E+01  0.12782659696E+04  0.18050834295E+04  0.12699999809E+01 0.  1.
</event>
<event>
 5   0  0.7675750E-08  0.3921153E+04  0.7818609E-02  0.8020644E-01
       -1   -1    0    0    0  501  0.00000000000E+00  0.00000000000E+00  0.13124131198E+04  0.13124131198E+04  0.50400001928E-02 0. -1.
        1   -1    0    0  501    0  0.00000000000E+00  0.00000000000E+00 -0.29288488372E+04  0.29288488372E+04  0.50400001928E-02 0.  1.
    10030    2    1    2    0    0  0.00000000000E+00  0.00000000000E+00 -0.16164357174E+04  0.42412619570E+04  0.39211527080E+04 0.  0.
        5    1    3    3  502    0  0.89256959764E+03  0.16031707502E+04 -0.15552526143E+04  0.24053419144E+04  0.46999998093E+01 0. -1.
       -5    1    3    3    0  502 -0.89256959764E+03 -0.16031707502E+04 -0.61183103112E+02  0.18359200426E+04  0.46999998093E+01 0.  1.
</event>
<event>
 5   0  0.7731706E-08  0.3976084E+04  0.7818609E-02  0.8009389E-01
       -1   -1    0    0    0  501  0.00000000000E+00  0.00000000000E+00  0.15426861036E+04  0.15426861036E+04  0.50400001928E-02 0. -1.
        1   -1    0    0  501    0  0.00000000000E+00  0.00000000000E+00 -0.25619674750E+04  0.25619674750E+04  0.50400001928E-02 0.  1.
    10030    2    1    2    0    0  0.00000000000E+00  0.00000000000E+00 -0.10192813714E+04  0.41046535786E+04  0.39760843157E+04 0.  0.
        3    1    3    3  502    0  0.13308962522E+04 -0.13098391000E+03  0.10089352258E+04  0.16752289154E+04  0.10100000352E+00 0. -1.
       -3    1    3    3    0  502 -0.13308962522E+04  0.13098391000E+03 -0.20282165972E+04  0.24294246632E+04  0.10100000352E+00 0.  1.
</event>
<event>
 5   0  0.2486268E-07  0.3886497E+04  0.7818609E-02  0.8027843E-01
        2   -1    0    0  501    0  0.00000000000E+00  0.00000000000E+00  0.25486358696E+04  0.25486358696E+04  0.25500000920E-02 0. -1.
       -2   -1    0    0    0  501  0.00000000000E+00  0.00000000000E+00 -0.14816611333E+04  0.14816611333E+04  0.25500000920E-02 0.  1.
    10030    2    1    2    0    0  0.00000000000E+00  0.00000000000E+00  0.10669747363E+04  0.40302970029E+04  0.38864969888E+04 0.  0.
        5    1    3    3  502    0  0.30539921497E+03  0.14845111702E+04 -0.72771536196E+03  0.16812595971E+04  0.46999998093E+01 0.  1.
       -5    1    3    3    0  502 -0.30539921497E+03 -0.14845111702E+04  0.17946900982E+04  0.23490374058E+04  0.46999998093E+01 0. -1.
</event>
<event>
 5   0  0.7675750E-08  0.3965219E+04  0.7818609E-02  0.8011600E-01
        1   -1    0    0  501    0  0.00000000000E+00  0.00000000000E+00  0.20311458171E+04  0.20311458171E+04  0.50400001928E-02 0.  1.
       -1   -1    0    0    0  501  0.00000000000E+00  0.00000000000E+00 -0.19352327899E+04  0.19352327899E+04  0.50400001928E-02 0. -1.
    10030    2    1    2    0    0  0.00000000000E+00  0.00000000000E+00  0.95913027274E+02  0.39663786070E+04  0.39652187765E+04 0.  0.
        5    1    3    3  502    0  0.62031230474E+03 -0.18464218028E+04  0.41773620944E+03  0.19921311352E+04  0.46999998093E+01 0.  1.
       -5    1    3    3    0  502 -0.62031230474E+03  0.18464218028E+04 -0.32182318217E+03  0.19742474718E+04  0.46999998093E+01 0. -1.
</event>
<event>
 5   0  0.2446281E-07  0.4051458E+04  0.7818609E-02  0.7994246E-01
        2   -1    0    0  501    0  0.00000000000E+00  0.00000000000E+00  0.18427939201E+04  0.18427939201E+04  0.25500000920E-02 0.  1.
       -2   -1    0    0    0  501  0.00000000000E+00  0.00000000000E+00 -0.22268236333E+04  0.22268236333E+04  0.25500000920E-02 0. -1.
    10030    2    1    2    0    0  0.00000000000E+00  0.00000000000E+00 -0.38402971325E+03  0.40696175534E+04  0.40514575415E+04 0.  0.
        1    1    3    3  502    0  0.13497375333E+04  0.65611102096E+03  0.11747102498E+04  0.19058376771E+04  0.50400001928E-02 0.  1.
       -1    1    3    3    0  502 -0.13497375333E+04 -0.65611102096E+03 -0.15587399630E+04  0.21637798763E+04  0.50400001928E-02 0. -1.
</event>
<event>
 5   0  0.7731706E-08  0.3877616E+04  0.7818609E-02  0.8029701E-01
        1   -1    0    0  501    0  0.00000000000E+00  0.00000000000E+00  0.11849307443E+04  0.11849307443E+04  0.50400001928E-02 0. -1.
       -1   -1    0    0    0  501  0.00000000000E+00  0.00000000000E+00 -0.31723172270E+04  0.31723172270E+04  0.50400001928E-02 0.  1.
    10030    2    1    2    0    0  0.00000000000E+00  0.00000000000E+00 -0.19873864827E+04  0.43572479713E+04  0.38776158721E+04 0.  0.
        3    1    3    3  502    0 -0.12989517115E+04  0.10548397049E+04 -0.20941169326E+04  0.26805387685E+04  0.10100000352E+00 0.  1.
       -3    1    3    3    0  502  0.12989517115E+04 -0.10548397049E+04  0.10673044987E+03  0.16767092028E+04  0.10100000352E+00 0. -1.
</event>
<event>
 5   0  0.7675750E-08  0.3172854E+04  0.7818609E-02  0.8196023E-01
        1   -1    0    0  501    0  0.00000000000E+00  0.00000000000E+00  0.12183359494E+04  0.12183359494E+04  0.50400001928E-02 0.  1.
       -1   -1    0    0    0  501  0.00000000000E+00  0.00000000000E+00 -0.20657274784E+04  0.20657274784E+04  0.50400001928E-02 0. -1.
    10030    2    1    2    0    0  0.00000000000E+00  0.00000000000E+00 -0.84739152895E+03  0.32840634278E+04  0.31728536358E+04 0.  0.
        4    1    3    3  502    0 -0.59065818466E+03  0.51655650856E+03 -0.18508049696E+04  0.20102707196E+04  0.12699999809E+01 0. -1.
       -4    1    3    3    0  502  0.59065818466E+03 -0.51655650856E+03  0.10034134407E+04  0.12737927082E+04  0.12699999809E+01 0.  1.
</event>
<event>
 5   0  0.2446281E-07  0.3877731E+04  0.7818609E-02  0.8029677E-01
        2   -1    0    0  501    0  0.00000000000E+00  0.00000000000E+00  0.12932484113E+04  0.12932484113E+04  0.25500000920E-02 0. -1.
       -2   -1    0    0    0  501  0.00000000000E+00  0.00000000000E+00 -0.29067881505E+04  0.29067881505E+04  0.25500000920E-02 0.  1.
    10030    2    1    2    0    0  0.00000000000E+00  0.00000000000E+00 -0.16135397392E+04  0.42000365618E+04  0.38777308610E+04 0.  0.
        1    1    3    3  502    0  0.79042117397E+03  0.52851343714E+03 -0.26369195396E+04  0.28031119749E+04  0.50400001928E-02 0.  1.
       -1    1    3    3    0  502 -0.79042117397E+03 -0.52851343714E+03  0.10233798004E+04  0.13969245869E+04  0.50400001928E-02 0. -1.
</event>
<event>
 5   0  0.2395572E-07  0.3772976E+04  0.7818609E-02  0.8051979E-01
       -2   -1    0    0    0  501  0.00000000000E+00  0.00000000000E+00  0.17456127775E+04  0.17456127775E+04  0.25500000920E-02 0. -1.
        2   -1    0    0  501    0  0.00000000000E+00  0.00000000000E+00 -0.20387327081E+04  0.20387327081E+04  0.25500000920E-02 0.  1.
    10030    2    1    2    0    0  0.00000000000E+00  0.00000000000E+00 -0.29311993059E+03  0.37843454856E+04  0.37729764724E+04 0.  0.
        3    1    3    3  502    0 -0.12971619187E+04 -0.12231235926E+03  0.12218267868E+04  0.17861830991E+04  0.10100000352E+00 0.  1.
       -3    1    3    3    0  502  0.12971619187E+04  0.12231235926E+03 -0.15149467173E+04  0.19981623866E+04  0.10100000352E+00 0. -1.
</event>
<event>
 5   0  0.2446281E-07  0.3864597E+04  0.7818609E-02  0.8032433E-01
        2   -1    0    0  501    0  0.00000000000E+00  0.00000000000E+00  0.25934053343E+04  0.25934053343E+04  0.25500000920E-02 0. -1.
       -2   -1    0    0    0  501  0.00000000000E+00  0.00000000000E+00 -0.14397199031E+04  0.14397199031E+04  0.25500000920E-02 0.  1.
    10030    2    1    2    0    0  0.00000000000E+00  0.00000000000E+00  0.11536854311E+04  0.40331252374E+04  0.38645968880E+04 0.  0.
        1    1    3    3  502    0  0.11020385628E+04  0.59662207112E+03  0.21118093283E+04  0.24556436078E+04  0.50400001928E-02 0. -1.
       -1    1    3    3    0  502 -0.11020385628E+04 -0.59662207112E+03 -0.95812389711E+03  0.15774816296E+04  0.50400001928E-02 0.  1.
</event>
<event>
 5   0  0.2395572E-07  0.3899471E+04  0.7818609E-02  0.8025139E-01
        2   -1    0    0  501    0  0.00000000000E+00  0.00000000000E+00  0.35199715791E+04  0.35199715791E+04  0.25500000920E-02 0. -1.
       -2   -1    0    0    0  501  0.00000000000E+00  0.00000000000E+00 -0.10799713036E+04  0.10799713036E+04  0.25500000920E-02 0.  1.
    10030    2    1    2    0    0  0.00000000000E+00  0.00000000000E+00  0.24400002755E+04  0.45999428827E+04  0.38994708846E+04 0.  0.
        3    1    3    3  502    0  0.12145483751E+04  0.72951618746E+03  0.28000679560E+04  0.31381048726E+04  0.10100000352E+00 0. -1.
       -3    1    3    3    0  502 -0.12145483751E+04 -0.72951618746E+03 -0.36006768047E+03  0.14618380101E+04  0.10100000352E+00 0.  1.
</event>
<event>
 5   0  0.2473224E-07  0.3899151E+04  0.7818609E-02  0.8025206E-01
       -2   -1    0    0    0  501  0.00000000000E+00  0.00000000000E+00  0.21448311746E+04  0.21448311746E+04  0.25500000920E-02 0.  1.
        2   -1    0    0  501    0  0.00000000000E+00  0.00000000000E+00 -0.17720946253E+04  0.17720946253E+04  0.25500000920E-02 0. -1.
    10030    2    1    2    0    0  0.00000000000E+00  0.00000000000E+00  0.37273654927E+03  0.39169257999E+04  0.38991505725E+04 0.  0.
        2    1    3    3  502    0  0.19196794137E+04  0.34474920818E+02 -0.15353234487E+03  0.19261177930E+04  0.25500000920E-02 0. -1.
       -2    1    3    3    0  502 -0.19196794137E+04 -0.34474920818E+02  0.52626889413E+03  0.19908080069E+04  0.25500000920E-02 0.  1.
</event>
<event>
 5   0  0.2446281E-07  0.3889578E+04  0.7818609E-02  0.8027200E-01
       -2   -1    0    0    0  501  0.00000000000E+00  0.00000000000E+00  0.19617988924E+04  0.19617988924E+04  0.25500000920E-02 0.  1.
        2   -1    0    0  501    0  0.00000000000E+00  0.00000000000E+00 -0.19279269326E+04  0.19279269326E+04  0.25500000920E-02 0. -1.
    10030    2    1    2    0    0  0.00000000000E+00  0.00000000000E+00  0.33871959754E+02  0.38897258250E+04  0.38895783427E+04 0.  0.
        1    1    3    3  502    0  0.98452336359E+03 -0.15931511662E+04  0.54115813519E+03  0.19494278697E+04  0.50400001928E-02 0.  1.
       -1    1    3    3    0  502 -0.98452336359E+03  0.15931511662E+04 -0.50728617544E+03  0.19402979554E+04  0.50400001928E-02 0. -1.
</event>
<event>
 5   0  0.7675750E-08  0.3790930E+04  0.7818609E-02  0.8048104E-01
        1   -1    0    0  501    0  0.00000000000E+00  0.00000000000E+00  0.24710290688E+04  0.24710290688E+04  0.50400001928E-02 0. -1.
       -1   -1    0    0    0  501  0.00000000000E+00  0.00000000000E+00 -0.14539640860E+04  0.14539640860E+04  0.50400001928E-02 0.  1.
    10030    2    1    2    0    0  0.00000000000E+00  0.00000000000E+00  0.10170649828E+04  0.39249931549E+04  0.37909299765E+04 0.  0.
        5    1    3    3  502    0  0.10511504646E+04  0.21851731666E+03 -0.11087906611E+04  0.15434072493E+04  0.46999998093E+01 0.  1.
       -5    1    3    3    0  502 -0.10511504646E+04 -0.21851731666E+03  0.21258556439E+04  0.23815859056E+04  0.46999998093E+01 0. -1.
</event>
<event>
 5   0  0.7675750E-08  0.3889702E+04  0.7818609E-02  0.8027174E-01
       -1   -1    0    0    0  501  0.00000000000E+00  0.00000000000E+00  0.14844301838E+04  0.14844301838E+04  0.50400001928E-02 0. -1.
        1   -1    0    0  501    0  0.00000000000E+00  0.00000000000E+00 -0.25480791412E+04  0.25480791412E+04  0.50400001928E-02 0.  1.
    10030    2    1    2    0    0  0.00000000000E+00  0.00000000000E+00 -0.10636489574E+04  0.40325093250E+04  0.38897020903E+04 0.  0.
        5    1    3    3  502    0 -0.36360404866E+02  0.44573030558E+03  0.14303952997E+04  0.14986828844E+04  0.46999998093E+01 0. -1.
       -5    1    3    3    0  502  0.36360404866E+02 -0.44573030558E+03 -0.24940442572E+04  0.25338264406E+04  0.46999998093E+01 0.  1.
</event>
<event>
 5   0  0.2473224E-07  0.3890065E+04  0.7818609E-02  0.8027099E-01
        2   -1    0    0  501    0  0.00000000000E+00  0.00000000000E+00  0.15762254985E+04  0.15762254985E+04  0.25500000920E-02 0.  1.
       -2   -1    0    0    0  501  0.00000000000E+00  0.00000000000E+00 -0.24001330922E+04  0.24001330922E+04  0.25500000920E-02 0. -1.
    10030    2    1    2    0    0  0.00000000000E+00  0.00000000000E+00 -0.82390759377E+03  0.39763585907E+04  0.38900647705E+04 0.  0.
        2    1    3    3  502    0 -0.14596013640E+04 -0.35676841713E+03 -0.16744352685E+04  0.22497673910E+04  0.25500000920E-02 0. -1.
       -2    1    3    3    0  502  0.14596013640E+04  0.35676841713E+03  0.85052767476E+03  0.17265911997E+04  0.25500000920E-02 0.  1.
</event>
<event>
 5   0  0.7731706E-08  0.3822968E+04  0.7818609E-02  0.8041244E-01
       -1   -1    0    0    0  501  0.00000000000E+00  0.00000000000E+00  0.17752626239E+04  0.17752626239E+04  0.50400001928E-02 0. -1.
        1   -1    0    0  501    0  0.00000000000E+00  0.00000000000E+00 -0.20581579940E+04  0.20581579940E+04  0.50400001928E-02 0.  1.
    10030    2    1    2    0    0  0.00000000000E+00  0.00000000000E+00 -0.28289537009E+03  0.38334206180E+04  0.38229679365E+04 0.  0.
        3    1    3    3  502    0  0.83519547391E+03  0.53984193490E+03  0.14954341397E+04  0.17959131579E+04  0.10100000352E+00 0. -1.
       -3    1    3    3    0  502 -0.83519547391E+03 -0.53984193490E+03 -0.17783295098E+04  0.20375074601E+04  0.10100000352E+00 0.  1.
</event>
<event>
 5   0  0.7675750E-08  0.3861324E+04  0.7818609E-02  0.8033122E-01
        1   -1    0    0  501    0  0.00000000000E+00  0.00000000000E+00  0.11055759872E+04  0.11055759872E+04  0.50400001928E-02 0. -1.
       -1   -1    0    0    0  501  0.00000000000E+00  0.00000000000E+00 -0.33715051731E+04  0.33715051731E+04  0.50400001928E-02 0.  1.
    10030    2    1    2    0    0  0.00000000000E+00  0.00000000000E+00 -0.22659291859E+04  0.44770811603E+04  0.38613236902E+04 0.  0.
        5    1    3    3  502    0 -0.46942601818E+03  0.16833789966E+04 -0.18155951801E+03  0.17570178090E+04  0.46999998093E+01 0. -1.
       -5    1    3    3    0  502  0.46942601818E+03 -0.16833789966E+04 -0.20843696679E+04  0.27200633513E+04  0.46999998093E+01 0.  1.
</event>
<event>
 5   0  0.2486268E-07  0.3943136E+04  0.7818609E-02  0.8016117E-01
       -2   -1    0    0    0  501  0.00000000000E+00  0.00000000000E+00  0.22030437973E+04  0.22030437973E+04  0.25500000920E-02 0.  1.
        2   -1    0    0  501    0  0.00000000000E+00  0.00000000000E+00 -0.17644132650E+04  0.17644132650E+04  0.25500000920E-02 0. -1.
    10030    2    1    2    0    0  0.00000000000E+00  0.00000000000E+00  0.43863053225E+03  0.39674570623E+04  0.39431356555E+04 0.  0.
        5    1    3    3  502    0 -0.12113464814E+04  0.13799933014E+04  0.94159802125E+03  0.20635820152E+04  0.46999998093E+01 0.  1.
       -5    1    3    3    0  502  0.12113464814E+04 -0.13799933014E+04 -0.50296748899E+03  0.19038750471E+04  0.46999998093E+01 0. -1.
</event>
<event>
 5   0  0.2395572E-07  0.3974990E+04  0.7818609E-02  0.8009611E-01
       -2   -1    0    0    0  501  0.00000000000E+00  0.00000000000E+00  0.18002613713E+04  0.18002613713E+04  0.25500000920E-02 0. -1.
        2   -1    0    0  501    0  0.00000000000E+00  0.00000000000E+00 -0.21942010995E+04  0.21942010995E+04  0.25500000920E-02 0.  1.
    10030    2    1    2    0    0  0.00000000000E+00  0.00000000000E+00 -0.39393972816E+03  0.39944624708E+04  0.39749895498E+04 0.  0.
        3    1    3    3  502    0  0.24037891021E+03  0.37902941415E+03 -0.21426082530E+04  0.21891129375E+04  0.10100000352E+00 0.  1.
       -3    1    3    3    0  502 -0.24037891021E+03 -0.37902941415E+03  0.17486685249E+04  0.18053495333E+04  0.10100000352E+00 0. -1.
</event>
<event>
 5   0  0.7675750E-08  0.3787518E+04  0.7818609E-02  0.8048839E-01
       -3   -1    0    0    0  501  0.00000000000E+00  0.00000000000E+00  0.16337211104E+04  0.16337211135E+04  0.10100000352E+00 0. -1.
        3   -1    0    0  501    0  0.00000000000E+00  0.00000000000E+00 -0.21951867391E+04  0.21951867414E+04  0.10100000352E+00 0.  1.
    10030    2    1    2    0    0  0.00000000000E+00  0.00000000000E+00 -0.56146562870E+03  0.38289078549E+04  0.37875178824E+04 0.  0.
        3    1    3    3  502    0 -0.18078827770E+04  0.56250501361E+03 -0.24196149789E+03  0.19087685565E+04  0.10100000352E+00 0.  1.
       -3    1    3    3    0  502  0.18078827770E+04 -0.56250501361E+03 -0.31950413082E+03  0.19201392984E+04  0.10100000352E+00 0. -1.
</event>
<event>
 5   0  0.2473224E-07  0.3873053E+04  0.7818609E-02  0.8030657E-01
        2   -1    0    0  501    0  0.00000000000E+00  0.00000000000E+00  0.26956631534E+04  0.26956631534E+04  0.25500000920E-02 0. -1.
       -2   -1    0    0    0  501  0.00000000000E+00  0.00000000000E+00 -0.13911731106E+04  0.13911731106E+04  0.25500000920E-02 0.  1.
    10030    2    1    2    0    0  0.00000000000E+00  0.00000000000E+00  0.13044900428E+04  0.40868362640E+04  0.38730525915E+04 0.  0.
        2    1    3    3  502    0  0.13224618284E+04  0.14135273559E+04  0.71164825491E+03  0.20623792358E+04  0.25500000920E-02 0.  1.
       -2    1    3    3    0  502 -0.13224618284E+04 -0.14135273559E+04  0.59284178785E+03  0.20244570282E+04  0.25500000920E-02 0. -1.
</event>
<event>
 5   0  0.7731706E-08  0.3893786E+04  0.7818609E-02  0.8026323E-01
        1   -1    0    0  501    0  0.00000000000E+00  0.00000000000E+00  0.25910609931E+04  0.25910609931E+04  0.50400001928E-02 0.  1.
       -1   -1    0    0    0  501  0.00000000000E+00  0.00000000000E+00 -0.14628724135E+04  0.14628724135E+04  0.50400001928E-02 0. -1.
    10030    2    1    2    0    0  0.00000000000E+00  0.00000000000E+00  0.11281885796E+04  0.40539334066E+04  0.38937856380E+04 0.  0.
        3    1    3    3  502    0 -0.14750401773E+04  0.10594333403E+04  0.12945553036E+04  0.22302502038E+04  0.10100000352E+00 0. -1.
       -3    1    3    3    0  502  0.14750401773E+04 -0.10594333403E+04 -0.16636672407E+03  0.18236832028E+04  0.10100000352E+00 0.  1.
</event>
<event>
 5   0  0.2446281E-07  0.3867488E+04  0.7818609E-02  0.8031825E-01
       -2   -1    0    0    0  501  0.00000000000E+00  0.00000000000E+00  0.18639295463E+04  0.18639295463E+04  0.25500000920E-02 0.  1.
        2   -1    0    0  501    0  0.00000000000E+00  0.00000000000E+00 -0.20061734279E+04  0.20061734279E+04  0.25500000920E-02 0. -1.
    10030    2    1    2    0    0  0.00000000000E+00  0.00000000000E+00 -0.14224388159E+03  0.38701029742E+04  0.38674880361E+04 0.  0.
        1    1    3    3  502    0 -0.19235927011E+04 -0.16111760639E+03 -0.18608288155E+03  0.19392768244E+04  0.50400001928E-02 0. -1.
       -1    1    3    3    0  502  0.19235927011E+04  0.16111760639E+03  0.43838999965E+02  0.19308261498E+04  0.50400001928E-02 0.  1.
</event>
<event>
 5   0  0.7675750E-08  0.3895808E+04  0.7818609E-02  0.8025902E-01
        1   -1    0    0  501    0  0.00000000000E+00  0.00000000000E+00  0.23194750214E+04  0.23194750214E+04  0.50400001928E-02 0. -1.
       -1   -1    0    0    0  501  0.00000000000E+00  0.00000000000E+00 -0.16358574275E+04  0.16358574275E+04  0.50400001928E-02 0.  1.
    10030    2    1    2    0    0  0.00000000000E+00  0.00000000000E+00  0.68361759391E+03  0.39553324488E+04  0.38958082302E+04 0.  0.
        2    1    3    3  502    0  0.13756070083E+04  0.65303017368E+03  0.15751064056E+04  0.21908225026E+04  0.25500000920E-02 0. -1.
       -2    1    3    3    0  502 -0.13756070083E+04 -0.65303017368E+03 -0.89148881169E+03  0.17645099462E+04  0.25500000920E-02 0.  1.
</event>
<event>
 5   0  0.7675750E-08  0.3944012E+04  0.7818609E-02  0.8015937E-01
        1   -1    0    0  501    0  0.00000000000E+00  0.00000000000E+00  0.21328508821E+04  0.21328508821E+04  0.50400001928E-02 0. -1.
       -1   -1    0    0    0  501  0.00000000000E+00  0.00000000000E+00 -0.18232909592E+04  0.18232909592E+04  0.50400001928E-02 0.  1.
    10030    2    1    2    0    0  0.00000000000E+00  0.00000000000E+00  0.30955992290E+03  0.39561418413E+04  0.39440120338E+04 0.  0.
        5    1    3    3  502    0 -0.42831472433E+03 -0.16891917364E+04  0.10806373479E+04  0.20505173477E+04  0.46999998093E+01 0. -1.
       -5    1    3    3    0  502  0.42831472433E+03  0.16891917364E+04 -0.77107742503E+03  0.19056244937E+04  0.46999998093E+01 0.  1.
</event>
<event>
 5   0  0.7675750E-08  0.3833309E+04  0.7818609E-02  0.8039044E-01
       -1   -1    0    0    0  501  0.00000000000E+00  0.00000000000E+00  0.15841186054E+04  0.15841186054E+04  0.50400001928E-02 0. -1.
        1   -1    0    0  501    0  0.00000000000E+00  0.00000000000E+00 -0.23189963661E+04  0.23189963661E+04  0.50400001928E-02 0.  1.
    10030    2    1    2    0    0  0.00000000000E+00  0.00000000000E+00 -0.73487776067E+03  0.39031149715E+04  0.38333094263E+04 0.  0.
        5    1    3    3  502    0 -0.13096822090E+04  0.10125445245E+03 -0.17885712600E+04  0.22191280258E+04  0.46999998093E+01 0.  1.
       -5    1    3    3    0  502  0.13096822090E+04 -0.10125445245E+03  0.10536934993E+04  0.16839869457E+04  0.46999998093E+01 0. -1.
</event>
<event>
 5   0  0.7675750E-08  0.3916829E+04  0.7818609E-02  0.8021538E-01
       -1   -1    0    0    0  501  0.00000000000E+00  0.00000000000E+00  0.17458646662E+04  0.17458646662E+04  0.50400001928E-02 0.  1.
        1   -1    0    0  501    0  0.00000000000E+00  0.00000000000E+00 -0.21968416486E+04  0.21968416486E+04  0.50400001928E-02 0. -1.
    10030    2    1    2    0    0  0.00000000000E+00  0.00000000000E+00 -0.45097698237E+03  0.39427063148E+04  0.39168294380E+04 0.  0.
        2    1    3    3  502    0  0.12922066161E+04 -0.58672468639E+03 -0.15839764942E+04  0.21267405414E+04  0.25500000920E-02 0. -1.
       -2    1    3    3    0  502 -0.12922066161E+04  0.58672468639E+03  0.11329995118E+04  0.18159657734E+04  0.25500000920E-02 0.  1.
</event>
<event>
 5   0  0.2384787E-07  0.3929792E+04  0.7818609E-02  0.8018861E-01
       -2   -1    0    0    0  501  0.00000000000E+00  0.00000000000E+00  0.12649461529E+04  0.12649461529E+04  0.25500000920E-02 0. -1.
        2   -1    0    0  501    0  0.00000000000E+00  0.00000000000E+00 -0.30521585409E+04  0.30521585409E+04  0.25500000920E-02 0.  1.
    10030    2    1    2    0    0  0.00000000000E+00  0.00000000000E+00 -0.17872123880E+04  0.43171046938E+04  0.39297919560E+04 0.  0.
        4    1    3    3  502    0  0.18117701441E+04  0.75345394420E+03 -0.10067666905E+04  0.22053989850E+04  0.12699999809E+01 0.  1.
       -4    1    3    3    0  502 -0.18117701441E+04 -0.75345394420E+03 -0.78044569754E+03  0.21117057088E+04  0.12699999809E+01 0. -1.
</event>
<event>
 5   0  0.7675750E-08  0.3916774E+04  0.7818609E-02  0.8021549E-01
        1   -1    0    0  501    0  0.00000000000E+00  0.00000000000E+00  0.12256358888E+04  0.12256358888E+04  0.50400001928E-02 0. -1.
       -1   -1    0    0    0  501  0.00000000000E+00  0.00000000000E+00 -0.31292169442E+04  0.31292169442E+04  0.50400001928E-02 0.  1.
    10030    2    1    2    0    0  0.00000000000E+00  0.00000000000E+00 -0.19035810554E+04  0.43548528329E+04  0.39167744844E+04 0.  0.
        4    1    3    3  502    0 -0.12056910742E+04  0.22567887115E+03  0.74560910325E+03  0.14354638508E+04  0.12699999809E+01 0. -1.
       -4    1    3    3    0  502  0.12056910742E+04 -0.22567887115E+03 -0.26491901587E+04  0.29193889821E+04  0.12699999809E+01 0.  1.
</event>
<event>
 5   0  0.7675750E-08  0.3372197E+04  0.7818609E-02  0.8144764E-01
        1   -1    0    0  501    0  0.00000000000E+00  0.00000000000E+00  0.14291515153E+04  0.14291515153E+04  0.50400001928E-02 0. -1.
       -1   -1    0    0    0  501  0.00000000000E+00  0.00000000000E+00 -0.19892415714E+04  0.19892415714E+04  0.50400001928E-02 0.  1.
    10030    2    1    2    0    0  0.00000000000E+00  0.00000000000E+00 -0.56009005616E+03  0.34183930867E+04  0.33721966764E+04 0.  0.
        5    1    3    3  502    0  0.15330351661E+04  0.62156764331E+03  0.50555154136E+02  0.16550290237E+04  0.46999998093E+01 0.  1.
       -5    1    3    3    0  502 -0.15330351661E+04 -0.62156764331E+03 -0.61064521030E+03  0.17633640630E+04  0.46999998093E+01 0. -1.
</event>
<event>
 5   0  0.7675750E-08  0.3935771E+04  0.7818609E-02  0.8017630E-01
        1   -1    0    0  501    0  0.00000000000E+00  0.00000000000E+00  0.24011179984E+04  0.24011179984E+04  0.50400001928E-02 0.  1.
       -1   -1    0    0    0  501  0.00000000000E+00  0.00000000000E+00 -0.16128212362E+04  0.16128212362E+04  0.50400001928E-02 0. -1.
    10030    2    1    2    0    0  0.00000000000E+00  0.00000000000E+00  0.78829676224E+03  0.40139392346E+04  0.39357713848E+04 0.  0.
        2    1    3    3  502    0 -0.70932716426E+02 -0.14347468645E+04  0.17658684882E+04  0.22763614680E+04  0.25500000920E-02 0.  1.
       -2    1    3    3    0  502  0.70932716426E+02  0.14347468645E+04 -0.97757172591E+03  0.17375777666E+04  0.25500000920E-02 0. -1.
</event>
<event>
 5   0  0.2446281E-07  0.3915397E+04  0.7818609E-02  0.8021834E-01
        2   -1    0    0  501    0  0.00000000000E+00  0.00000000000E+00  0.24172567170E+04  0.24172567170E+04  0.25500000920E-02 0. -1.
       -2   -1    0    0    0  501  0.00000000000E+00  0.00000000000E+00 -0.15855098199E+04  0.15855098199E+04  0.25500000920E-02 0.  1.
    10030    2    1    2    0    0  0.00000000000E+00  0.00000000000E+00  0.83174689713E+03  0.40027665369E+04  0.39153974317E+04 0.  0.
        1    1    3    3  502    0 -0.13899683574E+04  0.17310953194E+03  0.18140933879E+04  0.22919235948E+04  0.50400001928E-02 0. -1.
       -1    1    3    3    0  502  0.13899683574E+04 -0.17310953194E+03 -0.98234649074E+03  0.17108429421E+04  0.50400001928E-02 0.  1.
</event>
<event>
 5   0  0.2395572E-07  0.3676513E+04  0.7818609E-02  0.8073187E-01
       -2   -1    0    0    0  501  0.00000000000E+00  0.00000000000E+00  0.14539357196E+04  0.14539357196E+04  0.25500000920E-02 0.  1.
        2   -1    0    0  501    0  0.00000000000E+00  0.00000000000E+00 -0.23241647672E+04  0.23241647672E+04  0.25500000920E-02 0. -1.
    10030    2    1    2    0    0  0.00000000000E+00  0.00000000000E+00 -0.87022904751E+03  0.37781004868E+04  0.36765125722E+04 0.  0.
        3    1    3    3  502    0  0.11361147016E+04 -0.84282693512E+03 -0.16414648661E+04  0.21669150363E+04  0.10100000352E+00 0. -1.
       -3    1    3    3    0  502 -0.11361147016E+04  0.84282693512E+03  0.77123581856E+03  0.16111854505E+04  0.10100000352E+00 0.  1.
</event>
<event>
 5   0  0.2395572E-07  0.3834660E+04  0.7818609E-02  0.8038758E-01
        2   -1    0    0  501    0  0.00000000000E+00  0.00000000000E+00  0.19397342364E+04  0.19397342364E+04  0.25500000920E-02 0. -1.
       -2   -1    0    0    0  501  0.00000000000E+00  0.00000000000E+00 -0.18951840478E+04  0.18951840478E+04  0.25500000920E-02 0.  1.
    10030    2    1    2    0    0  0.00000000000E+00  0.00000000000E+00  0.44550188640E+02  0.38349182842E+04  0.38346595061E+04 0.  0.
        3    1    3    3  502    0 -0.29952650429E+03 -0.13523864063E+04 -0.13035172973E+04  0.19020574316E+04  0.10100000352E+00 0.  1.
       -3    1    3    3    0  502  0.29952650429E+03  0.13523864063E+04  0.13480674860E+04  0.19328608526E+04  0.10100000352E+00 0. -1.
</event>
<event>
 5   0  0.7675750E-08  0.3844054E+04  0.7818609E-02  0.8036767E-01
        1   -1    0    0  501    0  0.00000000000E+00  0.00000000000E+00  0.23581038814E+04  0.23581038814E+04  0.50400001928E-02 0.  1.
       -1   -1    0    0    0  501  0.00000000000E+00  0.00000000000E+00 -0.15665923694E+04  0.15665923694E+04  0.50400001928E-02 0. -1.
    10030    2    1    2    0    0  0.00000000000E+00  0.00000000000E+00  0.79151151196E+03  0.39246962508E+04  0.38440538742E+04 0.  0.
        4    1    3    3  502    0 -0.10758724519E+04 -0.15297467965E+04 -0.56894954311E+02  0.18710599785E+04  0.12699999809E+01 0.  1.
       -4    1    3    3    0  502  0.10758724519E+04  0.15297467965E+04  0.84840646627E+03  0.20536362724E+04  0.12699999809E+01 0. -1.
</event>
<event>
 5   0  0.2446281E-07  0.3320609E+04  0.7818609E-02  0.8157671E-01
        2   -1    0    0  501    0  0.00000000000E+00  0.00000000000E+00  0.15280899496E+04  0.15280899496E+04  0.25500000920E-02 0.  1.
       -2   -1    0    0    0  501  0.00000000000E+00  0.00000000000E+00 -0.18039584646E+04  0.18039584646E+04  0.25500000920E-02 0. -1.
    10030    2    1    2    0    0  0.00000000000E+00  0.00000000000E+00 -0.27586851502E+03  0.33320484142E+04  0.33206088594E+04 0.  0.
        1    1    3    3  502    0  0.92409673600E+03  0.13578217347E+04 -0.38162095435E+03  0.16861996304E+04  0.50400001928E-02 0. -1.
       -1    1    3    3    0  502 -0.92409673600E+03 -0.13578217347E+04  0.10575243933E+03  0.16458487838E+04  0.50400001928E-02 0.  1.
</event>
<event>
 5   0  0.7675750E-08  0.3898333E+04  0.7818609E-02  0.8025376E-01
        1   -1    0    0  501    0  0.00000000000E+00  0.00000000000E+00  0.14013815972E+04  0.14013815972E+04  0.50400001928E-02 0.  1.
       -1   -1    0    0    0  501  0.00000000000E+00  0.00000000000E+00 -0.27110745584E+04  0.27110745584E+04  0.50400001928E-02 0. -1.
    10030    2    1    2    0    0  0.00000000000E+00  0.00000000000E+00 -0.13096929612E+04  0.41124561556E+04  0.38983329744E+04 0.  0.
        2    1    3    3  502    0  0.18444202119E+04 -0.62853189722E+03 -0.60412511022E+03  0.20400748547E+04  0.25500000920E-02 0.  1.
       -2    1    3    3    0  502 -0.18444202119E+04  0.62853189722E+03 -0.70556785102E+03  0.20723813009E+04  0.25500000920E-02 0. -1.
</event>
<event>
 5   0  0.7731706E-08  0.4003009E+04  0.7818609E-02  0.8003940E-01
        1   -1    0    0  501    0  0.00000000000E+00  0.00000000000E+00  0.20175276695E+04  0.20175276695E+04  0.50400001928E-02 0.  1.
       -1   -1    0    0    0  501  0.00000000000E+00  0.00000000000E+00 -0.19856085117E+04  0.19856085117E+04  0.50400001928E-02 0. -1.
    10030    2    1    2    0    0  0.00000000000E+00  0.00000000000E+00  0.31919157835E+02  0.40031361812E+04  0.40030089249E+04 0.  0.
        3    1    3    3  502    0  0.17178511302E+04  0.85955247574E+03 -0.54635460544E+03  0.19970844572E+04  0.10100000352E+00 0.  1.
       -3    1    3    3    0  502 -0.17178511302E+04 -0.85955247574E+03  0.57827376327E+03  0.20060517240E+04  0.10100000352E+00 0. -1.
</event>
<event>
 5   0  0.7675750E-08  0.3874076E+04  0.7818609E-02  0.8030443E-01
        3   -1    0    0  501    0  0.00000000000E+00  0.00000000000E+00  0.15724118239E+04  0.15724118271E+04  0.10100000352E+00 0. -1.
       -3   -1    0    0    0  501  0.00000000000E+00  0.00000000000E+00 -0.23862167616E+04  0.23862167637E+04  0.10100000352E+00 0.  1.
    10030    2    1    2    0    0  0.00000000000E+00  0.00000000000E+00 -0.81380493771E+03  0.39586285908E+04  0.38740756115E+04 0.  0.
        2    1    3    3  502    0 -0.11182617694E+04 -0.69569879668E+03  0.10445245238E+04  0.16809335744E+04  0.25500000920E-02 0. -1.
       -2    1    3    3    0  502  0.11182617694E+04  0.69569879668E+03 -0.18583294615E+04  0.22776950165E+04  0.25500000920E-02 0.  1.
</event>
<event>
 5   0  0.2473224E-07  0.3742340E+04  0.7818609E-02  0.8058643E-01
       -2   -1    0    0    0  501  0.00000000000E+00  0.00000000000E+00  0.16996637532E+04  0.16996637532E+04  0.25500000920E-02 0. -1.
        2   -1    0    0  501    0  0.00000000000E+00  0.00000000000E+00 -0.20599821140E+04  0.20599821140E+04  0.25500000920E-02 0.  1.
    10030    2    1    2    0    0  0.00000000000E+00  0.00000000000E+00 -0.36031836084E+03  0.37596458672E+04  0.37423398730E+04 0.  0.
        2    1    3    3  502    0 -0.16332253239E+03 -0.56762097639E+02 -0.20519393316E+04  0.20592113068E+04  0.25500000920E-02 0.  1.
       -2    1    3    3    0  502  0.16332253239E+03  0.56762097639E+02  0.16916209708E+04  0.17004345604E+04  0.25500000920E-02 0. -1.
</event>
<event>
 5   0  0.2446281E-07  0.3906643E+04  0.7818609E-02  0.8023649E-01
       -2   -1    0    0    0  501  0.00000000000E+00  0.00000000000E+00  0.17638770331E+04  0.17638770331E+04  0.25500000920E-02 0. -1.
        2   -1    0    0  501    0  0.00000000000E+00  0.00000000000E+00 -0.21631128514E+04  0.21631128514E+04  0.25500000920E-02 0.  1.
    10030    2    1    2    0    0  0.00000000000E+00  0.00000000000E+00 -0.39923581830E+03  0.39269898845E+04  0.39066431004E+04 0.  0.
        1    1    3    3  502    0 -0.15770641653E+04 -0.11440589994E+04 -0.33985329781E+03  0.19777519156E+04  0.50400001928E-02 0.  1.
       -1    1    3    3    0  502  0.15770641653E+04  0.11440589994E+04 -0.59382520492E+02  0.19492379689E+04  0.50400001928E-02 0. -1.
</event>
<event>
 5   0  0.2395572E-07  0.3874973E+04  0.7818609E-02  0.8030255E-01
        2   -1    0    0  501    0  0.00000000000E+00  0.00000000000E+00  0.31145088161E+04  0.31145088161E+04  0.25500000920E-02 0.  1.
       -2   -1    0    0    0  501  0.00000000000E+00  0.00000000000E+00 -0.12052795112E+04  0.12052795112E+04  0.25500000920E-02 0. -1.
    10030    2    1    2    0    0  0.00000000000E+00  0.00000000000E+00  0.19092293050E+04  0.43197883273E+04  0.38749728584E+04 0.  0.
        3    1    3    3  502    0  0.18290031926E+04  0.45193790664E+03  0.45066816779E+03  0.19371634825E+04  0.10100000352E+00 0. -1.
       -3    1    3    3    0  502 -0.18290031926E+04 -0.45193790664E+03  0.14585611372E+04  0.23826248448E+04  0.10100000352E+00 0.  1.
</event>
<event>
 5   0  0.7675750E-08  0.3907392E+04  0.7818609E-02  0.8023494E-01
       -1   -1    0    0    0  501  0.00000000000E+00  0.00000000000E+00  0.26102561823E+04  0.26102561823E+04  0.50400001928E-02 0.  1.
        1   -1    0    0  501    0  0.00000000000E+00  0.00000000000E+00 -0.14622807556E+04  0.14622807556E+04  0.50400001928E-02 0. -1.
    10030    2    1    2    0    0  0.00000000000E+00  0.00000000000E+00  0.11479754267E+04  0.40725369380E+04  0.39073916531E+04 0.  0.
        2    1    3    3  502    0  0.14907533395E+04 -0.20351077145E+03 -0.72494578598E+03  0.16701223147E+04  0.25500000920E-02 0. -1.
       -2    1    3    3    0  502 -0.14907533395E+04  0.20351077145E+03  0.18729212127E+04  0.24024146233E+04  0.25500000920E-02 0.  1.
</event>
<event>
 5   0  0.2384787E-07  0.3474831E+04  0.7818609E-02  0.8119781E-01
        2   -1    0    0  501    0  0.00000000000E+00  0.00000000000E+00  0.22678985649E+04  0.22678985649E+04  0.25500000920E-02 0. -1.
       -2   -1    0    0    0  501  0.00000000000E+00  0.00000000000E+00 -0.13310173259E+04  0.13310173259E+04  0.25500000920E-02 0.  1.
    10030    2    1    2    0    0  0.00000000000E+00  0.00000000000E+00  0.93688123897E+03  0.35989158907E+04  0.34748308063E+04 0.  0.
        4    1    3    3  502    0  0.52651657980E+03  0.16069934434E+04  0.55501425148E+02  0.16919603000E+04  0.12699999809E+01 0.  1.
       -4    1    3    3    0  502 -0.52651657980E+03 -0.16069934434E+04  0.88137981382E+03  0.19069555907E+04  0.12699999809E+01 0. -1.
</event>
<event>
 5   0  0.2446281E-07  0.3841975E+04  0.7818609E-02  0.8037207E-01
        2   -1    0    0  501    0  0.00000000000E+00  0.00000000000E+00  0.15802466435E+04  0.15802466435E+04  0.25500000920E-02 0. -1.
       -2   -1    0    0    0  501  0.00000000000E+00  0.00000000000E+00 -0.23352003711E+04  0.23352003711E+04  0.25500000920E-02 0.  1.
    10030    2    1    2    0    0  0.00000000000E+00  0.00000000000E+00 -0.75495372759E+03  0.39154470147E+04  0.38419747779E+04 0.  0.
        1    1    3    3  502    0  0.49429892178E+03  0.61100065002E+03 -0.21638639364E+04  0.23021642760E+04  0.50400001928E-02 0.  1.
       -1    1    3    3    0  502 -0.49429892178E+03 -0.61100065002E+03  0.14089102088E+04  0.16132827387E+04  0.50400001928E-02 0. -1.
</event>
<event>
 5   0  0.7675750E-08  0.3887375E+04  0.7818609E-02  0.8027660E-01
       -1   -1    0    0    0  501  0.00000000000E+00  0.00000000000E+00  0.20564072484E+04  0.20564072484E+04  0.50400001928E-02 0. -1.
        1   -1    0    0  501    0  0.00000000000E+00  0.00000000000E+00 -0.18371461012E+04  0.18371461012E+04  0.50400001928E-02 0.  1.
    10030    2    1    2    0    0  0.00000000000E+00  0.00000000000E+00  0.21926114719E+03  0.38935533496E+04  0.38873747228E+04 0.  0.
        1    1    3    3  502    0  0.72492076795E+03 -0.12043647727E+03  0.19119086829E+04  0.20482699716E+04  0.50400001928E-02 0. -1.
       -1    1    3    3    0  502 -0.72492076795E+03  0.12043647727E+03 -0.16926475357E+04  0.18452833780E+04  0.50400001928E-02 0.  1.
</event>
<event>
 5   0  0.7675750E-08  0.3886124E+04  0.7818609E-02  0.8027921E-01
       -1   -1    0    0    0  501  0.00000000000E+00  0.00000000000E+00  0.24933787573E+04  0.24933787573E+04  0.50400001928E-02 0. -1.
        1   -1    0    0  501    0  0.00000000000E+00  0.00000000000E+00 -0.15142067170E+04  0.15142067170E+04  0.50400001928E-02 0.  1.
    10030    2    1    2    0    0  0.00000000000E+00  0.00000000000E+00  0.97917204029E+03  0.40075854742E+04  0.38861244767E+04 0.  0.
        5    1    3    3  502    0 -0.17456367652E+04  0.62253646175E+03 -0.11232550013E+03  0.18567278934E+04  0.46999998093E+01 0.  1.
       -5    1    3    3    0  502  0.17456367652E+04 -0.62253646175E+03  0.10914975404E+04  0.21508575808E+04  0.46999998093E+01 0. -1.
</event>
<event>
 5   0  0.2486268E-07  0.3839815E+04  0.7818609E-02  0.8037664E-01
        2   -1    0    0  501    0  0.00000000000E+00  0.00000000000E+00  0.34014195310E+04  0.34014195310E+04  0.25500000920E-02 0. -1.
       -2   -1    0    0    0  501  0.00000000000E+00  0.00000000000E+00 -0.10836785979E+04  0.10836785979E+04  0.25500000920E-02 0.  1.
    10030    2    1    2    0    0  0.00000000000E+00  0.00000000000E+00  0.23177409331E+04  0.44850981289E+04  0.38398153852E+04 0.  0.
        5    1    3    3  502    0 -0.96745983815E+03  0.10122009919E+04 -0.37545799327E+03  0.14496620921E+04  0.46999998093E+01 0.  1.
       -5    1    3    3    0  502  0.96745983815E+03 -0.10122009919E+04  0.26931989264E+04  0.30354360368E+04  0.46999998093E+01 0. -1.
</event>
<event>
 5   0  0.2486268E-07  0.3855305E+04  0.7818609E-02  0.8034390E-01
        2   -1    0    0  501    0  0.00000000000E+00  0.00000000000E+00  0.27348249750E+04  0.27348249750E+04  0.25500000920E-02 0. -1.
       -2   -1    0    0    0  501  0.00000000000E+00  0.00000000000E+00 -0.13587133959E+04  0.13587133959E+04  0.25500000920E-02 0.  1.
    10030    2    1    2    0    0  0.00000000000E+00  0.00000000000E+00  0.13761115791E+04  0.40935383709E+04  0.38553045685E+04 0.  0.
        5    1    3    3  502    0 -0.18220767658E+04  0.35015786054E+03  0.12430875701E+04  0.22333524273E+04  0.46999998093E+01 0. -1.
       -5    1    3    3    0  502  0.18220767658E+04 -0.35015786054E+03  0.13302400908E+03  0.18601859436E+04  0.46999998093E+01 0.  1.
</event>
<event>
 5   0  0.2486268E-07  0.3864305E+04  0.7818609E-02  0.8032494E-01
        2   -1    0    0  501    0  0.00000000000E+00  0.00000000000E+00  0.23973223243E+04  0.23973223244E+04  0.25500000920E-02 0.  1.
       -2   -1    0    0    0  501  0.00000000000E+00  0.00000000000E+00 -0.15572432655E+04  0.15572432655E+04  0.25500000920E-02 0. -1.
    10030    2    1    2    0    0  0.00000000000E+00  0.00000000000E+00  0.84007905882E+03  0.39545655899E+04  0.38643053942E+04 0.  0.
        5    1    3    3  502    0 -0.18403871974E+04  0.44793898093E+03  0.29661753330E+02  0.18943537886E+04  0.46999998093E+01 0. -1.
       -5    1    3    3    0  502  0.18403871974E+04 -0.44793898093E+03  0.81041730549E+03  0.20602118012E+04  0.46999998093E+01 0.  1.
</event>
<event>
 5   0  0.2384787E-07  0.3861783E+04  0.7818609E-02  0.8033025E-01
        2   -1    0    0  501    0  0.00000000000E+00  0.00000000000E+00  0.26725445953E+04  0.26725445953E+04  0.25500000920E-02 0.  1.
       -2   -1    0    0    0  501  0.00000000000E+00  0.00000000000E+00 -0.13950529421E+04  0.13950529421E+04  0.25500000920E-02 0. -1.
    10030    2    1    2    0    0  0.00000000000E+00  0.00000000000E+00  0.12774916532E+04  0.40675975374E+04  0.38617825938E+04 0.  0.
        4    1    3    3  502    0  0.45898966442E+03 -0.13235252865E+04  0.20384595488E+04  0.24734004206E+04  0.12699999809E+01 0.  1.
       -4    1    3    3    0  502 -0.45898966442E+03  0.13235252865E+04 -0.76096789555E+03  0.15941971167E+04  0.12699999809E+01 0. -1.
</event>
<event>
 5   0  0.2384787E-07  0.3906158E+04  0.7818609E-02  0.8023750E-01
       -2   -1    0    0    0  501  0.00000000000E+00  0.00000000000E+00  0.24188194420E+04  0.24188194420E+04  0.25500000920E-02 0.  1.
        2   -1    0    0  501    0  0.00000000000E+00  0.00000000000E+00 -0.15770162557E+04  0.15770162557E+04  0.25500000920E-02 0. -1.
    10030    2    1    2    0    0  0.00000000000E+00  0.00000000000E+00  0.84180318632E+03  0.39958356977E+04  0.39061579997E+04 0.  0.
        4    1    3    3  502    0  0.18065282944E+04  0.24866686265E+03 -0.29453764359E+03  0.18471961789E+04  0.12699999809E+01 0. -1.
       -4    1    3    3    0  502 -0.18065282944E+04 -0.24866686265E+03  0.11363408299E+04  0.21486395188E+04  0.12699999809E+01 0.  1.
</event>
<event>
 5   0  0.7675750E-08  0.3547043E+04  0.7818609E-02  0.8102731E-01
        1   -1    0    0  501    0  0.00000000000E+00  0.00000000000E+00  0.13606709753E+04  0.13606709753E+04  0.50400001928E-02 0. -1.
       -1   -1    0    0    0  501  0.00000000000E+00  0.00000000000E+00 -0.23116379899E+04  0.23116379899E+04  0.50400001928E-02 0.  1.
    10030    2    1    2    0    0  0.00000000000E+00  0.00000000000E+00 -0.95096701460E+03  0.36723089653E+04  0.35470431169E+04 0.  0.
        5    1    3    3  502    0 -0.63225349970E+03 -0.61936372183E+03 -0.20666394975E+04  0.22481941220E+04  0.46999998093E+01 0.  1.
       -5    1    3    3    0  502  0.63225349970E+03  0.61936372183E+03  0.11156724829E+04  0.14241148433E+04  0.46999998093E+01 0. -1.
</event>
<event>
 5   0  0.2395572E-07  0.3913729E+04  0.7818609E-02  0.8022180E-01
       -2   -1    0    0    0  501  0.00000000000E+00  0.00000000000E+00  0.16840452589E+04  0.16840452589E+04  0.25500000920E-02 0. -1.
        2   -1    0    0  501    0  0.00000000000E+00  0.00000000000E+00 -0.22738805404E+04  0.22738805404E+04  0.25500000920E-02 0.  1.
    10030    2    1    2    0    0  0.00000000000E+00  0.00000000000E+00 -0.58983528148E+03  0.39579257993E+04  0.39137285258E+04 0.  0.
        3    1    3    3  502    0 -0.17819828355E+04 -0.19336384513E+03  0.49910206182E+03  0.18606330323E+04  0.10100000352E+00 0. -1.
       -3    1    3    3    0  502  0.17819828355E+04  0.19336384513E+03 -0.10889373433E+04  0.20972927670E+04  0.10100000352E+00 0.  1.
</event>
<event>
 5   0  0.2473224E-07  0.3740191E+04  0.7818609E-02  0.8059113E-01
       -2   -1    0    0    0  501  0.00000000000E+00  0.00000000000E+00  0.18835214043E+04  0.18835214043E+04  0.25500000920E-02 0. -1.
        2   -1    0    0  501    0  0.00000000000E+00  0.00000000000E+00 -0.18567654715E+04  0.18567654715E+04  0.25500000920E-02 0.  1.
    10030    2    1    2    0    0  0.00000000000E+00  0.00000000000E+00  0.26755932761E+02  0.37402868758E+04  0.37401911761E+04 0.  0.
        2    1    3    3  502    0 -0.16994957157E+04  0.44544078395E+03  0.65413949663E+03  0.18747270896E+04  0.25500000920E-02 0. -1.
       -2    1    3    3    0  502  0.16994957157E+04 -0.44544078395E+03 -0.62738356386E+03  0.18655597862E+04  0.25500000920E-02 0.  1.
</event>
<event>
 5   0  0.7731706E-08  0.3902968E+04  0.7818609E-02  0.8024412E-01
        1   -1    0    0  501    0  0.00000000000E+00  0.00000000000E+00  0.25787855430E+04  0.25787855430E+04  0.50400001928E-02 0.  1.
       -1   -1    0    0    0  501  0.00000000000E+00  0.00000000000E+00 -0.14767762020E+04  0.14767762021E+04  0.50400001928E-02 0. -1.
    10030    2    1    2    0    0  0.00000000000E+00  0.00000000000E+00  0.11020093410E+04  0.40555617451E+04  0.39029676505E+04 0.  0.
        3    1    3    3  502    0  0.86848461648E+03 -0.15337898352E+04  0.14213141585E+04  0.22642682559E+04  0.10100000352E+00 0.  1.
       -3    1    3    3    0  502 -0.86848461648E+03  0.15337898352E+04 -0.31930481750E+03  0.17912934891E+04  0.10100000352E+00 0. -1.
</event>
<event>
 5   0  0.2486268E-07  0.3887287E+04  0.7818609E-02  0.8027678E-01
       -2   -1    0    0    0  501  0.00000000000E+00  0.00000000000E+00  0.13702028652E+04  0.13702028652E+04  0.25500000920E-02 0.  1.
        2   -1    0    0  501    0  0.00000000000E+00  0.00000000000E+00 -0.27570737855E+04  0.27570737855E+04  0.25500000920E-02 0. -1.
    10030    2    1    2    0    0  0.00000000000E+00  0.00000000000E+00 -0.13868709204E+04  0.41272766507E+04  0.38872871777E+04 0.  0.
        5    1    3    3  502    0 -0.17533202287E+04  0.15956349555E+03 -0.15677653943E+04  0.23574356312E+04  0.46999998093E+01 0. -1.
       -5    1    3    3    0  502  0.17533202287E+04 -0.15956349555E+03  0.18089447400E+03  0.17698410195E+04  0.46999998093E+01 0.  1.
</event>
<event>
 5   0  0.2473224E-07  0.3899971E+04  0.7818609E-02  0.8025035E-01
        2   -1    0    0  501    0  0.00000000000E+00  0.00000000000E+00  0.27143547159E+04  0.27143547159E+04  0.25500000920E-02 0.  1.
       -2   -1    0    0    0  501  0.00000000000E+00  0.00000000000E+00 -0.14008647123E+04  0.14008647123E+04  0.25500000920E-02 0. -1.
    10030    2    1    2    0    0  0.00000000000E+00  0.00000000000E+00  0.13134900036E+04  0.41152194282E+04  0.38999711476E+04 0.  0.
        2    1    3    3  502    0 -0.10000740442E+04 -0.22162253579E+03  0.24075945759E+04  0.26164434418E+04  0.25500000920E-02 0.  1.
       -2    1    3    3    0  502  0.10000740442E+04  0.22162253579E+03 -0.10941045723E+04  0.14987759864E+04  0.25500000920E-02 0. -1.
</event>
<event>
 5   0  0.7675750E-08  0.3868358E+04  0.7818609E-02  0.8031643E-01
        1   -1    0    0  501    0  0.00000000000E+00  0.00000000000E+00  0.19952611567E+04  0.19952611567E+04  0.50400001928E-02 0.  1.
       -1   -1    0    0    0  501  0.00000000000E+00  0.00000000000E+00 -0.18749665242E+04  0.18749665242E+04  0.50400001928E-02 0. -1.
    10030    2    1    2    0    0  0.00000000000E+00  0.00000000000E+00  0.12029463257E+03  0.38702276809E+04  0.38683577269E+04 0.  0.
        1    1    3    3  502    0 -0.94743605646E+03  0.97761531997E+03  0.14347405369E+04  0.19778390236E+04  0.50400001928E-02 0.  1.
       -1    1    3    3    0  502  0.94743605646E+03 -0.97761531997E+03 -0.13144459043E+04  0.18923886573E+04  0.50400001928E-02 0. -1.
</event>
<event>
 5   0  0.2486268E-07  0.3873107E+04  0.7818609E-02  0.8030646E-01
       -2   -1    0    0    0  501  0.00000000000E+00  0.00000000000E+00  0.13325092391E+04  0.13325092391E+04  0.25500000920E-02 0. -1.
        2   -1    0    0  501    0  0.00000000000E+00  0.00000000000E+00 -0.28144197506E+04  0.28144197506E+04  0.25500000920E-02 0.  1.
    10030    2    1    2    0    0  0.00000000000E+00  0.00000000000E+00 -0.14819105114E+04  0.41469289897E+04  0.38731074451E+04 0.  0.
        5    1    3    3  502    0  0.20704449472E+03  0.65559021236E+03 -0.26793484114E+04  0.27661518304E+04  0.46999998093E+01 0.  1.
       -5    1    3    3    0  502 -0.20704449472E+03 -0.65559021236E+03  0.11974378999E+04  0.13807771593E+04  0.46999998093E+01 0. -1.
</event>
<event>
 5   0  0.2486268E-07  0.3899226E+04  0.7818609E-02  0.8025190E-01
       -2   -1    0    0    0  501  0.00000000000E+00  0.00000000000E+00  0.17426100640E+04  0.17426100640E+04  0.25500000920E-02 0.  1.
        2   -1    0    0  501    0  0.00000000000E+00  0.00000000000E+00 -0.21812050908E+04  0.21812050908E+04  0.25500000920E-02 0. -1.
    10030    2    1    2    0    0  0.00000000000E+00  0.00000000000E+00 -0.43859502676E+03  0.39238151548E+04  0.38992255348E+04 0.  0.
        5    1    3    3  502    0  0.68105342930E+03 -0.15221872848E+04 -0.12356568706E+04  0.20755138871E+04  0.46999998093E+01 0.  1.
       -5    1    3    3    0  502 -0.68105342930E+03  0.15221872848E+04  0.79706184386E+03  0.18483012678E+04  0.46999998093E+01 0. -1.
</event>
<event>
 5   0  0.2395572E-07  0.3837657E+04  0.7818609E-02  0.8038122E-01
       -2   -1    0    0    0  501  0.00000000000E+00  0.00000000000E+00  0.22917509411E+04  0.22917509411E+04  0.25500000920E-02 0.  1.
        2   -1    0    0  501    0  0.00000000000E+00  0.00000000000E+00 -0.16065891596E+04  0.16065891596E+04  0.25500000920E-02 0. -1.
    10030    2    1    2    0    0  0.00000000000E+00  0.00000000000E+00  0.68516178150E+03  0.38983401006E+04  0.38376566904E+04 0.  0.
        3    1    3    3  502    0  0.27577655916E+03  0.52438252065E+02  0.22707794133E+04  0.22880650417E+04  0.10100000352E+00 0.  1.
       -3    1    3    3    0  502 -0.27577655916E+03 -0.52438252065E+02 -0.15856176318E+04  0.16102750589E+04  0.10100000352E+00 0. -1.
</event>
<event>
 5   0  0.7675750E-08  0.3902089E+04  0.7818609E-02  0.8024595E-01
       -1   -1    0    0    0  501  0.00000000000E+00  0.00000000000E+00  0.17319035642E+04  0.17319035642E+04  0.50400001928E-02 0. -1.
        1   -1    0    0  501    0  0.00000000000E+00  0.00000000000E+00 -0.21979135954E+04  0.21979135954E+04  0.50400001928E-02 0.  1.
    10030    2    1    2    0    0  0.00000000000E+00  0.00000000000E+00 -0.46601003127E+03  0.39298171596E+04  0.39020888712E+04 0.  0.
        2    1    3    3  502    0  0.48896573507E+03 -0.11441651264E+03  0.16657025438E+04  0.17397538886E+04  0.25500000920E-02 0. -1.
       -2    1    3    3    0  502 -0.48896573507E+03  0.11441651264E+03 -0.21317125751E+04  0.21900632710E+04  0.25500000920E-02 0.  1.
</event>
<event>
 5   0  0.7675750E-08  0.3958229E+04  0.7818609E-02  0.8013026E-01
       -1   -1    0    0    0  501  0.00000000000E+00  0.00000000000E+00  0.36096791842E+04  0.36096791842E+04  0.50400001928E-02 0.  1.
        1   -1    0    0  501    0  0.00000000000E+00  0.00000000000E+00 -0.10851087725E+04  0.10851087725E+04  0.50400001928E-02 0. -1.
    10030    2    1    2    0    0  0.00000000000E+00  0.00000000000E+00  0.25245704117E+04  0.46947879567E+04  0.39582291741E+04 0.  0.
        5    1    3    3  502    0  0.78410994601E+03  0.10720389286E+04  0.30025467651E+04  0.32832004262E+04  0.46999998093E+01 0. -1.
       -5    1    3    3    0  502 -0.78410994601E+03 -0.10720389286E+04 -0.47797635341E+03  0.14115875305E+04  0.46999998093E+01 0.  1.
</event>
<event>
 5   0  0.2473224E-07  0.3417749E+04  0.7818609E-02  0.8133564E-01
       -2   -1    0    0    0  501  0.00000000000E+00  0.00000000000E+00  0.21744444045E+04  0.21744444045E+04  0.25500000920E-02 0. -1.
        2   -1    0    0  501    0  0.00000000000E+00  0.00000000000E+00 -0.13429879420E+04  0.13429879420E+04  0.25500000920E-02 0.  1.
    10030    2    1    2    0    0  0.00000000000E+00  0.00000000000E+00  0.83145646250E+03  0.35174323465E+04  0.34177493271E+04 0.  0.
        2    1    3    3  502    0 -0.10950932912E+04  0.12525109954E+04  0.14169355944E+02  0.16637950236E+04  0.25500000920E-02 0. -1.
       -2    1    3    3    0  502  0.10950932912E+04 -0.12525109954E+04  0.81728710656E+03  0.18536373228E+04  0.25500000920E-02 0.  1.
</event>
<event>
 5   0  0.2446281E-07  0.3881425E+04  0.7818609E-02  0.8028904E-01
        2   -1    0    0  501    0  0.00000000000E+00  0.00000000000E+00  0.15278741714E+04  0.15278741714E+04  0.25500000920E-02 0.  1.
       -2   -1    0    0    0  501  0.00000000000E+00  0.00000000000E+00 -0.24651015557E+04  0.24651015557E+04  0.25500000920E-02 0. -1.
    10030    2    1    2    0    0  0.00000000000E+00  0.00000000000E+00 -0.93722738430E+03  0.39929757271E+04  0.38814249944E+04 0.  0.
        1    1    3    3  502    0 -0.13702500179E+04 -0.35082997115E+03 -0.18355985729E+04  0.23173452270E+04  0.50400001928E-02 0. -1.
       -1    1    3    3    0  502  0.13702500179E+04  0.35082997115E+03  0.89837118859E+03  0.16756305001E+04  0.50400001928E-02 0.  1.
</event>
<event>
 5   0  0.7675750E-08  0.3923008E+04  0.7818609E-02  0.8020261E-01
       -1   -1    0    0    0  501  0.00000000000E+00  0.00000000000E+00  0.18577163064E+04  0.18577163064E+04  0.50400001928E-02 0. -1.
        1   -1    0    0  501    0  0.00000000000E+00  0.00000000000E+00 -0.20710904923E+04  0.20710904923E+04  0.50400001928E-02 0.  1.
    10030    2    1    2    0    0  0.00000000000E+00  0.00000000000E+00 -0.21337418587E+03  0.39288067987E+04  0.39230083251E+04 0.  0.
        4    1    3    3  502    0 -0.12257427831E+04 -0.65664099349E+03  0.12787861317E+04  0.18891581057E+04  0.12699999809E+01 0. -1.
       -4    1    3    3    0  502  0.12257427831E+04  0.65664099349E+03 -0.14921603176E+04  0.20396486930E+04  0.12699999809E+01 0.  1.
</event>
<event>
 5   0  0.7731706E-08  0.3892652E+04  0.7818609E-02  0.8026559E-01
        1   -1    0    0  501    0  0.00000000000E+00  0.00000000000E+00  0.14734340862E+04  0.14734340862E+04  0.50400001928E-02 0. -1.
       -1   -1    0    0    0  501  0.00000000000E+00  0.00000000000E+00 -0.25709904628E+04  0.25709904628E+04  0.50400001928E-02 0.  1.
    10030    2    1    2    0    0  0.00000000000E+00  0.00000000000E+00 -0.10975563766E+04  0.40444245491E+04  0.38926520437E+04 0.  0.
        3    1    3    3  502    0 -0.84676231296E+03 -0.11204692749E+04 -0.19488053077E+04  0.24021448641E+04  0.10100000352E+00 0.  1.
       -3    1    3    3    0  502  0.84676231296E+03  0.11204692749E+04  0.85124893110E+03  0.16422796849E+04  0.10100000352E+00 0. -1.
</event>
<event>
 5   0  0.2473224E-07  0.3900599E+04  0.7818609E-02  0.8024905E-01
       -2   -1    0    0    0  501  0.00000000000E+00  0.00000000000E+00  0.16655361772E+04  0.16655361772E+04  0.25500000920E-02 0.  1.
        2   -1    0    0  501    0  0.00000000000E+00  0.00000000000E+00 -0.22837501324E+04  0.22837501324E+04  0.25500000920E-02 0. -1.
    10030    2    1    2    0    0  0.00000000000E+00  0.00000000000E+00 -0.61821395520E+03  0.39492863096E+04  0.39005991669E+04 0.  0.
        2    1    3    3  502    0 -0.86643079319E+03 -0.11587283001E+03 -0.20742959327E+04  0.22509625604E+04  0.25500000920E-02 0. -1.
       -2    1    3    3    0  502  0.86643079319E+03  0.11587283001E+03  0.14560819775E+04  0.16983237492E+04  0.25500000920E-02 0.  1.
</event>
<event>
 5   0  0.7731706E-08  0.3875449E+04  0.7818609E-02  0.8030155E-01
       -1   -1    0    0    0  501  0.00000000000E+00  0.00000000000E+00  0.29620243526E+04  0.29620243526E+04  0.50400001928E-02 0.  1.
        1   -1    0    0  501    0  0.00000000000E+00  0.00000000000E+00 -0.12676386558E+04  0.12676386558E+04  0.50400001928E-02 0. -1.
    10030    2    1    2    0    0  0.00000000000E+00  0.00000000000E+00  0.16943856968E+04  0.42296630085E+04  0.38754491708E+04 0.  0.
        3    1    3    3  502    0  0.21988461420E+03  0.85830280468E+03 -0.10336096809E+04  0.13613897057E+04  0.10100000352E+00 0. -1.
       -3    1    3    3    0  502 -0.21988461420E+03 -0.85830280468E+03  0.27279953778E+04  0.28682733028E+04  0.10100000352E+00 0.  1.
</event>
<event>
 5   0  0.7675750E-08  0.3879183E+04  0.7818609E-02  0.8029373E-01
       -1   -1    0    0    0  501  0.00000000000E+00  0.00000000000E+00  0.31659573956E+04  0.31659573956E+04  0.50400001928E-02 0.  1.
        1   -1    0    0  501    0  0.00000000000E+00  0.00000000000E+00 -0.11882709543E+04  0.11882709543E+04  0.50400001928E-02 0. -1.
    10030    2    1    2    0    0  0.00000000000E+00  0.00000000000E+00  0.19776864413E+04  0.43542283499E+04  0.38791830148E+04 0.  0.
        1    1    3    3  502    0 -0.18794413949E+04  0.44734662050E+02  0.45321202431E+03  0.19338309869E+04  0.50400001928E-02 0. -1.
       -1    1    3    3    0  502  0.18794413949E+04 -0.44734662050E+02  0.15244744170E+04  0.24203973630E+04  0.50400001928E-02 0.  1.
</event>
<event>
 5   0  0.7675750E-08  0.3872406E+04  0.7818609E-02  0.8030793E-01
        1   -1    0    0  501    0  0.00000000000E+00  0.00000000000E+00  0.17028056728E+04  0.17028056728E+04  0.50400001928E-02 0. -1.
       -1   -1    0    0    0  501  0.00000000000E+00  0.00000000000E+00 -0.22015911489E+04  0.22015911490E+04  0.50400001928E-02 0.  1.
    10030    2    1    2    0    0  0.00000000000E+00  0.00000000000E+00 -0.49878547616E+03  0.39043968217E+04  0.38724059176E+04 0.  0.
        2    1    3    3  502    0 -0.17018839667E+04  0.75138491725E+03 -0.79038251240E+03  0.20213096858E+04  0.25500000920E-02 0.  1.
       -2    1    3    3    0  502  0.17018839667E+04 -0.75138491725E+03  0.29159703624E+03  0.18830871359E+04  0.25500000920E-02 0. -1.
</event>
<event>
 5   0  0.2384787E-07  0.3940047E+04  0.7818609E-02  0.8016751E-01
       -2   -1    0    0    0  501  0.00000000000E+00  0.00000000000E+00  0.16296459430E+04  0.16296459430E+04  0.25500000920E-02 0.  1.
        2   -1    0    0  501    0  0.00000000000E+00  0.00000000000E+00 -0.23814944054E+04  0.23814944054E+04  0.25500000920E-02 0. -1.
    10030    2    1    2    0    0  0.00000000000E+00  0.00000000000E+00 -0.75184846233E+03  0.40111403484E+04  0.39400470536E+04 0.  0.
        4    1    3    3  502    0 -0.28402774244E+03  0.19263140311E+04 -0.71133457260E+02  0.19484401676E+04  0.12699999809E+01 0. -1.
       -4    1    3    3    0  502  0.28402774244E+03 -0.19263140311E+04 -0.68071500507E+03  0.20627001808E+04  0.12699999809E+01 0.  1.
</event>
<event>
 5   0  0.2486268E-07  0.3814405E+04  0.7818609E-02  0.8043071E-01
        2   -1    0    0  501    0  0.00000000000E+00  0.00000000000E+00  0.14539903890E+04  0.14539903890E+04  0.25500000920E-02 0. -1.
       -2   -1    0    0    0  501  0.00000000000E+00  0.00000000000E+00 -0.25016822339E+04  0.25016822339E+04  0.25500000920E-02 0.  1.
    10030    2    1    2    0    0  0.00000000000E+00  0.00000000000E+00 -0.10476918449E+04  0.39556726229E+04  0.38144052875E+04 0.  0.
        5    1    3    3  502    0 -0.70008054121E+03  0.13690185706E+04 -0.16939393472E+04  0.22877450061E+04  0.46999998093E+01 0.  1.
       -5    1    3    3    0  502  0.70008054121E+03 -0.13690185706E+04  0.64624750227E+03  0.16679276168E+04  0.46999998093E+01 0. -1.
</event>
<event>
 5   0  0.2384787E-07  0.3915186E+04  0.7818609E-02  0.8021878E-01
        2   -1    0    0  501    0  0.00000000000E+00  0.00000000000E+00  0.22614603762E+04  0.22614603762E+04  0.25500000920E-02 0.  1.
       -2   -1    0    0    0  501  0.00000000000E+00  0.00000000000E+00 -0.16945558508E+04  0.16945558508E+04  0.25500000920E-02 0. -1.
    10030    2    1    2    0    0  0.00000000000E+00  0.00000000000E+00  0.56690452542E+03  0.39560162269E+04  0.39151862851E+04 0.  0.
        4    1    3    3  502    0 -0.10994706227E+04  0.10658302106E+04  0.15157359680E+04  0.21545966735E+04  0.12699999809E+01 0.  1.
       -4    1    3    3    0  502  0.10994706227E+04 -0.10658302106E+04 -0.94883144260E+03  0.18014195534E+04  0.12699999809E+01 0. -1.
</event>
<event>
 5   0  0.2446281E-07  0.3928624E+04  0.7818609E-02  0.8019102E-01
       -2   -1    0    0    0  501  0.00000000000E+00  0.00000000000E+00  0.14846528186E+04  0.14846528186E+04  0.25500000920E-02 0.  1.
        2   -1    0    0  501    0  0.00000000000E+00  0.00000000000E+00 -0.25989388244E+04  0.25989388244E+04  0.25500000920E-02 0. -1.
    10030    2    1    2    0    0  0.00000000000E+00  0.00000000000E+00 -0.11142860059E+04  0.40835916430E+04  0.39286241108E+04 0.  0.
        1    1    3    3  502    0  0.43978287717E+03 -0.30703564861E+03  0.14070635010E+04  0.15058245464E+04  0.50400001928E-02 0.  1.
       -1    1    3    3    0  502 -0.43978287717E+03  0.30703564861E+03 -0.25213495069E+04  0.25777670966E+04  0.50400001928E-02 0. -1.
</event>
<event>
 5   0  0.2486268E-07  0.3905645E+04  0.7818609E-02  0.8023856E-01
        2   -1    0    0  501    0  0.00000000000E+00  0.00000000000E+00  0.20301962655E+04  0.20301962655E+04  0.25500000920E-02 0.  1.
       -2   -1    0    0    0  501  0.00000000000E+00  0.00000000000E+00 -0.18783978128E+04  0.18783978128E+04  0.25500000920E-02 0. -1.
    10030    2    1    2    0    0  0.00000000000E+00  0.00000000000E+00  0.15179845270E+03  0.39085940783E+04  0.39056452602E+04 0.  0.
        5    1    3    3  502    0  0.50955031531E+03  0.14507139094E+03  0.19568945894E+04  0.20273494411E+04  0.46999998093E+01 0.  1.
       -5    1    3    3    0  502 -0.50955031531E+03 -0.14507139094E+03 -0.18050961367E+04  0.18812446372E+04  0.46999998093E+01 0. -1.
</event>
<event>
 5   0  0.2395572E-07  0.3828260E+04  0.7818609E-02  0.8040117E-01
        2   -1    0    0  501    0  0.00000000000E+00  0.00000000000E+00  0.25803247535E+04  0.25803247535E+04  0.25500000920E-02 0.  1.
       -2   -1    0    0    0  501  0.00000000000E+00  0.00000000000E+00 -0.14199349020E+04  0.14199349020E+04  0.25500000920E-02 0. -1.
    10030    2    1    2    0    0  0.00000000000E+00  0.00000000000E+00  0.11603898515E+04  0.40002596555E+04  0.38282597488E+04 0.  0.
        3    1    3    3  502    0  0.10892003784E+04 -0.46867001283E+03  0.21503321493E+04  0.24555930868E+04  0.10100000352E+00 0.  1.
       -3    1    3    3    0  502 -0.10892003784E+04  0.46867001283E+03 -0.98994229787E+03  0.15446665687E+04  0.10100000352E+00 0. -1.
</event>
<event>
 5   0  0.2384787E-07  0.3828939E+04  0.7818609E-02  0.8039973E-01
        2   -1    0    0  501    0  0.00000000000E+00  0.00000000000E+00  0.17185923301E+04  0.17185923301E+04  0.25500000920E-02 0. -1.
       -2   -1    0    0    0  501  0.00000000000E+00  0.00000000000E+00 -0.21326722757E+04  0.21326722757E+04  0.25500000920E-02 0.  1.
    10030    2    1    2    0    0  0.00000000000E+00  0.00000000000E+00 -0.41407994552E+03  0.38512646058E+04  0.38289393913E+04 0.  0.
        4    1    3    3  502    0 -0.12595635130E+04 -0.10244600900E+04 -0.12274371415E+04  0.20353432803E+04  0.12699999809E+01 0.  1.
       -4    1    3    3    0  502  0.12595635130E+04  0.10244600900E+04  0.81335719598E+03  0.18159213255E+04  0.12699999809E+01 0. -1.
</event>
<event>
 5   0  0.7731706E-08  0.3896435E+04  0.7818609E-02  0.8025771E-01
       -1   -1    0    0    0  501  0.00000000000E+00  0.00000000000E+00  0.14668834731E+04  0.14668834731E+04  0.50400001928E-02 0.  1.
        1   -1    0    0  501    0  0.00000000000E+00  0.00000000000E+00 -0.25874940650E+04  0.25874940650E+04  0.50400001928E-02 0. -1.
    10030    2    1    2    0    0  0.00000000000E+00  0.00000000000E+00 -0.11206105919E+04  0.40543775381E+04  0.38964354381E+04 0.  0.
        3    1    3    3  502    0  0.62088118278E+03 -0.13736634804E+04  0.72386309739E+03  0.16722507570E+04  0.10100000352E+00 0. -1.
       -3    1    3    3    0  502 -0.62088118278E+03  0.13736634804E+04 -0.18444736893E+04  0.23821267811E+04  0.10100000352E+00 0.  1.
</event>
<event>
 5   0  0.7675750E-08  0.3722699E+04  0.7818609E-02  0.8062950E-01
        1   -1    0    0  501    0  0.00000000000E+00  0.00000000000E+00  0.11136979208E+04  0.11136979208E+04  0.50400001928E-02 0.  1.
       -1   -1    0    0    0  501  0.00000000000E+00  0.00000000000E+00 -0.31109170150E+04  0.31109170150E+04  0.50400001928E-02 0. -1.
    10030    2    1    2    0    0  0.00000000000E+00  0.00000000000E+00 -0.19972190943E+04  0.42246149358E+04  0.37226989195E+04 0.  0.
        2    1    3    3  502    0  0.81769482558E+03 -0.46830437836E+03 -0.28202393952E+04  0.29734969421E+04  0.25500000920E-02 0. -1.
       -2    1    3    3    0  502 -0.81769482558E+03  0.46830437836E+03  0.82302030089E+03  0.12511179937E+04  0.25500000920E-02 0.  1.
</event>
<event>
 5   0  0.7675750E-08  0.3882282E+04  0.7818609E-02  0.8028724E-01
        1   -1    0    0  501    0  0.00000000000E+00  0.00000000000E+00  0.30235712032E+04  0.30235712032E+04  0.50400001928E-02 0. -1.
       -1   -1    0    0    0  501  0.00000000000E+00  0.00000000000E+00 -0.12462180011E+04  0.12462180011E+04  0.50400001928E-02 0.  1.
    10030    2    1    2    0    0  0.00000000000E+00  0.00000000000E+00  0.17773532021E+04  0.42697892043E+04  0.38822822469E+04 0.  0.
        5    1    3    3  502    0  0.12385323393E+04 -0.14093960387E+04  0.14359899729E+04  0.23627206440E+04  0.46999998093E+01 0. -1.
       -5    1    3    3    0  502 -0.12385323393E+04  0.14093960387E+04  0.34136322919E+03  0.19070685603E+04  0.46999998093E+01 0.  1.
</event>
<event>
 5   0  0.2384787E-07  0.3314416E+04  0.7818609E-02  0.8159237E-01
        2   -1    0    0  501    0  0.00000000000E+00  0.00000000000E+00  0.11468085530E+04  0.11468085530E+04  0.25500000920E-02 0. -1.
       -2   -1    0    0    0  501  0.00000000000E+00  0.00000000000E+00 -0.23947662187E+04  0.23947662187E+04  0.25500000920E-02 0.  1.
    10030    2    1    2    0    0  0.00000000000E+00  0.00000000000E+00 -0.12479576657E+04  0.35415747716E+04  0.33144160161E+04 0.  0.
        4    1    3    3  502    0 -0.12106442842E+04 -0.70091098020E+03  0.32539712207E+03  0.14362523055E+04  0.12699999809E+01 0. -1.
       -4    1    3    3    0  502  0.12106442842E+04  0.70091098020E+03 -0.15733547878E+04  0.21053224661E+04  0.12699999809E+01 0.  1.
</event>
<event>
 5   0  0.7675750E-08  0.3909628E+04  0.7818609E-02  0.8023030E-01
        1   -1    0    0  501    0  0.00000000000E+00  0.00000000000E+00  0.28387760929E+04  0.28387760929E+04  0.50400001928E-02 0. -1.
       -1   -1    0    0    0  501  0.00000000000E+00  0.00000000000E+00 -0.13461074464E+04  0.13461074464E+04  0.50400001928E-02 0.  1.
    10030    2    1    2    0    0  0.00000000000E+00  0.00000000000E+00  0.14926686466E+04  0.41848835393E+04  0.39096279297E+04 0.  0.
        1    1    3    3  502    0  0.48027576434E+03  0.24943012632E+03 -0.12643223887E+04  0.13752786264E+04  0.50400001928E-02 0.  1.
       -1    1    3    3    0  502 -0.48027576434E+03 -0.24943012632E+03  0.27569910353E+04  0.28096049128E+04  0.50400001928E-02 0. -1.
</event>
<event>
 5   0  0.7675750E-08  0.4024089E+04  0.7818609E-02  0.7999705E-01
        1   -1    0    0  501    0  0.00000000000E+00  0.00000000000E+00  0.25388943726E+04  0.25388943726E+04  0.50400001928E-02 0.  1.
       -1   -1    0    0    0  501  0.00000000000E+00  0.00000000000E+00 -0.15945217473E+04  0.15945217473E+04  0.50400001928E-02 0. -1.
    10030    2    1    2    0    0  0.00000000000E+00  0.00000000000E+00  0.94437262528E+03  0.41334161199E+04  0.40240886129E+04 0.  0.
        5    1    3    3  502    0  0.80258338946E+03 -0.71052527443E+03  0.22211839184E+04  0.24663062162E+04  0.46999998093E+01 0.  1.
       -5    1    3    3    0  502 -0.80258338946E+03  0.71052527443E+03 -0.12768112931E+04  0.16671099037E+04  0.46999998093E+01 0. -1.
</event>
<event>
 5   0  0.7675750E-08  0.3665074E+04  0.7818609E-02  0.8075746E-01
       -1   -1    0    0    0  501  0.00000000000E+00  0.00000000000E+00  0.15160227689E+04  0.15160227689E+04  0.50400001928E-02 0.  1.
        1   -1    0    0  501    0  0.00000000000E+00  0.00000000000E+00 -0.22151329401E+04  0.22151329401E+04  0.50400001928E-02 0. -1.
    10030    2    1    2    0    0  0.00000000000E+00  0.00000000000E+00 -0.69911017117E+03  0.37311557090E+04  0.36650740638E+04 0.  0.
        1    1    3    3  502    0  0.13286672728E+04 -0.86319816435E+03  0.58776495724E+03  0.16899513123E+04  0.50400001928E-02 0.  1.
       -1    1    3    3    0  502 -0.13286672728E+04  0.86319816435E+03 -0.12868751284E+04  0.20412043967E+04  0.50400001928E-02 0. -1.
</event>
<event>
 5   0  0.7675750E-08  0.3917375E+04  0.7818609E-02  0.8021425E-01
       -1   -1    0    0    0  501  0.00000000000E+00  0.00000000000E+00  0.21319310012E+04  0.21319310012E+04  0.50400001928E-02 0.  1.
        1   -1    0    0  501    0  0.00000000000E+00  0.00000000000E+00 -0.17995216455E+04  0.17995216455E+04  0.50400001928E-02 0. -1.
    10030    2    1    2    0    0  0.00000000000E+00  0.00000000000E+00  0.33240935568E+03  0.39314526468E+04  0.39173746226E+04 0.  0.
        2    1    3    3  502    0 -0.68238775255E+01  0.15090643549E+04 -0.10869356062E+04  0.18597717077E+04  0.25500000920E-02 0. -1.
       -2    1    3    3    0  502  0.68238775255E+01 -0.15090643549E+04  0.14193449619E+04  0.20716809391E+04  0.25500000920E-02 0.  1.
</event>
<event>
 5   0  0.2486268E-07  0.3914526E+04  0.7818609E-02  0.8022015E-01
       -2   -1    0    0    0  501  0.00000000000E+00  0.00000000000E+00  0.15044072347E+04  0.15044072347E+04  0.25500000920E-02 0.  1.
        2   -1    0    0  501    0  0.00000000000E+00  0.00000000000E+00 -0.25464373572E+04  0.25464373572E+04  0.25500000920E-02 0. -1.
    10030    2    1    2    0    0  0.00000000000E+00  0.00000000000E+00 -0.10420301226E+04  0.40508445919E+04  0.39145261694E+04 0.  0.
        5    1    3    3  502    0 -0.11784027850E+04  0.15244788900E+04 -0.16525885053E+03  0.19339083710E+04  0.46999998093E+01 0.  1.
       -5    1    3    3    0  502  0.11784027850E+04 -0.15244788900E+04 -0.87677127203E+03  0.21169362209E+04  0.46999998093E+01 0. -1.
</event>
<event>
 5   0  0.2384787E-07  0.3926841E+04  0.7818609E-02  0.8019470E-01
        2   -1    0    0  501    0  0.00000000000E+00  0.00000000000E+00  0.11388640174E+04  0.11388640174E+04  0.25500000920E-02 0. -1.
       -2   -1    0    0    0  501  0.00000000000E+00  0.00000000000E+00 -0.33849699885E+04  0.33849699885E+04  0.25500000920E-02 0.  1.
    10030    2    1    2    0    0  0.00000000000E+00  0.00000000000E+00 -0.22461059712E+04  0.45238340059E+04  0.39268412343E+04 0.  0.
        4    1    3    3  502    0  0.16135916089E+04 -0.82498035736E+03 -0.19933864518E+04  0.26940418760E+04  0.12699999809E+01 0.  1.
       -4    1    3    3    0  502 -0.16135916089E+04  0.82498035736E+03 -0.25271951935E+03  0.18297921299E+04  0.12699999809E+01 0. -1.
</event>
<event>
 5   0  0.7675750E-08  0.3575255E+04  0.7818609E-02  0.8096183E-01
        1   -1    0    0  501    0  0.00000000000E+00  0.00000000000E+00  0.18627859963E+04  0.18627859963E+04  0.50400001928E-02 0. -1.
       -1   -1    0    0    0  501  0.00000000000E+00  0.00000000000E+00 -0.17155014912E+04  0.17155014912E+04  0.50400001928E-02 0.  1.
    10030    2    1    2    0    0  0.00000000000E+00  0.00000000000E+00  0.14728450513E+03  0.35782874875E+04  0.35752550424E+04 0.  0.
        5    1    3    3  502    0  0.51125893408E+03  0.17017080869E+04 -0.12246769399E+03  0.17810717382E+04  0.46999998093E+01 0.  1.
       -5    1    3    3    0  502 -0.51125893408E+03 -0.17017080869E+04  0.26975219912E+03  0.17972157493E+04  0.46999998093E+01 0. -1.
</event>
<event>
 5   0  0.7675750E-08  0.3899486E+04  0.7818609E-02  0.8025136E-01
        1   -1    0    0  501    0  0.00000000000E+00  0.00000000000E+00  0.15378366972E+04  0.15378366973E+04  0.50400001928E-02 0. -1.
       -1   -1    0    0    0  501  0.00000000000E+00  0.00000000000E+00 -0.24719778329E+04  0.24719778329E+04  0.50400001928E-02 0.  1.
    10030    2    1    2    0    0  0.00000000000E+00  0.00000000000E+00 -0.93414113563E+03  0.40098145301E+04  0.38994862360E+04 0.  0.
        2    1    3    3  502    0  0.11353795298E+04 -0.15761669024E+04 -0.29466827677E+03  0.19647437935E+04  0.25500000920E-02 0. -1.
       -2    1    3    3    0  502 -0.11353795298E+04  0.15761669024E+04 -0.63947285886E+03  0.20450707366E+04  0.25500000920E-02 0.  1.
</event>
<event>
 5   0  0.2384787E-07  0.3918796E+04  0.7818609E-02  0.8021131E-01
       -2   -1    0    0    0  501  0.00000000000E+00  0.00000000000E+00  0.20258819155E+04  0.20258819155E+04  0.25500000920E-02 0. -1.
        2   -1    0    0  501    0  0.00000000000E+00  0.00000000000E+00 -0.18950960153E+04  0.18950960153E+04  0.25500000920E-02 0.  1.
    10030    2    1    2    0    0  0.00000000000E+00  0.00000000000E+00  0.13078590022E+03  0.39209779309E+04  0.39187961139E+04 0.  0.
        4    1    3    3  502    0 -0.15643150568E+04  0.82382802570E+03 -0.77974585157E+03  0.19322989983E+04  0.12699999809E+01 0.  1.
       -4    1    3    3    0  502  0.15643150568E+04 -0.82382802570E+03  0.91053175179E+03  0.19886789326E+04  0.12699999809E+01 0. -1.
</event>
<event>
 5   0  0.7675750E-08  0.3885378E+04  0.7818609E-02  0.8028077E-01
        1   -1    0    0  501    0  0.00000000000E+00  0.00000000000E+00  0.14037767396E+04  0.14037767396E+04  0.50400001928E-02 0.  1.
       -1   -1    0    0    0  501  0.00000000000E+00  0.00000000000E+00 -0.26884905541E+04  0.26884905541E+04  0.50400001928E-02 0. -1.
    10030    2    1    2    0    0  0.00000000000E+00  0.00000000000E+00 -0.12847138145E+04  0.40922672937E+04  0.38853779762E+04 0.  0.
        1    1    3    3  502    0  0.16570084328E+04 -0.95331779315E+03 -0.27818769508E+03  0.19318074839E+04  0.50400001928E-02 0.  1.
       -1    1    3    3    0  502 -0.16570084328E+04  0.95331779315E+03 -0.10065261195E+04  0.21604598099E+04  0.50400001928E-02 0. -1.
</event>
<event>
 5   0  0.2446281E-07  0.4017290E+04  0.7818609E-02  0.8001068E-01
        2   -1    0    0  501    0  0.00000000000E+00  0.00000000000E+00  0.21301177090E+04  0.21301177090E+04  0.25500000920E-02 0.  1.
       -2   -1    0    0    0  501  0.00000000000E+00  0.00000000000E+00 -0.18940991988E+04  0.18940991988E+04  0.25500000920E-02 0. -1.
    10030    2    1    2    0    0  0.00000000000E+00  0.00000000000E+00  0.23601851024E+03  0.40242169078E+04  0.40172897561E+04 0.  0.
        1    1    3    3  502    0  0.92067794185E+03  0.69289266570E+03 -0.15300955351E+04  0.19154478498E+04  0.50400001928E-02 0.  1.
       -1    1    3    3    0  502 -0.92067794185E+03 -0.69289266570E+03  0.17661140454E+04  0.21087690580E+04  0.50400001928E-02 0. -1.
</event>
<event>
 5   0  0.7675750E-08  0.3885144E+04  0.7818609E-02  0.8028126E-01
        1   -1    0    0  501    0  0.00000000000E+00  0.00000000000E+00  0.21833558135E+04  0.21833558135E+04  0.50400001928E-02 0.  1.
       -1   -1    0    0    0  501  0.00000000000E+00  0.00000000000E+00 -0.17283421002E+04  0.17283421002E+04  0.50400001928E-02 0. -1.
    10030    2    1    2    0    0  0.00000000000E+00  0.00000000000E+00  0.45501371326E+03  0.39116979137E+04  0.38851438955E+04 0.  0.
        1    1    3    3  502    0  0.69296695938E+03 -0.17834940953E+04  0.56525659169E+03  0.19951364388E+04  0.50400001928E-02 0. -1.
       -1    1    3    3    0  502 -0.69296695938E+03  0.17834940953E+04 -0.11024287843E+03  0.19165614749E+04  0.50400001928E-02 0.  1.
</event>
<event>
 5   0  0.7675750E-08  0.3916108E+04  0.7818609E-02  0.8021687E-01
        1   -1    0    0  501    0  0.00000000000E+00  0.00000000000E+00  0.22205376671E+04  0.22205376671E+04  0.50400001928E-02 0. -1.
       -1   -1    0    0    0  501  0.00000000000E+00  0.00000000000E+00 -0.17265976191E+04  0.17265976191E+04  0.50400001928E-02 0.  1.
    10030    2    1    2    0    0  0.00000000000E+00  0.00000000000E+00  0.49394004801E+03  0.39471352862E+04  0.39161077866E+04 0.  0.
        1    1    3    3  502    0  0.16296243132E+04 -0.36704395660E+03  0.12766207069E+04  0.21024169657E+04  0.50400001928E-02 0. -1.
       -1    1    3    3    0  502 -0.16296243132E+04  0.36704395660E+03 -0.78268065887E+03  0.18447183205E+04  0.50400001928E-02 0.  1.
</event>
<event>
 5   0  0.2395572E-07  0.3885052E+04  0.7818609E-02  0.8028145E-01
        2   -1    0    0  501    0  0.00000000000E+00  0.00000000000E+00  0.20342464293E+04  0.20342464293E+04  0.25500000920E-02 0. -1.
       -2   -1    0    0    0  501  0.00000000000E+00  0.00000000000E+00 -0.18549411671E+04  0.18549411671E+04  0.25500000920E-02 0.  1.
    10030    2    1    2    0    0  0.00000000000E+00  0.00000000000E+00  0.17930526227E+03  0.38891875964E+04  0.38850520952E+04 0.  0.
        3    1    3    3  502    0 -0.22494225536E+03  0.54811095978E+02 -0.18410797628E+04  0.18555802267E+04  0.10100000352E+00 0.  1.
       -3    1    3    3    0  502  0.22494225536E+03 -0.54811095978E+02  0.20203850251E+04  0.20336073697E+04  0.10100000352E+00 0. -1.
</event>
<event>
 5   0  0.7675750E-08  0.3932471E+04  0.7818609E-02  0.8018310E-01
        3   -1    0    0  501    0  0.00000000000E+00  0.00000000000E+00  0.23564759132E+04  0.23564759153E+04  0.10100000352E+00 0.  1.
       -3   -1    0    0    0  501  0.00000000000E+00  0.00000000000E+00 -0.16406201762E+04  0.16406201793E+04  0.10100000352E+00 0. -1.
    10030    2    1    2    0    0  0.00000000000E+00  0.00000000000E+00  0.71585573701E+03  0.39970960946E+04  0.39324709475E+04 0.  0.
        3    1    3    3  502    0  0.96842126389E+03 -0.15182544141E+04  0.11602963749E+04  0.21422473942E+04  0.10100000352E+00 0.  1.
       -3    1    3    3    0  502 -0.96842126389E+03  0.15182544141E+04 -0.44444063787E+03  0.18548487003E+04  0.10100000352E+00 0. -1.
</event>
<event>
 5   0  0.2395572E-07  0.3979991E+04  0.7818609E-02  0.8008595E-01
       -2   -1    0    0    0  501  0.00000000000E+00  0.00000000000E+00  0.17316198148E+04  0.17316198148E+04  0.25500000920E-02 0. -1.
        2   -1    0    0  501    0  0.00000000000E+00  0.00000000000E+00 -0.22869231794E+04  0.22869231794E+04  0.25500000920E-02 0.  1.
    10030    2    1    2    0    0  0.00000000000E+00  0.00000000000E+00 -0.55530336465E+03  0.40185429942E+04  0.39799906996E+04 0.  0.
        3    1    3    3  502    0  0.88232686389E+03  0.12853178972E+04 -0.15263766506E+04  0.21818268679E+04  0.10100000352E+00 0.  1.
       -3    1    3    3    0  502 -0.88232686389E+03 -0.12853178972E+04  0.97107328595E+03  0.18367161263E+04  0.10100000352E+00 0. -1.
</event>
<event>
 5   0  0.2384787E-07  0.3919173E+04  0.7818609E-02  0.8021053E-01
        2   -1    0    0  501    0  0.00000000000E+00  0.00000000000E+00  0.16604011812E+04  0.16604011812E+04  0.25500000920E-02 0. -1.
       -2   -1    0    0    0  501  0.00000000000E+00  0.00000000000E+00 -0.23126817477E+04  0.23126817477E+04  0.25500000920E-02 0.  1.
    10030    2    1    2    0    0  0.00000000000E+00  0.00000000000E+00 -0.65228056658E+03  0.39730829289E+04  0.39191731299E+04 0.  0.
        4    1    3    3  502    0 -0.16719263953E+04 -0.40658174578E+03 -0.12767657588E+04  0.21426103245E+04  0.12699999809E+01 0.  1.
       -4    1    3    3    0  502  0.16719263953E+04  0.40658174578E+03  0.62448519218E+03  0.18304726044E+04  0.12699999809E+01 0. -1.
</event>
<event>
 5   0  0.2395572E-07  0.4044076E+04  0.7818609E-02  0.7995714E-01
        2   -1    0    0  501    0  0.00000000000E+00  0.00000000000E+00  0.13544351821E+04  0.13544351821E+04  0.25500000920E-02 0.  1.
       -2   -1    0    0    0  501  0.00000000000E+00  0.00000000000E+00 -0.30187036140E+04  0.30187036140E+04  0.25500000920E-02 0. -1.
    10030    2    1    2    0    0  0.00000000000E+00  0.00000000000E+00 -0.16642684319E+04  0.43731387961E+04  0.40440763490E+04 0.  0.
        3    1    3    3  502    0 -0.82459854886E+03 -0.14031262722E+04 -0.21297374847E+04  0.26803932298E+04  0.10100000352E+00 0. -1.
       -3    1    3    3    0  502  0.82459854886E+03  0.14031262722E+04  0.46546905282E+03  0.16927455662E+04  0.10100000352E+00 0.  1.
</event>
<event>
 5   0  0.2446281E-07  0.3948480E+04  0.7818609E-02  0.8015021E-01
        2   -1    0    0  501    0  0.00000000000E+00  0.00000000000E+00  0.30493734500E+04  0.30493734500E+04  0.25500000920E-02 0.  1.
       -2   -1    0    0    0  501  0.00000000000E+00  0.00000000000E+00 -0.12781718982E+04  0.12781718982E+04  0.25500000920E-02 0. -1.
    10030    2    1    2    0    0  0.00000000000E+00  0.00000000000E+00  0.17712015517E+04  0.43275453482E+04  0.39484799359E+04 0.  0.
        1    1    3    3  502    0  0.92351465829E+03  0.70364401448E+03  0.26356497670E+04  0.28800423465E+04  0.50400001928E-02 0.  1.
       -1    1    3    3    0  502 -0.92351465829E+03 -0.70364401448E+03 -0.86444821523E+03  0.14475030017E+04  0.50400001928E-02 0. -1.
</event>
<event>
 5   0  0.7675750E-08  0.3906431E+04  0.7818609E-02  0.8023693E-01
        1   -1    0    0  501    0  0.00000000000E+00  0.00000000000E+00  0.22397590964E+04  0.22397590964E+04  0.50400001928E-02 0. -1.
       -1   -1    0    0    0  501  0.00000000000E+00  0.00000000000E+00 -0.17033305622E+04  0.17033305622E+04  0.50400001928E-02 0.  1.
    10030    2    1    2    0    0  0.00000000000E+00  0.00000000000E+00  0.53642853420E+03  0.39430896586E+04  0.39064306577E+04 0.  0.
        2    1    3    3  502    0  0.26620460366E+03 -0.61917941398E+03 -0.15822384884E+04  0.17198042540E+04  0.25500000920E-02 0.  1.
       -2    1    3    3    0  502 -0.26620460366E+03  0.61917941398E+03  0.21186670226E+04  0.22232854046E+04  0.25500000920E-02 0. -1.
</event>
<event>
 5   0  0.7675750E-08  0.3907193E+04  0.7818609E-02  0.8023535E-01
       -1   -1    0    0    0  501  0.00000000000E+00  0.00000000000E+00  0.29760491460E+04  0.29760491460E+04  0.50400001928E-02 0.  1.
        1   -1    0    0  501    0  0.00000000000E+00  0.00000000000E+00 -0.12824183694E+04  0.12824183694E+04  0.50400001928E-02 0. -1.
    10030    2    1    2    0    0  0.00000000000E+00  0.00000000000E+00  0.16936307766E+04  0.42584675154E+04  0.39071934137E+04 0.  0.
        4    1    3    3  502    0 -0.98756319210E+03  0.15835205872E+04  0.21719392029E+03  0.18788276452E+04  0.12699999809E+01 0.  1.
       -4    1    3    3    0  502  0.98756319210E+03 -0.15835205872E+04  0.14764368563E+04  0.23796398702E+04  0.12699999809E+01 0. -1.
</event>
<event>
 5   0  0.2486268E-07  0.3824996E+04  0.7818609E-02  0.8040812E-01
       -2   -1    0    0    0  501  0.00000000000E+00  0.00000000000E+00  0.29491710951E+04  0.29491710951E+04  0.25500000920E-02 0.  1.
        2   -1    0    0  501    0  0.00000000000E+00  0.00000000000E+00 -0.12402294899E+04  0.12402294899E+04  0.25500000920E-02 0. -1.
    10030    2    1    2    0    0  0.00000000000E+00  0.00000000000E+00  0.17089416051E+04  0.41894005850E+04  0.38249961898E+04 0.  0.
        5    1    3    3  502    0  0.14537577807E+04  0.12138520876E+04  0.56308328895E+03  0.19758374062E+04  0.46999998093E+01 0. -1.
       -5    1    3    3    0  502 -0.14537577807E+04 -0.12138520876E+04  0.11458583162E+04  0.22135631788E+04  0.46999998093E+01 0.  1.
</event>
<event>
 5   0  0.7675750E-08  0.3887024E+04  0.7818609E-02  0.8027733E-01
       -1   -1    0    0    0  501  0.00000000000E+00  0.00000000000E+00  0.13044001893E+04  0.13044001893E+04  0.50400001928E-02 0. -1.
        1   -1    0    0  501    0  0.00000000000E+00  0.00000000000E+00 -0.28957661861E+04  0.28957661861E+04  0.50400001928E-02 0.  1.
    10030    2    1    2    0    0  0.00000000000E+00  0.00000000000E+00 -0.15913659969E+04  0.42001663754E+04  0.38870235200E+04 0.  0.
        1    1    3    3  502    0 -0.17834889458E+04 -0.21424418022E+03  0.60500584102E+01  0.17963212385E+04  0.50400001928E-02 0. -1.
       -1    1    3    3    0  502  0.17834889458E+04  0.21424418022E+03 -0.15974160553E+04  0.24038451369E+04  0.50400001928E-02 0.  1.
</event>
<event>
 5   0  0.7675750E-08  0.3935847E+04  0.7818609E-02  0.8017615E-01
        1   -1    0    0  501    0  0.00000000000E+00  0.00000000000E+00  0.10812482987E+04  0.10812482988E+04  0.50400001928E-02 0. -1.
       -1   -1    0    0    0  501  0.00000000000E+00  0.00000000000E+00 -0.35817137740E+04  0.35817137740E+04  0.50400001928E-02 0.  1.
    10030    2    1    2    0    0  0.00000000000E+00  0.00000000000E+00 -0.25004654752E+04  0.46629620727E+04  0.39358465035E+04 0.  0.
        4    1    3    3  502    0  0.24251669595E+03 -0.17238384537E+04 -0.16292177660E+03  0.17484217113E+04  0.12699999809E+01 0. -1.
       -4    1    3    3    0  502 -0.24251669595E+03  0.17238384537E+04 -0.23375436986E+04  0.29145403614E+04  0.12699999809E+01 0.  1.
</event>
<event>
 5   0  0.7675750E-08  0.3949539E+04  0.7818609E-02  0.8014804E-01
       -1   -1    0    0    0  501  0.00000000000E+00  0.00000000000E+00  0.20411637705E+04  0.20411637706E+04  0.50400001928E-02 0.  1.
        1   -1    0    0  501    0  0.00000000000E+00  0.00000000000E+00 -0.19105352542E+04  0.19105352542E+04  0.50400001928E-02 0. -1.
    10030    2    1    2    0    0  0.00000000000E+00  0.00000000000E+00  0.13062851637E+03  0.39516990247E+04  0.39495393874E+04 0.  0.
        5    1    3    3  502    0  0.78793755156E+03  0.55284032589E+03  0.17905584969E+04  0.20328796895E+04  0.46999998093E+01 0.  1.
       -5    1    3    3    0  502 -0.78793755156E+03 -0.55284032589E+03 -0.16599299805E+04  0.19188193353E+04  0.46999998093E+01 0. -1.
</event>
<event>
 5   0  0.2384787E-07  0.3936066E+04  0.7818609E-02  0.8017570E-01
       -2   -1    0    0    0  501  0.00000000000E+00  0.00000000000E+00  0.22255800233E+04  0.22255800233E+04  0.25500000920E-02 0. -1.
        2   -1    0    0  501    0  0.00000000000E+00  0.00000000000E+00 -0.17402892332E+04  0.17402892332E+04  0.25500000920E-02 0.  1.
    10030    2    1    2    0    0  0.00000000000E+00  0.00000000000E+00  0.48529079009E+03  0.39658692564E+04  0.39360655239E+04 0.  0.
        4    1    3    3  502    0  0.15135764791E+04 -0.10845161707E+04  0.88470062046E+03  0.20615008813E+04  0.12699999809E+01 0. -1.
       -4    1    3    3    0  502 -0.15135764791E+04  0.10845161707E+04 -0.39940983037E+03  0.19043683751E+04  0.12699999809E+01 0.  1.
</event>
<event>
 5   0  0.7675750E-08  0.3918128E+04  0.7818609E-02  0.8021270E-01
       -1   -1    0    0    0  501  0.00000000000E+00  0.00000000000E+00  0.13105290223E+04  0.13105290223E+04  0.50400001928E-02 0.  1.
        1   -1    0    0  501    0  0.00000000000E+00  0.00000000000E+00 -0.29285358692E+04  0.29285358692E+04  0.50400001928E-02 0. -1.
    10030    2    1    2    0    0  0.00000000000E+00  0.00000000000E+00 -0.16180068469E+04  0.42390648916E+04  0.39181277415E+04 0.  0.
        1    1    3    3  502    0 -0.70554975256E+03  0.13486755830E+03  0.11629082879E+04  0.13668743167E+04  0.50400001928E-02 0.  1.
       -1    1    3    3    0  502  0.70554975256E+03 -0.13486755830E+03 -0.27809151348E+04  0.28721905749E+04  0.50400001928E-02 0. -1.
</event>
<event>
 5   0  0.2473224E-07  0.3865219E+04  0.7818609E-02  0.8032302E-01
       -2   -1    0    0    0  501  0.00000000000E+00  0.00000000000E+00  0.25177002287E+04  0.25177002287E+04  0.25500000920E-02 0.  1.
        2   -1    0    0  501    0  0.00000000000E+00  0.00000000000E+00 -0.14834884855E+04  0.14834884855E+04  0.25500000920E-02 0. -1.
    10030    2    1    2    0    0  0.00000000000E+00  0.00000000000E+00  0.10342117432E+04  0.40011887141E+04  0.38652189067E+04 0.  0.
        2    1    3    3  502    0  0.55331647732E+03  0.17119974568E+04  0.12475372303E+04  0.21893934223E+04  0.25500000920E-02 0.  1.
       -2    1    3    3    0  502 -0.55331647732E+03 -0.17119974568E+04 -0.21332548711E+03  0.18117952919E+04  0.25500000920E-02 0. -1.
</event>
<event>
 5   0  0.2486268E-07  0.3932160E+04  0.7818609E-02  0.8018374E-01
       -2   -1    0    0    0  501  0.00000000000E+00  0.00000000000E+00  0.24954277344E+04  0.24954277344E+04  0.25500000920E-02 0.  1.
        2   -1    0    0  501    0  0.00000000000E+00  0.00000000000E+00 -0.15490209095E+04  0.15490209095E+04  0.25500000920E-02 0. -1.
    10030    2    1    2    0    0  0.00000000000E+00  0.00000000000E+00  0.94640682487E+03  0.40444486438E+04  0.39321595790E+04 0.  0.
        5    1    3    3  502    0 -0.14111303623E+04 -0.10677828667E+04 -0.40799920095E+03  0.18160216375E+04  0.46999998093E+01 0. -1.
       -5    1    3    3    0  502  0.14111303623E+04  0.10677828667E+04  0.13544060258E+04  0.22284270064E+04  0.46999998093E+01 0.  1.
</event>
<event>
 5   0  0.7731706E-08  0.3880134E+04  0.7818609E-02  0.8029174E-01
        1   -1    0    0  501    0  0.00000000000E+00  0.00000000000E+00  0.20670691888E+04  0.20670691889E+04  0.50400001928E-02 0.  1.
       -1   -1    0    0    0  501  0.00000000000E+00  0.00000000000E+00 -0.18208674486E+04  0.18208674486E+04  0.50400001928E-02 0. -1.
    10030    2    1    2    0    0  0.00000000000E+00  0.00000000000E+00  0.24620174026E+03  0.38879366374E+04  0.38801335028E+04 0.  0.
        3    1    3    3  502    0 -0.54845048744E+03  0.47217652293E+03 -0.16805497398E+04  0.18297530008E+04  0.10100000352E+00 0. -1.
       -3    1    3    3    0  502  0.54845048744E+03 -0.47217652293E+03  0.19267514800E+04  0.20581836366E+04  0.10100000352E+00 0.  1.
</event>
<event>
 5   0  0.7675750E-08  0.3898930E+04  0.7818609E-02  0.8025252E-01
       -1   -1    0    0    0  501  0.00000000000E+00  0.00000000000E+00  0.13165075200E+04  0.13165075200E+04  0.50400001928E-02 0.  1.
        1   -1    0    0  501    0  0.00000000000E+00  0.00000000000E+00 -0.28867393406E+04  0.28867393406E+04  0.50400001928E-02 0. -1.
    10030    2    1    2    0    0  0.00000000000E+00  0.00000000000E+00 -0.15702318206E+04  0.42032468606E+04  0.38989301354E+04 0.  0.
        5    1    3    3  502    0  0.15861610011E+04  0.10493909470E+04 -0.12466224737E+04  0.22740311702E+04  0.46999998093E+01 0.  1.
       -5    1    3    3    0  502 -0.15861610011E+04 -0.10493909470E+04 -0.32360934696E+03  0.19292156905E+04  0.46999998093E+01 0. -1.
</event>
<event>
 5   0  0.2473224E-07  0.3877865E+04  0.7818609E-02  0.8029649E-01
       -2   -1    0    0    0  501  0.00000000000E+00  0.00000000000E+00  0.21375131543E+04  0.21375131543E+04  0.25500000920E-02 0.  1.
        2   -1    0    0  501    0  0.00000000000E+00  0.00000000000E+00 -0.17588002810E+04  0.17588002810E+04  0.25500000920E-02 0. -1.
    10030    2    1    2    0    0  0.00000000000E+00  0.00000000000E+00  0.37871287333E+03  0.38963134354E+04  0.38778647406E+04 0.  0.
        2    1    3    3  502    0 -0.87354579429E+03  0.15933593493E+04  0.86902301757E+03  0.20142187756E+04  0.25500000920E-02 0.  1.
       -2    1    3    3    0  502  0.87354579429E+03 -0.15933593493E+04 -0.49031014424E+03  0.18820946598E+04  0.25500000920E-02 0. -1.
</event>
<event>
 5   0  0.7675750E-08  0.3915766E+04  0.7818609E-02  0.8021758E-01
        1   -1    0    0  501    0  0.00000000000E+00  0.00000000000E+00  0.24318364366E+04  0.24318364366E+04  0.50400001928E-02 0. -1.
       -1   -1    0    0    0  501  0.00000000000E+00  0.00000000000E+00 -0.15763006974E+04  0.15763006974E+04  0.50400001928E-02 0.  1.
    10030    2    1    2    0    0  0.00000000000E+00  0.00000000000E+00  0.85553573926E+03  0.40081371340E+04  0.39157658106E+04 0.  0.
        4    1    3    3  502    0  0.27947047634E+03  0.12464214899E+04  0.19465601540E+04  0.23282543512E+04  0.12699999809E+01 0. -1.
       -4    1    3    3    0  502 -0.27947047634E+03 -0.12464214899E+04 -0.10910244148E+04  0.16798827828E+04  0.12699999809E+01 0.  1.
</event>
<event>
 5   0  0.2395572E-07  0.3884937E+04  0.7818609E-02  0.8028169E-01
       -2   -1    0    0    0  501  0.00000000000E+00  0.00000000000E+00  0.18225782556E+04  0.18225782556E+04  0.25500000920E-02 0. -1.
        2   -1    0    0  501    0  0.00000000000E+00  0.00000000000E+00 -0.20702447634E+04  0.20702447634E+04  0.25500000920E-02 0.  1.
    10030    2    1    2    0    0  0.00000000000E+00  0.00000000000E+00 -0.24766650788E+03  0.38928230190E+04  0.38849365964E+04 0.  0.
        3    1    3    3  502    0 -0.11001625920E+04  0.13043842111E+04  0.80617107074E+03  0.18872434142E+04  0.10100000352E+00 0. -1.
       -3    1    3    3    0  502  0.11001625920E+04 -0.13043842111E+04 -0.10538375786E+04  0.20055796048E+04  0.10100000352E+00 0.  1.
</event>
<event>
 5   0  0.2486268E-07  0.3812824E+04  0.7818609E-02  0.8043408E-01
        2   -1    0    0  501    0  0.00000000000E+00  0.00000000000E+00  0.22276501647E+04  0.22276501647E+04  0.25500000920E-02 0. -1.
       -2   -1    0    0    0  501  0.00000000000E+00  0.00000000000E+00 -0.16314982712E+04  0.16314982712E+04  0.25500000920E-02 0.  1.
    10030    2    1    2    0    0  0.00000000000E+00  0.00000000000E+00  0.59615189354E+03  0.38591484359E+04  0.38128243560E+04 0.  0.
        5    1    3    3  502    0 -0.71280603876E+03  0.12545356685E+04 -0.96302871890E+03  0.17347618268E+04  0.46999998093E+01 0.  1.
       -5    1    3    3    0  502  0.71280603876E+03 -0.12545356685E+04  0.15591806124E+04  0.21243866090E+04  0.46999998093E+01 0. -1.
</event>
<event>
 5   0  0.2384787E-07  0.4087751E+04  0.7818609E-02  0.7987075E-01
        2   -1    0    0  501    0  0.00000000000E+00  0.00000000000E+00  0.26187196590E+04  0.26187196590E+04  0.25500000920E-02 0.  1.
       -2   -1    0    0    0  501  0.00000000000E+00  0.00000000000E+00 -0.15952172564E+04  0.15952172564E+04  0.25500000920E-02 0. -1.
    10030    2    1    2    0    0  0.00000000000E+00  0.00000000000E+00  0.10235024026E+04  0.42139369153E+04  0.40877508679E+04 0.  0.
        4    1    3    3  502    0 -0.12041717119E+04  0.12154836759E+04  0.16642958678E+04  0.23869043606E+04  0.12699999809E+01 0. -1.
       -4    1    3    3    0  502  0.12041717119E+04 -0.12154836759E+04 -0.64079346524E+03  0.18270325547E+04  0.12699999809E+01 0.  1.
</event>
<event>
 5   0  0.7675750E-08  0.3567509E+04  0.7818609E-02  0.8097975E-01
       -1   -1    0    0    0  501  0.00000000000E+00  0.00000000000E+00  0.14416135039E+04  0.14416135039E+04  0.50400001928E-02 0.  1.
        1   -1    0    0  501    0  0.00000000000E+00  0.00000000000E+00 -0.22070968844E+04  0.22070968844E+04  0.50400001928E-02 0. -1.
    10030    2    1    2    0    0  0.00000000000E+00  0.00000000000E+00 -0.76548338054E+03  0.36487103883E+04  0.35675093121E+04 0.  0.
        1    1    3    3  502    0 -0.13905309760E+04 -0.54219820100E+03 -0.13818205315E+04  0.20339575378E+04  0.50400001928E-02 0.  1.
       -1    1    3    3    0  502  0.13905309760E+04  0.54219820100E+03  0.61633715095E+03  0.16147528505E+04  0.50400001928E-02 0. -1.
</event>
<event>
 5   0  0.2446281E-07  0.3881752E+04  0.7818609E-02  0.8028835E-01
        2   -1    0    0  501    0  0.00000000000E+00  0.00000000000E+00  0.20008950007E+04  0.20008950007E+04  0.25500000920E-02 0. -1.
       -2   -1    0    0    0  501  0.00000000000E+00  0.00000000000E+00 -0.18826574408E+04  0.18826574409E+04  0.25500000920E-02 0.  1.
    10030    2    1    2    0    0  0.00000000000E+00  0.00000000000E+00  0.11823755983E+03  0.38835524415E+04  0.38817521103E+04 0.  0.
        1    1    3    3  502    0  0.16434284817E+04  0.43738686656E+03 -0.87664138703E+03  0.19132863264E+04  0.50400001928E-02 0.  1.
       -1    1    3    3    0  502 -0.16434284817E+04 -0.43738686656E+03  0.99487894687E+03  0.19702661151E+04  0.50400001928E-02 0. -1.
</event>
<event>
 5   0  0.7675750E-08  0.3887076E+04  0.7818609E-02  0.8027723E-01
       -1   -1    0    0    0  501  0.00000000000E+00  0.00000000000E+00  0.17231184238E+04  0.17231184238E+04  0.50400001928E-02 0. -1.
        1   -1    0    0  501    0  0.00000000000E+00  0.00000000000E+00 -0.21921532913E+04  0.21921532913E+04  0.50400001928E-02 0.  1.
    10030    2    1    2    0    0  0.00000000000E+00  0.00000000000E+00 -0.46903486747E+03  0.39152717151E+04  0.38870758799E+04 0.  0.
        1    1    3    3  502    0 -0.13549770928E+04 -0.81890200729E+03 -0.13699816246E+04  0.20936602091E+04  0.50400001928E-02 0. -1.
       -1    1    3    3    0  502  0.13549770928E+04  0.81890200729E+03  0.90094675709E+03  0.18216115060E+04  0.50400001928E-02 0.  1.
</event>
<event>
 5   0  0.2384787E-07  0.3932241E+04  0.7818609E-02  0.8018357E-01
        2   -1    0    0  501    0  0.00000000000E+00  0.00000000000E+00  0.22131935391E+04  0.22131935391E+04  0.25500000920E-02 0. -1.
       -2   -1    0    0    0  501  0.00000000000E+00  0.00000000000E+00 -0.17466295113E+04  0.17466295113E+04  0.25500000920E-02 0.  1.
    10030    2    1    2    0    0  0.00000000000E+00  0.00000000000E+00  0.46656402778E+03  0.39598230503E+04  0.39322406587E+04 0.  0.
        4    1    3    3  502    0  0.62914961439E+03  0.44128729495E+02  0.21085610634E+04  0.22008652737E+04  0.12699999809E+01 0. -1.
       -4    1    3    3    0  502 -0.62914961439E+03 -0.44128729495E+02 -0.16419970356E+04  0.17589577766E+04  0.12699999809E+01 0.  1.
</event>
<event>
 5   0  0.7675750E-08  0.3879911E+04  0.7818609E-02  0.8029220E-01
       -1   -1    0    0    0  501  0.00000000000E+00  0.00000000000E+00  0.22929092368E+04  0.22929092368E+04  0.50400001928E-02 0.  1.
        1   -1    0    0  501    0  0.00000000000E+00  0.00000000000E+00 -0.16413328609E+04  0.16413328609E+04  0.50400001928E-02 0. -1.
    10030    2    1    2    0    0  0.00000000000E+00  0.00000000000E+00  0.65157637589E+03  0.39342420977E+04  0.38799109667E+04 0.  0.
        1    1    3    3  502    0  0.68062698329E+03 -0.98858673528E+03 -0.12196506291E+04  0.17111705001E+04  0.50400001928E-02 0. -1.
       -1    1    3    3    0  502 -0.68062698329E+03  0.98858673528E+03  0.18712270050E+04  0.22230715975E+04  0.50400001928E-02 0.  1.
</event>
<event>
 5   0  0.2486268E-07  0.3914603E+04  0.7818609E-02  0.8021999E-01
        2   -1    0    0  501    0  0.00000000000E+00  0.00000000000E+00  0.20539388760E+04  0.20539388760E+04  0.25500000920E-02 0. -1.
       -2   -1    0    0    0  501  0.00000000000E+00  0.00000000000E+00 -0.18652109786E+04  0.18652109786E+04  0.25500000920E-02 0.  1.
    10030    2    1    2    0    0  0.00000000000E+00  0.00000000000E+00  0.18872789747E+03  0.39191498546E+04  0.39146030915E+04 0.  0.
        5    1    3    3  502    0 -0.12655713845E+04  0.84566579808E+03 -0.11375878110E+04  0.19002499017E+04  0.46999998093E+01 0.  1.
       -5    1    3    3    0  502  0.12655713845E+04 -0.84566579808E+03  0.13263157084E+04  0.20188999529E+04  0.46999998093E+01 0. -1.
</event>
<event>
 5   0  0.2486268E-07  0.3831270E+04  0.7818609E-02  0.8039478E-01
       -2   -1    0    0    0  501  0.00000000000E+00  0.00000000000E+00  0.21915742869E+04  0.21915742869E+04  0.25500000920E-02 0. -1.
        2   -1    0    0  501    0  0.00000000000E+00  0.00000000000E+00 -0.16744387560E+04  0.16744387560E+04  0.25500000920E-02 0.  1.
    10030    2    1    2    0    0  0.00000000000E+00  0.00000000000E+00  0.51713553094E+03  0.38660130429E+04  0.38312697230E+04 0.  0.
        5    1    3    3  502    0  0.71334705323E+03  0.60216960851E+03 -0.14293724455E+04  0.17072199430E+04  0.46999998093E+01 0.  1.
       -5    1    3    3    0  502 -0.71334705323E+03 -0.60216960851E+03  0.19465079765E+04  0.21587930999E+04  0.46999998093E+01 0. -1.
</event>
<event>
 5   0  0.2473224E-07  0.3905626E+04  0.7818609E-02  0.8023860E-01
        2   -1    0    0  501    0  0.00000000000E+00  0.00000000000E+00  0.16855814281E+04  0.16855814281E+04  0.25500000920E-02 0. -1.
       -2   -1    0    0    0  501  0.00000000000E+00  0.00000000000E+00 -0.22624114219E+04  0.22624114219E+04  0.25500000920E-02 0.  1.
    10030    2    1    2    0    0  0.00000000000E+00  0.00000000000E+00 -0.57682999378E+03  0.39479928500E+04  0.39056260320E+04 0.  0.
        2    1    3    3  502    0  0.91360282438E+03 -0.14186128527E+04 -0.12821075983E+04  0.21191820215E+04  0.25500000920E-02 0.  1.
       -2    1    3    3    0  502 -0.91360282438E+03  0.14186128527E+04  0.70527760457E+03  0.18288108284E+04  0.25500000920E-02 0. -1.
</event>
<event>
 5   0  0.2473224E-07  0.3310797E+04  0.7818609E-02  0.8160153E-01
        2   -1    0    0  501    0  0.00000000000E+00  0.00000000000E+00  0.25605342978E+04  0.25605342978E+04  0.25500000920E-02 0.  1.
       -2   -1    0    0    0  501  0.00000000000E+00  0.00000000000E+00 -0.10702237883E+04  0.10702237883E+04  0.25500000920E-02 0. -1.
    10030    2    1    2    0    0  0.00000000000E+00  0.00000000000E+00  0.14903105094E+04  0.36307580861E+04  0.33107973157E+04 0.  0.
        2    1    3    3  502    0 -0.21115305950E+03 -0.83175984337E+03  0.22975654913E+04  0.24525939815E+04  0.25500000920E-02 0.  1.
       -2    1    3    3    0  502  0.21115305950E+03  0.83175984337E+03 -0.80725498185E+03  0.11781641046E+04  0.25500000920E-02 0. -1.
</event>
<event>
 5   0  0.2446281E-07  0.3894909E+04  0.7818609E-02  0.8026089E-01
        2   -1    0    0  501    0  0.00000000000E+00  0.00000000000E+00  0.22951750570E+04  0.22951750570E+04  0.25500000920E-02 0. -1.
       -2   -1    0    0    0  501  0.00000000000E+00  0.00000000000E+00 -0.16524141853E+04  0.16524141853E+04  0.25500000920E-02 0.  1.
    10030    2    1    2    0    0  0.00000000000E+00  0.00000000000E+00  0.64276087166E+03  0.39475892423E+04  0.38949094069E+04 0.  0.
        1    1    3    3  502    0  0.47743597040E+03 -0.33863685692E+03 -0.15611482951E+04  0.16672744303E+04  0.50400001928E-02 0.  1.
       -1    1    3    3    0  502 -0.47743597040E+03  0.33863685692E+03  0.22039091667E+04  0.22803148120E+04  0.50400001928E-02 0. -1.
</event>
<event>
 5   0  0.7675750E-08  0.3931947E+04  0.7818609E-02  0.8018417E-01
        1   -1    0    0  501    0  0.00000000000E+00  0.00000000000E+00  0.38083198182E+04  0.38083198182E+04  0.50400001928E-02 0. -1.
       -1   -1    0    0    0  501  0.00000000000E+00  0.00000000000E+00 -0.10148969003E+04  0.10148969003E+04  0.50400001928E-02 0.  1.
    10030    2    1    2    0    0  0.00000000000E+00  0.00000000000E+00  0.27934229179E+04  0.48232167185E+04  0.39319470896E+04 0.  0.
        5    1    3    3  502    0 -0.11899457257E+04 -0.15649350148E+04  0.13892038546E+04  0.24072602415E+04  0.46999998093E+01 0. -1.
       -5    1    3    3    0  502  0.11899457257E+04  0.15649350148E+04  0.14042190634E+04  0.24159564770E+04  0.46999998093E+01 0.  1.
</event>
<event>
 5   0  0.7731706E-08  0.3678366E+04  0.7818609E-02  0.8072773E-01
       -1   -1    0    0    0  501  0.00000000000E+00  0.00000000000E+00  0.16798296424E+04  0.16798296424E+04  0.50400001928E-02 0. -1.
        1   -1    0    0  501    0  0.00000000000E+00  0.00000000000E+00 -0.20136527096E+04  0.20136527096E+04  0.50400001928E-02 0.  1.
    10030    2    1    2    0    0  0.00000000000E+00  0.00000000000E+00 -0.33382306724E+03  0.36934823520E+04  0.36783656757E+04 0.  0.
        3    1    3    3  502    0  0.35644124016E+03 -0.13788818189E+04 -0.13354070035E+04  0.19523517366E+04  0.10100000352E+00 0.  1.
       -3    1    3    3    0  502 -0.35644124016E+03  0.13788818189E+04  0.10015839363E+04  0.17411306154E+04  0.10100000352E+00 0. -1.
</event>
<event>
 5   0  0.2395572E-07  0.3992383E+04  0.7818609E-02  0.8006085E-01
        2   -1    0    0  501    0  0.00000000000E+00  0.00000000000E+00  0.24979278899E+04  0.24979278899E+04  0.25500000920E-02 0.  1.
       -2   -1    0    0    0  501  0.00000000000E+00  0.00000000000E+00 -0.15952344267E+04  0.15952344267E+04  0.25500000920E-02 0. -1.
    10030    2    1    2    0    0  0.00000000000E+00  0.00000000000E+00  0.90269346320E+03  0.40931623165E+04  0.39923830304E+04 0.  0.
        3    1    3    3  502    0 -0.15299353160E+04 -0.16545003257E+03 -0.85224658780E+03  0.17590906859E+04  0.10100000352E+00 0. -1.
       -3    1    3    3    0  502  0.15299353160E+04  0.16545003257E+03  0.17549400510E+04  0.23340716307E+04  0.10100000352E+00 0.  1.
</event>
<event>
 5   0  0.7675750E-08  0.3872069E+04  0.7818609E-02  0.8030863E-01
       -1   -1    0    0    0  501  0.00000000000E+00  0.00000000000E+00  0.27411575260E+04  0.27411575260E+04  0.50400001928E-02 0. -1.
        1   -1    0    0  501    0  0.00000000000E+00  0.00000000000E+00 -0.13673896746E+04  0.13673896746E+04  0.50400001928E-02 0.  1.
    10030    2    1    2    0    0  0.00000000000E+00  0.00000000000E+00  0.13737678513E+04  0.41085472006E+04  0.38720694712E+04 0.  0.
        1    1    3    3  502    0  0.33681251317E+03 -0.69038090175E+03 -0.11987715411E+04  0.14237702295E+04  0.50400001928E-02 0.  1.
       -1    1    3    3    0  502 -0.33681251317E+03  0.69038090175E+03  0.25725393925E+04  0.26847769711E+04  0.50400001928E-02 0. -1.
</event>
<event>
 5   0  0.2473224E-07  0.3815517E+04  0.7818609E-02  0.8042833E-01
        2   -1    0    0  501    0  0.00000000000E+00  0.00000000000E+00  0.32192586155E+04  0.32192586155E+04  0.25500000920E-02 0.  1.
       -2   -1    0    0    0  501  0.00000000000E+00  0.00000000000E+00 -0.11305530216E+04  0.11305530216E+04  0.25500000920E-02 0. -1.
    10030    2    1    2    0    0  0.00000000000E+00  0.00000000000E+00  0.20887055939E+04  0.43498116371E+04  0.38155170319E+04 0.  0.
        2    1    3    3  502    0  0.62535741302E+02  0.28710232446E+03 -0.11046012618E+04  0.11430146155E+04  0.25500000920E-02 0. -1.
       -2    1    3    3    0  502 -0.62535741302E+02 -0.28710232446E+03  0.31933068557E+04  0.32067970217E+04  0.25500000920E-02 0.  1.
</event>
<event>
 5   0  0.7675750E-08  0.4093368E+04  0.7818609E-02  0.7985972E-01
        1   -1    0    0  501    0  0.00000000000E+00  0.00000000000E+00  0.19813657887E+04  0.19813657887E+04  0.50400001928E-02 0. -1.
       -1   -1    0    0    0  501  0.00000000000E+00  0.00000000000E+00 -0.21141555531E+04  0.21141555531E+04  0.50400001928E-02 0.  1.
    10030    2    1    2    0    0  0.00000000000E+00  0.00000000000E+00 -0.13278976441E+03  0.40955213419E+04  0.40933680436E+04 0.  0.
        4    1    3    3  502    0 -0.10088214696E+04 -0.14428727759E+04  0.97785490758E+03  0.20139027877E+04  0.12699999809E+01 0. -1.
       -4    1    3    3    0  502  0.10088214696E+04  0.14428727759E+04 -0.11106446720E+04  0.20816185542E+04  0.12699999809E+01 0.  1.
</event>
<event>
 5   0  0.7675750E-08  0.3887797E+04  0.7818609E-02  0.8027572E-01
       -1   -1    0    0    0  501  0.00000000000E+00  0.00000000000E+00  0.16753234087E+04  0.16753234087E+04  0.50400001928E-02 0.  1.
        1   -1    0    0  501    0  0.00000000000E+00  0.00000000000E+00 -0.22555297863E+04  0.22555297863E+04  0.50400001928E-02 0. -1.
    10030    2    1    2    0    0  0.00000000000E+00  0.00000000000E+00 -0.58020637762E+03  0.39308531950E+04  0.38877972426E+04 0.  0.
        1    1    3    3  502    0 -0.90371658191E+03 -0.16908222637E+04  0.34636392059E+02  0.19174940071E+04  0.50400001928E-02 0.  1.
       -1    1    3    3    0  502  0.90371658191E+03  0.16908222637E+04 -0.61484276968E+03  0.20133591878E+04  0.50400001928E-02 0. -1.
</event>
<event>
 5   0  0.7675750E-08  0.3916268E+04  0.7818609E-02  0.8021654E-01
       -1   -1    0    0    0  501  0.00000000000E+00  0.00000000000E+00  0.18594326016E+04  0.18594326016E+04  0.50400001928E-02 0.  1.
        1   -1    0    0  501    0  0.00000000000E+00  0.00000000000E+00 -0.20620749555E+04  0.20620749555E+04  0.50400001928E-02 0. -1.
    10030    2    1    2    0    0  0.00000000000E+00  0.00000000000E+00 -0.20264235393E+03  0.39215075571E+04  0.39162683254E+04 0.  0.
        2    1    3    3  502    0 -0.13837981441E+04 -0.43151569522E+03 -0.14195877501E+04  0.20288746830E+04  0.25500000920E-02 0. -1.
       -2    1    3    3    0  502  0.13837981441E+04  0.43151569522E+03  0.12169453962E+04  0.18926328741E+04  0.25500000920E-02 0.  1.
</event>
<event>
 5   0  0.7675750E-08  0.3910592E+04  0.7818609E-02  0.8022830E-01
       -1   -1    0    0    0  501  0.00000000000E+00  0.00000000000E+00  0.12605048735E+04  0.12605048735E+04  0.50400001928E-02 0. -1.
        1   -1    0    0  501    0  0.00000000000E+00  0.00000000000E+00 -0.30330562874E+04  0.30330562875E+04  0.50400001928E-02 0.  1.
    10030    2    1    2    0    0  0.00000000000E+00  0.00000000000E+00 -0.17725514139E+04  0.42935611610E+04  0.39105918897E+04 0.  0.
        5    1    3    3  502    0  0.34826975827E+03  0.10884017137E+04 -0.26282363380E+04  0.28659306435E+04  0.46999998093E+01 0.  1.
       -5    1    3    3    0  502 -0.34826975827E+03 -0.10884017137E+04  0.85568492410E+03  0.14276305174E+04  0.46999998093E+01 0. -1.
</event>
<event>
 5   0  0.2384787E-07  0.3869389E+04  0.7818609E-02  0.8031426E-01
       -2   -1    0    0    0  501  0.00000000000E+00  0.00000000000E+00  0.11776506933E+04  0.11776506933E+04  0.25500000920E-02 0.  1.
        2   -1    0    0  501    0  0.00000000000E+00  0.00000000000E+00 -0.31783981098E+04  0.31783981098E+04  0.25500000920E-02 0. -1.
    10030    2    1    2    0    0  0.00000000000E+00  0.00000000000E+00 -0.20007474165E+04  0.43560488032E+04  0.38693889635E+04 0.  0.
        4    1    3    3  502    0 -0.49979913408E+03 -0.15117492154E+04 -0.22376251695E+04  0.27462980313E+04  0.12699999809E+01 0. -1.
       -4    1    3    3    0  502  0.49979913408E+03  0.15117492154E+04  0.23687775297E+03  0.16097507719E+04  0.12699999809E+01 0.  1.
</event>
<event>
 5   0  0.2384787E-07  0.3912992E+04  0.7818609E-02  0.8022333E-01
        2   -1    0    0  501    0  0.00000000000E+00  0.00000000000E+00  0.22219258025E+04  0.22219258025E+04  0.25500000920E-02 0. -1.
       -2   -1    0    0    0  501  0.00000000000E+00  0.00000000000E+00 -0.17227743032E+04  0.17227743032E+04  0.25500000920E-02 0.  1.
    10030    2    1    2    0    0  0.00000000000E+00  0.00000000000E+00  0.49915149930E+03  0.39447001057E+04  0.39129920399E+04 0.  0.
        4    1    3    3  502    0  0.11605508655E+04  0.15452707085E+04  0.55722929761E+03  0.20112796864E+04  0.12699999809E+01 0.  1.
       -4    1    3    3    0  502 -0.11605508655E+04 -0.15452707085E+04 -0.58077798317E+02  0.19334204192E+04  0.12699999809E+01 0. -1.
</event>
<event>
 5   0  0.7675750E-08  0.3868469E+04  0.7818609E-02  0.8031619E-01
       -1   -1    0    0    0  501  0.00000000000E+00  0.00000000000E+00  0.13975289056E+04  0.13975289056E+04  0.50400001928E-02 0. -1.
        1   -1    0    0  501    0  0.00000000000E+00  0.00000000000E+00 -0.26770564659E+04  0.26770564659E+04  0.50400001928E-02 0.  1.
    10030    2    1    2    0    0  0.00000000000E+00  0.00000000000E+00 -0.12795275603E+04  0.40745853715E+04  0.38684693577E+04 0.  0.
        2    1    3    3  502    0 -0.99232495532E+03 -0.16713638938E+03  0.11001023012E+04  0.14909287249E+04  0.25500000920E-02 0. -1.
       -2    1    3    3    0  502  0.99232495532E+03  0.16713638938E+03 -0.23796298615E+04  0.25836566466E+04  0.25500000920E-02 0.  1.
</event>
<event>
 5   0  0.2384787E-07  0.3911383E+04  0.7818609E-02  0.8022666E-01
       -2   -1    0    0    0  501  0.00000000000E+00  0.00000000000E+00  0.19462227587E+04  0.19462227587E+04  0.25500000920E-02 0.  1.
        2   -1    0    0  501    0  0.00000000000E+00  0.00000000000E+00 -0.19652067275E+04  0.19652067276E+04  0.25500000920E-02 0. -1.
    10030    2    1    2    0    0  0.00000000000E+00  0.00000000000E+00 -0.18983968847E+02  0.39114294863E+04  0.39113834170E+04 0.  0.
        4    1    3    3  502    0  0.59805803034E+03  0.16676364545E+04  0.81879531760E+03  0.19516946834E+04  0.12699999809E+01 0. -1.
       -4    1    3    3    0  502 -0.59805803034E+03 -0.16676364545E+04 -0.83777928644E+03  0.19597348029E+04  0.12699999809E+01 0.  1.
</event>
<event>
 5   0  0.2446281E-07  0.3872415E+04  0.7818609E-02  0.8030791E-01
        2   -1    0    0  501    0  0.00000000000E+00  0.00000000000E+00  0.23527677423E+04  0.23527677423E+04  0.25500000920E-02 0. -1.
       -2   -1    0    0    0  501  0.00000000000E+00  0.00000000000E+00 -0.15933996292E+04  0.15933996292E+04  0.25500000920E-02 0.  1.
    10030    2    1    2    0    0  0.00000000000E+00  0.00000000000E+00  0.75936811314E+03  0.39461673715E+04  0.38724148787E+04 0.  0.
        1    1    3    3  502    0  0.17306948392E+04  0.82387460611E+03  0.65843588466E+03  0.20267244034E+04  0.50400001928E-02 0. -1.
       -1    1    3    3    0  502 -0.17306948392E+04 -0.82387460611E+03  0.10093222848E+03  0.19194429681E+04  0.50400001928E-02 0.  1.
</event>
<event>
 5   0  0.2384787E-07  0.3878784E+04  0.7818609E-02  0.8029456E-01
       -2   -1    0    0    0  501  0.00000000000E+00  0.00000000000E+00  0.21873657255E+04  0.21873657255E+04  0.25500000920E-02 0.  1.
        2   -1    0    0  501    0  0.00000000000E+00  0.00000000000E+00 -0.17195297471E+04  0.17195297471E+04  0.25500000920E-02 0. -1.
    10030    2    1    2    0    0  0.00000000000E+00  0.00000000000E+00  0.46783597841E+03  0.39068954725E+04  0.38787835375E+04 0.  0.
        4    1    3    3  502    0  0.17663748690E+04  0.65487213261E+03 -0.23018290261E+03  0.18978734072E+04  0.12699999809E+01 0. -1.
       -4    1    3    3    0  502 -0.17663748690E+04 -0.65487213261E+03  0.69801888101E+03  0.20090220654E+04  0.12699999809E+01 0.  1.
</event>
<event>
 5   0  0.7675750E-08  0.3140407E+04  0.7818609E-02  0.8204735E-01
        1   -1    0    0  501    0  0.00000000000E+00  0.00000000000E+00  0.14975901309E+04  0.14975901310E+04  0.50400001928E-02 0. -1.
       -1   -1    0    0    0  501  0.00000000000E+00  0.00000000000E+00 -0.16463372328E+04  0.16463372328E+04  0.50400001928E-02 0.  1.
    10030    2    1    2    0    0  0.00000000000E+00  0.00000000000E+00 -0.14874710186E+03  0.31439273638E+04  0.31404065928E+04 0.  0.
        5    1    3    3  502    0  0.10422412858E+04 -0.22051266551E+03 -0.12291933711E+04  0.16266011088E+04  0.46999998093E+01 0.  1.
       -5    1    3    3    0  502 -0.10422412858E+04  0.22051266551E+03  0.10804462693E+04  0.15173262550E+04  0.46999998093E+01 0. -1.
</event>
<event>
 5   0  0.2486268E-07  0.3893725E+04  0.7818609E-02  0.8026336E-01
        2   -1    0    0  501    0  0.00000000000E+00  0.00000000000E+00  0.25103334884E+04  0.25103334884E+04  0.25500000920E-02 0.  1.
       -2   -1    0    0    0  501  0.00000000000E+00  0.00000000000E+00 -0.15098683546E+04  0.15098683546E+04  0.25500000920E-02 0. -1.
    10030    2    1    2    0    0  0.00000000000E+00  0.00000000000E+00  0.10004651339E+04  0.40202018430E+04  0.38937247430E+04 0.  0.
        5    1    3    3  502    0 -0.13026474337E+04 -0.50717589762E+03 -0.89882218872E+03  0.16619329543E+04  0.46999998093E+01 0. -1.
       -5    1    3    3    0  502  0.13026474337E+04  0.50717589762E+03  0.18992873226E+04  0.23582688887E+04  0.46999998093E+01 0.  1.
</event>
<event>
 5   0  0.7675750E-08  0.3805642E+04  0.7818609E-02  0.8044945E-01
        1   -1    0    0  501    0  0.00000000000E+00  0.00000000000E+00  0.12768230481E+04  0.12768230481E+04  0.50400001928E-02 0.  1.
       -1   -1    0    0    0  501  0.00000000000E+00  0.00000000000E+00 -0.28357319759E+04  0.28357319759E+04  0.50400001928E-02 0. -1.
    10030    2    1    2    0    0  0.00000000000E+00  0.00000000000E+00 -0.15589089278E+04  0.41125550241E+04  0.38056420984E+04 0.  0.
        5    1    3    3  502    0 -0.18619306642E+04  0.37850241469E+03 -0.66790166778E+03  0.20139922055E+04  0.46999998093E+01 0.  1.
       -5    1    3    3    0  502  0.18619306642E+04 -0.37850241469E+03 -0.89100726001E+03  0.20985628186E+04  0.46999998093E+01 0. -1.
</event>
<event>
 5   0  0.7731706E-08  0.3907583E+04  0.7818609E-02  0.8023454E-01
       -1   -1    0    0    0  501  0.00000000000E+00  0.00000000000E+00  0.23029687770E+04  0.23029687770E+04  0.50400001928E-02 0.  1.
        1   -1    0    0  501    0  0.00000000000E+00  0.00000000000E+00 -0.16575565696E+04  0.16575565696E+04  0.50400001928E-02 0. -1.
    10030    2    1    2    0    0  0.00000000000E+00  0.00000000000E+00  0.64541220739E+03  0.39605253466E+04  0.39075828979E+04 0.  0.
        3    1    3    3  502    0  0.75035170175E+03 -0.51533854307E+03 -0.14295021598E+04  0.16947206040E+04  0.10100000352E+00 0. -1.
       -3    1    3    3    0  502 -0.75035170175E+03  0.51533854307E+03  0.20749143672E+04  0.22658047427E+04  0.10100000352E+00 0.  1.
</event>
<event>
 5   0  0.2395572E-07  0.4154193E+04  0.7818609E-02  0.7974143E-01
        2   -1    0    0  501    0  0.00000000000E+00  0.00000000000E+00  0.30169150831E+04  0.30169150831E+04  0.25500000920E-02 0.  1.
       -2   -1    0    0    0  501  0.00000000000E+00  0.00000000000E+00 -0.14300469285E+04  0.14300469285E+04  0.25500000920E-02 0. -1.
    10030    2    1    2    0    0  0.00000000000E+00  0.00000000000E+00  0.15868681546E+04  0.44469620116E+04  0.41541931338E+04 0.  0.
        3    1    3    3  502    0 -0.52453990448E+03  0.94752409532E+03 -0.11038719914E+04  0.15464402368E+04  0.10100000352E+00 0. -1.
       -3    1    3    3    0  502  0.52453990448E+03 -0.94752409532E+03  0.26907401460E+04  0.29005217748E+04  0.10100000352E+00 0.  1.
</event>
<event>
 5   0  0.7675750E-08  0.3135724E+04  0.7818609E-02  0.8206001E-01
       -1   -1    0    0    0  501  0.00000000000E+00  0.00000000000E+00  0.13504804383E+04  0.13504804383E+04  0.50400001928E-02 0. -1.
        1   -1    0    0  501    0  0.00000000000E+00  0.00000000000E+00 -0.18202351553E+04  0.18202351553E+04  0.50400001928E-02 0.  1.
    10030    2    1    2    0    0  0.00000000000E+00  0.00000000000E+00 -0.46975471697E+03  0.31707155936E+04  0.31357244588E+04 0.  0.
        1    1    3    3  502    0  0.47246683841E+03 -0.67752012951E+03  0.11126349739E+04  0.13857182342E+04  0.50400001928E-02 0. -1.
       -1    1    3    3    0  502 -0.47246683841E+03  0.67752012951E+03 -0.15823896909E+04  0.17849973594E+04  0.50400001928E-02 0.  1.
</event>
<event>
 5   0  0.7675750E-08  0.3887269E+04  0.7818609E-02  0.8027682E-01
        1   -1    0    0  501    0  0.00000000000E+00  0.00000000000E+00  0.14267670841E+04  0.14267670841E+04  0.50400001928E-02 0.  1.
       -1   -1    0    0    0  501  0.00000000000E+00  0.00000000000E+00 -0.26477449744E+04  0.26477449744E+04  0.50400001928E-02 0. -1.
    10030    2    1    2    0    0  0.00000000000E+00  0.00000000000E+00 -0.12209778903E+04  0.40745120586E+04  0.38872691580E+04 0.  0.
        4    1    3    3  502    0  0.96510420930E+03  0.33573192645E+03 -0.23434796362E+04  0.25565681058E+04  0.12699999809E+01 0. -1.
       -4    1    3    3    0  502 -0.96510420930E+03 -0.33573192645E+03  0.11225017459E+04  0.15179439528E+04  0.12699999809E+01 0.  1.
</event>
<event>
 5   0  0.7675750E-08  0.3802690E+04  0.7818609E-02  0.8045578E-01
       -1   -1    0    0    0  501  0.00000000000E+00  0.00000000000E+00  0.16132728342E+04  0.16132728342E+04  0.50400001928E-02 0. -1.
        1   -1    0    0  501    0  0.00000000000E+00  0.00000000000E+00 -0.22408558854E+04  0.22408558854E+04  0.50400001928E-02 0.  1.
    10030    2    1    2    0    0  0.00000000000E+00  0.00000000000E+00 -0.62758305128E+03  0.38541287196E+04  0.38026895352E+04 0.  0.
        5    1    3    3  502    0  0.17194054751E+04  0.45550742186E+03  0.36704495068E+03  0.18162010586E+04  0.46999998093E+01 0. -1.
       -5    1    3    3    0  502 -0.17194054751E+04 -0.45550742186E+03 -0.99462800196E+03  0.20379276610E+04  0.46999998093E+01 0.  1.
</event>
<event>
 5   0  0.7675750E-08  0.3905040E+04  0.7818609E-02  0.8023982E-01
        1   -1    0    0  501    0  0.00000000000E+00  0.00000000000E+00  0.26994147419E+04  0.26994147419E+04  0.50400001928E-02 0.  1.
       -1   -1    0    0    0  501  0.00000000000E+00  0.00000000000E+00 -0.14122818817E+04  0.14122818817E+04  0.50400001928E-02 0. -1.
    10030    2    1    2    0    0  0.00000000000E+00  0.00000000000E+00  0.12871328602E+04  0.41116966236E+04  0.39050400926E+04 0.  0.
        1    1    3    3  502    0  0.17886934375E+04 -0.26805173258E+03 -0.13092695521E+03  0.18133995181E+04  0.50400001928E-02 0. -1.
       -1    1    3    3    0  502 -0.17886934375E+04  0.26805173258E+03  0.14180598154E+04  0.22982971054E+04  0.50400001928E-02 0.  1.
</event>
<event>
 5   0  0.7675750E-08  0.3872327E+04  0.7818609E-02  0.8030809E-01
       -1   -1    0    0    0  501  0.00000000000E+00  0.00000000000E+00  0.22960007000E+04  0.22960007000E+04  0.50400001928E-02 0. -1.
        1   -1    0    0  501    0  0.00000000000E+00  0.00000000000E+00 -0.16327213615E+04  0.16327213615E+04  0.50400001928E-02 0.  1.
    10030    2    1    2    0    0  0.00000000000E+00  0.00000000000E+00  0.66327933853E+03  0.39287220615E+04  0.38723271498E+04 0.  0.
        1    1    3    3  502    0  0.12911969016E+04 -0.73945678934E+03 -0.92525007025E+03  0.17521625138E+04  0.50400001928E-02 0.  1.
       -1    1    3    3    0  502 -0.12911969016E+04  0.73945678934E+03  0.15885294088E+04  0.21765595477E+04  0.50400001928E-02 0. -1.
</event>
<event>
 5   0  0.2384787E-07  0.3881346E+04  0.7818609E-02  0.8028920E-01
        2   -1    0    0  501    0  0.00000000000E+00  0.00000000000E+00  0.17768194380E+04  0.17768194380E+04  0.25500000920E-02 0.  1.
       -2   -1    0    0    0  501  0.00000000000E+00  0.00000000000E+00 -0.21196362118E+04  0.21196362118E+04  0.25500000920E-02 0. -1.
    10030    2    1    2    0    0  0.00000000000E+00  0.00000000000E+00 -0.34281677381E+03  0.38964556498E+04  0.38813455515E+04 0.  0.
        4    1    3    3  502    0 -0.88953020007E+03 -0.89986946328E+03  0.13057751195E+04  0.18182627157E+04  0.12699999809E+01 0.  1.
       -4    1    3    3    0  502  0.88953020007E+03  0.89986946328E+03 -0.16485918933E+04  0.20781929341E+04  0.12699999809E+01 0. -1.
</event>
<event>
 5   0  0.7675750E-08  0.4010364E+04  0.7818609E-02  0.8002459E-01
        1   -1    0    0  501    0  0.00000000000E+00  0.00000000000E+00  0.21153387607E+04  0.21153387607E+04  0.50400001928E-02 0.  1.
       -1   -1    0    0    0  501  0.00000000000E+00  0.00000000000E+00 -0.19007619971E+04  0.19007619971E+04  0.50400001928E-02 0. -1.
    10030    2    1    2    0    0  0.00000000000E+00  0.00000000000E+00  0.21457676359E+03  0.40161007578E+04  0.40103643362E+04 0.  0.
        4    1    3    3  502    0 -0.14657656233E+04 -0.93479269772E+03 -0.89336443730E+03  0.19545863708E+04  0.12699999809E+01 0.  1.
       -4    1    3    3    0  502  0.14657656233E+04  0.93479269772E+03  0.11079412009E+04  0.20615143870E+04  0.12699999809E+01 0. -1.
</event>
<event>
 5   0  0.7675750E-08  0.3321552E+04  0.7818609E-02  0.8157433E-01
       -1   -1    0    0    0  501  0.00000000000E+00  0.00000000000E+00  0.26461714576E+04  0.26461714576E+04  0.50400001928E-02 0. -1.
        1   -1    0    0  501    0  0.00000000000E+00  0.00000000000E+00 -0.10423274642E+04  0.10423274643E+04  0.50400001928E-02 0.  1.
    10030    2    1    2    0    0  0.00000000000E+00  0.00000000000E+00  0.16038439934E+04  0.36884989219E+04  0.33215521585E+04 0.  0.
        1    1    3    3  502    0  0.30207189552E+03  0.14445611597E+04  0.16477601491E+04  0.22120393042E+04  0.50400001928E-02 0. -1.
       -1    1    3    3    0  502 -0.30207189552E+03 -0.14445611597E+04 -0.43916155752E+02  0.14764596177E+04  0.50400001928E-02 0.  1.
</event>
<event>
 5   0  0.7731706E-08  0.3903551E+04  0.7818609E-02  0.8024291E-01
        1   -1    0    0  501    0  0.00000000000E+00  0.00000000000E+00  0.23998664304E+04  0.23998664304E+04  0.50400001928E-02 0.  1.
       -1   -1    0    0    0  501  0.00000000000E+00  0.00000000000E+00 -0.15873501722E+04  0.15873501722E+04  0.50400001928E-02 0. -1.
    10030    2    1    2    0    0  0.00000000000E+00  0.00000000000E+00  0.81251625829E+03  0.39872166026E+04  0.39035514043E+04 0.  0.
        3    1    3    3  502    0  0.13812675970E+03  0.12016035971E+04  0.19709183327E+04  0.23124552516E+04  0.10100000352E+00 0.  1.
       -3    1    3    3    0  502 -0.13812675970E+03 -0.12016035971E+04 -0.11584020744E+04  0.16747613510E+04  0.10100000352E+00 0. -1.
</event>
<event>
 5   0  0.7675750E-08  0.3878914E+04  0.7818609E-02  0.8029429E-01
       -1   -1    0    0    0  501  0.00000000000E+00  0.00000000000E+00  0.15790077035E+04  0.15790077035E+04  0.50400001928E-02 0. -1.
        1   -1    0    0  501    0  0.00000000000E+00  0.00000000000E+00 -0.23821884498E+04  0.23821884498E+04  0.50400001928E-02 0.  1.
    10030    2    1    2    0    0  0.00000000000E+00  0.00000000000E+00 -0.80318074631E+03  0.39611961533E+04  0.38789142364E+04 0.  0.
        5    1    3    3  502    0 -0.31862347362E+03  0.19128540439E+04 -0.37027539192E+03  0.19742485829E+04  0.46999998093E+01 0.  1.
       -5    1    3    3    0  502  0.31862347362E+03 -0.19128540439E+04 -0.43290535438E+03  0.19869475703E+04  0.46999998093E+01 0. -1.
</event>
<event>
 5   0  0.2384787E-07  0.3900550E+04  0.7818609E-02  0.8024915E-01
        2   -1    0    0  501    0  0.00000000000E+00  0.00000000000E+00  0.19005573242E+04  0.19005573242E+04  0.25500000920E-02 0. -1.
       -2   -1    0    0    0  501  0.00000000000E+00  0.00000000000E+00 -0.20012928016E+04  0.20012928016E+04  0.25500000920E-02 0.  1.
    10030    2    1    2    0    0  0.00000000000E+00  0.00000000000E+00 -0.10073547740E+03  0.39018501259E+04  0.39005495470E+04 0.  0.
        4    1    3    3  502    0 -0.15456976649E+03  0.19384019963E+04  0.98933382237E+02  0.19470705018E+04  0.12699999809E+01 0.  1.
       -4    1    3    3    0  502  0.15456976649E+03 -0.19384019963E+04 -0.19966885964E+03  0.19547796240E+04  0.12699999809E+01 0. -1.
</event>
<event>
 5   0  0.7675750E-08  0.3996796E+04  0.7818609E-02  0.8005193E-01
        1   -1    0    0  501    0  0.00000000000E+00  0.00000000000E+00  0.19508497865E+04  0.19508497865E+04  0.50400001928E-02 0. -1.
       -1   -1    0    0    0  501  0.00000000000E+00  0.00000000000E+00 -0.20471054101E+04  0.20471054101E+04  0.50400001928E-02 0.  1.
    10030    2    1    2    0    0  0.00000000000E+00  0.00000000000E+00 -0.96255623638E+02  0.39979551967E+04  0.39967962932E+04 0.  0.
        2    1    3    3  502    0 -0.72467782448E+03  0.29763759995E+03  0.17908418387E+04  0.19547021721E+04  0.25500000920E-02 0. -1.
       -2    1    3    3    0  502  0.72467782448E+03 -0.29763759995E+03 -0.18870974623E+04  0.20432530246E+04  0.25500000920E-02 0.  1.
</event>
<event>
 5   0  0.7675750E-08  0.3879663E+04  0.7818609E-02  0.8029272E-01
        1   -1    0    0  501    0  0.00000000000E+00  0.00000000000E+00  0.23680677759E+04  0.23680677759E+04  0.50400001928E-02 0. -1.
       -1   -1    0    0    0  501  0.00000000000E+00  0.00000000000E+00 -0.15890367780E+04  0.15890367780E+04  0.50400001928E-02 0.  1.
    10030    2    1    2    0    0  0.00000000000E+00  0.00000000000E+00  0.77903099789E+03  0.39571045540E+04  0.38796632786E+04 0.  0.
        4    1    3    3  502    0  0.35099417579E+03  0.16214823354E+04  0.14148391012E+04  0.21804066526E+04  0.12699999809E+01 0. -1.
       -4    1    3    3    0  502 -0.35099417579E+03 -0.16214823354E+04 -0.63580810332E+03  0.17766979014E+04  0.12699999809E+01 0.  1.
</event>
<event>
 5   0  0.2384787E-07  0.3815924E+04  0.7818609E-02  0.8042746E-01
       -2   -1    0    0    0  501  0.00000000000E+00  0.00000000000E+00  0.16188166129E+04  0.16188166129E+04  0.25500000920E-02 0. -1.
        2   -1    0    0  501    0  0.00000000000E+00  0.00000000000E+00 -0.22487527725E+04  0.22487527725E+04  0.25500000920E-02 0.  1.
    10030    2    1    2    0    0  0.00000000000E+00  0.00000000000E+00 -0.62993615963E+03  0.38675693855E+04  0.38159236609E+04 0.  0.
        4    1    3    3  502    0 -0.12736800799E+04  0.17263860789E+03  0.11141697557E+04  0.17010117261E+04  0.12699999809E+01 0. -1.
       -4    1    3    3    0  502  0.12736800799E+04 -0.17263860789E+03 -0.17441059153E+04  0.21665576594E+04  0.12699999809E+01 0.  1.
</event>
<event>
 5   0  0.2486268E-07  0.3898567E+04  0.7818609E-02  0.8025327E-01
       -2   -1    0    0    0  501  0.00000000000E+00  0.00000000000E+00  0.17093467746E+04  0.17093467746E+04  0.25500000920E-02 0.  1.
        2   -1    0    0  501    0  0.00000000000E+00  0.00000000000E+00 -0.22228999193E+04  0.22228999193E+04  0.25500000920E-02 0. -1.
    10030    2    1    2    0    0  0.00000000000E+00  0.00000000000E+00 -0.51355314468E+03  0.39322466939E+04  0.38985673304E+04 0.  0.
        5    1    3    3  502    0 -0.14237719788E+04  0.76885782585E+03  0.83954279995E+03  0.18229435556E+04  0.46999998093E+01 0.  1.
       -5    1    3    3    0  502  0.14237719788E+04 -0.76885782585E+03 -0.13530959446E+04  0.21093031383E+04  0.46999998093E+01 0. -1.
</event>
<event>
 5   0  0.7675750E-08  0.3899504E+04  0.7818609E-02  0.8025132E-01
       -1   -1    0    0    0  501  0.00000000000E+00  0.00000000000E+00  0.14040640428E+04  0.14040640428E+04  0.50400001928E-02 0. -1.
        1   -1    0    0  501    0  0.00000000000E+00  0.00000000000E+00 -0.27075212363E+04  0.27075212363E+04  0.50400001928E-02 0.  1.
    10030    2    1    2    0    0  0.00000000000E+00  0.00000000000E+00 -0.13034571935E+04  0.41115852791E+04  0.38995041803E+04 0.  0.
        4    1    3    3  502    0 -0.13278119841E+03 -0.11123589091E+04  0.10308553198E+04  0.15223788926E+04  0.12699999809E+01 0. -1.
       -4    1    3    3    0  502  0.13278119841E+03  0.11123589091E+04 -0.23343125133E+04  0.25892063865E+04  0.12699999809E+01 0.  1.
</event>
<event>
 5   0  0.2384787E-07  0.3873993E+04  0.7818609E-02  0.8030460E-01
       -2   -1    0    0    0  501  0.00000000000E+00  0.00000000000E+00  0.18521976467E+04  0.18521976467E+04  0.25500000920E-02 0.  1.
        2   -1    0    0  501    0  0.00000000000E+00  0.00000000000E+00 -0.20256772267E+04  0.20256772267E+04  0.25500000920E-02 0. -1.
    10030    2    1    2    0    0  0.00000000000E+00  0.00000000000E+00 -0.17347958000E+03  0.38778748734E+04  0.38739925619E+04 0.  0.
        4    1    3    3  502    0  0.16491901537E+04 -0.12041594890E+03 -0.10965246471E+04  0.19841109038E+04  0.12699999809E+01 0. -1.
       -4    1    3    3    0  502 -0.16491901537E+04  0.12041594890E+03  0.92304506715E+03  0.18937639696E+04  0.12699999809E+01 0.  1.
</event>
<event>
 5   0  0.2395572E-07  0.3871947E+04  0.7818609E-02  0.8030889E-01
       -2   -1    0    0    0  501  0.00000000000E+00  0.00000000000E+00  0.19879425829E+04  0.19879425829E+04  0.25500000920E-02 0. -1.
        2   -1    0    0  501    0  0.00000000000E+00  0.00000000000E+00 -0.18853634149E+04  0.18853634149E+04  0.25500000920E-02 0.  1.
    10030    2    1    2    0    0  0.00000000000E+00  0.00000000000E+00  0.10257916802E+03  0.38733059978E+04  0.38719474256E+04 0.  0.
        3    1    3    3  502    0 -0.56820852320E+03 -0.13154287640E+04  0.13535837023E+04  0.19711424628E+04  0.10100000352E+00 0. -1.
       -3    1    3    3    0  502  0.56820852320E+03  0.13154287640E+04 -0.12510045343E+04  0.19021635351E+04  0.10100000352E+00 0.  1.
</event>
<event>
 5   0  0.7675750E-08  0.3854952E+04  0.7818609E-02  0.8034464E-01
       -1   -1    0    0    0  501  0.00000000000E+00  0.00000000000E+00  0.12631511484E+04  0.12631511484E+04  0.50400001928E-02 0. -1.
        1   -1    0    0  501    0  0.00000000000E+00  0.00000000000E+00 -0.29411873799E+04  0.29411873800E+04  0.50400001928E-02 0.  1.
    10030    2    1    2    0    0  0.00000000000E+00  0.00000000000E+00 -0.16780362315E+04  0.42043385284E+04  0.38549522522E+04 0.  0.
        5    1    3    3  502    0  0.13319851417E+04 -0.52492179717E+03  0.56845428140E+03  0.15404186674E+04  0.46999998093E+01 0. -1.
       -5    1    3    3    0  502 -0.13319851417E+04  0.52492179717E+03 -0.22464905129E+04  0.26639198610E+04  0.46999998093E+01 0.  1.
</event>
<event>
 5   0  0.2473224E-07  0.3903795E+04  0.7818609E-02  0.8024240E-01
       -2   -1    0    0    0  501  0.00000000000E+00  0.00000000000E+00  0.25374851317E+04  0.25374851317E+04  0.25500000920E-02 0. -1.
        2   -1    0    0  501    0  0.00000000000E+00  0.00000000000E+00 -0.15014487265E+04  0.15014487265E+04  0.25500000920E-02 0.  1.
    10030    2    1    2    0    0  0.00000000000E+00  0.00000000000E+00  0.10360364052E+04  0.40389338582E+04  0.39037949841E+04 0.  0.
        2    1    3    3  502    0 -0.45891413111E+03 -0.20044279185E+03 -0.14338537296E+04  0.15187876778E+04  0.25500000920E-02 0.  1.
       -2    1    3    3    0  502  0.45891413111E+03  0.20044279185E+03  0.24698901347E+04  0.25201461803E+04  0.25500000920E-02 0. -1.
</event>
<event>
 5   0  0.2473224E-07  0.3951168E+04  0.7818609E-02  0.8014471E-01
       -2   -1    0    0    0  501  0.00000000000E+00  0.00000000000E+00  0.14862416791E+04  0.14862416791E+04  0.25500000920E-02 0. -1.
        2   -1    0    0  501    0  0.00000000000E+00  0.00000000000E+00 -0.26260411324E+04  0.26260411324E+04  0.25500000920E-02 0.  1.
    10030    2    1    2    0    0  0.00000000000E+00  0.00000000000E+00 -0.11397994533E+04  0.41122828115E+04  0.39511678183E+04 0.  0.
        2    1    3    3  502    0 -0.11677657283E+04 -0.15419918172E+04 -0.98817825550E+03  0.21720754649E+04  0.25500000920E-02 0. -1.
       -2    1    3    3    0  502  0.11677657283E+04  0.15419918172E+04 -0.15162119781E+03  0.19402073467E+04  0.25500000920E-02 0.  1.
</event>
<event>
 5   0  0.7731706E-08  0.3842941E+04  0.7818609E-02  0.8037002E-01
       -1   -1    0    0    0  501  0.00000000000E+00  0.00000000000E+00  0.20848851383E+04  0.20848851383E+04  0.50400001928E-02 0.  1.
        1   -1    0    0  501    0  0.00000000000E+00  0.00000000000E+00 -0.17708647950E+04  0.17708647951E+04  0.50400001928E-02 0. -1.
    10030    2    1    2    0    0  0.00000000000E+00  0.00000000000E+00  0.31402034329E+03  0.38557499334E+04  0.38429414220E+04 0.  0.
        3    1    3    3  502    0 -0.46254273883E+03 -0.13594820252E+04  0.14379456165E+04  0.20321970299E+04  0.10100000352E+00 0.  1.
       -3    1    3    3    0  502  0.46254273883E+03  0.13594820252E+04 -0.11239252732E+04  0.18235529035E+04  0.10100000352E+00 0. -1.
</event>
<event>
 5   0  0.2395572E-07  0.3660538E+04  0.7818609E-02  0.8076764E-01
       -2   -1    0    0    0  501  0.00000000000E+00  0.00000000000E+00  0.13646062753E+04  0.13646062753E+04  0.25500000920E-02 0.  1.
        2   -1    0    0  501    0  0.00000000000E+00  0.00000000000E+00 -0.24548357096E+04  0.24548357096E+04  0.25500000920E-02 0. -1.
    10030    2    1    2    0    0  0.00000000000E+00  0.00000000000E+00 -0.10902294343E+04  0.38194419848E+04  0.36605377824E+04 0.  0.
        3    1    3    3  502    0  0.27174289721E+03  0.90490348242E+03  0.10904749795E+04  0.14428548803E+04  0.10100000352E+00 0.  1.
       -3    1    3    3    0  502 -0.27174289721E+03 -0.90490348242E+03 -0.21807044138E+04  0.23765871045E+04  0.10100000352E+00 0. -1.
</event>
<event>
 5   0  0.7675750E-08  0.3897742E+04  0.7818609E-02  0.8025499E-01
       -1   -1    0    0    0  501  0.00000000000E+00  0.00000000000E+00  0.28349778197E+04  0.28349778197E+04  0.50400001928E-02 0.  1.
        1   -1    0    0  501    0  0.00000000000E+00  0.00000000000E+00 -0.13397276689E+04  0.13397276689E+04  0.50400001928E-02 0. -1.
    10030    2    1    2    0    0  0.00000000000E+00  0.00000000000E+00  0.14952501508E+04  0.41747054886E+04  0.38977420262E+04 0.  0.
        4    1    3    3  502    0 -0.55859731463E+03  0.16684246859E+04 -0.15003651912E+03  0.17658381756E+04  0.12699999809E+01 0. -1.
       -4    1    3    3    0  502  0.55859731463E+03 -0.16684246859E+04  0.16452866699E+04  0.24088673130E+04  0.12699999809E+01 0.  1.
</event>
<event>
 5   0  0.7731706E-08  0.3894299E+04  0.7818609E-02  0.8026216E-01
       -1   -1    0    0    0  501  0.00000000000E+00  0.00000000000E+00  0.12240788660E+04  0.12240788660E+04  0.50400001928E-02 0.  1.
        1   -1    0    0  501    0  0.00000000000E+00  0.00000000000E+00 -0.30973427822E+04  0.30973427822E+04  0.50400001928E-02 0. -1.
    10030    2    1    2    0    0  0.00000000000E+00  0.00000000000E+00 -0.18732639162E+04  0.43214216482E+04  0.38942993416E+04 0.  0.
        3    1    3    3  502    0 -0.96538764180E+03  0.10365001910E+04 -0.24192417702E+04  0.28033973493E+04  0.10100000352E+00 0. -1.
       -3    1    3    3    0  502  0.96538764180E+03 -0.10365001910E+04  0.54597785403E+03  0.15180242989E+04  0.10100000352E+00 0.  1.
</event>
<event>
 5   0  0.2473224E-07  0.3862084E+04  0.7818609E-02  0.8032962E-01
        2   -1    0    0  501    0  0.00000000000E+00  0.00000000000E+00  0.21496439086E+04  0.21496439086E+04  0.25500000920E-02 0.  1.
       -2   -1    0    0    0  501  0.00000000000E+00  0.00000000000E+00 -0.17346701492E+04  0.17346701492E+04  0.25500000920E-02 0. -1.
    10030    2    1    2    0    0  0.00000000000E+00  0.00000000000E+00  0.41497375949E+03  0.38843140578E+04  0.38620839554E+04 0.  0.
        2    1    3    3  502    0 -0.27722693462E+03 -0.11568766520E+04 -0.13223551776E+04  0.17787190832E+04  0.25500000920E-02 0.  1.
       -2    1    3    3    0  502  0.27722693462E+03  0.11568766520E+04  0.17373289371E+04  0.21055949746E+04  0.25500000920E-02 0. -1.
</event>
<event>
 5   0  0.7675750E-08  0.3912735E+04  0.7818609E-02  0.8022386E-01
        1   -1    0    0  501    0  0.00000000000E+00  0.00000000000E+00  0.15008530847E+04  0.15008530847E+04  0.50400001928E-02 0.  1.
       -1   -1    0    0    0  501  0.00000000000E+00  0.00000000000E+00 -0.25501322170E+04  0.25501322170E+04  0.50400001928E-02 0. -1.
    10030    2    1    2    0    0  0.00000000000E+00  0.00000000000E+00 -0.10492791322E+04  0.40509853017E+04  0.39127350048E+04 0.  0.
        5    1    3    3  502    0 -0.68528464096E+03 -0.97917417085E+03  0.10789427115E+04  0.16101355722E+04  0.46999998093E+01 0.  1.
       -5    1    3    3    0  502  0.68528464096E+03  0.97917417085E+03 -0.21282218438E+04  0.24408497296E+04  0.46999998093E+01 0. -1.
</event>
<event>
 5   0  0.2384787E-07  0.3896944E+04  0.7818609E-02  0.8025665E-01
        2   -1    0    0  501    0  0.00000000000E+00  0.00000000000E+00  0.19010323248E+04  0.19010323248E+04  0.25500000920E-02 0. -1.
       -2   -1    0    0    0  501  0.00000000000E+00  0.00000000000E+00 -0.19970956301E+04  0.19970956301E+04  0.25500000920E-02 0.  1.
    10030    2    1    2    0    0  0.00000000000E+00  0.00000000000E+00 -0.96063305299E+02  0.38981279548E+04  0.38969441096E+04 0.  0.
        4    1    3    3  502    0  0.71926699328E+03  0.15814687899E+04  0.83436624716E+03  0.19273186525E+04  0.12699999809E+01 0. -1.
       -4    1    3    3    0  502 -0.71926699328E+03 -0.15814687899E+04 -0.93042955246E+03  0.19708093023E+04  0.12699999809E+01 0.  1.
</event>
<event>
 5   0  0.2395572E-07  0.3951881E+04  0.7818609E-02  0.8014325E-01
        2   -1    0    0  501    0  0.00000000000E+00  0.00000000000E+00  0.18464117841E+04  0.18464117841E+04  0.25500000920E-02 0.  1.
       -2   -1    0    0    0  501  0.00000000000E+00  0.00000000000E+00 -0.21145555238E+04  0.21145555238E+04  0.25500000920E-02 0. -1.
    10030    2    1    2    0    0  0.00000000000E+00  0.00000000000E+00 -0.26814373968E+03  0.39609673079E+04  0.39518806851E+04 0.  0.
        3    1    3    3  502    0  0.13602062883E+04  0.14167031876E+04  0.83524422907E+02  0.19657531401E+04  0.10100000352E+00 0. -1.
       -3    1    3    3    0  502 -0.13602062883E+04 -0.14167031876E+04 -0.35166816258E+03  0.19952141678E+04  0.10100000352E+00 0.  1.
</event>
<event>
 5   0  0.2486268E-07  0.3904128E+04  0.7818609E-02  0.8024171E-01
        2   -1    0    0  501    0  0.00000000000E+00  0.00000000000E+00  0.16407231252E+04  0.16407231252E+04  0.25500000920E-02 0.  1.
       -2   -1    0    0    0  501  0.00000000000E+00  0.00000000000E+00 -0.23224846994E+04  0.23224846994E+04  0.25500000920E-02 0. -1.
    10030    2    1    2    0    0  0.00000000000E+00  0.00000000000E+00 -0.68176157425E+03  0.39632078246E+04  0.39041282531E+04 0.  0.
        5    1    3    3  502    0  0.17623168496E+04  0.36076286209E+03 -0.11103899547E+04  0.21139769305E+04  0.46999998093E+01 0. -1.
       -5    1    3    3    0  502 -0.17623168496E+04 -0.36076286209E+03  0.42862838047E+03  0.18492308941E+04  0.46999998093E+01 0.  1.
</event>
<event>
 5   0  0.7675750E-08  0.3809314E+04  0.7818609E-02  0.8044159E-01
        1   -1    0    0  501    0  0.00000000000E+00  0.00000000000E+00  0.12994209078E+04  0.12994209078E+04  0.50400001928E-02 0. -1.
       -1   -1    0    0    0  501  0.00000000000E+00  0.00000000000E+00 -0.27917962013E+04  0.27917962013E+04  0.50400001928E-02 0.  1.
    10030    2    1    2    0    0  0.00000000000E+00  0.00000000000E+00 -0.14923752934E+04  0.40912171091E+04  0.38093140350E+04 0.  0.
        4    1    3    3  502    0 -0.18651113497E+03 -0.17228465749E+04  0.10270336838E+03  0.17359540082E+04  0.12699999809E+01 0. -1.
       -4    1    3    3    0  502  0.18651113497E+03  0.17228465749E+04 -0.15950786618E+04  0.23552631009E+04  0.12699999809E+01 0.  1.
</event>
<event>
 5   0  0.7731706E-08  0.3902695E+04  0.7818609E-02  0.8024469E-01
       -1   -1    0    0    0  501  0.00000000000E+00  0.00000000000E+00  0.17349771783E+04  0.17349771783E+04  0.50400001928E-02 0. -1.
        1   -1    0    0  501    0  0.00000000000E+00  0.00000000000E+00 -0.21947019874E+04  0.21947019874E+04  0.50400001928E-02 0.  1.
    10030    2    1    2    0    0  0.00000000000E+00  0.00000000000E+00 -0.45972480914E+03  0.39296791657E+04  0.39026954077E+04 0.  0.
        3    1    3    3  502    0 -0.18462973578E+03 -0.10043506842E+04 -0.19041730251E+04  0.21607136219E+04  0.10100000352E+00 0.  1.
       -3    1    3    3    0  502  0.18462973578E+03  0.10043506842E+04  0.14444482160E+04  0.17689655438E+04  0.10100000352E+00 0. -1.
</event>
<event>
 5   0  0.7675750E-08  0.4087211E+04  0.7818609E-02  0.7987181E-01
       -1   -1    0    0    0  501  0.00000000000E+00  0.00000000000E+00  0.29055654761E+04  0.29055654761E+04  0.50400001928E-02 0. -1.
        1   -1    0    0  501    0  0.00000000000E+00  0.00000000000E+00 -0.14373527960E+04  0.14373527960E+04  0.50400001928E-02 0.  1.
    10030    2    1    2    0    0  0.00000000000E+00  0.00000000000E+00  0.14682126801E+04  0.43429182722E+04  0.40872106191E+04 0.  0.
        5    1    3    3  502    0 -0.48285069230E+03  0.18321722955E+04 -0.79500808859E+02  0.18964025364E+04  0.46999998093E+01 0. -1.
       -5    1    3    3    0  502  0.48285069230E+03 -0.18321722955E+04  0.15477134889E+04  0.24465157358E+04  0.46999998093E+01 0.  1.
</event>
<event>
 5   0  0.2384787E-07  0.3869291E+04  0.7818609E-02  0.8031447E-01
        2   -1    0    0  501    0  0.00000000000E+00  0.00000000000E+00  0.20879762120E+04  0.20879762120E+04  0.25500000920E-02 0. -1.
       -2   -1    0    0    0  501  0.00000000000E+00  0.00000000000E+00 -0.17925748044E+04  0.17925748044E+04  0.25500000920E-02 0.  1.
    10030    2    1    2    0    0  0.00000000000E+00  0.00000000000E+00  0.29540140760E+03  0.38805510164E+04  0.38692911753E+04 0.  0.
        4    1    3    3  502    0 -0.10238941512E+04  0.10264142537E+03 -0.14953455785E+04  0.18152009550E+04  0.12699999809E+01 0.  1.
       -4    1    3    3    0  502  0.10238941512E+04 -0.10264142537E+03  0.17907469861E+04  0.20653500614E+04  0.12699999809E+01 0. -1.
</event>
<event>
 5   0  0.2446281E-07  0.3844196E+04  0.7818609E-02  0.8036736E-01
        2   -1    0    0  501    0  0.00000000000E+00  0.00000000000E+00  0.18179340662E+04  0.18179340662E+04  0.25500000920E-02 0. -1.
       -2   -1    0    0    0  501  0.00000000000E+00  0.00000000000E+00 -0.20322305964E+04  0.20322305964E+04  0.25500000920E-02 0.  1.
    10030    2    1    2    0    0  0.00000000000E+00  0.00000000000E+00 -0.21429653018E+03  0.38501646627E+04  0.38441962654E+04 0.  0.
        1    1    3    3  502    0  0.72841767367E+03  0.11368208354E+04  0.12630061529E+04  0.18488208300E+04  0.50400001928E-02 0. -1.
       -1    1    3    3    0  502 -0.72841767367E+03 -0.11368208354E+04 -0.14773026831E+04  0.20013438327E+04  0.50400001928E-02 0.  1.
</event>
<event>
 5   0  0.2486268E-07  0.4201045E+04  0.7818609E-02  0.7965173E-01
        2   -1    0    0  501    0  0.00000000000E+00  0.00000000000E+00  0.24750082947E+04  0.24750082947E+04  0.25500000920E-02 0.  1.
       -2   -1    0    0    0  501  0.00000000000E+00  0.00000000000E+00 -0.17826991894E+04  0.17826991894E+04  0.25500000920E-02 0. -1.
    10030    2    1    2    0    0  0.00000000000E+00  0.00000000000E+00  0.69230910523E+03  0.42577074841E+04  0.42010452417E+04 0.  0.
        5    1    3    3  502    0  0.15363172343E+04 -0.13981607311E+04  0.66188339327E+03  0.21801916867E+04  0.46999998093E+01 0.  1.
       -5    1    3    3    0  502 -0.15363172343E+04  0.13981607311E+04  0.30425711967E+02  0.20775157974E+04  0.46999998093E+01 0. -1.
</event>
<event>
 5   0  0.2384787E-07  0.3972227E+04  0.7818609E-02  0.8010173E-01
        2   -1    0    0  501    0  0.00000000000E+00  0.00000000000E+00  0.19597420229E+04  0.19597420229E+04  0.25500000920E-02 0. -1.
       -2   -1    0    0    0  501  0.00000000000E+00  0.00000000000E+00 -0.20128401568E+04  0.20128401568E+04  0.25500000920E-02 0.  1.
    10030    2    1    2    0    0  0.00000000000E+00  0.00000000000E+00 -0.53098133935E+02  0.39725821797E+04  0.39722273050E+04 0.  0.
        4    1    3    3  502    0 -0.49609152998E+03 -0.18306763326E+04  0.56270912760E+03  0.19784149757E+04  0.12699999809E+01 0.  1.
       -4    1    3    3    0  502  0.49609152998E+03  0.18306763326E+04 -0.61580726154E+03  0.19941672039E+04  0.12699999809E+01 0. -1.
</event>
<event>
 5   0  0.2473224E-07  0.4064408E+04  0.7818609E-02  0.7991678E-01
        2   -1    0    0  501    0  0.00000000000E+00  0.00000000000E+00  0.23652248560E+04  0.23652248560E+04  0.25500000920E-02 0. -1.
       -2   -1    0    0    0  501  0.00000000000E+00  0.00000000000E+00 -0.17460722556E+04  0.17460722556E+04  0.25500000920E-02 0.  1.
    10030    2    1    2    0    0  0.00000000000E+00  0.00000000000E+00  0.61915260046E+03  0.41112971116E+04  0.40644081976E+04 0.  0.
        2    1    3    3  502    0 -0.30763938074E+03 -0.15468519430E+04 -0.98679384715E+03  0.18604179689E+04  0.25500000920E-02 0.  1.
       -2    1    3    3    0  502  0.30763938074E+03  0.15468519430E+04  0.16059464476E+04  0.22508791427E+04  0.25500000920E-02 0. -1.
</event>
<event>
 5   0  0.2486268E-07  0.3891992E+04  0.7818609E-02  0.8026697E-01
        2   -1    0    0  501    0  0.00000000000E+00  0.00000000000E+00  0.16423628709E+04  0.16423628709E+04  0.25500000920E-02 0. -1.
       -2   -1    0    0    0  501  0.00000000000E+00  0.00000000000E+00 -0.23057641187E+04  0.23057641187E+04  0.25500000920E-02 0.  1.
    10030    2    1    2    0    0  0.00000000000E+00  0.00000000000E+00 -0.66340124786E+03  0.39481269896E+04  0.38919924859E+04 0.  0.
        5    1    3    3  502    0  0.18778875886E+04 -0.10311958195E+03  0.17529159287E+03  0.18888739175E+04  0.46999998093E+01 0. -1.
       -5    1    3    3    0  502 -0.18778875886E+04  0.10311958195E+03 -0.83869284074E+03  0.20592530721E+04  0.46999998093E+01 0.  1.
</event>
<event>
 5   0  0.2486268E-07  0.3922874E+04  0.7818609E-02  0.8020289E-01
        2   -1    0    0  501    0  0.00000000000E+00  0.00000000000E+00  0.16223366956E+04  0.16223366956E+04  0.25500000920E-02 0. -1.
       -2   -1    0    0    0  501  0.00000000000E+00  0.00000000000E+00 -0.23714161121E+04  0.23714161121E+04  0.25500000920E-02 0.  1.
    10030    2    1    2    0    0  0.00000000000E+00  0.00000000000E+00 -0.74907941650E+03  0.39937528078E+04  0.39228741399E+04 0.  0.
        5    1    3    3  502    0 -0.15481585231E+04  0.93261161193E+03 -0.11503142777E+04  0.21423828460E+04  0.46999998093E+01 0.  1.
       -5    1    3    3    0  502  0.15481585231E+04 -0.93261161193E+03  0.40123486118E+03  0.18513699618E+04  0.46999998093E+01 0. -1.
</event>
<event>
 5   0  0.7675750E-08  0.3910315E+04  0.7818609E-02  0.8022887E-01
       -1   -1    0    0    0  501  0.00000000000E+00  0.00000000000E+00  0.21274889418E+04  0.21274889418E+04  0.50400001928E-02 0.  1.
        1   -1    0    0  501    0  0.00000000000E+00  0.00000000000E+00 -0.17967853810E+04  0.17967853810E+04  0.50400001928E-02 0. -1.
    10030    2    1    2    0    0  0.00000000000E+00  0.00000000000E+00  0.33070356077E+03  0.39242743228E+04  0.39103150916E+04 0.  0.
        2    1    3    3  502    0 -0.13539036231E+04  0.33271059520E+03 -0.12102674671E+04  0.18462119875E+04  0.25500000920E-02 0. -1.
       -2    1    3    3    0  502  0.13539036231E+04 -0.33271059520E+03  0.15409710278E+04  0.20780623353E+04  0.25500000920E-02 0.  1.
</event>
<event>
 5   0  0.7675750E-08  0.3907154E+04  0.7818609E-02  0.8023543E-01
        1   -1    0    0  501    0  0.00000000000E+00  0.00000000000E+00  0.14465514865E+04  0.14465514865E+04  0.50400001928E-02 0.  1.
       -1   -1    0    0    0  501  0.00000000000E+00  0.00000000000E+00 -0.26383176704E+04  0.26383176704E+04  0.50400001928E-02 0. -1.
    10030    2    1    2    0    0  0.00000000000E+00  0.00000000000E+00 -0.11917661839E+04  0.40848691569E+04  0.39071536177E+04 0.  0.
        2    1    3    3  502    0  0.18440665671E+03 -0.93723074275E+03 -0.23775236356E+04  0.25622306528E+04  0.25500000920E-02 0. -1.
       -2    1    3    3    0  502 -0.18440665671E+03  0.93723074275E+03  0.11857574517E+04  0.15226385042E+04  0.25500000920E-02 0.  1.
</event>
<event>
 5   0  0.7675750E-08  0.3935246E+04  0.7818609E-02  0.8017738E-01
        1   -1    0    0  501    0  0.00000000000E+00  0.00000000000E+00  0.17834754868E+04  0.17834754868E+04  0.50400001928E-02 0.  1.
       -1   -1    0    0    0  501  0.00000000000E+00  0.00000000000E+00 -0.21707837703E+04  0.21707837703E+04  0.50400001928E-02 0. -1.
    10030    2    1    2    0    0  0.00000000000E+00  0.00000000000E+00 -0.38730828349E+03  0.39542592570E+04  0.39352456804E+04 0.  0.
        2    1    3    3  502    0 -0.46589706591E+03  0.74505904022E+03  0.15753537194E+04  0.18038604133E+04  0.25500000920E-02 0.  1.
       -2    1    3    3    0  502  0.46589706591E+03 -0.74505904022E+03 -0.19626620029E+04  0.21503988437E+04  0.25500000920E-02 0. -1.
</event>
<event>
 5   0  0.7675750E-08  0.3850192E+04  0.7818609E-02  0.8035469E-01
       -1   -1    0    0    0  501  0.00000000000E+00  0.00000000000E+00  0.16416720088E+04  0.16416720089E+04  0.50400001928E-02 0.  1.
        1   -1    0    0  501    0  0.00000000000E+00  0.00000000000E+00 -0.22574512234E+04  0.22574512234E+04  0.50400001928E-02 0. -1.
    10030    2    1    2    0    0  0.00000000000E+00  0.00000000000E+00 -0.61577921453E+03  0.38991232322E+04  0.38501919354E+04 0.  0.
        5    1    3    3  502    0 -0.10857190369E+04 -0.12682775757E+04  0.66275812455E+03  0.17962695393E+04  0.46999998093E+01 0.  1.
       -5    1    3    3    0  502  0.10857190369E+04  0.12682775757E+04 -0.12785373391E+04  0.21028536929E+04  0.46999998093E+01 0. -1.
</event>
<event>
 5   0  0.2395572E-07  0.3916204E+04  0.7818609E-02  0.8021668E-01
        2   -1    0    0  501    0  0.00000000000E+00  0.00000000000E+00  0.17112689908E+04  0.17112689908E+04  0.25500000920E-02 0. -1.
       -2   -1    0    0    0  501  0.00000000000E+00  0.00000000000E+00 -0.22405379638E+04  0.22405379638E+04  0.25500000920E-02 0.  1.
    10030    2    1    2    0    0  0.00000000000E+00  0.00000000000E+00 -0.52926897306E+03  0.39518069546E+04  0.39162038457E+04 0.  0.
        3    1    3    3  502    0 -0.58055794998E+03 -0.12602502888E+04  0.11295501487E+04  0.17891791057E+04  0.10100000352E+00 0. -1.
       -3    1    3    3    0  502  0.58055794998E+03  0.12602502888E+04 -0.16588191218E+04  0.21626278489E+04  0.10100000352E+00 0.  1.
</event>
<event>
 5   0  0.7731706E-08  0.3927082E+04  0.7818609E-02  0.8019420E-01
       -1   -1    0    0    0  501  0.00000000000E+00  0.00000000000E+00  0.13992537602E+04  0.13992537602E+04  0.50400001928E-02 0.  1.
        1   -1    0    0  501    0  0.00000000000E+00  0.00000000000E+00 -0.27553920236E+04  0.27553920236E+04  0.50400001928E-02 0. -1.
    10030    2    1    2    0    0  0.00000000000E+00  0.00000000000E+00 -0.13561382634E+04  0.41546457838E+04  0.39270816899E+04 0.  0.
        3    1    3    3  502    0 -0.79613109826E+03 -0.10069580202E+04 -0.22500035978E+04  0.25904257141E+04  0.10100000352E+00 0. -1.
       -3    1    3    3    0  502  0.79613109826E+03  0.10069580202E+04  0.89386533445E+03  0.15642200696E+04  0.10100000352E+00 0.  1.
</event>
<event>
 5   0  0.7675750E-08  0.3580558E+04  0.7818609E-02  0.8094960E-01
        1   -1    0    0  501    0  0.00000000000E+00  0.00000000000E+00  0.18663512835E+04  0.18663512835E+04  0.50400001928E-02 0.  1.
       -1   -1    0    0    0  501  0.00000000000E+00  0.00000000000E+00 -0.17173074480E+04  0.17173074480E+04  0.50400001928E-02 0. -1.
    10030    2    1    2    0    0  0.00000000000E+00  0.00000000000E+00  0.14904383551E+03  0.35836587314E+04  0.35805580345E+04 0.  0.
        2    1    3    3  502    0 -0.75365301779E+03  0.36236464447E+03 -0.15098201480E+04  0.17259368140E+04  0.25500000920E-02 0. -1.
       -2    1    3    3    0  502  0.75365301779E+03 -0.36236464447E+03  0.16588639835E+04  0.18577219174E+04  0.25500000920E-02 0.  1.
</event>
<event>
 5   0  0.7675750E-08  0.3843336E+04  0.7818609E-02  0.8036919E-01
       -1   -1    0    0    0  501  0.00000000000E+00  0.00000000000E+00  0.12524436606E+04  0.12524436606E+04  0.50400001928E-02 0.  1.
        1   -1    0    0  501    0  0.00000000000E+00  0.00000000000E+00 -0.29484820374E+04  0.29484820374E+04  0.50400001928E-02 0. -1.
    10030    2    1    2    0    0  0.00000000000E+00  0.00000000000E+00 -0.16960383768E+04  0.42009256980E+04  0.38433358615E+04 0.  0.
        5    1    3    3  502    0 -0.10488369907E+04 -0.87016640855E+03 -0.23288935895E+04  0.26983357932E+04  0.46999998093E+01 0. -1.
       -5    1    3    3    0  502  0.10488369907E+04  0.87016640855E+03  0.63285521270E+03  0.15025899048E+04  0.46999998093E+01 0.  1.
</event>
<event>
 5   0  0.2473224E-07  0.3879491E+04  0.7818609E-02  0.8029308E-01
       -2   -1    0    0    0  501  0.00000000000E+00  0.00000000000E+00  0.15260789310E+04  0.15260789310E+04  0.25500000920E-02 0. -1.
        2   -1    0    0  501    0  0.00000000000E+00  0.00000000000E+00 -0.24655423004E+04  0.24655423004E+04  0.25500000920E-02 0.  1.
    10030    2    1    2    0    0  0.00000000000E+00  0.00000000000E+00 -0.93946336946E+03  0.39916212314E+04  0.38794907697E+04 0.  0.
        2    1    3    3  502    0 -0.99876985736E+02 -0.16519058950E+04  0.57136586347E+03  0.17507790974E+04  0.25500000920E-02 0. -1.
       -2    1    3    3    0  502  0.99876985736E+02  0.16519058950E+04 -0.15108292329E+04  0.22408421339E+04  0.25500000920E-02 0.  1.
</event>
<event>
 5   0  0.2384787E-07  0.3907549E+04  0.7818609E-02  0.8023461E-01
        2   -1    0    0  501    0  0.00000000000E+00  0.00000000000E+00  0.25629907618E+04  0.25629907618E+04  0.25500000920E-02 0.  1.
       -2   -1    0    0    0  501  0.00000000000E+00  0.00000000000E+00 -0.14893672252E+04  0.14893672252E+04  0.25500000920E-02 0. -1.
    10030    2    1    2    0    0  0.00000000000E+00  0.00000000000E+00  0.10736235366E+04  0.40523579870E+04  0.39075488169E+04 0.  0.
        4    1    3    3  502    0  0.12023534488E+04  0.93635769241E+03 -0.73112286858E+03  0.16902549529E+04  0.12699999809E+01 0. -1.
       -4    1    3    3    0  502 -0.12023534488E+04 -0.93635769241E+03  0.18047464051E+04  0.23621030341E+04  0.12699999809E+01 0.  1.
</event>
<event>
 5   0  0.7731706E-08  0.3465127E+04  0.7818609E-02  0.8122104E-01
       -1   -1    0    0    0  501  0.00000000000E+00  0.00000000000E+00  0.16090455394E+04  0.16090455394E+04  0.50400001928E-02 0. -1.
        1   -1    0    0  501    0  0.00000000000E+00  0.00000000000E+00 -0.18655637026E+04  0.18655637026E+04  0.50400001928E-02 0.  1.
    10030    2    1    2    0    0  0.00000000000E+00  0.00000000000E+00 -0.25651816313E+03  0.34746092420E+04  0.34651273882E+04 0.  0.
        3    1    3    3  502    0  0.93129671319E+03  0.25719195853E+03 -0.15703584169E+04  0.18437697360E+04  0.10100000352E+00 0.  1.
       -3    1    3    3    0  502 -0.93129671319E+03 -0.25719195853E+03  0.13138402538E+04  0.16308395060E+04  0.10100000352E+00 0. -1.
</event>
<event>
 5   0  0.2473224E-07  0.3860217E+04  0.7818609E-02  0.8033355E-01
       -2   -1    0    0    0  501  0.00000000000E+00  0.00000000000E+00  0.20929575065E+04  0.20929575065E+04  0.25500000920E-02 0.  1.
        2   -1    0    0  501    0  0.00000000000E+00  0.00000000000E+00 -0.17799302186E+04  0.17799302186E+04  0.25500000920E-02 0. -1.
    10030    2    1    2    0    0  0.00000000000E+00  0.00000000000E+00  0.31302728794E+03  0.38728877251E+04  0.38602167360E+04 0.  0.
        2    1    3    3  502    0 -0.23013017360E+03 -0.18765871237E+04 -0.23306389520E+03  0.19049561435E+04  0.25500000920E-02 0. -1.
       -2    1    3    3    0  502  0.23013017360E+03  0.18765871237E+04  0.54609118314E+03  0.19679315816E+04  0.25500000920E-02 0.  1.
</event>
<event>
 5   0  0.7675750E-08  0.3907996E+04  0.7818609E-02  0.8023368E-01
        1   -1    0    0  501    0  0.00000000000E+00  0.00000000000E+00  0.23988890789E+04  0.23988890789E+04  0.50400001928E-02 0. -1.
       -1   -1    0    0    0  501  0.00000000000E+00  0.00000000000E+00 -0.15916151448E+04  0.15916151448E+04  0.50400001928E-02 0.  1.
    10030    2    1    2    0    0  0.00000000000E+00  0.00000000000E+00  0.80727393411E+03  0.39905042237E+04  0.39079960024E+04 0.  0.
        5    1    3    3  502    0  0.95542820836E+02 -0.19395277963E+04  0.62545496954E+03  0.20401256119E+04  0.46999998093E+01 0. -1.
       -5    1    3    3    0  502 -0.95542820836E+02  0.19395277963E+04  0.18181896458E+03  0.19503786118E+04  0.46999998093E+01 0.  1.
</event>
<event>
 5   0  0.7675750E-08  0.3567803E+04  0.7818609E-02  0.8097907E-01
        1   -1    0    0  501    0  0.00000000000E+00  0.00000000000E+00  0.14725240561E+04  0.14725240561E+04  0.50400001928E-02 0. -1.
       -1   -1    0    0    0  501  0.00000000000E+00  0.00000000000E+00 -0.21611221261E+04  0.21611221261E+04  0.50400001928E-02 0.  1.
    10030    2    1    2    0    0  0.00000000000E+00  0.00000000000E+00 -0.68859807000E+03  0.36336461822E+04  0.35678028639E+04 0.  0.
        1    1    3    3  502    0 -0.12964714459E+04 -0.11098951368E+04  0.18451240295E+03  0.17166101047E+04  0.50400001928E-02 0.  1.
       -1    1    3    3    0  502  0.12964714459E+04  0.11098951368E+04 -0.87311047294E+03  0.19170360775E+04  0.50400001928E-02 0. -1.
</event>
<event>
 5   0  0.7675750E-08  0.3890270E+04  0.7818609E-02  0.8027056E-01
       -1   -1    0    0    0  501  0.00000000000E+00  0.00000000000E+00  0.14457489608E+04  0.14457489609E+04  0.50400001928E-02 0.  1.
        1   -1    0    0  501    0  0.00000000000E+00  0.00000000000E+00 -0.26170173492E+04  0.26170173492E+04  0.50400001928E-02 0. -1.
    10030    2    1    2    0    0  0.00000000000E+00  0.00000000000E+00 -0.11712683884E+04  0.40627663101E+04  0.38902699717E+04 0.  0.
        2    1    3    3  502    0  0.18201505201E+03 -0.14217678756E+04  0.78758286192E+03  0.16354938507E+04  0.25500000920E-02 0.  1.
       -2    1    3    3    0  502 -0.18201505201E+03  0.14217678756E+04 -0.19588512503E+04  0.24272724594E+04  0.25500000920E-02 0. -1.
</event>
<event>
 5   0  0.7675750E-08  0.3937439E+04  0.7818609E-02  0.8017287E-01
        1   -1    0    0  501    0  0.00000000000E+00  0.00000000000E+00  0.21086171980E+04  0.21086171980E+04  0.50400001928E-02 0. -1.
       -1   -1    0    0    0  501  0.00000000000E+00  0.00000000000E+00 -0.18381032353E+04  0.18381032353E+04  0.50400001928E-02 0.  1.
    10030    2    1    2    0    0  0.00000000000E+00  0.00000000000E+00  0.27051396264E+03  0.39467204333E+04  0.39374388090E+04 0.  0.
        5    1    3    3  502    0  0.16046180826E+04 -0.30414615791E+03  0.12371799897E+04  0.20488876234E+04  0.46999998093E+01 0. -1.
       -5    1    3    3    0  502 -0.16046180826E+04  0.30414615791E+03 -0.96666602710E+03  0.18978328099E+04  0.46999998093E+01 0.  1.
</event>
<event>
 5   0  0.7731706E-08  0.3909565E+04  0.7818609E-02  0.8023043E-01
        1   -1    0    0  501    0  0.00000000000E+00  0.00000000000E+00  0.15982522610E+04  0.15982522610E+04  0.50400001928E-02 0. -1.
       -1   -1    0    0    0  501  0.00000000000E+00  0.00000000000E+00 -0.23908453480E+04  0.23908453481E+04  0.50400001928E-02 0.  1.
    10030    2    1    2    0    0  0.00000000000E+00  0.00000000000E+00 -0.79259308705E+03  0.39890976091E+04  0.39095646731E+04 0.  0.
        3    1    3    3  502    0 -0.18493768767E+04  0.63026787200E+03 -0.45870911357E+03  0.20069495469E+04  0.10100000352E+00 0. -1.
       -3    1    3    3    0  502  0.18493768767E+04 -0.63026787200E+03 -0.33388397348E+03  0.19821480622E+04  0.10100000352E+00 0.  1.
</event>
<event>
 5   0  0.2395572E-07  0.3889738E+04  0.7818609E-02  0.8027167E-01
        2   -1    0    0  501    0  0.00000000000E+00  0.00000000000E+00  0.29809865013E+04  0.29809865013E+04  0.25500000920E-02 0. -1.
       -2   -1    0    0    0  501  0.00000000000E+00  0.00000000000E+00 -0.12688804071E+04  0.12688804071E+04  0.25500000920E-02 0.  1.
    10030    2    1    2    0    0  0.00000000000E+00  0.00000000000E+00  0.17121060942E+04  0.42498669083E+04  0.38897379682E+04 0.  0.
        3    1    3    3  502    0 -0.16109260669E+04  0.20177143305E+03 -0.31394150131E+03  0.16535881533E+04  0.10100000352E+00 0.  1.
       -3    1    3    3    0  502  0.16109260669E+04 -0.20177143305E+03  0.20260475955E+04  0.25962787550E+04  0.10100000352E+00 0. -1.
</event>
<event>
 5   0  0.2395572E-07  0.3829797E+04  0.7818609E-02  0.8039791E-01
       -2   -1    0    0    0  501  0.00000000000E+00  0.00000000000E+00  0.12089663713E+04  0.12089663713E+04  0.25500000920E-02 0.  1.
        2   -1    0    0  501    0  0.00000000000E+00  0.00000000000E+00 -0.30330335699E+04  0.30330335699E+04  0.25500000920E-02 0. -1.
    10030    2    1    2    0    0  0.00000000000E+00  0.00000000000E+00 -0.18240671986E+04  0.42419999412E+04  0.38297966469E+04 0.  0.
        3    1    3    3  502    0  0.91651412896E+03  0.15960440857E+04 -0.32647433024E+03  0.18692084877E+04  0.10100000352E+00 0. -1.
       -3    1    3    3    0  502 -0.91651412896E+03 -0.15960440857E+04 -0.14975928684E+04  0.23727914535E+04  0.10100000352E+00 0.  1.
</event>
<event>
 5   0  0.7675750E-08  0.3940177E+04  0.7818609E-02  0.8016725E-01
        1   -1    0    0  501    0  0.00000000000E+00  0.00000000000E+00  0.22492887733E+04  0.22492887733E+04  0.50400001928E-02 0.  1.
       -1   -1    0    0    0  501  0.00000000000E+00  0.00000000000E+00 -0.17255444378E+04  0.17255444378E+04  0.50400001928E-02 0. -1.
    10030    2    1    2    0    0  0.00000000000E+00  0.00000000000E+00  0.52374433546E+03  0.39748332111E+04  0.39401765097E+04 0.  0.
        5    1    3    3  502    0  0.19273801861E+04  0.20358642139E+03  0.61851224531E+03  0.20344093246E+04  0.46999998093E+01 0.  1.
       -5    1    3    3    0  502 -0.19273801861E+04 -0.20358642139E+03 -0.94767909850E+02  0.19404238865E+04  0.46999998093E+01 0. -1.
</event>
<event>
 5   0  0.7731706E-08  0.3887271E+04  0.7818609E-02  0.8027682E-01
       -1   -1    0    0    0  501  0.00000000000E+00  0.00000000000E+00  0.27927430503E+04  0.27927430503E+04  0.50400001928E-02 0.  1.
        1   -1    0    0  501    0  0.00000000000E+00  0.00000000000E+00 -0.13526909319E+04  0.13526909319E+04  0.50400001928E-02 0. -1.
    10030    2    1    2    0    0  0.00000000000E+00  0.00000000000E+00  0.14400521183E+04  0.41454339822E+04  0.38872706103E+04 0.  0.
        3    1    3    3  502    0  0.15324956079E+04 -0.36122542015E+03 -0.49525923748E+03  0.16505478833E+04  0.10100000352E+00 0. -1.
       -3    1    3    3    0  502 -0.15324956079E+04  0.36122542015E+03  0.19353113558E+04  0.24948860989E+04  0.10100000352E+00 0.  1.
</event>
<event>
 5   0  0.7731706E-08  0.3859365E+04  0.7818609E-02  0.8033534E-01
       -1   -1    0    0    0  501  0.00000000000E+00  0.00000000000E+00  0.12373472488E+04  0.12373472488E+04  0.50400001928E-02 0. -1.
        1   -1    0    0  501    0  0.00000000000E+00  0.00000000000E+00 -0.30094009019E+04  0.30094009019E+04  0.50400001928E-02 0.  1.
    10030    2    1    2    0    0  0.00000000000E+00  0.00000000000E+00 -0.17720536532E+04  0.42467481507E+04  0.38593646764E+04 0.  0.
        3    1    3    3  502    0 -0.10673124129E+04  0.12522939335E+03  0.87760876746E+03  0.13874564305E+04  0.10100000352E+00 0. -1.
       -3    1    3    3    0  502  0.10673124129E+04 -0.12522939335E+03 -0.26496624206E+04  0.28592917202E+04  0.10100000352E+00 0.  1.
</event>
<event>
 5   0  0.2473224E-07  0.3896360E+04  0.7818609E-02  0.8025787E-01
       -2   -1    0    0    0  501  0.00000000000E+00  0.00000000000E+00  0.14974659331E+04  0.14974659331E+04  0.25500000920E-02 0. -1.
        2   -1    0    0  501    0  0.00000000000E+00  0.00000000000E+00 -0.25345523056E+04  0.25345523056E+04  0.25500000920E-02 0.  1.
    10030    2    1    2    0    0  0.00000000000E+00  0.00000000000E+00 -0.10370863725E+04  0.40320182387E+04  0.38963602160E+04 0.  0.
        2    1    3    3  502    0  0.62941475319E+03  0.15491460685E+04 -0.15530437380E+04  0.22820958186E+04  0.25500000920E-02 0. -1.
       -2    1    3    3    0  502 -0.62941475319E+03 -0.15491460685E+04  0.51595736551E+03  0.17499224201E+04  0.25500000920E-02 0.  1.
</event>
<event>
 5   0  0.2473224E-07  0.3765325E+04  0.7818609E-02  0.8053637E-01
        2   -1    0    0  501    0  0.00000000000E+00  0.00000000000E+00  0.11927457765E+04  0.11927457765E+04  0.25500000920E-02 0. -1.
       -2   -1    0    0    0  501  0.00000000000E+00  0.00000000000E+00 -0.29716456744E+04  0.29716456744E+04  0.25500000920E-02 0.  1.
    10030    2    1    2    0    0  0.00000000000E+00  0.00000000000E+00 -0.17788998980E+04  0.41643914509E+04  0.37653248611E+04 0.  0.
        2    1    3    3  502    0 -0.84042648138E+03  0.14826641152E+04 -0.17741051231E+04  0.24600931968E+04  0.25500000920E-02 0.  1.
       -2    1    3    3    0  502  0.84042648138E+03 -0.14826641152E+04 -0.47947748409E+01  0.17042982541E+04  0.25500000920E-02 0. -1.
</event>
<event>
 5   0  0.7675750E-08  0.4506200E+04  0.7818609E-02  0.7909552E-01
        1   -1    0    0  501    0  0.00000000000E+00  0.00000000000E+00  0.25223214437E+04  0.25223214437E+04  0.50400001928E-02 0.  1.
       -1   -1    0    0    0  501  0.00000000000E+00  0.00000000000E+00 -0.20126137505E+04  0.20126137505E+04  0.50400001928E-02 0. -1.
    10030    2    1    2    0    0  0.00000000000E+00  0.00000000000E+00  0.50970769326E+03  0.45349351942E+04  0.45061996497E+04 0.  0.
        4    1    3    3  502    0  0.12648956004E+04 -0.65836893370E+03 -0.15007032656E+04  0.20701503417E+04  0.12699999809E+01 0. -1.
       -4    1    3    3    0  502 -0.12648956004E+04  0.65836893370E+03  0.20104109589E+04  0.24647848525E+04  0.12699999809E+01 0.  1.
</event>
<event>
 5   0  0.2446281E-07  0.3924015E+04  0.7818609E-02  0.8020053E-01
        2   -1    0    0  501    0  0.00000000000E+00  0.00000000000E+00  0.21019741324E+04  0.21019741324E+04  0.25500000920E-02 0.  1.
       -2   -1    0    0    0  501  0.00000000000E+00  0.00000000000E+00 -0.18313608858E+04  0.18313608858E+04  0.25500000920E-02 0. -1.
    10030    2    1    2    0    0  0.00000000000E+00  0.00000000000E+00  0.27061324663E+03  0.39333350182E+04  0.39240148873E+04 0.  0.
        1    1    3    3  502    0 -0.16674977034E+02 -0.18629710114E+03  0.20930170313E+04  0.21013578843E+04  0.50400001928E-02 0.  1.
       -1    1    3    3    0  502  0.16674977034E+02  0.18629710114E+03 -0.18224037846E+04  0.18319771339E+04  0.50400001928E-02 0. -1.
</event>
<event>
 5   0  0.2486268E-07  0.3843481E+04  0.7818609E-02  0.8036888E-01
        2   -1    0    0  501    0  0.00000000000E+00  0.00000000000E+00  0.23910002078E+04  0.23910002078E+04  0.25500000920E-02 0.  1.
       -2   -1    0    0    0  501  0.00000000000E+00  0.00000000000E+00 -0.15445779240E+04  0.15445779240E+04  0.25500000920E-02 0. -1.
    10030    2    1    2    0    0  0.00000000000E+00  0.00000000000E+00  0.84642228386E+03  0.39355781318E+04  0.38434807855E+04 0.  0.
        5    1    3    3  502    0 -0.11564122543E+04 -0.60655081018E+03  0.18669143057E+04  0.22782853864E+04  0.46999998093E+01 0.  1.
       -5    1    3    3    0  502  0.11564122543E+04  0.60655081018E+03 -0.10204920218E+04  0.16572927454E+04  0.46999998093E+01 0. -1.
</event>
<event>
 5   0  0.2486268E-07  0.3885826E+04  0.7818609E-02  0.8027984E-01
       -2   -1    0    0    0  501  0.00000000000E+00  0.00000000000E+00  0.25350190514E+04  0.25350190514E+04  0.25500000920E-02 0.  1.
        2   -1    0    0  501    0  0.00000000000E+00  0.00000000000E+00 -0.14891052549E+04  0.14891052549E+04  0.25500000920E-02 0. -1.
    10030    2    1    2    0    0  0.00000000000E+00  0.00000000000E+00  0.10459137965E+04  0.40241243063E+04  0.38858256218E+04 0.  0.
        5    1    3    3  502    0  0.15579206592E+04 -0.56066385233E+02 -0.67789413537E+03  0.16999478724E+04  0.46999998093E+01 0. -1.
       -5    1    3    3    0  502 -0.15579206592E+04  0.56066385233E+02  0.17238079319E+04  0.23241764339E+04  0.46999998093E+01 0.  1.
</event>
<event>
 5   0  0.2473224E-07  0.3913899E+04  0.7818609E-02  0.8022145E-01
       -2   -1    0    0    0  501  0.00000000000E+00  0.00000000000E+00  0.16478428080E+04  0.16478428080E+04  0.25500000920E-02 0.  1.
        2   -1    0    0  501    0  0.00000000000E+00  0.00000000000E+00 -0.23240391282E+04  0.23240391282E+04  0.25500000920E-02 0. -1.
    10030    2    1    2    0    0  0.00000000000E+00  0.00000000000E+00 -0.67619632021E+03  0.39718819363E+04  0.39138989068E+04 0.  0.
        2    1    3    3  502    0 -0.55775760734E+03 -0.22894298490E+03  0.15512410925E+04  0.16642888469E+04  0.25500000920E-02 0.  1.
       -2    1    3    3    0  502  0.55775760734E+03  0.22894298490E+03 -0.22274374127E+04  0.23075930894E+04  0.25500000920E-02 0. -1.
</event>
<event>
 5   0  0.7675750E-08  0.4116730E+04  0.7818609E-02  0.7981404E-01
        3   -1    0    0  501    0  0.00000000000E+00  0.00000000000E+00  0.13667694758E+04  0.13667694796E+04  0.10100000352E+00 0. -1.
       -3   -1    0    0    0  501  0.00000000000E+00  0.00000000000E+00 -0.30999129513E+04  0.30999129529E+04  0.10100000352E+00 0.  1.
    10030    2    1    2    0    0  0.00000000000E+00  0.00000000000E+00 -0.17331434755E+04  0.44666824325E+04  0.41167299700E+04 0.  0.
        3    1    3    3  502    0 -0.13094865789E+04 -0.10883854112E+04  0.38825631005E+03  0.17464480743E+04  0.10100000352E+00 0. -1.
       -3    1    3    3    0  502  0.13094865789E+04  0.10883854112E+04 -0.21213997855E+04  0.27202343582E+04  0.10100000352E+00 0.  1.
</event>
<event>
 5   0  0.2395572E-07  0.3877092E+04  0.7818609E-02  0.8029810E-01
        2   -1    0    0  501    0  0.00000000000E+00  0.00000000000E+00  0.18780082538E+04  0.18780082538E+04  0.25500000920E-02 0.  1.
       -2   -1    0    0    0  501  0.00000000000E+00  0.00000000000E+00 -0.20010356907E+04  0.20010356907E+04  0.25500000920E-02 0. -1.
    10030    2    1    2    0    0  0.00000000000E+00  0.00000000000E+00 -0.12302743686E+03  0.38790439445E+04  0.38770924896E+04 0.  0.
        3    1    3    3  502    0 -0.24774076546E+03 -0.75432436860E+02  0.18606237382E+04  0.18785596197E+04  0.10100000352E+00 0.  1.
       -3    1    3    3    0  502  0.24774076546E+03  0.75432436860E+02 -0.19836511750E+04  0.20004843248E+04  0.10100000352E+00 0. -1.
</event>
<event>
 5   0  0.7731706E-08  0.3927246E+04  0.7818609E-02  0.8019386E-01
        1   -1    0    0  501    0  0.00000000000E+00  0.00000000000E+00  0.27509884136E+04  0.27509884136E+04  0.50400001928E-02 0.  1.
       -1   -1    0    0    0  501  0.00000000000E+00  0.00000000000E+00 -0.14016111905E+04  0.14016111905E+04  0.50400001928E-02 0. -1.
    10030    2    1    2    0    0  0.00000000000E+00  0.00000000000E+00  0.13493772231E+04  0.41525996042E+04  0.39272464377E+04 0.  0.
        3    1    3    3  502    0 -0.68521142536E+03 -0.17203730808E+04  0.13653281553E+04  0.23007214556E+04  0.10100000352E+00 0. -1.
       -3    1    3    3    0  502  0.68521142536E+03  0.17203730808E+04 -0.15950932146E+02  0.18518781485E+04  0.10100000352E+00 0.  1.
</event>
<event>
 5   0  0.2384787E-07  0.3902211E+04  0.7818609E-02  0.8024569E-01
       -2   -1    0    0    0  501  0.00000000000E+00  0.00000000000E+00  0.13233816610E+04  0.13233816610E+04  0.25500000920E-02 0. -1.
        2   -1    0    0  501    0  0.00000000000E+00  0.00000000000E+00 -0.28765800710E+04  0.28765800710E+04  0.25500000920E-02 0.  1.
    10030    2    1    2    0    0  0.00000000000E+00  0.00000000000E+00 -0.15531984099E+04  0.41999617320E+04  0.39022113282E+04 0.  0.
        4    1    3    3  502    0 -0.96994587184E+03  0.13563777628E+04 -0.18669403914E+04  0.25032026821E+04  0.12699999809E+01 0.  1.
       -4    1    3    3    0  502  0.96994587184E+03 -0.13563777628E+04  0.31374198148E+03  0.16967590499E+04  0.12699999809E+01 0. -1.
</event>
<event>
 5   0  0.7675750E-08  0.3930963E+04  0.7818609E-02  0.8018620E-01
        1   -1    0    0  501    0  0.00000000000E+00  0.00000000000E+00  0.21614528094E+04  0.21614528094E+04  0.50400001928E-02 0. -1.
       -1   -1    0    0    0  501  0.00000000000E+00  0.00000000000E+00 -0.17872783408E+04  0.17872783408E+04  0.50400001928E-02 0.  1.
    10030    2    1    2    0    0  0.00000000000E+00  0.00000000000E+00  0.37417446857E+03  0.39487311502E+04  0.39309631344E+04 0.  0.
        2    1    3    3  502    0 -0.14036361716E+04  0.61577129151E+03 -0.10488190207E+04  0.18572533817E+04  0.25500000920E-02 0.  1.
       -2    1    3    3    0  502  0.14036361716E+04 -0.61577129151E+03  0.14229934892E+04  0.20914777685E+04  0.25500000920E-02 0. -1.
</event>
<event>
 5   0  0.7675750E-08  0.3866286E+04  0.7818609E-02  0.8032078E-01
       -1   -1    0    0    0  501  0.00000000000E+00  0.00000000000E+00  0.14081280932E+04  0.14081280932E+04  0.50400001928E-02 0.  1.
        1   -1    0    0  501    0  0.00000000000E+00  0.00000000000E+00 -0.26539070548E+04  0.26539070548E+04  0.50400001928E-02 0. -1.
    10030    2    1    2    0    0  0.00000000000E+00  0.00000000000E+00 -0.12457789616E+04  0.40620351480E+04  0.38662855976E+04 0.  0.
        1    1    3    3  502    0  0.42989770628E+03 -0.17305657706E+04  0.16148235370E+03  0.17904598501E+04  0.50400001928E-02 0.  1.
       -1    1    3    3    0  502 -0.42989770628E+03  0.17305657706E+04 -0.14072613153E+04  0.22715752979E+04  0.50400001928E-02 0. -1.
</event>
<event>
 5   0  0.2486268E-07  0.3848599E+04  0.7818609E-02  0.8035805E-01
       -2   -1    0    0    0  501  0.00000000000E+00  0.00000000000E+00  0.12804378732E+04  0.12804378732E+04  0.25500000920E-02 0.  1.
        2   -1    0    0  501    0  0.00000000000E+00  0.00000000000E+00 -0.28919238853E+04  0.28919238853E+04  0.25500000920E-02 0. -1.
    10030    2    1    2    0    0  0.00000000000E+00  0.00000000000E+00 -0.16114860121E+04  0.41723617585E+04  0.38485991577E+04 0.  0.
        5    1    3    3  502    0  0.13694885522E+04  0.62853348288E+02  0.65820981068E+03  0.15207602319E+04  0.46999998093E+01 0.  1.
       -5    1    3    3    0  502 -0.13694885522E+04 -0.62853348288E+02 -0.22696958228E+04  0.26516015266E+04  0.46999998093E+01 0. -1.
</event>
<event>
 5   0  0.7675750E-08  0.3239924E+04  0.7818609E-02  0.8178352E-01
       -1   -1    0    0    0  501  0.00000000000E+00  0.00000000000E+00  0.15546880986E+04  0.15546880986E+04  0.50400001928E-02 0.  1.
        1   -1    0    0  501    0  0.00000000000E+00  0.00000000000E+00 -0.16879760233E+04  0.16879760233E+04  0.50400001928E-02 0. -1.
    10030    2    1    2    0    0  0.00000000000E+00  0.00000000000E+00 -0.13328792471E+03  0.32426641219E+04  0.32399236004E+04 0.  0.
        5    1    3    3  502    0  0.15127609616E+04 -0.55238035614E+03  0.10867372277E+03  0.16141257240E+04  0.46999998093E+01 0. -1.
       -5    1    3    3    0  502 -0.15127609616E+04  0.55238035614E+03 -0.24196164747E+03  0.16285383979E+04  0.46999998093E+01 0.  1.
</event>
<event>
 5   0  0.2395572E-07  0.3923744E+04  0.7818609E-02  0.8020109E-01
        2   -1    0    0  501    0  0.00000000000E+00  0.00000000000E+00  0.15519126038E+04  0.15519126038E+04  0.25500000920E-02 0.  1.
       -2   -1    0    0    0  501  0.00000000000E+00  0.00000000000E+00 -0.24801273640E+04  0.24801273640E+04  0.25500000920E-02 0. -1.
    10030    2    1    2    0    0  0.00000000000E+00  0.00000000000E+00 -0.92821476024E+03  0.40320399678E+04  0.39237435773E+04 0.  0.
        3    1    3    3  502    0 -0.42324525179E+03 -0.97787141502E+03 -0.21568653758E+04  0.24057093148E+04  0.10100000352E+00 0. -1.
       -3    1    3    3    0  502  0.42324525179E+03  0.97787141502E+03  0.12286506156E+04  0.16263306530E+04  0.10100000352E+00 0.  1.
</event>
<event>
 5   0  0.2446281E-07  0.3542511E+04  0.7818609E-02  0.8103789E-01
        2   -1    0    0  501    0  0.00000000000E+00  0.00000000000E+00  0.23846488524E+04  0.23846488524E+04  0.25500000920E-02 0. -1.
       -2   -1    0    0    0  501  0.00000000000E+00  0.00000000000E+00 -0.13156429939E+04  0.13156429939E+04  0.25500000920E-02 0.  1.
    10030    2    1    2    0    0  0.00000000000E+00  0.00000000000E+00  0.10690058585E+04  0.37002918463E+04  0.35425112875E+04 0.  0.
        1    1    3    3  502    0 -0.49926208858E+02  0.16185978344E+04  0.12840971572E+04  0.20667019826E+04  0.50400001928E-02 0. -1.
       -1    1    3    3    0  502  0.49926208858E+02 -0.16185978344E+04 -0.21509129870E+03  0.16335898637E+04  0.50400001928E-02 0.  1.
</event>
<event>
 5   0  0.7675750E-08  0.3125311E+04  0.7818609E-02  0.8208826E-01
        1   -1    0    0  501    0  0.00000000000E+00  0.00000000000E+00  0.20044454873E+04  0.20044454873E+04  0.50400001928E-02 0.  1.
       -1   -1    0    0    0  501  0.00000000000E+00  0.00000000000E+00 -0.12182384503E+04  0.12182384503E+04  0.50400001928E-02 0. -1.
    10030    2    1    2    0    0  0.00000000000E+00  0.00000000000E+00  0.78620703702E+03  0.32226839376E+04  0.31253112256E+04 0.  0.
        2    1    3    3  502    0 -0.93328877587E+03  0.11646652145E+04  0.87058512470E+03  0.17278285390E+04  0.25500000920E-02 0.  1.
       -2    1    3    3    0  502  0.93328877587E+03 -0.11646652145E+04 -0.84378087686E+02  0.14948553986E+04  0.25500000920E-02 0. -1.
</event>
<event>
 5   0  0.7675750E-08  0.3896549E+04  0.7818609E-02  0.8025747E-01
        1   -1    0    0  501    0  0.00000000000E+00  0.00000000000E+00  0.25585881025E+04  0.25585881025E+04  0.50400001928E-02 0. -1.
       -1   -1    0    0    0  501  0.00000000000E+00  0.00000000000E+00 -0.14835422271E+04  0.14835422271E+04  0.50400001928E-02 0.  1.
    10030    2    1    2    0    0  0.00000000000E+00  0.00000000000E+00  0.10750458753E+04  0.40421303296E+04  0.38965489818E+04 0.  0.
        2    1    3    3  502    0  0.94665700884E+03  0.21940907738E+03 -0.12141977306E+04  0.15551771489E+04  0.25500000920E-02 0.  1.
       -2    1    3    3    0  502 -0.94665700884E+03 -0.21940907738E+03  0.22892436059E+04  0.24869531807E+04  0.25500000920E-02 0. -1.
</event>
<event>
 5   0  0.2395572E-07  0.3990443E+04  0.7818609E-02  0.8006477E-01
       -2   -1    0    0    0  501  0.00000000000E+00  0.00000000000E+00  0.15058057125E+04  0.15058057125E+04  0.25500000920E-02 0.  1.
        2   -1    0    0  501    0  0.00000000000E+00  0.00000000000E+00 -0.26437067656E+04  0.26437067656E+04  0.25500000920E-02 0. -1.
    10030    2    1    2    0    0  0.00000000000E+00  0.00000000000E+00 -0.11379010531E+04  0.41495124781E+04  0.39904429578E+04 0.  0.
        3    1    3    3  502    0  0.35969330808E+03 -0.32266146631E+02 -0.26094377287E+04  0.26343093308E+04  0.10100000352E+00 0. -1.
       -3    1    3    3    0  502 -0.35969330808E+03  0.32266146631E+02  0.14715366755E+04  0.15152031474E+04  0.10100000352E+00 0.  1.
</event>
<event>
 5   0  0.2395572E-07  0.3795876E+04  0.7818609E-02  0.8047040E-01
        2   -1    0    0  501    0  0.00000000000E+00  0.00000000000E+00  0.18986946160E+04  0.18986946160E+04  0.25500000920E-02 0.  1.
       -2   -1    0    0    0  501  0.00000000000E+00  0.00000000000E+00 -0.18971819346E+04  0.18971819346E+04  0.25500000920E-02 0. -1.
    10030    2    1    2    0    0  0.00000000000E+00  0.00000000000E+00  0.15126813703E+01  0.37958765506E+04  0.37958762492E+04 0.  0.
        3    1    3    3  502    0  0.16246025559E+04  0.57322537436E+02  0.98032253497E+03  0.18983286388E+04  0.10100000352E+00 0.  1.
       -3    1    3    3    0  502 -0.16246025559E+04 -0.57322537436E+02 -0.97880985360E+03  0.18975479118E+04  0.10100000352E+00 0. -1.
</event>
<event>
 5   0  0.7675750E-08  0.3910761E+04  0.7818609E-02  0.8022795E-01
        1   -1    0    0  501    0  0.00000000000E+00  0.00000000000E+00  0.19097325341E+04  0.19097325341E+04  0.50400001928E-02 0. -1.
       -1   -1    0    0    0  501  0.00000000000E+00  0.00000000000E+00 -0.20021192562E+04  0.20021192562E+04  0.50400001928E-02 0.  1.
    10030    2    1    2    0    0  0.00000000000E+00  0.00000000000E+00 -0.92386722104E+02  0.39118517903E+04  0.39107606834E+04 0.  0.
        4    1    3    3  502    0  0.16560065578E+04  0.10306500046E+04 -0.18375815098E+03  0.19591747810E+04  0.12699999809E+01 0.  1.
       -4    1    3    3    0  502 -0.16560065578E+04 -0.10306500046E+04  0.91371428876E+02  0.19526770093E+04  0.12699999809E+01 0. -1.
</event>
<event>
 5   0  0.7675750E-08  0.3819301E+04  0.7818609E-02  0.8042026E-01
        1   -1    0    0  501    0  0.00000000000E+00  0.00000000000E+00  0.11470414931E+04  0.11470414931E+04  0.50400001928E-02 0.  1.
       -1   -1    0    0    0  501  0.00000000000E+00  0.00000000000E+00 -0.31792784665E+04  0.31792784666E+04  0.50400001928E-02 0. -1.
    10030    2    1    2    0    0  0.00000000000E+00  0.00000000000E+00 -0.20322369735E+04  0.43263199596E+04  0.38193006266E+04 0.  0.
        4    1    3    3  502    0  0.10820323530E+04 -0.92434850535E+03  0.42632818862E+03  0.14855879340E+04  0.12699999809E+01 0.  1.
       -4    1    3    3    0  502 -0.10820323530E+04  0.92434850535E+03 -0.24585651621E+04  0.28407320256E+04  0.12699999809E+01 0. -1.
</event>
<event>
 5   0  0.7675750E-08  0.3631799E+04  0.7818609E-02  0.8083246E-01
        1   -1    0    0  501    0  0.00000000000E+00  0.00000000000E+00  0.20752944575E+04  0.20752944575E+04  0.50400001928E-02 0.  1.
       -1   -1    0    0    0  501  0.00000000000E+00  0.00000000000E+00 -0.15889272245E+04  0.15889272245E+04  0.50400001928E-02 0. -1.
    10030    2    1    2    0    0  0.00000000000E+00  0.00000000000E+00  0.48636723304E+03  0.36642216820E+04  0.36317994781E+04 0.  0.
        1    1    3    3  502    0 -0.34679018758E+03  0.26879097735E+03  0.20210096873E+04  0.20680890164E+04  0.50400001928E-02 0.  1.
       -1    1    3    3    0  502  0.34679018758E+03 -0.26879097735E+03 -0.15346424542E+04  0.15961326656E+04  0.50400001928E-02 0. -1.
</event>
<event>
 5   0  0.7675750E-08  0.3903134E+04  0.7818609E-02  0.8024378E-01
       -1   -1    0    0    0  501  0.00000000000E+00  0.00000000000E+00  0.14321855385E+04  0.14321855385E+04  0.50400001928E-02 0. -1.
        1   -1    0    0  501    0  0.00000000000E+00  0.00000000000E+00 -0.26593020958E+04  0.26593020958E+04  0.50400001928E-02 0.  1.
    10030    2    1    2    0    0  0.00000000000E+00  0.00000000000E+00 -0.12271165573E+04  0.40914876344E+04  0.39031341275E+04 0.  0.
        1    1    3    3  502    0  0.22492683826E+03  0.39785789977E+03 -0.26024117705E+04  0.26422395830E+04  0.50400001928E-02 0.  1.
       -1    1    3    3    0  502 -0.22492683826E+03 -0.39785789977E+03  0.13752952132E+04  0.14492480514E+04  0.50400001928E-02 0. -1.
</event>
<event>
 5   0  0.7675750E-08  0.3887257E+04  0.7818609E-02  0.8027685E-01
       -1   -1    0    0    0  501  0.00000000000E+00  0.00000000000E+00  0.24928405700E+04  0.24928405701E+04  0.50400001928E-02 0.  1.
        1   -1    0    0  501    0  0.00000000000E+00  0.00000000000E+00 -0.15154164173E+04  0.15154164173E+04  0.50400001928E-02 0. -1.
    10030    2    1    2    0    0  0.00000000000E+00  0.00000000000E+00  0.97742415273E+03  0.40082569874E+04  0.38872568866E+04 0.  0.
        2    1    3    3  502    0  0.69654735825E+03  0.12920143340E+03 -0.13775487975E+04  0.15490358040E+04  0.25500000920E-02 0. -1.
       -2    1    3    3    0  502 -0.69654735825E+03 -0.12920143340E+03  0.23549729502E+04  0.24592211834E+04  0.25500000920E-02 0.  1.
</event>
<event>
 5   0  0.7675750E-08  0.3825579E+04  0.7818609E-02  0.8040688E-01
        1   -1    0    0  501    0  0.00000000000E+00  0.00000000000E+00  0.23394417245E+04  0.23394417245E+04  0.50400001928E-02 0.  1.
       -1   -1    0    0    0  501  0.00000000000E+00  0.00000000000E+00 -0.15639470355E+04  0.15639470355E+04  0.50400001928E-02 0. -1.
    10030    2    1    2    0    0  0.00000000000E+00  0.00000000000E+00  0.77549468897E+03  0.39033887600E+04  0.38255786228E+04 0.  0.
        5    1    3    3  502    0 -0.14991291410E+04  0.99043129484E+03 -0.28164395656E+03  0.18187049622E+04  0.46999998093E+01 0. -1.
       -5    1    3    3    0  502  0.14991291410E+04 -0.99043129484E+03  0.10571386455E+04  0.20846837979E+04  0.46999998093E+01 0.  1.
</event>
<event>
 5   0  0.7675750E-08  0.3898688E+04  0.7818609E-02  0.8025302E-01
       -1   -1    0    0    0  501  0.00000000000E+00  0.00000000000E+00  0.23199484203E+04  0.23199484203E+04  0.50400001928E-02 0. -1.
        1   -1    0    0  501    0  0.00000000000E+00  0.00000000000E+00 -0.16379422775E+04  0.16379422775E+04  0.50400001928E-02 0.  1.
    10030    2    1    2    0    0  0.00000000000E+00  0.00000000000E+00  0.68200614278E+03  0.39578906978E+04  0.38986877789E+04 0.  0.
        2    1    3    3  502    0 -0.12306093310E+04 -0.27356467771E+03  0.18504251604E+04  0.22390422580E+04  0.25500000920E-02 0. -1.
       -2    1    3    3    0  502  0.12306093310E+04  0.27356467771E+03 -0.11684190177E+04  0.17188484399E+04  0.25500000920E-02 0.  1.
</event>
<event>
 5   0  0.2446281E-07  0.3925216E+04  0.7818609E-02  0.8019805E-01
       -2   -1    0    0    0  501  0.00000000000E+00  0.00000000000E+00  0.16364053344E+04  0.16364053344E+04  0.25500000920E-02 0. -1.
        2   -1    0    0  501    0  0.00000000000E+00  0.00000000000E+00 -0.23538360474E+04  0.23538360474E+04  0.25500000920E-02 0.  1.
    10030    2    1    2    0    0  0.00000000000E+00  0.00000000000E+00 -0.71743071307E+03  0.39902413818E+04  0.39252158484E+04 0.  0.
        1    1    3    3  502    0  0.31510447377E+03 -0.97636753623E+03 -0.20595265937E+04  0.23009202910E+04  0.50400001928E-02 0.  1.
       -1    1    3    3    0  502 -0.31510447377E+03  0.97636753623E+03  0.13420958806E+04  0.16893210908E+04  0.50400001928E-02 0. -1.
</event>
<event>
 5   0  0.2446281E-07  0.3817392E+04  0.7818609E-02  0.8042433E-01
       -2   -1    0    0    0  501  0.00000000000E+00  0.00000000000E+00  0.16772233461E+04  0.16772233461E+04  0.25500000920E-02 0.  1.
        2   -1    0    0  501    0  0.00000000000E+00  0.00000000000E+00 -0.21721146222E+04  0.21721146222E+04  0.25500000920E-02 0. -1.
    10030    2    1    2    0    0  0.00000000000E+00  0.00000000000E+00 -0.49489127611E+03  0.38493379682E+04  0.38173924895E+04 0.  0.
        1    1    3    3  502    0 -0.45471483226E+02  0.15844989883E+03 -0.21649231380E+04  0.21711900469E+04  0.50400001928E-02 0. -1.
       -1    1    3    3    0  502  0.45471483226E+02 -0.15844989883E+03  0.16700318619E+04  0.16781479214E+04  0.50400001928E-02 0.  1.
</event>
<event>
 5   0  0.2473224E-07  0.3901472E+04  0.7818609E-02  0.8024723E-01
       -2   -1    0    0    0  501  0.00000000000E+00  0.00000000000E+00  0.20320608602E+04  0.20320608602E+04  0.25500000920E-02 0.  1.
        2   -1    0    0  501    0  0.00000000000E+00  0.00000000000E+00 -0.18726658511E+04  0.18726658511E+04  0.25500000920E-02 0. -1.
    10030    2    1    2    0    0  0.00000000000E+00  0.00000000000E+00  0.15939500905E+03  0.39047267113E+04  0.39014720198E+04 0.  0.
        2    1    3    3  502    0 -0.12423809098E+04  0.46770018741E+03  0.15102664249E+04  0.20107606682E+04  0.25500000920E-02 0.  1.
       -2    1    3    3    0  502  0.12423809098E+04 -0.46770018741E+03 -0.13508714159E+04  0.18939660432E+04  0.25500000920E-02 0. -1.
</event>
<event>
 5   0  0.7675750E-08  0.3828113E+04  0.7818609E-02  0.8040149E-01
       -1   -1    0    0    0  501  0.00000000000E+00  0.00000000000E+00  0.12918933135E+04  0.12918933135E+04  0.50400001928E-02 0.  1.
        1   -1    0    0  501    0  0.00000000000E+00  0.00000000000E+00 -0.28358480743E+04  0.28358480743E+04  0.50400001928E-02 0. -1.
    10030    2    1    2    0    0  0.00000000000E+00  0.00000000000E+00 -0.15439547608E+04  0.41277413878E+04  0.38281134598E+04 0.  0.
        4    1    3    3  502    0 -0.23419282851E+02  0.31932921433E+03 -0.28067658695E+04  0.28249700652E+04  0.12699999809E+01 0. -1.
       -4    1    3    3    0  502  0.23419282851E+02 -0.31932921433E+03  0.12628111087E+04  0.13027713227E+04  0.12699999809E+01 0.  1.
</event>
<event>
 5   0  0.7675750E-08  0.3889484E+04  0.7818609E-02  0.8027220E-01
        1   -1    0    0  501    0  0.00000000000E+00  0.00000000000E+00  0.21038230492E+04  0.21038230492E+04  0.50400001928E-02 0. -1.
       -1   -1    0    0    0  501  0.00000000000E+00  0.00000000000E+00 -0.17976901730E+04  0.17976901730E+04  0.50400001928E-02 0.  1.
    10030    2    1    2    0    0  0.00000000000E+00  0.00000000000E+00  0.30613287612E+03  0.39015132222E+04  0.38894842955E+04 0.  0.
        4    1    3    3  502    0 -0.55627984676E+03 -0.17802567633E+04  0.70545910937E+03  0.19941001928E+04  0.12699999809E+01 0.  1.
       -4    1    3    3    0  502  0.55627984676E+03  0.17802567633E+04 -0.39932623325E+03  0.19074130294E+04  0.12699999809E+01 0. -1.
</event>
<event>
 5   0  0.7675750E-08  0.3763902E+04  0.7818609E-02  0.8053946E-01
       -1   -1    0    0    0  501  0.00000000000E+00  0.00000000000E+00  0.21295730351E+04  0.21295730351E+04  0.50400001928E-02 0.  1.
        1   -1    0    0  501    0  0.00000000000E+00  0.00000000000E+00 -0.16631219508E+04  0.16631219508E+04  0.50400001928E-02 0. -1.
    10030    2    1    2    0    0  0.00000000000E+00  0.00000000000E+00  0.46645108429E+03  0.37926949859E+04  0.37639020500E+04 0.  0.
        1    1    3    3  502    0 -0.13707068465E+04  0.38312529691E+03 -0.10075008536E+04  0.17437546336E+04  0.50400001928E-02 0. -1.
       -1    1    3    3    0  502  0.13707068465E+04 -0.38312529691E+03  0.14739519379E+04  0.20489403523E+04  0.50400001928E-02 0.  1.
</event>
<event>
 5   0  0.7675750E-08  0.3827011E+04  0.7818609E-02  0.8040383E-01
       -1   -1    0    0    0  501  0.00000000000E+00  0.00000000000E+00  0.17948363711E+04  0.17948363711E+04  0.50400001928E-02 0. -1.
        1   -1    0    0  501    0  0.00000000000E+00  0.00000000000E+00 -0.20400205747E+04  0.20400205747E+04  0.50400001928E-02 0.  1.
    10030    2    1    2    0    0  0.00000000000E+00  0.00000000000E+00 -0.24518420356E+03  0.38348569458E+04  0.38270109095E+04 0.  0.
        2    1    3    3  502    0  0.12021233373E+04  0.58662351994E+03  0.12485243417E+04  0.18297652046E+04  0.25500000920E-02 0. -1.
       -2    1    3    3    0  502 -0.12021233373E+04 -0.58662351994E+03 -0.14937085453E+04  0.20050917412E+04  0.25500000920E-02 0.  1.
</event>
<event>
 5   0  0.7675750E-08  0.3922021E+04  0.7818609E-02  0.8020465E-01
       -1   -1    0    0    0  501  0.00000000000E+00  0.00000000000E+00  0.13479755463E+04  0.13479755463E+04  0.50400001928E-02 0.  1.
        1   -1    0    0  501    0  0.00000000000E+00  0.00000000000E+00 -0.28528423750E+04  0.28528423750E+04  0.50400001928E-02 0. -1.
    10030    2    1    2    0    0  0.00000000000E+00  0.00000000000E+00 -0.15048668287E+04  0.42008179213E+04  0.39220207847E+04 0.  0.
        2    1    3    3  502    0 -0.20898697835E+03 -0.76439546895E+03  0.11688393812E+04  0.14121478284E+04  0.25500000920E-02 0.  1.
       -2    1    3    3    0  502  0.20898697835E+03  0.76439546895E+03 -0.26737062099E+04  0.27886700929E+04  0.25500000920E-02 0. -1.
</event>
<event>
 5   0  0.2395572E-07  0.3865370E+04  0.7818609E-02  0.8032270E-01
       -2   -1    0    0    0  501  0.00000000000E+00  0.00000000000E+00  0.22027955899E+04  0.22027955899E+04  0.25500000920E-02 0. -1.
        2   -1    0    0  501    0  0.00000000000E+00  0.00000000000E+00 -0.16956958024E+04  0.16956958024E+04  0.25500000920E-02 0.  1.
    10030    2    1    2    0    0  0.00000000000E+00  0.00000000000E+00  0.50709978748E+03  0.38984913923E+04  0.38653699618E+04 0.  0.
        3    1    3    3  502    0  0.26444400053E+03 -0.59080410855E+03 -0.15831230781E+04  0.17103388012E+04  0.10100000352E+00 0.  1.
       -3    1    3    3    0  502 -0.26444400053E+03  0.59080410855E+03  0.20902228656E+04  0.21881525911E+04  0.10100000352E+00 0. -1.
</event>
<event>
 5   0  0.2446281E-07  0.3895877E+04  0.7818609E-02  0.8025887E-01
        2   -1    0    0  501    0  0.00000000000E+00  0.00000000000E+00  0.21546334503E+04  0.21546334503E+04  0.25500000920E-02 0.  1.
       -2   -1    0    0    0  501  0.00000000000E+00  0.00000000000E+00 -0.17610717348E+04  0.17610717348E+04  0.25500000920E-02 0. -1.
    10030    2    1    2    0    0  0.00000000000E+00  0.00000000000E+00  0.39356171553E+03  0.39157051851E+04  0.38958768297E+04 0.  0.
        1    1    3    3  502    0 -0.55224257534E+03  0.11450886299E+04 -0.12866252017E+04  0.18087576515E+04  0.50400001928E-02 0. -1.
       -1    1    3    3    0  502  0.55224257534E+03 -0.11450886299E+04  0.16801869172E+04  0.21069475336E+04  0.50400001928E-02 0.  1.
</event>
<event>
 5   0  0.2395572E-07  0.3912195E+04  0.7818609E-02  0.8022498E-01
        2   -1    0    0  501    0  0.00000000000E+00  0.00000000000E+00  0.26339629635E+04  0.26339629635E+04  0.25500000920E-02 0. -1.
       -2   -1    0    0    0  501  0.00000000000E+00  0.00000000000E+00 -0.14526844705E+04  0.14526844705E+04  0.25500000920E-02 0.  1.
    10030    2    1    2    0    0  0.00000000000E+00  0.00000000000E+00  0.11812784930E+04  0.40866474339E+04  0.39121948279E+04 0.  0.
        3    1    3    3  502    0 -0.21904043954E+03 -0.14893065138E+04 -0.71418306502E+03  0.16661542746E+04  0.10100000352E+00 0.  1.
       -3    1    3    3    0  502  0.21904043954E+03  0.14893065138E+04  0.18954615580E+04  0.24204931593E+04  0.10100000352E+00 0. -1.
</event>
<event>
 5   0  0.7675750E-08  0.3906854E+04  0.7818609E-02  0.8023605E-01
        1   -1    0    0  501    0  0.00000000000E+00  0.00000000000E+00  0.13307550124E+04  0.13307550124E+04  0.50400001928E-02 0.  1.
       -1   -1    0    0    0  501  0.00000000000E+00  0.00000000000E+00 -0.28674530205E+04  0.28674530205E+04  0.50400001928E-02 0. -1.
    10030    2    1    2    0    0  0.00000000000E+00  0.00000000000E+00 -0.15366980081E+04  0.41982080329E+04  0.39068542229E+04 0.  0.
        1    1    3    3  502    0  0.94170367727E+03  0.17373792828E+02 -0.26073390082E+04  0.27722417586E+04  0.50400001928E-02 0. -1.
       -1    1    3    3    0  502 -0.94170367727E+03 -0.17373792828E+02  0.10706410000E+04  0.14259662743E+04  0.50400001928E-02 0.  1.
</event>
<event>
 5   0  0.2473224E-07  0.3723955E+04  0.7818609E-02  0.8062674E-01
        2   -1    0    0  501    0  0.00000000000E+00  0.00000000000E+00  0.12936267801E+04  0.12936267801E+04  0.25500000920E-02 0. -1.
       -2   -1    0    0    0  501  0.00000000000E+00  0.00000000000E+00 -0.26800310310E+04  0.26800310310E+04  0.25500000920E-02 0.  1.
    10030    2    1    2    0    0  0.00000000000E+00  0.00000000000E+00 -0.13864042509E+04  0.39736578111E+04  0.37239548403E+04 0.  0.
        2    1    3    3  502    0  0.88406158394E+03 -0.15794800714E+04 -0.22730450500E+03  0.18242778073E+04  0.25500000920E-02 0. -1.
       -2    1    3    3    0  502 -0.88406158394E+03  0.15794800714E+04 -0.11590997459E+04  0.21493800039E+04  0.25500000920E-02 0.  1.
</event>
<event>
 5   0  0.2473224E-07  0.3931786E+04  0.7818609E-02  0.8018451E-01
        2   -1    0    0  501    0  0.00000000000E+00  0.00000000000E+00  0.20161926515E+04  0.20161926515E+04  0.25500000920E-02 0.  1.
       -2   -1    0    0    0  501  0.00000000000E+00  0.00000000000E+00 -0.19168481314E+04  0.19168481314E+04  0.25500000920E-02 0. -1.
    10030    2    1    2    0    0  0.00000000000E+00  0.00000000000E+00  0.99344520073E+02  0.39330407829E+04  0.39317859130E+04 0.  0.
        2    1    3    3  502    0 -0.11347838702E+04 -0.10740078034E+04 -0.11438170453E+04  0.19363740927E+04  0.25500000920E-02 0. -1.
       -2    1    3    3    0  502  0.11347838702E+04  0.10740078034E+04  0.12431615654E+04  0.19966666901E+04  0.25500000920E-02 0.  1.
</event>
<event>
 5   0  0.7675750E-08  0.3947367E+04  0.7818609E-02  0.8015249E-01
       -1   -1    0    0    0  501  0.00000000000E+00  0.00000000000E+00  0.23922035896E+04  0.23922035896E+04  0.50400001928E-02 0.  1.
        1   -1    0    0  501    0  0.00000000000E+00  0.00000000000E+00 -0.16283844193E+04  0.16283844193E+04  0.50400001928E-02 0. -1.
    10030    2    1    2    0    0  0.00000000000E+00  0.00000000000E+00  0.76381917028E+03  0.40205880089E+04  0.39473672508E+04 0.  0.
        1    1    3    3  502    0  0.57107935342E+03 -0.94307824004E+03  0.20493151294E+04  0.23270626753E+04  0.50400001928E-02 0.  1.
       -1    1    3    3    0  502 -0.57107935342E+03  0.94307824004E+03 -0.12854959592E+04  0.16935253337E+04  0.50400001928E-02 0. -1.
</event>
<event>
 5   0  0.7675750E-08  0.3889770E+04  0.7818609E-02  0.8027160E-01
        1   -1    0    0  501    0  0.00000000000E+00  0.00000000000E+00  0.17016633939E+04  0.17016633939E+04  0.50400001928E-02 0. -1.
       -1   -1    0    0    0  501  0.00000000000E+00  0.00000000000E+00 -0.22228703568E+04  0.22228703569E+04  0.50400001928E-02 0.  1.
    10030    2    1    2    0    0  0.00000000000E+00  0.00000000000E+00 -0.52120696294E+03  0.39245337508E+04  0.38897697185E+04 0.  0.
        4    1    3    3  502    0  0.46754603291E+03 -0.44518520467E+03  0.15904009107E+04  0.17164398705E+04  0.12699999809E+01 0. -1.
       -4    1    3    3    0  502 -0.46754603291E+03  0.44518520467E+03 -0.21116078736E+04  0.22080938803E+04  0.12699999809E+01 0.  1.
</event>
<event>
 5   0  0.7675750E-08  0.3860946E+04  0.7818609E-02  0.8033201E-01
        3   -1    0    0  501    0  0.00000000000E+00  0.00000000000E+00  0.28262134076E+04  0.28262134094E+04  0.10100000352E+00 0.  1.
       -3   -1    0    0    0  501  0.00000000000E+00  0.00000000000E+00 -0.13186283988E+04  0.13186284026E+04  0.10100000352E+00 0. -1.
    10030    2    1    2    0    0  0.00000000000E+00  0.00000000000E+00  0.15075850088E+04  0.41448418121E+04  0.38609456210E+04 0.  0.
        2    1    3    3  502    0 -0.62035115574E+02 -0.15717780868E+04  0.19551829356E+04  0.25093973422E+04  0.25500000920E-02 0.  1.
       -2    1    3    3    0  502  0.62035115574E+02  0.15717780868E+04 -0.44759792673E+03  0.16354444698E+04  0.25500000920E-02 0. -1.
</event>
<event>
 5   0  0.2384787E-07  0.3776606E+04  0.7818609E-02  0.8051194E-01
       -2   -1    0    0    0  501  0.00000000000E+00  0.00000000000E+00  0.19618064334E+04  0.19618064334E+04  0.25500000920E-02 0.  1.
        2   -1    0    0  501    0  0.00000000000E+00  0.00000000000E+00 -0.18175532654E+04  0.18175532654E+04  0.25500000920E-02 0. -1.
    10030    2    1    2    0    0  0.00000000000E+00  0.00000000000E+00  0.14425316797E+03  0.37793596988E+04  0.37766057189E+04 0.  0.
        4    1    3    3  502    0  0.65326345720E+03  0.14678516886E+04 -0.92073820247E+03  0.18517835118E+04  0.12699999809E+01 0. -1.
       -4    1    3    3    0  502 -0.65326345720E+03 -0.14678516886E+04  0.10649913704E+04  0.19275761869E+04  0.12699999809E+01 0.  1.
</event>
<event>
 5   0  0.7675750E-08  0.3897415E+04  0.7818609E-02  0.8025567E-01
       -1   -1    0    0    0  501  0.00000000000E+00  0.00000000000E+00  0.16736784590E+04  0.16736784590E+04  0.50400001928E-02 0.  1.
        1   -1    0    0  501    0  0.00000000000E+00  0.00000000000E+00 -0.22689308568E+04  0.22689308568E+04  0.50400001928E-02 0. -1.
    10030    2    1    2    0    0  0.00000000000E+00  0.00000000000E+00 -0.59525239775E+03  0.39426093158E+04  0.38974148868E+04 0.  0.
        5    1    3    3  502    0  0.31544864770E+03  0.14039849484E+04 -0.16269253269E+04  0.21720013108E+04  0.46999998093E+01 0. -1.
       -5    1    3    3    0  502 -0.31544864770E+03 -0.14039849484E+04  0.10316729292E+04  0.17706080050E+04  0.46999998093E+01 0.  1.
</event>
<event>
 5   0  0.2446281E-07  0.3906878E+04  0.7818609E-02  0.8023600E-01
       -2   -1    0    0    0  501  0.00000000000E+00  0.00000000000E+00  0.23745295520E+04  0.23745295520E+04  0.25500000920E-02 0.  1.
        2   -1    0    0  501    0  0.00000000000E+00  0.00000000000E+00 -0.16070232872E+04  0.16070232872E+04  0.25500000920E-02 0. -1.
    10030    2    1    2    0    0  0.00000000000E+00  0.00000000000E+00  0.76750626471E+03  0.39815528392E+04  0.39068781840E+04 0.  0.
        1    1    3    3  502    0  0.15242566513E+04  0.11998078100E+04  0.14907543281E+03  0.19455386413E+04  0.50400001928E-02 0. -1.
       -1    1    3    3    0  502 -0.15242566513E+04 -0.11998078100E+04  0.61843083191E+03  0.20360141979E+04  0.50400001928E-02 0.  1.
</event>
<event>
 5   0  0.7675750E-08  0.3954223E+04  0.7818609E-02  0.8013845E-01
        1   -1    0    0  501    0  0.00000000000E+00  0.00000000000E+00  0.24277542663E+04  0.24277542663E+04  0.50400001928E-02 0.  1.
       -1   -1    0    0    0  501  0.00000000000E+00  0.00000000000E+00 -0.16101174059E+04  0.16101174059E+04  0.50400001928E-02 0. -1.
    10030    2    1    2    0    0  0.00000000000E+00  0.00000000000E+00  0.81763686043E+03  0.40378716722E+04  0.39542227562E+04 0.  0.
        5    1    3    3  502    0 -0.55662792437E+03 -0.68246917888E+03 -0.13987540924E+04  0.16529167938E+04  0.46999998093E+01 0. -1.
       -5    1    3    3    0  502  0.55662792437E+03  0.68246917888E+03  0.22163909528E+04  0.23849548784E+04  0.46999998093E+01 0.  1.
</event>
<event>
 5   0  0.7731706E-08  0.3869259E+04  0.7818609E-02  0.8031453E-01
        1   -1    0    0  501    0  0.00000000000E+00  0.00000000000E+00  0.20922285911E+04  0.20922285911E+04  0.50400001928E-02 0.  1.
       -1   -1    0    0    0  501  0.00000000000E+00  0.00000000000E+00 -0.17889017139E+04  0.17889017139E+04  0.50400001928E-02 0. -1.
    10030    2    1    2    0    0  0.00000000000E+00  0.00000000000E+00  0.30332687715E+03  0.38811303050E+04  0.38692590053E+04 0.  0.
        3    1    3    3  502    0  0.11957040380E+04  0.69181242636E+02 -0.13723060637E+04  0.18214604398E+04  0.10100000352E+00 0. -1.
       -3    1    3    3    0  502 -0.11957040380E+04 -0.69181242636E+02  0.16756329409E+04  0.20596698652E+04  0.10100000352E+00 0.  1.
</event>
<event>
 5   0  0.7731706E-08  0.3904578E+04  0.7818609E-02  0.8024078E-01
       -1   -1    0    0    0  501  0.00000000000E+00  0.00000000000E+00  0.22995328286E+04  0.22995328286E+04  0.50400001928E-02 0. -1.
        1   -1    0    0  501    0  0.00000000000E+00  0.00000000000E+00 -0.16574810818E+04  0.16574810818E+04  0.50400001928E-02 0.  1.
    10030    2    1    2    0    0  0.00000000000E+00  0.00000000000E+00  0.64205174684E+03  0.39570139104E+04  0.39045779082E+04 0.  0.
        3    1    3    3  502    0 -0.19133394423E+03  0.13219307454E+04 -0.11219361876E+04  0.17443767922E+04  0.10100000352E+00 0.  1.
       -3    1    3    3    0  502  0.19133394423E+03 -0.13219307454E+04  0.17639879345E+04  0.22126371182E+04  0.10100000352E+00 0. -1.
</event>
<event>
 5   0  0.7675750E-08  0.3928499E+04  0.7818609E-02  0.8019128E-01
        3   -1    0    0  501    0  0.00000000000E+00  0.00000000000E+00  0.24966016042E+04  0.24966016062E+04  0.10100000352E+00 0.  1.
       -3   -1    0    0    0  501  0.00000000000E+00  0.00000000000E+00 -0.15454109227E+04  0.15454109260E+04  0.10100000352E+00 0. -1.
    10030    2    1    2    0    0  0.00000000000E+00  0.00000000000E+00  0.95119068151E+03  0.40420125322E+04  0.39284986442E+04 0.  0.
        1    1    3    3  502    0 -0.65045508585E+03  0.15160150328E+04  0.15726512057E+04  0.22791720455E+04  0.50400001928E-02 0.  1.
       -1    1    3    3    0  502  0.65045508585E+03 -0.15160150328E+04 -0.62146052416E+03  0.17628404867E+04  0.50400001928E-02 0. -1.
</event>
<event>
 5   0  0.2384787E-07  0.3764297E+04  0.7818609E-02  0.8053860E-01
        2   -1    0    0  501    0  0.00000000000E+00  0.00000000000E+00  0.24998766086E+04  0.24998766086E+04  0.25500000920E-02 0.  1.
       -2   -1    0    0    0  501  0.00000000000E+00  0.00000000000E+00 -0.14170630198E+04  0.14170630198E+04  0.25500000920E-02 0. -1.
    10030    2    1    2    0    0  0.00000000000E+00  0.00000000000E+00  0.10828135889E+04  0.39169396284E+04  0.37642968512E+04 0.  0.
        4    1    3    3  502    0  0.15007021698E+04 -0.11304689938E+04  0.65734264295E+03  0.19905195581E+04  0.12699999809E+01 0.  1.
       -4    1    3    3    0  502 -0.15007021698E+04  0.11304689938E+04  0.42547094591E+03  0.19264200702E+04  0.12699999809E+01 0. -1.
</event>
<event>
 5   0  0.2395572E-07  0.3859987E+04  0.7818609E-02  0.8033403E-01
        2   -1    0    0  501    0  0.00000000000E+00  0.00000000000E+00  0.26213497318E+04  0.26213497318E+04  0.25500000920E-02 0.  1.
       -2   -1    0    0    0  501  0.00000000000E+00  0.00000000000E+00 -0.14209762354E+04  0.14209762354E+04  0.25500000920E-02 0. -1.
    10030    2    1    2    0    0  0.00000000000E+00  0.00000000000E+00  0.12003734964E+04  0.40423259672E+04  0.38599873956E+04 0.  0.
        3    1    3    3  502    0  0.83642260628E+02 -0.16308787685E+04 -0.47705131700E+03  0.17012758608E+04  0.10100000352E+00 0.  1.
       -3    1    3    3    0  502 -0.83642260628E+02  0.16308787685E+04  0.16774248134E+04  0.23410501063E+04  0.10100000352E+00 0. -1.
</event>
<event>
 5   0  0.2473224E-07  0.3911229E+04  0.7818609E-02  0.8022698E-01
       -2   -1    0    0    0  501  0.00000000000E+00  0.00000000000E+00  0.15668350193E+04  0.15668350193E+04  0.25500000920E-02 0.  1.
        2   -1    0    0  501    0  0.00000000000E+00  0.00000000000E+00 -0.24408625863E+04  0.24408625863E+04  0.25500000920E-02 0. -1.
    10030    2    1    2    0    0  0.00000000000E+00  0.00000000000E+00 -0.87402756697E+03  0.40076976056E+04  0.39112294627E+04 0.  0.
        2    1    3    3  502    0 -0.15749305435E+04  0.10993893415E+04 -0.81400929964E+03  0.20860667010E+04  0.25500000920E-02 0. -1.
       -2    1    3    3    0  502  0.15749305435E+04 -0.10993893415E+04 -0.60018267328E+02  0.19216309046E+04  0.25500000920E-02 0.  1.
</event>
<event>
 5   0  0.2446281E-07  0.3758817E+04  0.7818609E-02  0.8055051E-01
       -2   -1    0    0    0  501  0.00000000000E+00  0.00000000000E+00  0.15399484733E+04  0.15399484733E+04  0.25500000920E-02 0.  1.
        2   -1    0    0  501    0  0.00000000000E+00  0.00000000000E+00 -0.22936982899E+04  0.22936982899E+04  0.25500000920E-02 0. -1.
    10030    2    1    2    0    0  0.00000000000E+00  0.00000000000E+00 -0.75374981662E+03  0.38336467632E+04  0.37588174628E+04 0.  0.
        1    1    3    3  502    0 -0.10411245181E+04 -0.15199112211E+04 -0.75590036992E+03  0.19913452115E+04  0.50400001928E-02 0.  1.
       -1    1    3    3    0  502  0.10411245181E+04  0.15199112211E+04  0.21505532993E+01  0.18423015516E+04  0.50400001928E-02 0. -1.
</event>
<event>
 5   0  0.2486268E-07  0.3791352E+04  0.7818609E-02  0.8048013E-01
       -2   -1    0    0    0  501  0.00000000000E+00  0.00000000000E+00  0.13731321516E+04  0.13731321516E+04  0.25500000920E-02 0. -1.
        2   -1    0    0  501    0  0.00000000000E+00  0.00000000000E+00 -0.26170731223E+04  0.26170731223E+04  0.25500000920E-02 0.  1.
    10030    2    1    2    0    0  0.00000000000E+00  0.00000000000E+00 -0.12439409707E+04  0.39902052739E+04  0.37913518683E+04 0.  0.
        5    1    3    3  502    0 -0.96331242592E+03 -0.17116921436E+02  0.10962318486E+04  0.14594554378E+04  0.46999998093E+01 0. -1.
       -5    1    3    3    0  502  0.96331242592E+03  0.17116921436E+02 -0.23401728193E+04  0.25307498361E+04  0.46999998093E+01 0.  1.
</event>
<event>
 5   0  0.2395572E-07  0.4004381E+04  0.7818609E-02  0.8003663E-01
        2   -1    0    0  501    0  0.00000000000E+00  0.00000000000E+00  0.32887858707E+04  0.32887858707E+04  0.25500000920E-02 0. -1.
       -2   -1    0    0    0  501  0.00000000000E+00  0.00000000000E+00 -0.12189201954E+04  0.12189201954E+04  0.25500000920E-02 0.  1.
    10030    2    1    2    0    0  0.00000000000E+00  0.00000000000E+00  0.20698656753E+04  0.45077060661E+04  0.40043813585E+04 0.  0.
        3    1    3    3  502    0 -0.12424315957E+03 -0.17398203520E+04 -0.71662398706E+02  0.17457224090E+04  0.10100000352E+00 0. -1.
       -3    1    3    3    0  502  0.12424315957E+03  0.17398203520E+04  0.21415280740E+04  0.27619836571E+04  0.10100000352E+00 0.  1.
</event>
<event>
 5   0  0.7731706E-08  0.3952625E+04  0.7818609E-02  0.8014172E-01
        1   -1    0    0  501    0  0.00000000000E+00  0.00000000000E+00  0.14794441069E+04  0.14794441070E+04  0.50400001928E-02 0.  1.
       -1   -1    0    0    0  501  0.00000000000E+00  0.00000000000E+00 -0.26400531127E+04  0.26400531127E+04  0.50400001928E-02 0. -1.
    10030    2    1    2    0    0  0.00000000000E+00  0.00000000000E+00 -0.11606090058E+04  0.41194972197E+04  0.39526249605E+04 0.  0.
        3    1    3    3  502    0  0.11123330250E+04  0.13103097766E+04 -0.15969958793E+04  0.23461867611E+04  0.10100000352E+00 0. -1.
       -3    1    3    3    0  502 -0.11123330250E+04 -0.13103097766E+04  0.43638687348E+03  0.17733104586E+04  0.10100000352E+00 0.  1.
</event>
<event>
 5   0  0.7731706E-08  0.3902570E+04  0.7818609E-02  0.8024495E-01
        1   -1    0    0  501    0  0.00000000000E+00  0.00000000000E+00  0.22897529190E+04  0.22897529190E+04  0.50400001928E-02 0. -1.
       -1   -1    0    0    0  501  0.00000000000E+00  0.00000000000E+00 -0.16628492044E+04  0.16628492044E+04  0.50400001928E-02 0.  1.
    10030    2    1    2    0    0  0.00000000000E+00  0.00000000000E+00  0.62690371456E+03  0.39526021234E+04  0.39025703426E+04 0.  0.
        3    1    3    3  502    0  0.17759564455E+04  0.78739259349E+03  0.12806033412E+03  0.19468969803E+04  0.10100000352E+00 0. -1.
       -3    1    3    3    0  502 -0.17759564455E+04 -0.78739259349E+03  0.49884338043E+03  0.20057051431E+04  0.10100000352E+00 0.  1.
</event>
<event>
 5   0  0.7675750E-08  0.3882963E+04  0.7818609E-02  0.8028582E-01
        1   -1    0    0  501    0  0.00000000000E+00  0.00000000000E+00  0.20096411574E+04  0.20096411574E+04  0.50400001928E-02 0.  1.
       -1   -1    0    0    0  501  0.00000000000E+00  0.00000000000E+00 -0.18756336566E+04  0.18756336566E+04  0.50400001928E-02 0. -1.
    10030    2    1    2    0    0  0.00000000000E+00  0.00000000000E+00  0.13400750075E+03  0.38852748140E+04  0.38829630915E+04 0.  0.
        5    1    3    3  502    0  0.13194694701E+04 -0.83195763190E+03  0.12236224329E+04  0.19825304870E+04  0.46999998093E+01 0.  1.
       -5    1    3    3    0  502 -0.13194694701E+04  0.83195763190E+03 -0.10896149321E+04  0.19027443270E+04  0.46999998093E+01 0. -1.
</event>
<event>
 5   0  0.7731706E-08  0.4043447E+04  0.7818609E-02  0.7995839E-01
        1   -1    0    0  501    0  0.00000000000E+00  0.00000000000E+00  0.16711479982E+04  0.16711479982E+04  0.50400001928E-02 0.  1.
       -1   -1    0    0    0  501  0.00000000000E+00  0.00000000000E+00 -0.24458428947E+04  0.24458428947E+04  0.50400001928E-02 0. -1.
    10030    2    1    2    0    0  0.00000000000E+00  0.00000000000E+00 -0.77469489657E+03  0.41169908929E+04  0.40434467759E+04 0.  0.
        3    1    3    3  502    0  0.81320044074E+03  0.18508800006E+03  0.14878375533E+04  0.17056415567E+04  0.10100000352E+00 0.  1.
       -3    1    3    3    0  502 -0.81320044074E+03 -0.18508800006E+03 -0.22625324499E+04  0.24113493363E+04  0.10100000352E+00 0. -1.
</event>
<event>
 5   0  0.2473224E-07  0.3946722E+04  0.7818609E-02  0.8015381E-01
       -2   -1    0    0    0  501  0.00000000000E+00  0.00000000000E+00  0.16702269506E+04  0.16702269506E+04  0.25500000920E-02 0. -1.
        2   -1    0    0  501    0  0.00000000000E+00  0.00000000000E+00 -0.23315116272E+04  0.23315116272E+04  0.25500000920E-02 0.  1.
    10030    2    1    2    0    0  0.00000000000E+00  0.00000000000E+00 -0.66128467658E+03  0.40017385777E+04  0.39467219589E+04 0.  0.
        2    1    3    3  502    0 -0.28595586609E+03  0.42981282213E+03  0.16005454057E+04  0.16817417802E+04  0.25500000920E-02 0. -1.
       -2    1    3    3    0  502  0.28595586609E+03 -0.42981282213E+03 -0.22618300823E+04  0.23199967976E+04  0.25500000920E-02 0.  1.
</event>
<event>
 5   0  0.2395572E-07  0.3992450E+04  0.7818609E-02  0.8006071E-01
       -2   -1    0    0    0  501  0.00000000000E+00  0.00000000000E+00  0.28546448987E+04  0.28546448987E+04  0.25500000920E-02 0.  1.
        2   -1    0    0  501    0  0.00000000000E+00  0.00000000000E+00 -0.13959407565E+04  0.13959407565E+04  0.25500000920E-02 0. -1.
    10030    2    1    2    0    0  0.00000000000E+00  0.00000000000E+00  0.14587041422E+04  0.42505856552E+04  0.39924504552E+04 0.  0.
        3    1    3    3  502    0 -0.16577362593E+04  0.83585774461E+03  0.15103825105E+04  0.23933246777E+04  0.10100000352E+00 0.  1.
       -3    1    3    3    0  502  0.16577362593E+04 -0.83585774461E+03 -0.51678368290E+02  0.18572609775E+04  0.10100000352E+00 0. -1.
</event>
<event>
 5   0  0.7731706E-08  0.3926883E+04  0.7818609E-02  0.8019461E-01
       -1   -1    0    0    0  501  0.00000000000E+00  0.00000000000E+00  0.30418460432E+04  0.30418460432E+04  0.50400001928E-02 0. -1.
        1   -1    0    0  501    0  0.00000000000E+00  0.00000000000E+00 -0.12673563401E+04  0.12673563401E+04  0.50400001928E-02 0.  1.
    10030    2    1    2    0    0  0.00000000000E+00  0.00000000000E+00  0.17744897031E+04  0.43092023833E+04  0.39268831754E+04 0.  0.
        3    1    3    3  502    0  0.16270526878E+04 -0.95965502759E+03  0.14749877868E+04  0.23966282987E+04  0.10100000352E+00 0. -1.
       -3    1    3    3    0  502 -0.16270526878E+04  0.95965502759E+03  0.29950191632E+03  0.19125740846E+04  0.10100000352E+00 0.  1.
</event>
<event>
 5   0  0.7675750E-08  0.3889522E+04  0.7818609E-02  0.8027212E-01
       -1   -1    0    0    0  501  0.00000000000E+00  0.00000000000E+00  0.15274838158E+04  0.15274838159E+04  0.50400001928E-02 0.  1.
        1   -1    0    0  501    0  0.00000000000E+00  0.00000000000E+00 -0.24760301417E+04  0.24760301417E+04  0.50400001928E-02 0. -1.
    10030    2    1    2    0    0  0.00000000000E+00  0.00000000000E+00 -0.94854632589E+03  0.40035139576E+04  0.38895223198E+04 0.  0.
        2    1    3    3  502    0  0.52260793763E+03 -0.14437299594E+02  0.14537952300E+04  0.15449427377E+04  0.25500000920E-02 0.  1.
       -2    1    3    3    0  502 -0.52260793763E+03  0.14437299594E+02 -0.24023415559E+04  0.24585712199E+04  0.25500000920E-02 0. -1.
</event>
<event>
 5   0  0.2473224E-07  0.3898165E+04  0.7818609E-02  0.8025411E-01
        2   -1    0    0  501    0  0.00000000000E+00  0.00000000000E+00  0.24419633480E+04  0.24419633480E+04  0.25500000920E-02 0. -1.
       -2   -1    0    0    0  501  0.00000000000E+00  0.00000000000E+00 -0.15556833832E+04  0.15556833832E+04  0.25500000920E-02 0.  1.
    10030    2    1    2    0    0  0.00000000000E+00  0.00000000000E+00  0.88627996487E+03  0.39976467312E+04  0.38981645952E+04 0.  0.
        2    1    3    3  502    0  0.16279142767E+04  0.71223347272E+03  0.12645429031E+04  0.21809287392E+04  0.25500000920E-02 0. -1.
       -2    1    3    3    0  502 -0.16279142767E+04 -0.71223347272E+03 -0.37826293827E+03  0.18167179920E+04  0.25500000920E-02 0.  1.
</event>
<event>
 5   0  0.7675750E-08  0.3850422E+04  0.7818609E-02  0.8035420E-01
        1   -1    0    0  501    0  0.00000000000E+00  0.00000000000E+00  0.16337650647E+04  0.16337650647E+04  0.50400001928E-02 0.  1.
       -1   -1    0    0    0  501  0.00000000000E+00  0.00000000000E+00 -0.22686476361E+04  0.22686476361E+04  0.50400001928E-02 0. -1.
    10030    2    1    2    0    0  0.00000000000E+00  0.00000000000E+00 -0.63488257142E+03  0.39024127008E+04  0.38504219260E+04 0.  0.
        4    1    3    3  502    0 -0.18782682987E+04  0.41965572762E+03 -0.36743180768E+03  0.19593392963E+04  0.12699999809E+01 0.  1.
       -4    1    3    3    0  502  0.18782682987E+04 -0.41965572762E+03 -0.26745076374E+03  0.19430734046E+04  0.12699999809E+01 0. -1.
</event>
<event>
 5   0  0.2446281E-07  0.3168580E+04  0.7818609E-02  0.8197165E-01
       -2   -1    0    0    0  501  0.00000000000E+00  0.00000000000E+00  0.17860301882E+04  0.17860301882E+04  0.25500000920E-02 0. -1.
        2   -1    0    0  501    0  0.00000000000E+00  0.00000000000E+00 -0.14053373615E+04  0.14053373615E+04  0.25500000920E-02 0.  1.
    10030    2    1    2    0    0  0.00000000000E+00  0.00000000000E+00  0.38069282672E+03  0.31913675498E+04  0.31685800936E+04 0.  0.
        1    1    3    3  502    0 -0.55955069894E+03  0.43475951046E+03  0.16175274953E+04  0.17659297876E+04  0.50400001928E-02 0. -1.
       -1    1    3    3    0  502  0.55955069894E+03 -0.43475951046E+03 -0.12368346685E+04  0.14254377622E+04  0.50400001928E-02 0.  1.
</event>
<event>
 5   0  0.7675750E-08  0.3898738E+04  0.7818609E-02  0.8025292E-01
       -1   -1    0    0    0  501  0.00000000000E+00  0.00000000000E+00  0.14409513498E+04  0.14409513498E+04  0.50400001928E-02 0.  1.
        1   -1    0    0  501    0  0.00000000000E+00  0.00000000000E+00 -0.26371745600E+04  0.26371745600E+04  0.50400001928E-02 0. -1.
    10030    2    1    2    0    0  0.00000000000E+00  0.00000000000E+00 -0.11962232103E+04  0.40781259098E+04  0.38987383815E+04 0.  0.
        4    1    3    3  502    0 -0.31656518043E+03 -0.15528204072E+04 -0.17854956302E+04  0.23873543911E+04  0.12699999809E+01 0.  1.
       -4    1    3    3    0  502  0.31656518043E+03  0.15528204072E+04  0.58927241989E+03  0.16907715187E+04  0.12699999809E+01 0. -1.
</event>
<event>
 5   0  0.7731706E-08  0.4032520E+04  0.7818609E-02  0.7998018E-01
        1   -1    0    0  501    0  0.00000000000E+00  0.00000000000E+00  0.17265028979E+04  0.17265028979E+04  0.50400001928E-02 0.  1.
       -1   -1    0    0    0  501  0.00000000000E+00  0.00000000000E+00 -0.23546463784E+04  0.23546463784E+04  0.50400001928E-02 0. -1.
    10030    2    1    2    0    0  0.00000000000E+00  0.00000000000E+00 -0.62814348055E+03  0.40811492763E+04  0.40325197065E+04 0.  0.
        3    1    3    3  502    0 -0.14840730632E+04  0.64053968054E+01  0.10672279647E+04  0.18279741314E+04  0.10100000352E+00 0.  1.
       -3    1    3    3    0  502  0.14840730632E+04 -0.64053968054E+01 -0.16953714453E+04  0.22531751449E+04  0.10100000352E+00 0. -1.
</event>
<event>
 5   0  0.7675750E-08  0.3934305E+04  0.7818609E-02  0.8017932E-01
       -1   -1    0    0    0  501  0.00000000000E+00  0.00000000000E+00  0.22194017254E+04  0.22194017254E+04  0.50400001928E-02 0.  1.
        1   -1    0    0  501    0  0.00000000000E+00  0.00000000000E+00 -0.17435733458E+04  0.17435733458E+04  0.50400001928E-02 0. -1.
    10030    2    1    2    0    0  0.00000000000E+00  0.00000000000E+00  0.47582837958E+03  0.39629750712E+04  0.39343053731E+04 0.  0.
        2    1    3    3  502    0  0.25804471248E+03 -0.64398501645E+02  0.22012083505E+04  0.22172172746E+04  0.25500000920E-02 0.  1.
       -2    1    3    3    0  502 -0.25804471248E+03  0.64398501645E+02 -0.17253799709E+04  0.17457577966E+04  0.25500000920E-02 0. -1.
</event>
<event>
 5   0  0.2446281E-07  0.3895071E+04  0.7818609E-02  0.8026055E-01
        2   -1    0    0  501    0  0.00000000000E+00  0.00000000000E+00  0.14899952637E+04  0.14899952637E+04  0.25500000920E-02 0.  1.
       -2   -1    0    0    0  501  0.00000000000E+00  0.00000000000E+00 -0.25455745661E+04  0.25455745661E+04  0.25500000920E-02 0. -1.
    10030    2    1    2    0    0  0.00000000000E+00  0.00000000000E+00 -0.10555793023E+04  0.40355698298E+04  0.38950707552E+04 0.  0.
        1    1    3    3  502    0  0.18509516125E+04  0.58556311593E+03 -0.36732231391E+03  0.19758116603E+04  0.50400001928E-02 0. -1.
       -1    1    3    3    0  502 -0.18509516125E+04 -0.58556311593E+03 -0.68825698842E+03  0.20597581695E+04  0.50400001928E-02 0.  1.
</event>
<event>
 5   0  0.2486268E-07  0.3904481E+04  0.7818609E-02  0.8024098E-01
       -2   -1    0    0    0  501  0.00000000000E+00  0.00000000000E+00  0.18273481993E+04  0.18273481993E+04  0.25500000920E-02 0.  1.
        2   -1    0    0  501    0  0.00000000000E+00  0.00000000000E+00 -0.20856688950E+04  0.20856688950E+04  0.25500000920E-02 0. -1.
    10030    2    1    2    0    0  0.00000000000E+00  0.00000000000E+00 -0.25832069573E+03  0.39130170944E+04  0.39044811690E+04 0.  0.
        5    1    3    3  502    0  0.16626642012E+04  0.78489550876E+03  0.52855788887E+03  0.19130887950E+04  0.46999998093E+01 0.  1.
       -5    1    3    3    0  502 -0.16626642012E+04 -0.78489550876E+03 -0.78687858460E+03  0.19999282994E+04  0.46999998093E+01 0. -1.
</event>
<event>
 5   0  0.7675750E-08  0.3879543E+04  0.7818609E-02  0.8029297E-01
       -1   -1    0    0    0  501  0.00000000000E+00  0.00000000000E+00  0.19820597195E+04  0.19820597195E+04  0.50400001928E-02 0.  1.
        1   -1    0    0  501    0  0.00000000000E+00  0.00000000000E+00 -0.18983854361E+04  0.18983854361E+04  0.50400001928E-02 0. -1.
    10030    2    1    2    0    0  0.00000000000E+00  0.00000000000E+00  0.83674283388E+02  0.38804451556E+04  0.38795429138E+04 0.  0.
        5    1    3    3  502    0 -0.87750666650E+03  0.17275768773E+04  0.13214323292E+03  0.19421698538E+04  0.46999998093E+01 0.  1.
       -5    1    3    3    0  502  0.87750666650E+03 -0.17275768773E+04 -0.48468949532E+02  0.19382753019E+04  0.46999998093E+01 0. -1.
</event>
<event>
 5   0  0.2384787E-07  0.3897008E+04  0.7818609E-02  0.8025652E-01
       -2   -1    0    0    0  501  0.00000000000E+00  0.00000000000E+00  0.16704699577E+04  0.16704699577E+04  0.25500000920E-02 0.  1.
        2   -1    0    0  501    0  0.00000000000E+00  0.00000000000E+00 -0.22728136625E+04  0.22728136625E+04  0.25500000920E-02 0. -1.
    10030    2    1    2    0    0  0.00000000000E+00  0.00000000000E+00 -0.60234370476E+03  0.39432836202E+04  0.38970075405E+04 0.  0.
        4    1    3    3  502    0 -0.18562885693E+04 -0.59041890614E+03 -0.25302965593E+03  0.19642880025E+04  0.12699999809E+01 0. -1.
       -4    1    3    3    0  502  0.18562885693E+04  0.59041890614E+03 -0.34931404883E+03  0.19789956177E+04  0.12699999809E+01 0.  1.
</event>
<event>
 5   0  0.7675750E-08  0.3893444E+04  0.7818609E-02  0.8026394E-01
       -1   -1    0    0    0  501  0.00000000000E+00  0.00000000000E+00  0.13765022669E+04  0.13765022669E+04  0.50400001928E-02 0. -1.
        1   -1    0    0  501    0  0.00000000000E+00  0.00000000000E+00 -0.27531560992E+04  0.27531560992E+04  0.50400001928E-02 0.  1.
    10030    2    1    2    0    0  0.00000000000E+00  0.00000000000E+00 -0.13766538324E+04  0.41296583661E+04  0.38934435204E+04 0.  0.
        1    1    3    3  502    0  0.18204905406E+04 -0.32561537150E+03 -0.13330837432E+04  0.22797639012E+04  0.50400001928E-02 0.  1.
       -1    1    3    3    0  502 -0.18204905406E+04  0.32561537150E+03 -0.43570089197E+02  0.18498944649E+04  0.50400001928E-02 0. -1.
</event>
<event>
 5   0  0.7675750E-08  0.3377335E+04  0.7818609E-02  0.8143491E-01
       -1   -1    0    0    0  501  0.00000000000E+00  0.00000000000E+00  0.28172887535E+04  0.28172887535E+04  0.50400001928E-02 0. -1.
        1   -1    0    0  501    0  0.00000000000E+00  0.00000000000E+00 -0.10121782379E+04  0.10121782380E+04  0.50400001928E-02 0.  1.
    10030    2    1    2    0    0  0.00000000000E+00  0.00000000000E+00  0.18051105155E+04  0.38294669914E+04  0.33773352610E+04 0.  0.
        5    1    3    3  502    0  0.83974932094E+03 -0.11734551415E+04  0.18971367098E+04  0.23835531621E+04  0.46999998093E+01 0. -1.
       -5    1    3    3    0  502 -0.83974932094E+03  0.11734551415E+04 -0.92026194244E+02  0.14459138293E+04  0.46999998093E+01 0.  1.
</event>
<event>
 5   0  0.7675750E-08  0.3754301E+04  0.7818609E-02  0.8056033E-01
       -1   -1    0    0    0  501  0.00000000000E+00  0.00000000000E+00  0.18686944419E+04  0.18686944419E+04  0.50400001928E-02 0.  1.
        1   -1    0    0  501    0  0.00000000000E+00  0.00000000000E+00 -0.18856453159E+04  0.18856453159E+04  0.50400001928E-02 0. -1.
    10030    2    1    2    0    0  0.00000000000E+00  0.00000000000E+00 -0.16950874041E+02  0.37543397578E+04  0.37543014909E+04 0.  0.
        2    1    3    3  502    0  0.15602627395E+04 -0.51345616582E+03  0.90017999928E+03  0.18730672923E+04  0.25500000920E-02 0.  1.
       -2    1    3    3    0  502 -0.15602627395E+04  0.51345616582E+03 -0.91713087332E+03  0.18812724655E+04  0.25500000920E-02 0. -1.
</event>
<event>
 5   0  0.7675750E-08  0.3850559E+04  0.7818609E-02  0.8035391E-01
       -1   -1    0    0    0  501  0.00000000000E+00  0.00000000000E+00  0.16067321269E+04  0.16067321270E+04  0.50400001928E-02 0.  1.
        1   -1    0    0  501    0  0.00000000000E+00  0.00000000000E+00 -0.23069809060E+04  0.23069809060E+04  0.50400001928E-02 0. -1.
    10030    2    1    2    0    0  0.00000000000E+00  0.00000000000E+00 -0.70024877901E+03  0.39137130329E+04  0.38505585766E+04 0.  0.
        2    1    3    3  502    0  0.17211934250E+03  0.87507616287E+03 -0.20843675509E+04  0.22671505125E+04  0.25500000920E-02 0. -1.
       -2    1    3    3    0  502 -0.17211934250E+03 -0.87507616287E+03  0.13841187719E+04  0.16465625204E+04  0.25500000920E-02 0.  1.
</event>
<event>
 5   0  0.7675750E-08  0.3883282E+04  0.7818609E-02  0.8028515E-01
       -3   -1    0    0    0  501  0.00000000000E+00  0.00000000000E+00  0.17149310726E+04  0.17149310756E+04  0.10100000352E+00 0.  1.
        3   -1    0    0  501    0  0.00000000000E+00  0.00000000000E+00 -0.21983220041E+04  0.21983220065E+04  0.10100000352E+00 0. -1.
    10030    2    1    2    0    0  0.00000000000E+00  0.00000000000E+00 -0.48339093154E+03  0.39132530820E+04  0.38832824892E+04 0.  0.
        3    1    3    3  502    0 -0.87999918962E+03  0.35869041794E+03 -0.19479594860E+04  0.21673955705E+04  0.10100000352E+00 0. -1.
       -3    1    3    3    0  502  0.87999918962E+03 -0.35869041794E+03  0.14645685545E+04  0.17458575115E+04  0.10100000352E+00 0.  1.
</event>
<event>
 5   0  0.7675750E-08  0.3918785E+04  0.7818609E-02  0.8021134E-01
       -3   -1    0    0    0  501  0.00000000000E+00  0.00000000000E+00  0.24139788265E+04  0.24139788286E+04  0.10100000352E+00 0.  1.
        3   -1    0    0  501    0  0.00000000000E+00  0.00000000000E+00 -0.15904112680E+04  0.15904112712E+04  0.10100000352E+00 0. -1.
    10030    2    1    2    0    0  0.00000000000E+00  0.00000000000E+00  0.82356755847E+03  0.40043900998E+04  0.39187850857E+04 0.  0.
        4    1    3    3  502    0  0.49276850670E+03 -0.57070057506E+03  0.22597972263E+04  0.23822688900E+04  0.12699999809E+01 0.  1.
       -4    1    3    3    0  502 -0.49276850670E+03  0.57070057506E+03 -0.14362296678E+04  0.16221212098E+04  0.12699999809E+01 0. -1.
</event>
<event>
 5   0  0.7675750E-08  0.3875163E+04  0.7818609E-02  0.8030215E-01
        1   -1    0    0  501    0  0.00000000000E+00  0.00000000000E+00  0.17026341927E+04  0.17026341927E+04  0.50400001928E-02 0. -1.
       -1   -1    0    0    0  501  0.00000000000E+00  0.00000000000E+00 -0.22049493299E+04  0.22049493299E+04  0.50400001928E-02 0.  1.
    10030    2    1    2    0    0  0.00000000000E+00  0.00000000000E+00 -0.50231513727E+03  0.39075835226E+04  0.38751630274E+04 0.  0.
        2    1    3    3  502    0  0.93828076920E+03  0.16787909834E+04 -0.48873891209E+03  0.19843325558E+04  0.25500000920E-02 0.  1.
       -2    1    3    3    0  502 -0.93828076920E+03 -0.16787909834E+04 -0.13576225182E+02  0.19232509669E+04  0.25500000920E-02 0. -1.
</event>
<event>
 5   0  0.7675750E-08  0.3467392E+04  0.7818609E-02  0.8121561E-01
        1   -1    0    0  501    0  0.00000000000E+00  0.00000000000E+00  0.94372770010E+03  0.94372770011E+03  0.50400001928E-02 0. -1.
       -1   -1    0    0    0  501  0.00000000000E+00  0.00000000000E+00 -0.31849241812E+04  0.31849241812E+04  0.50400001928E-02 0.  1.
    10030    2    1    2    0    0  0.00000000000E+00  0.00000000000E+00 -0.22411964811E+04  0.41286518813E+04  0.34673916263E+04 0.  0.
        2    1    3    3  502    0  0.81492643225E+03  0.12707991137E+04 -0.10558268325E+03  0.15133351183E+04  0.25500000920E-02 0. -1.
       -2    1    3    3    0  502 -0.81492643225E+03 -0.12707991137E+04 -0.21356137979E+04  0.26153167630E+04  0.25500000920E-02 0.  1.
</event>
<event>
 5   0  0.7675750E-08  0.3904927E+04  0.7818609E-02  0.8024005E-01
       -1   -1    0    0    0  501  0.00000000000E+00  0.00000000000E+00  0.30761752623E+04  0.30761752623E+04  0.50400001928E-02 0. -1.
        1   -1    0    0  501    0  0.00000000000E+00  0.00000000000E+00 -0.12392379876E+04  0.12392379876E+04  0.50400001928E-02 0.  1.
    10030    2    1    2    0    0  0.00000000000E+00  0.00000000000E+00  0.18369372747E+04  0.43154132499E+04  0.39049267556E+04 0.  0.
        2    1    3    3  502    0  0.16634814106E+04 -0.46349817675E+03  0.19253491076E+04  0.25863043420E+04  0.25500000920E-02 0. -1.
       -2    1    3    3    0  502 -0.16634814106E+04  0.46349817675E+03 -0.88411832891E+02  0.17291089080E+04  0.25500000920E-02 0.  1.
</event>
<event>
 5   0  0.2446281E-07  0.3886901E+04  0.7818609E-02  0.8027759E-01
       -2   -1    0    0    0  501  0.00000000000E+00  0.00000000000E+00  0.19853660778E+04  0.19853660778E+04  0.25500000920E-02 0. -1.
        2   -1    0    0  501    0  0.00000000000E+00  0.00000000000E+00 -0.19024199232E+04  0.19024199232E+04  0.25500000920E-02 0.  1.
    10030    2    1    2    0    0  0.00000000000E+00  0.00000000000E+00  0.82946154573E+02  0.38877860010E+04  0.38869010696E+04 0.  0.
        1    1    3    3  502    0 -0.97351029411E+03  0.16231112703E+03  0.17160504031E+04  0.19796202112E+04  0.50400001928E-02 0. -1.
       -1    1    3    3    0  502  0.97351029411E+03 -0.16231112703E+03 -0.16331042485E+04  0.19081657898E+04  0.50400001928E-02 0.  1.
</event>
<event>
 5   0  0.7675750E-08  0.3936955E+04  0.7818609E-02  0.8017387E-01
        1   -1    0    0  501    0  0.00000000000E+00  0.00000000000E+00  0.25741507521E+04  0.25741507521E+04  0.50400001928E-02 0. -1.
       -1   -1    0    0    0  501  0.00000000000E+00  0.00000000000E+00 -0.15053137990E+04  0.15053137990E+04  0.50400001928E-02 0.  1.
    10030    2    1    2    0    0  0.00000000000E+00  0.00000000000E+00  0.10688369532E+04  0.40794645511E+04  0.39369554977E+04 0.  0.
        5    1    3    3  502    0 -0.13443699964E+04 -0.13001276190E+04  0.11708329374E+04  0.22064755539E+04  0.46999998093E+01 0. -1.
       -5    1    3    3    0  502  0.13443699964E+04  0.13001276190E+04 -0.10199598423E+03  0.18729889972E+04  0.46999998093E+01 0.  1.
</event>
<event>
 5   0  0.7675750E-08  0.3883984E+04  0.7818609E-02  0.8028369E-01
        1   -1    0    0  501    0  0.00000000000E+00  0.00000000000E+00  0.19479230916E+04  0.19479230916E+04  0.50400001928E-02 0. -1.
       -1   -1    0    0    0  501  0.00000000000E+00  0.00000000000E+00 -0.19360789016E+04  0.19360789016E+04  0.50400001928E-02 0.  1.
    10030    2    1    2    0    0  0.00000000000E+00  0.00000000000E+00  0.11844189993E+02  0.38840019932E+04  0.38839839338E+04 0.  0.
        2    1    3    3  502    0  0.80363966038E+03 -0.95580426522E+03 -0.14813421290E+04  0.19374656127E+04  0.25500000920E-02 0.  1.
       -2    1    3    3    0  502 -0.80363966038E+03  0.95580426522E+03  0.14931863190E+04  0.19465363805E+04  0.25500000920E-02 0. -1.
</event>
<event>
 5   0  0.7675750E-08  0.3900097E+04  0.7818609E-02  0.8025009E-01
       -1   -1    0    0    0  501  0.00000000000E+00  0.00000000000E+00  0.19619105765E+04  0.19619105765E+04  0.50400001928E-02 0. -1.
        1   -1    0    0  501    0  0.00000000000E+00  0.00000000000E+00 -0.19382582225E+04  0.19382582225E+04  0.50400001928E-02 0.  1.
    10030    2    1    2    0    0  0.00000000000E+00  0.00000000000E+00  0.23652354079E+02  0.39001687990E+04  0.39000970792E+04 0.  0.
        1    1    3    3  502    0  0.98362424298E+03 -0.12204922422E+04 -0.11481828017E+04  0.19430495904E+04  0.50400001928E-02 0.  1.
       -1    1    3    3    0  502 -0.98362424298E+03  0.12204922422E+04  0.11718351557E+04  0.19571192086E+04  0.50400001928E-02 0. -1.
</event>
<event>
 5   0  0.2486268E-07  0.3888200E+04  0.7818609E-02  0.8027488E-01
       -2   -1    0    0    0  501  0.00000000000E+00  0.00000000000E+00  0.20669359915E+04  0.20669359915E+04  0.25500000920E-02 0.  1.
        2   -1    0    0  501    0  0.00000000000E+00  0.00000000000E+00 -0.18285638480E+04  0.18285638480E+04  0.25500000920E-02 0. -1.
    10030    2    1    2    0    0  0.00000000000E+00  0.00000000000E+00  0.23837214353E+03  0.38954998395E+04  0.38881998046E+04 0.  0.
        5    1    3    3  502    0 -0.14252082694E+04 -0.94908642549E+03  0.10415222794E+04  0.20041892133E+04  0.46999998093E+01 0.  1.
       -5    1    3    3    0  502  0.14252082694E+04  0.94908642549E+03 -0.80315013591E+03  0.18913106262E+04  0.46999998093E+01 0. -1.
</event>
<event>
 5   0  0.2486268E-07  0.3632130E+04  0.7818609E-02  0.8083171E-01
       -2   -1    0    0    0  501  0.00000000000E+00  0.00000000000E+00  0.16304456534E+04  0.16304456534E+04  0.25500000920E-02 0. -1.
        2   -1    0    0  501    0  0.00000000000E+00  0.00000000000E+00 -0.20228159790E+04  0.20228159790E+04  0.25500000920E-02 0.  1.
    10030    2    1    2    0    0  0.00000000000E+00  0.00000000000E+00 -0.39237032554E+03  0.36532616324E+04  0.36321296897E+04 0.  0.
        5    1    3    3  502    0 -0.15592672032E+04  0.47978949746E+03  0.60630213303E+03  0.17404414783E+04  0.46999998093E+01 0. -1.
       -5    1    3    3    0  502  0.15592672032E+04 -0.47978949746E+03 -0.99867245857E+03  0.19128201542E+04  0.46999998093E+01 0.  1.
</event>
<event>
 5   0  0.2384787E-07  0.3941358E+04  0.7818609E-02  0.8016482E-01
        2   -1    0    0  501    0  0.00000000000E+00  0.00000000000E+00  0.22279521232E+04  0.22279521232E+04  0.25500000920E-02 0. -1.
       -2   -1    0    0    0  501  0.00000000000E+00  0.00000000000E+00 -0.17431145456E+04  0.17431145456E+04  0.25500000920E-02 0.  1.
    10030    2    1    2    0    0  0.00000000000E+00  0.00000000000E+00  0.48483757761E+03  0.39710666687E+04  0.39413580161E+04 0.  0.
        4    1    3    3  502    0  0.14018318638E+04 -0.28715246003E+03 -0.11227798926E+04  0.18188527730E+04  0.12699999809E+01 0.  1.
       -4    1    3    3    0  502 -0.14018318638E+04  0.28715246003E+03  0.16076174702E+04  0.21522138957E+04  0.12699999809E+01 0. -1.
</event>
<event>
 5   0  0.7675750E-08  0.3922341E+04  0.7818609E-02  0.8020399E-01
        1   -1    0    0  501    0  0.00000000000E+00  0.00000000000E+00  0.14681567822E+04  0.14681567823E+04  0.50400001928E-02 0. -1.
       -1   -1    0    0    0  501  0.00000000000E+00  0.00000000000E+00 -0.26197409561E+04  0.26197409561E+04  0.50400001928E-02 0.  1.
    10030    2    1    2    0    0  0.00000000000E+00  0.00000000000E+00 -0.11515841738E+04  0.40878977383E+04  0.39223413683E+04 0.  0.
        5    1    3    3  502    0  0.45766724878E+03  0.18641330852E+04 -0.15667793246E+03  0.19258820147E+04  0.46999998093E+01 0.  1.
       -5    1    3    3    0  502 -0.45766724878E+03 -0.18641330852E+04 -0.99490624137E+03  0.21620157236E+04  0.46999998093E+01 0. -1.
</event>
<event>
 5   0  0.2473224E-07  0.3859878E+04  0.7818609E-02  0.8033426E-01
        2   -1    0    0  501    0  0.00000000000E+00  0.00000000000E+00  0.15642385601E+04  0.15642385601E+04  0.25500000920E-02 0.  1.
       -2   -1    0    0    0  501  0.00000000000E+00  0.00000000000E+00 -0.23811358728E+04  0.23811358728E+04  0.25500000920E-02 0. -1.
    10030    2    1    2    0    0  0.00000000000E+00  0.00000000000E+00 -0.81689731268E+03  0.39453744329E+04  0.38598780028E+04 0.  0.
        2    1    3    3  502    0 -0.10145240964E+04  0.71732735612E+03 -0.19179282067E+04  0.22852278407E+04  0.25500000920E-02 0. -1.
       -2    1    3    3    0  502  0.10145240964E+04 -0.71732735612E+03  0.11010308940E+04  0.16601465922E+04  0.25500000920E-02 0.  1.
</event>
<event>
 5   0  0.7675750E-08  0.3945502E+04  0.7818609E-02  0.8015632E-01
        1   -1    0    0  501    0  0.00000000000E+00  0.00000000000E+00  0.27090389250E+04  0.27090389250E+04  0.50400001928E-02 0. -1.
       -1   -1    0    0    0  501  0.00000000000E+00  0.00000000000E+00 -0.14365780836E+04  0.14365780836E+04  0.50400001928E-02 0.  1.
    10030    2    1    2    0    0  0.00000000000E+00  0.00000000000E+00  0.12724608414E+04  0.41456170087E+04  0.39455017158E+04 0.  0.
        2    1    3    3  502    0 -0.91997116016E+02  0.19703670523E+04  0.60408187402E+03  0.20629407894E+04  0.25500000920E-02 0.  1.
       -2    1    3    3    0  502  0.91997116016E+02 -0.19703670523E+04  0.66837896740E+03  0.20826762192E+04  0.25500000920E-02 0. -1.
</event>
<event>
 5   0  0.2473224E-07  0.3907015E+04  0.7818609E-02  0.8023572E-01
        2   -1    0    0  501    0  0.00000000000E+00  0.00000000000E+00  0.17619752363E+04  0.17619752363E+04  0.25500000920E-02 0.  1.
       -2   -1    0    0    0  501  0.00000000000E+00  0.00000000000E+00 -0.21658598094E+04  0.21658598094E+04  0.25500000920E-02 0. -1.
    10030    2    1    2    0    0  0.00000000000E+00  0.00000000000E+00 -0.40388457306E+03  0.39278350457E+04  0.39070148961E+04 0.  0.
        2    1    3    3  502    0 -0.14741624132E+04  0.43422189759E+03  0.10105060053E+04  0.18392460041E+04  0.25500000920E-02 0.  1.
       -2    1    3    3    0  502  0.14741624132E+04 -0.43422189759E+03 -0.14143905784E+04  0.20885890417E+04  0.25500000920E-02 0. -1.
</event>
<event>
 5   0  0.7675750E-08  0.3901891E+04  0.7818609E-02  0.8024636E-01
       -1   -1    0    0    0  501  0.00000000000E+00  0.00000000000E+00  0.15200025809E+04  0.15200025809E+04  0.50400001928E-02 0. -1.
        1   -1    0    0  501    0  0.00000000000E+00  0.00000000000E+00 -0.25040671452E+04  0.25040671452E+04  0.50400001928E-02 0.  1.
    10030    2    1    2    0    0  0.00000000000E+00  0.00000000000E+00 -0.98406456429E+03  0.40240697262E+04  0.39018910921E+04 0.  0.
        5    1    3    3  502    0 -0.14106174191E+04  0.13016060669E+04 -0.13159392234E+03  0.19238916047E+04  0.46999998093E+01 0. -1.
       -5    1    3    3    0  502  0.14106174191E+04 -0.13016060669E+04 -0.85247064195E+03  0.21001781214E+04  0.46999998093E+01 0.  1.
</event>
<event>
 5   0  0.2384787E-07  0.3254373E+04  0.7818609E-02  0.8174603E-01
        2   -1    0    0  501    0  0.00000000000E+00  0.00000000000E+00  0.20079986314E+04  0.20079986314E+04  0.25500000920E-02 0.  1.
       -2   -1    0    0    0  501  0.00000000000E+00  0.00000000000E+00 -0.13185946781E+04  0.13185946781E+04  0.25500000920E-02 0. -1.
    10030    2    1    2    0    0  0.00000000000E+00  0.00000000000E+00  0.68940395334E+03  0.33265933095E+04  0.32543732477E+04 0.  0.
        4    1    3    3  502    0 -0.58765340077E+03  0.14256015311E+04 -0.18650189879E+03  0.15532098429E+04  0.12699999809E+01 0. -1.
       -4    1    3    3    0  502  0.58765340077E+03 -0.14256015311E+04  0.87590585213E+03  0.17733834666E+04  0.12699999809E+01 0.  1.
</event>
<event>
 5   0  0.7675750E-08  0.3867129E+04  0.7818609E-02  0.8031901E-01
        1   -1    0    0  501    0  0.00000000000E+00  0.00000000000E+00  0.22616775364E+04  0.22616775364E+04  0.50400001928E-02 0.  1.
       -1   -1    0    0    0  501  0.00000000000E+00  0.00000000000E+00 -0.16530526036E+04  0.16530526036E+04  0.50400001928E-02 0. -1.
    10030    2    1    2    0    0  0.00000000000E+00  0.00000000000E+00  0.60862493273E+03  0.39147301400E+04  0.38671291368E+04 0.  0.
        1    1    3    3  502    0 -0.24256825832E+02  0.49726037129E+03  0.21956829752E+04  0.22514173310E+04  0.50400001928E-02 0.  1.
       -1    1    3    3    0  502  0.24256825832E+02 -0.49726037129E+03 -0.15870580425E+04  0.16633128090E+04  0.50400001928E-02 0. -1.
</event>
<event>
 5   0  0.7675750E-08  0.3835000E+04  0.7818609E-02  0.8038686E-01
       -1   -1    0    0    0  501  0.00000000000E+00  0.00000000000E+00  0.11666122769E+04  0.11666122769E+04  0.50400001928E-02 0.  1.
        1   -1    0    0  501    0  0.00000000000E+00  0.00000000000E+00 -0.31516943775E+04  0.31516943775E+04  0.50400001928E-02 0. -1.
    10030    2    1    2    0    0  0.00000000000E+00  0.00000000000E+00 -0.19850821007E+04  0.43183066544E+04  0.38349995327E+04 0.  0.
        5    1    3    3  502    0 -0.10681482697E+04 -0.20495335235E+03 -0.27707474408E+04  0.29765769054E+04  0.46999998093E+01 0. -1.
       -5    1    3    3    0  502  0.10681482697E+04  0.20495335235E+03  0.78566534018E+03  0.13417297491E+04  0.46999998093E+01 0.  1.
</event>
<event>
 5   0  0.7675750E-08  0.3801024E+04  0.7818609E-02  0.8045935E-01
       -1   -1    0    0    0  501  0.00000000000E+00  0.00000000000E+00  0.12838584209E+04  0.12838584209E+04  0.50400001928E-02 0. -1.
        1   -1    0    0  501    0  0.00000000000E+00  0.00000000000E+00 -0.28133514454E+04  0.28133514454E+04  0.50400001928E-02 0.  1.
    10030    2    1    2    0    0  0.00000000000E+00  0.00000000000E+00 -0.15294930246E+04  0.40972098663E+04  0.38010235169E+04 0.  0.
        1    1    3    3  502    0 -0.11894601810E+04  0.49068429402E+03  0.74294280244E+03  0.14857828261E+04  0.50400001928E-02 0. -1.
       -1    1    3    3    0  502  0.11894601810E+04 -0.49068429402E+03 -0.22724358270E+04  0.26114270402E+04  0.50400001928E-02 0.  1.
</event>
<event>
 5   0  0.2473224E-07  0.3908306E+04  0.7818609E-02  0.8023304E-01
       -2   -1    0    0    0  501  0.00000000000E+00  0.00000000000E+00  0.30707835905E+04  0.30707835905E+04  0.25500000920E-02 0. -1.
        2   -1    0    0  501    0  0.00000000000E+00  0.00000000000E+00 -0.12435635761E+04  0.12435635761E+04  0.25500000920E-02 0.  1.
    10030    2    1    2    0    0  0.00000000000E+00  0.00000000000E+00  0.18272200145E+04  0.43143471666E+04  0.39083063458E+04 0.  0.
        2    1    3    3  502    0  0.11283376566E+04 -0.10938978686E+04  0.21957203890E+04  0.27001752612E+04  0.25500000920E-02 0. -1.
       -2    1    3    3    0  502 -0.11283376566E+04  0.10938978686E+04 -0.36850037456E+03  0.16141719054E+04  0.25500000920E-02 0.  1.
</event>
<event>
 5   0  0.2395572E-07  0.3366150E+04  0.7818609E-02  0.8146264E-01
       -2   -1    0    0    0  501  0.00000000000E+00  0.00000000000E+00  0.20433030016E+04  0.20433030016E+04  0.25500000920E-02 0. -1.
        2   -1    0    0  501    0  0.00000000000E+00  0.00000000000E+00 -0.13863542034E+04  0.13863542034E+04  0.25500000920E-02 0.  1.
    10030    2    1    2    0    0  0.00000000000E+00  0.00000000000E+00  0.65694879824E+03  0.34296572051E+04  0.33661501483E+04 0.  0.
        3    1    3    3  502    0  0.63233762583E+03  0.15596478527E+04  0.30836894653E+03  0.17109774150E+04  0.10100000352E+00 0. -1.
       -3    1    3    3    0  502 -0.63233762583E+03 -0.15596478527E+04  0.34857985171E+03  0.17186797900E+04  0.10100000352E+00 0.  1.
</event>
<event>
 5   0  0.7675750E-08  0.3868248E+04  0.7818609E-02  0.8031666E-01
        1   -1    0    0  501    0  0.00000000000E+00  0.00000000000E+00  0.15029193143E+04  0.15029193143E+04  0.50400001928E-02 0. -1.
       -1   -1    0    0    0  501  0.00000000000E+00  0.00000000000E+00 -0.24890464741E+04  0.24890464741E+04  0.50400001928E-02 0.  1.
    10030    2    1    2    0    0  0.00000000000E+00  0.00000000000E+00 -0.98612715981E+03  0.39919657884E+04  0.38682481928E+04 0.  0.
        5    1    3    3  502    0  0.15159924752E+03 -0.10516435383E+04 -0.21608824326E+04  0.24079807808E+04  0.46999998093E+01 0.  1.
       -5    1    3    3    0  502 -0.15159924752E+03  0.10516435383E+04  0.11747552728E+04  0.15839850076E+04  0.46999998093E+01 0. -1.
</event>
<event>
 5   0  0.2486268E-07  0.3916944E+04  0.7818609E-02  0.8021514E-01
       -2   -1    0    0    0  501  0.00000000000E+00  0.00000000000E+00  0.14057687055E+04  0.14057687055E+04  0.25500000920E-02 0. -1.
        2   -1    0    0  501    0  0.00000000000E+00  0.00000000000E+00 -0.27284803770E+04  0.27284803770E+04  0.25500000920E-02 0.  1.
    10030    2    1    2    0    0  0.00000000000E+00  0.00000000000E+00 -0.13227116715E+04  0.41342490825E+04  0.39169438738E+04 0.  0.
        5    1    3    3  502    0  0.24895087654E+02 -0.19345005120E+04 -0.34003552222E+03  0.19643213186E+04  0.46999998093E+01 0.  1.
       -5    1    3    3    0  502 -0.24895087654E+02  0.19345005120E+04 -0.98267614923E+03  0.21699277639E+04  0.46999998093E+01 0. -1.
</event>
<event>
 5   0  0.2486268E-07  0.3813237E+04  0.7818609E-02  0.8043320E-01
       -2   -1    0    0    0  501  0.00000000000E+00  0.00000000000E+00  0.16757128876E+04  0.16757128876E+04  0.25500000920E-02 0.  1.
        2   -1    0    0  501    0  0.00000000000E+00  0.00000000000E+00 -0.21693422745E+04  0.21693422745E+04  0.25500000920E-02 0. -1.
    10030    2    1    2    0    0  0.00000000000E+00  0.00000000000E+00 -0.49362938695E+03  0.38450551621E+04  0.38132373684E+04 0.  0.
        5    1    3    3  502    0 -0.10598674157E+04  0.17615876491E+03 -0.18350195697E+04  0.21264218209E+04  0.46999998093E+01 0. -1.
       -5    1    3    3    0  502  0.10598674157E+04 -0.17615876491E+03  0.13413901827E+04  0.17186333412E+04  0.46999998093E+01 0.  1.
</event>
<event>
 5   0  0.2486268E-07  0.3895188E+04  0.7818609E-02  0.8026031E-01
       -2   -1    0    0    0  501  0.00000000000E+00  0.00000000000E+00  0.19451764438E+04  0.19451764438E+04  0.25500000920E-02 0.  1.
        2   -1    0    0  501    0  0.00000000000E+00  0.00000000000E+00 -0.19500148199E+04  0.19500148199E+04  0.25500000920E-02 0. -1.
    10030    2    1    2    0    0  0.00000000000E+00  0.00000000000E+00 -0.48383761829E+01  0.38951912637E+04  0.38951882587E+04 0.  0.
        5    1    3    3  502    0  0.28084783856E+03  0.63489648238E+03  0.18172337623E+04  0.19453353666E+04  0.46999998093E+01 0.  1.
       -5    1    3    3    0  502 -0.28084783856E+03 -0.63489648238E+03 -0.18220721385E+04  0.19498558971E+04  0.46999998093E+01 0. -1.
</event>
<event>
 5   0  0.7675750E-08  0.3855899E+04  0.7818609E-02  0.8034264E-01
       -1   -1    0    0    0  501  0.00000000000E+00  0.00000000000E+00  0.17581544102E+04  0.17581544102E+04  0.50400001928E-02 0.  1.
        1   -1    0    0  501    0  0.00000000000E+00  0.00000000000E+00 -0.21141428815E+04  0.21141428816E+04  0.50400001928E-02 0. -1.
    10030    2    1    2    0    0  0.00000000000E+00  0.00000000000E+00 -0.35598847137E+03  0.38722972917E+04  0.38558991849E+04 0.  0.
        1    1    3    3  502    0 -0.82656091390E+03  0.13226838041E+04  0.96009231080E+03  0.18315219451E+04  0.50400001928E-02 0.  1.
       -1    1    3    3    0  502  0.82656091390E+03 -0.13226838041E+04 -0.13160807822E+04  0.20407753466E+04  0.50400001928E-02 0. -1.
</event>
<event>
 5   0  0.2384787E-07  0.3906250E+04  0.7818609E-02  0.8023730E-01
       -2   -1    0    0    0  501  0.00000000000E+00  0.00000000000E+00  0.23131729557E+04  0.23131729557E+04  0.25500000920E-02 0.  1.
        2   -1    0    0  501    0  0.00000000000E+00  0.00000000000E+00 -0.16491192981E+04  0.16491192981E+04  0.25500000920E-02 0. -1.
    10030    2    1    2    0    0  0.00000000000E+00  0.00000000000E+00  0.66405365760E+03  0.39622922538E+04  0.39062504585E+04 0.  0.
        4    1    3    3  502    0 -0.11474326503E+04  0.10311905314E+04  0.15470181246E+04  0.21847705348E+04  0.12699999809E+01 0.  1.
       -4    1    3    3    0  502  0.11474326503E+04 -0.10311905314E+04 -0.88296446697E+03  0.17775217191E+04  0.12699999809E+01 0. -1.
</event>
<event>
 5   0  0.7675750E-08  0.3863888E+04  0.7818609E-02  0.8032582E-01
       -1   -1    0    0    0  501  0.00000000000E+00  0.00000000000E+00  0.16485791646E+04  0.16485791646E+04  0.50400001928E-02 0.  1.
        1   -1    0    0  501    0  0.00000000000E+00  0.00000000000E+00 -0.22640144184E+04  0.22640144184E+04  0.50400001928E-02 0. -1.
    10030    2    1    2    0    0  0.00000000000E+00  0.00000000000E+00 -0.61543525380E+03  0.39125935831E+04  0.38638876788E+04 0.  0.
        1    1    3    3  502    0  0.69028306577E+03 -0.11724754062E+04  0.10811465439E+04  0.17378340365E+04  0.50400001928E-02 0.  1.
       -1    1    3    3    0  502 -0.69028306577E+03  0.11724754062E+04 -0.16965817977E+04  0.21747595466E+04  0.50400001928E-02 0. -1.
</event>
<event>
 5   0  0.7731706E-08  0.3710016E+04  0.7818609E-02  0.8065746E-01
       -1   -1    0    0    0  501  0.00000000000E+00  0.00000000000E+00  0.31766533633E+04  0.31766533633E+04  0.50400001928E-02 0. -1.
        1   -1    0    0  501    0  0.00000000000E+00  0.00000000000E+00 -0.10832326384E+04  0.10832326384E+04  0.50400001928E-02 0.  1.
    10030    2    1    2    0    0  0.00000000000E+00  0.00000000000E+00  0.20934207249E+04  0.42598860017E+04  0.37100159591E+04 0.  0.
        3    1    3    3  502    0 -0.12812403412E+04  0.55288766799E+03 -0.35664419906E+03  0.14402974277E+04  0.10100000352E+00 0.  1.
       -3    1    3    3    0  502  0.12812403412E+04 -0.55288766799E+03  0.24500649240E+04  0.28195885741E+04  0.10100000352E+00 0. -1.
</event>
<event>
 5   0  0.7675750E-08  0.3820444E+04  0.7818609E-02  0.8041782E-01
       -1   -1    0    0    0  501  0.00000000000E+00  0.00000000000E+00  0.26742928762E+04  0.26742928762E+04  0.50400001928E-02 0.  1.
        1   -1    0    0  501    0  0.00000000000E+00  0.00000000000E+00 -0.13644533538E+04  0.13644533538E+04  0.50400001928E-02 0. -1.
    10030    2    1    2    0    0  0.00000000000E+00  0.00000000000E+00  0.13098395224E+04  0.40387462299E+04  0.38204438925E+04 0.  0.
        2    1    3    3  502    0 -0.32597218997E+03 -0.18712905955E+04  0.44096557663E+03  0.19499838464E+04  0.25500000920E-02 0. -1.
       -2    1    3    3    0  502  0.32597218997E+03  0.18712905955E+04  0.86887394575E+03  0.20887623836E+04  0.25500000920E-02 0.  1.
</event>
<event>
 5   0  0.2384787E-07  0.3903632E+04  0.7818609E-02  0.8024274E-01
        2   -1    0    0  501    0  0.00000000000E+00  0.00000000000E+00  0.18955659498E+04  0.18955659498E+04  0.25500000920E-02 0.  1.
       -2   -1    0    0    0  501  0.00000000000E+00  0.00000000000E+00 -0.20097352056E+04  0.20097352056E+04  0.25500000920E-02 0. -1.
    10030    2    1    2    0    0  0.00000000000E+00  0.00000000000E+00 -0.11416925575E+03  0.39053011554E+04  0.39036319621E+04 0.  0.
        4    1    3    3  502    0  0.58205862785E+03 -0.14476881300E+04 -0.12301860671E+04  0.19869455304E+04  0.12699999809E+01 0. -1.
       -4    1    3    3    0  502 -0.58205862785E+03  0.14476881300E+04  0.11160168113E+04  0.19183556250E+04  0.12699999809E+01 0.  1.
</event>
<event>
 5   0  0.7675750E-08  0.3932454E+04  0.7818609E-02  0.8018313E-01
       -1   -1    0    0    0  501  0.00000000000E+00  0.00000000000E+00  0.14338287342E+04  0.14338287342E+04  0.50400001928E-02 0.  1.
        1   -1    0    0  501    0  0.00000000000E+00  0.00000000000E+00 -0.26963112411E+04  0.26963112411E+04  0.50400001928E-02 0. -1.
    10030    2    1    2    0    0  0.00000000000E+00  0.00000000000E+00 -0.12624825070E+04  0.41301399753E+04  0.39324539584E+04 0.  0.
        4    1    3    3  502    0 -0.10726218426E+04  0.94613900559E+03 -0.20482698258E+04  0.24982208724E+04  0.12699999809E+01 0. -1.
       -4    1    3    3    0  502  0.10726218426E+04 -0.94613900559E+03  0.78578731886E+03  0.16319191029E+04  0.12699999809E+01 0.  1.
</event>
<event>
 5   0  0.7731706E-08  0.3884654E+04  0.7818609E-02  0.8028228E-01
       -1   -1    0    0    0  501  0.00000000000E+00  0.00000000000E+00  0.29291671631E+04  0.29291671631E+04  0.50400001928E-02 0. -1.
        1   -1    0    0  501    0  0.00000000000E+00  0.00000000000E+00 -0.12879545462E+04  0.12879545462E+04  0.50400001928E-02 0.  1.
    10030    2    1    2    0    0  0.00000000000E+00  0.00000000000E+00  0.16412126169E+04  0.42171217093E+04  0.38846539945E+04 0.  0.
        3    1    3    3  502    0 -0.92934199812E+03 -0.63629885453E+03 -0.89725465813E+03  0.14400064977E+04  0.10100000352E+00 0.  1.
       -3    1    3    3    0  502  0.92934199812E+03  0.63629885453E+03  0.25384672751E+04  0.27771152116E+04  0.10100000352E+00 0. -1.
</event>
<event>
 5   0  0.2446281E-07  0.3860981E+04  0.7818609E-02  0.8033194E-01
       -2   -1    0    0    0  501  0.00000000000E+00  0.00000000000E+00  0.17924918378E+04  0.17924918378E+04  0.25500000920E-02 0.  1.
        2   -1    0    0  501    0  0.00000000000E+00  0.00000000000E+00 -0.20791131822E+04  0.20791131822E+04  0.25500000920E-02 0. -1.
    10030    2    1    2    0    0  0.00000000000E+00  0.00000000000E+00 -0.28662134446E+03  0.38716050200E+04  0.38609809163E+04 0.  0.
        1    1    3    3  502    0 -0.13726170579E+04 -0.11279540146E+04 -0.90066076939E+03  0.19918703945E+04  0.50400001928E-02 0.  1.
       -1    1    3    3    0  502  0.13726170579E+04  0.11279540146E+04  0.61403942493E+03  0.18797346255E+04  0.50400001928E-02 0. -1.
</event>
<event>
 5   0  0.2486268E-07  0.3941741E+04  0.7818609E-02  0.8016403E-01
        2   -1    0    0  501    0  0.00000000000E+00  0.00000000000E+00  0.21757498535E+04  0.21757498535E+04  0.25500000920E-02 0.  1.
       -2   -1    0    0    0  501  0.00000000000E+00  0.00000000000E+00 -0.17852835339E+04  0.17852835339E+04  0.25500000920E-02 0. -1.
    10030    2    1    2    0    0  0.00000000000E+00  0.00000000000E+00  0.39046631964E+03  0.39610333874E+04  0.39417409287E+04 0.  0.
        5    1    3    3  502    0  0.11320503563E+04 -0.85776851232E+03 -0.11778378205E+04  0.18451636381E+04  0.46999998093E+01 0. -1.
       -5    1    3    3    0  502 -0.11320503563E+04  0.85776851232E+03  0.15683041401E+04  0.21158697493E+04  0.46999998093E+01 0.  1.
</event>
<event>
 5   0  0.7675750E-08  0.3629393E+04  0.7818609E-02  0.8083792E-01
       -1   -1    0    0    0  501  0.00000000000E+00  0.00000000000E+00  0.20804666861E+04  0.20804666861E+04  0.50400001928E-02 0. -1.
        1   -1    0    0  501    0  0.00000000000E+00  0.00000000000E+00 -0.15828769491E+04  0.15828769491E+04  0.50400001928E-02 0.  1.
    10030    2    1    2    0    0  0.00000000000E+00  0.00000000000E+00  0.49758973694E+03  0.36633436352E+04  0.36293926549E+04 0.  0.
        4    1    3    3  502    0 -0.37152543439E+03  0.16637283212E+04 -0.37919727073E+03  0.17463720275E+04  0.12699999809E+01 0.  1.
       -4    1    3    3    0  502  0.37152543439E+03 -0.16637283212E+04  0.87678700767E+03  0.19169716078E+04  0.12699999809E+01 0. -1.
</event>
<event>
 5   0  0.2384787E-07  0.3897070E+04  0.7818609E-02  0.8025639E-01
       -2   -1    0    0    0  501  0.00000000000E+00  0.00000000000E+00  0.16468272382E+04  0.16468272382E+04  0.25500000920E-02 0.  1.
        2   -1    0    0  501    0  0.00000000000E+00  0.00000000000E+00 -0.23055168281E+04  0.23055168281E+04  0.25500000920E-02 0. -1.
    10030    2    1    2    0    0  0.00000000000E+00  0.00000000000E+00 -0.65868958994E+03  0.39523440664E+04  0.38970696225E+04 0.  0.
        4    1    3    3  502    0  0.12481002354E+04 -0.14935194555E+04 -0.23621790666E+03  0.19606516962E+04  0.12699999809E+01 0.  1.
       -4    1    3    3    0  502 -0.12481002354E+04  0.14935194555E+04 -0.42247168328E+03  0.19916923702E+04  0.12699999809E+01 0. -1.
</event>
<event>
 5   0  0.2473224E-07  0.3896850E+04  0.7818609E-02  0.8025685E-01
       -2   -1    0    0    0  501  0.00000000000E+00  0.00000000000E+00  0.14376662804E+04  0.14376662804E+04  0.25500000920E-02 0. -1.
        2   -1    0    0  501    0  0.00000000000E+00  0.00000000000E+00 -0.26406409244E+04  0.26406409244E+04  0.25500000920E-02 0.  1.
    10030    2    1    2    0    0  0.00000000000E+00  0.00000000000E+00 -0.12029746439E+04  0.40783072048E+04  0.38968502233E+04 0.  0.
        2    1    3    3  502    0 -0.11367539126E+04  0.41534875158E+03 -0.21995603935E+04  0.25105357930E+04  0.25500000920E-02 0.  1.
       -2    1    3    3    0  502  0.11367539126E+04 -0.41534875158E+03  0.99658574961E+03  0.15677714118E+04  0.25500000920E-02 0. -1.
</event>
<event>
 5   0  0.7675750E-08  0.3897700E+04  0.7818609E-02  0.8025508E-01
       -1   -1    0    0    0  501  0.00000000000E+00  0.00000000000E+00  0.25535183255E+04  0.25535183255E+04  0.50400001928E-02 0. -1.
        1   -1    0    0  501    0  0.00000000000E+00  0.00000000000E+00 -0.14873659901E+04  0.14873659901E+04  0.50400001928E-02 0.  1.
    10030    2    1    2    0    0  0.00000000000E+00  0.00000000000E+00  0.10661523354E+04  0.40408843156E+04  0.38976999949E+04 0.  0.
        1    1    3    3  502    0 -0.18917115557E+04 -0.44657925398E+03  0.67973183483E+03  0.20591359857E+04  0.50400001928E-02 0. -1.
       -1    1    3    3    0  502  0.18917115557E+04  0.44657925398E+03  0.38642050054E+03  0.19817483300E+04  0.50400001928E-02 0.  1.
</event>
<event>
 5   0  0.2473224E-07  0.3894993E+04  0.7818609E-02  0.8026071E-01
       -2   -1    0    0    0  501  0.00000000000E+00  0.00000000000E+00  0.24559055160E+04  0.24559055160E+04  0.25500000920E-02 0. -1.
        2   -1    0    0  501    0  0.00000000000E+00  0.00000000000E+00 -0.15443360742E+04  0.15443360742E+04  0.25500000920E-02 0.  1.
    10030    2    1    2    0    0  0.00000000000E+00  0.00000000000E+00  0.91156944176E+03  0.40002415902E+04  0.38949934445E+04 0.  0.
        2    1    3    3  502    0  0.44789377408E+03  0.72285292706E+03  0.22551597000E+04  0.24101598410E+04  0.25500000920E-02 0. -1.
       -2    1    3    3    0  502 -0.44789377408E+03 -0.72285292706E+03 -0.13435902582E+04  0.15900817491E+04  0.25500000920E-02 0.  1.
</event>
<event>
 5   0  0.7675750E-08  0.3982648E+04  0.7818609E-02  0.8008056E-01
       -1   -1    0    0    0  501  0.00000000000E+00  0.00000000000E+00  0.31233778473E+04  0.31233778473E+04  0.50400001928E-02 0.  1.
        1   -1    0    0  501    0  0.00000000000E+00  0.00000000000E+00 -0.12695776289E+04  0.12695776289E+04  0.50400001928E-02 0. -1.
    10030    2    1    2    0    0  0.00000000000E+00  0.00000000000E+00  0.18538002184E+04  0.43929554762E+04  0.39826476829E+04 0.  0.
        2    1    3    3  502    0  0.12463988259E+04  0.15481585430E+04  0.10622880748E+04  0.22536106277E+04  0.25500000920E-02 0. -1.
       -2    1    3    3    0  502 -0.12463988259E+04 -0.15481585430E+04  0.79151214356E+03  0.21393448485E+04  0.25500000920E-02 0.  1.
</event>
<event>
 5   0  0.7675750E-08  0.3825486E+04  0.7818609E-02  0.8040708E-01
       -1   -1    0    0    0  501  0.00000000000E+00  0.00000000000E+00  0.16145817093E+04  0.16145817093E+04  0.50400001928E-02 0. -1.
        1   -1    0    0  501    0  0.00000000000E+00  0.00000000000E+00 -0.22659650670E+04  0.22659650670E+04  0.50400001928E-02 0.  1.
    10030    2    1    2    0    0  0.00000000000E+00  0.00000000000E+00 -0.65138335767E+03  0.38805467763E+04  0.38254859828E+04 0.  0.
        1    1    3    3  502    0 -0.91088797112E+03 -0.41919176377E+03  0.13266009837E+04  0.16629217663E+04  0.50400001928E-02 0. -1.
       -1    1    3    3    0  502  0.91088797112E+03  0.41919176377E+03 -0.19779843413E+04  0.22176250101E+04  0.50400001928E-02 0.  1.
</event>
<event>
 5   0  0.2446281E-07  0.3341250E+04  0.7818609E-02  0.8152478E-01
        2   -1    0    0  501    0  0.00000000000E+00  0.00000000000E+00  0.20935203626E+04  0.20935203626E+04  0.25500000920E-02 0. -1.
       -2   -1    0    0    0  501  0.00000000000E+00  0.00000000000E+00 -0.13331551538E+04  0.13331551538E+04  0.25500000920E-02 0.  1.
    10030    2    1    2    0    0  0.00000000000E+00  0.00000000000E+00  0.76036520884E+03  0.34266755164E+04  0.33412497429E+04 0.  0.
        1    1    3    3  502    0  0.75597917903E+03 -0.12994228398E+04 -0.36713367645E+03  0.15475113480E+04  0.50400001928E-02 0.  1.
       -1    1    3    3    0  502 -0.75597917903E+03  0.12994228398E+04  0.11274988853E+04  0.18791641685E+04  0.50400001928E-02 0. -1.
</event>
<event>
 5   0  0.2473224E-07  0.3862326E+04  0.7818609E-02  0.8032911E-01
       -2   -1    0    0    0  501  0.00000000000E+00  0.00000000000E+00  0.14504233395E+04  0.14504233396E+04  0.25500000920E-02 0. -1.
        2   -1    0    0  501    0  0.00000000000E+00  0.00000000000E+00 -0.25712422710E+04  0.25712422710E+04  0.25500000920E-02 0.  1.
    10030    2    1    2    0    0  0.00000000000E+00  0.00000000000E+00 -0.11208189314E+04  0.40216656105E+04  0.38623256214E+04 0.  0.
        2    1    3    3  502    0  0.11190107146E+04 -0.11141091147E+04 -0.17180141677E+04  0.23334516878E+04  0.25500000920E-02 0.  1.
       -2    1    3    3    0  502 -0.11190107146E+04  0.11141091147E+04  0.59719523623E+03  0.16882139228E+04  0.25500000920E-02 0. -1.
</event>
<event>
 5   0  0.7675750E-08  0.3889721E+04  0.7818609E-02  0.8027171E-01
        1   -1    0    0  501    0  0.00000000000E+00  0.00000000000E+00  0.29859389590E+04  0.29859389590E+04  0.50400001928E-02 0. -1.
       -1   -1    0    0    0  501  0.00000000000E+00  0.00000000000E+00 -0.12667644798E+04  0.12667644798E+04  0.50400001928E-02 0.  1.
    10030    2    1    2    0    0  0.00000000000E+00  0.00000000000E+00  0.17191744792E+04  0.42527034388E+04  0.38897205103E+04 0.  0.
        1    1    3    3  502    0  0.13696455949E+04 -0.18999132309E+03  0.23548599576E+04  0.27308224362E+04  0.50400001928E-02 0. -1.
       -1    1    3    3    0  502 -0.13696455949E+04  0.18999132309E+03 -0.63568547838E+03  0.15218810026E+04  0.50400001928E-02 0.  1.
</event>
<event>
 5   0  0.7675750E-08  0.3198392E+04  0.7818609E-02  0.8189242E-01
       -1   -1    0    0    0  501  0.00000000000E+00  0.00000000000E+00  0.15346607991E+04  0.15346607991E+04  0.50400001928E-02 0.  1.
        1   -1    0    0  501    0  0.00000000000E+00  0.00000000000E+00 -0.16664454115E+04  0.16664454116E+04  0.50400001928E-02 0. -1.
    10030    2    1    2    0    0  0.00000000000E+00  0.00000000000E+00 -0.13178461241E+03  0.32011062107E+04  0.31983923756E+04 0.  0.
        2    1    3    3  502    0  0.50472196316E+03 -0.14773044168E+04 -0.41296579646E+03  0.16148415864E+04  0.25500000920E-02 0. -1.
       -2    1    3    3    0  502 -0.50472196316E+03  0.14773044168E+04  0.28118118404E+03  0.15862646243E+04  0.25500000920E-02 0.  1.
</event>
<event>
 5   0  0.2446281E-07  0.3950987E+04  0.7818609E-02  0.8014508E-01
       -2   -1    0    0    0  501  0.00000000000E+00  0.00000000000E+00  0.17719811151E+04  0.17719811151E+04  0.25500000920E-02 0.  1.
        2   -1    0    0  501    0  0.00000000000E+00  0.00000000000E+00 -0.22023798417E+04  0.22023798417E+04  0.25500000920E-02 0. -1.
    10030    2    1    2    0    0  0.00000000000E+00  0.00000000000E+00 -0.43039872659E+03  0.39743609569E+04  0.39509874654E+04 0.  0.
        1    1    3    3  502    0  0.87480631300E+03  0.62782611285E+03 -0.18812352732E+04  0.21676018699E+04  0.50400001928E-02 0. -1.
       -1    1    3    3    0  502 -0.87480631300E+03 -0.62782611285E+03  0.14508365466E+04  0.18067590869E+04  0.50400001928E-02 0.  1.
</event>
<event>
 5   0  0.7675750E-08  0.3924668E+04  0.7818609E-02  0.8019918E-01
        1   -1    0    0  501    0  0.00000000000E+00  0.00000000000E+00  0.21398187294E+04  0.21398187294E+04  0.50400001928E-02 0. -1.
       -1   -1    0    0    0  501  0.00000000000E+00  0.00000000000E+00 -0.17995706200E+04  0.17995706200E+04  0.50400001928E-02 0.  1.
    10030    2    1    2    0    0  0.00000000000E+00  0.00000000000E+00  0.34024810936E+03  0.39393893494E+04  0.39246680968E+04 0.  0.
        2    1    3    3  502    0 -0.70164543502E+03  0.96340196133E+03  0.17349152183E+04  0.21048468995E+04  0.25500000920E-02 0. -1.
       -2    1    3    3    0  502  0.70164543502E+03 -0.96340196133E+03 -0.13946671090E+04  0.18345424499E+04  0.25500000920E-02 0.  1.
</event>
<event>
 5   0  0.7731706E-08  0.3939133E+04  0.7818609E-02  0.8016939E-01
       -1   -1    0    0    0  501  0.00000000000E+00  0.00000000000E+00  0.23562934372E+04  0.23562934372E+04  0.50400001928E-02 0. -1.
        1   -1    0    0  501    0  0.00000000000E+00  0.00000000000E+00 -0.16463112959E+04  0.16463112959E+04  0.50400001928E-02 0.  1.
    10030    2    1    2    0    0  0.00000000000E+00  0.00000000000E+00  0.70998214132E+03  0.40026047331E+04  0.39391331544E+04 0.  0.
        3    1    3    3  502    0  0.43968037554E+03  0.18175937725E+04  0.98319762214E+03  0.21127336625E+04  0.10100000352E+00 0.  1.
       -3    1    3    3    0  502 -0.43968037554E+03 -0.18175937725E+04 -0.27321548083E+03  0.18898710706E+04  0.10100000352E+00 0. -1.
</event>
<event>
 5   0  0.2384787E-07  0.3754733E+04  0.7818609E-02  0.8055939E-01
       -2   -1    0    0    0  501  0.00000000000E+00  0.00000000000E+00  0.15870887928E+04  0.15870887928E+04  0.25500000920E-02 0. -1.
        2   -1    0    0  501    0  0.00000000000E+00  0.00000000000E+00 -0.22207363537E+04  0.22207363537E+04  0.25500000920E-02 0.  1.
    10030    2    1    2    0    0  0.00000000000E+00  0.00000000000E+00 -0.63364756098E+03  0.38078251465E+04  0.37547334279E+04 0.  0.
        4    1    3    3  502    0  0.10928776401E+04 -0.12528440196E+04 -0.12012238749E+04  0.20510826615E+04  0.12699999809E+01 0.  1.
       -4    1    3    3    0  502 -0.10928776401E+04  0.12528440196E+04  0.56757631393E+03  0.17567424850E+04  0.12699999809E+01 0. -1.
</event>
<event>
 5   0  0.2384787E-07  0.3930982E+04  0.7818609E-02  0.8018616E-01
        2   -1    0    0  501    0  0.00000000000E+00  0.00000000000E+00  0.28205880512E+04  0.28205880512E+04  0.25500000920E-02 0.  1.
       -2   -1    0    0    0  501  0.00000000000E+00  0.00000000000E+00 -0.13696271792E+04  0.13696271792E+04  0.25500000920E-02 0. -1.
    10030    2    1    2    0    0  0.00000000000E+00  0.00000000000E+00  0.14509608720E+04  0.41902152304E+04  0.39309815854E+04 0.  0.
        4    1    3    3  502    0 -0.11677774953E+04 -0.14778355192E+04  0.12679206335E+03  0.18877976429E+04  0.12699999809E+01 0.  1.
       -4    1    3    3    0  502  0.11677774953E+04  0.14778355192E+04  0.13241688087E+04  0.23024175875E+04  0.12699999809E+01 0. -1.
</event>
<event>
 5   0  0.2384787E-07  0.3835232E+04  0.7818609E-02  0.8038636E-01
       -2   -1    0    0    0  501  0.00000000000E+00  0.00000000000E+00  0.13560081664E+04  0.13560081664E+04  0.25500000920E-02 0. -1.
        2   -1    0    0  501    0  0.00000000000E+00  0.00000000000E+00 -0.27118201970E+04  0.27118201970E+04  0.25500000920E-02 0.  1.
    10030    2    1    2    0    0  0.00000000000E+00  0.00000000000E+00 -0.13558120306E+04  0.40678283634E+04  0.38352315877E+04 0.  0.
        4    1    3    3  502    0  0.16723701511E+04  0.57958386191E+03  0.10475498792E+03  0.17730523387E+04  0.12699999809E+01 0. -1.
       -4    1    3    3    0  502 -0.16723701511E+04 -0.57958386191E+03 -0.14605670185E+04  0.22947760247E+04  0.12699999809E+01 0.  1.
</event>
<event>
 5   0  0.2395572E-07  0.3903449E+04  0.7818609E-02  0.8024312E-01
       -2   -1    0    0    0  501  0.00000000000E+00  0.00000000000E+00  0.10811699480E+04  0.10811699480E+04  0.25500000920E-02 0.  1.
        2   -1    0    0  501    0  0.00000000000E+00  0.00000000000E+00 -0.35232467384E+04  0.35232467384E+04  0.25500000920E-02 0. -1.
    10030    2    1    2    0    0  0.00000000000E+00  0.00000000000E+00 -0.24420767904E+04  0.46044166864E+04  0.39034489842E+04 0.  0.
        3    1    3    3  502    0 -0.43314724529E+03 -0.11974775627E+04 -0.29657191408E+04  0.32275469139E+04  0.10100000352E+00 0. -1.
       -3    1    3    3    0  502  0.43314724529E+03  0.11974775627E+04  0.52364235042E+03  0.13768697725E+04  0.10100000352E+00 0.  1.
</event>
<event>
 5   0  0.7675750E-08  0.3883006E+04  0.7818609E-02  0.8028573E-01
       -1   -1    0    0    0  501  0.00000000000E+00  0.00000000000E+00  0.24509237815E+04  0.24509237815E+04  0.50400001928E-02 0.  1.
        1   -1    0    0  501    0  0.00000000000E+00  0.00000000000E+00 -0.15379647027E+04  0.15379647027E+04  0.50400001928E-02 0. -1.
    10030    2    1    2    0    0  0.00000000000E+00  0.00000000000E+00  0.91295907882E+03  0.39888884843E+04  0.38830061885E+04 0.  0.
        1    1    3    3  502    0  0.13315937144E+04  0.13995805995E+04  0.25763855741E+03  0.19489344014E+04  0.50400001928E-02 0. -1.
       -1    1    3    3    0  502 -0.13315937144E+04 -0.13995805995E+04  0.65532052142E+03  0.20399540829E+04  0.50400001928E-02 0.  1.
</event>
<event>
 5   0  0.2473224E-07  0.3923284E+04  0.7818609E-02  0.8020204E-01
       -2   -1    0    0    0  501  0.00000000000E+00  0.00000000000E+00  0.14980105720E+04  0.14980105720E+04  0.25500000920E-02 0. -1.
        2   -1    0    0  501    0  0.00000000000E+00  0.00000000000E+00 -0.25687663653E+04  0.25687663653E+04  0.25500000920E-02 0.  1.
    10030    2    1    2    0    0  0.00000000000E+00  0.00000000000E+00 -0.10707557932E+04  0.40667769373E+04  0.39232839165E+04 0.  0.
        2    1    3    3  502    0  0.72208423114E+03 -0.98975923637E+03 -0.21234056994E+04  0.24515058122E+04  0.25500000920E-02 0.  1.
       -2    1    3    3    0  502 -0.72208423114E+03  0.98975923637E+03  0.10526499062E+04  0.16152711252E+04  0.25500000920E-02 0. -1.
</event>
<event>
 5   0  0.2446281E-07  0.3853882E+04  0.7818609E-02  0.8034690E-01
        2   -1    0    0  501    0  0.00000000000E+00  0.00000000000E+00  0.26098191798E+04  0.26098191798E+04  0.25500000920E-02 0.  1.
       -2   -1    0    0    0  501  0.00000000000E+00  0.00000000000E+00 -0.14227427718E+04  0.14227427718E+04  0.25500000920E-02 0. -1.
    10030    2    1    2    0    0  0.00000000000E+00  0.00000000000E+00  0.11870764080E+04  0.40325619516E+04  0.38538818736E+04 0.  0.
        1    1    3    3  502    0 -0.36148232503E+02  0.75432379905E+03 -0.12614465746E+04  0.14702239792E+04  0.50400001928E-02 0. -1.
       -1    1    3    3    0  502  0.36148232503E+02 -0.75432379905E+03  0.24485229826E+04  0.25623379724E+04  0.50400001928E-02 0.  1.
</event>
<event>
 5   0  0.7675750E-08  0.3885334E+04  0.7818609E-02  0.8028086E-01
       -1   -1    0    0    0  501  0.00000000000E+00  0.00000000000E+00  0.27639948985E+04  0.27639948985E+04  0.50400001928E-02 0.  1.
        1   -1    0    0  501    0  0.00000000000E+00  0.00000000000E+00 -0.13653989906E+04  0.13653989906E+04  0.50400001928E-02 0. -1.
    10030    2    1    2    0    0  0.00000000000E+00  0.00000000000E+00  0.13985959079E+04  0.41293938891E+04  0.38853343972E+04 0.  0.
        2    1    3    3  502    0  0.30572737550E+03 -0.60445819725E+03  0.26344154153E+04  0.27201072627E+04  0.25500000920E-02 0.  1.
       -2    1    3    3    0  502 -0.30572737550E+03  0.60445819725E+03 -0.12358195074E+04  0.14092866264E+04  0.25500000920E-02 0. -1.
</event>
<event>
 5   0  0.7675750E-08  0.3828781E+04  0.7818609E-02  0.8040007E-01
       -1   -1    0    0    0  501  0.00000000000E+00  0.00000000000E+00  0.15609097216E+04  0.15609097216E+04  0.50400001928E-02 0. -1.
        1   -1    0    0  501    0  0.00000000000E+00  0.00000000000E+00 -0.23479198792E+04  0.23479198792E+04  0.50400001928E-02 0.  1.
    10030    2    1    2    0    0  0.00000000000E+00  0.00000000000E+00 -0.78701015758E+03  0.39088296008E+04  0.38287809888E+04 0.  0.
        2    1    3    3  502    0 -0.12447578357E+04 -0.14534744253E+04 -0.44830212319E+03  0.19654477271E+04  0.25500000920E-02 0. -1.
       -2    1    3    3    0  502  0.12447578357E+04  0.14534744253E+04 -0.33870803439E+03  0.19433818737E+04  0.25500000920E-02 0.  1.
</event>
<event>
 5   0  0.2384787E-07  0.3909442E+04  0.7818609E-02  0.8023068E-01
        2   -1    0    0  501    0  0.00000000000E+00  0.00000000000E+00  0.19033625209E+04  0.19033625209E+04  0.25500000920E-02 0.  1.
       -2   -1    0    0    0  501  0.00000000000E+00  0.00000000000E+00 -0.20074651701E+04  0.20074651702E+04  0.25500000920E-02 0. -1.
    10030    2    1    2    0    0  0.00000000000E+00  0.00000000000E+00 -0.10410264930E+03  0.39108276910E+04  0.39094418869E+04 0.  0.
        4    1    3    3  502    0  0.58287276259E+03  0.16104002623E+04 -0.99461814621E+03  0.19805041105E+04  0.12699999809E+01 0.  1.
       -4    1    3    3    0  502 -0.58287276259E+03 -0.16104002623E+04  0.89051549691E+03  0.19303235805E+04  0.12699999809E+01 0. -1.
</event>
<event>
 5   0  0.2384787E-07  0.3835111E+04  0.7818609E-02  0.8038662E-01
        2   -1    0    0  501    0  0.00000000000E+00  0.00000000000E+00  0.21220170474E+04  0.21220170474E+04  0.25500000920E-02 0. -1.
       -2   -1    0    0    0  501  0.00000000000E+00  0.00000000000E+00 -0.17327947178E+04  0.17327947178E+04  0.25500000920E-02 0.  1.
    10030    2    1    2    0    0  0.00000000000E+00  0.00000000000E+00  0.38922232957E+03  0.38548117652E+04  0.38351114356E+04 0.  0.
        4    1    3    3  502    0 -0.14287191708E+04 -0.12089699850E+04 -0.22487113448E+03  0.18850505388E+04  0.12699999809E+01 0.  1.
       -4    1    3    3    0  502  0.14287191708E+04  0.12089699850E+04  0.61409346406E+03  0.19697612264E+04  0.12699999809E+01 0. -1.
</event>
<event>
 5   0  0.2384787E-07  0.4115520E+04  0.7818609E-02  0.7981639E-01
        2   -1    0    0  501    0  0.00000000000E+00  0.00000000000E+00  0.21935891105E+04  0.21935891105E+04  0.25500000920E-02 0.  1.
       -2   -1    0    0    0  501  0.00000000000E+00  0.00000000000E+00 -0.19303417627E+04  0.19303417627E+04  0.25500000920E-02 0. -1.
    10030    2    1    2    0    0  0.00000000000E+00  0.00000000000E+00  0.26324734773E+03  0.41239308732E+04  0.41155202200E+04 0.  0.
        4    1    3    3  502    0 -0.12653299092E+04  0.13972485846E+04 -0.69529712324E+03  0.20091797054E+04  0.12699999809E+01 0.  1.
       -4    1    3    3    0  502  0.12653299092E+04 -0.13972485846E+04  0.95854447097E+03  0.21147511678E+04  0.12699999809E+01 0. -1.
</event>
<event>
 5   0  0.7731706E-08  0.3893568E+04  0.7818609E-02  0.8026368E-01
        1   -1    0    0  501    0  0.00000000000E+00  0.00000000000E+00  0.22033433726E+04  0.22033433726E+04  0.50400001928E-02 0.  1.
       -1   -1    0    0    0  501  0.00000000000E+00  0.00000000000E+00 -0.17200989209E+04  0.17200989209E+04  0.50400001928E-02 0. -1.
    10030    2    1    2    0    0  0.00000000000E+00  0.00000000000E+00  0.48324445172E+03  0.39234422936E+04  0.38935683159E+04 0.  0.
        3    1    3    3  502    0  0.72034765671E+03  0.51357591721E+03 -0.15058424060E+04  0.17464885717E+04  0.10100000352E+00 0. -1.
       -3    1    3    3    0  502 -0.72034765671E+03 -0.51357591721E+03  0.19890868577E+04  0.21769537218E+04  0.10100000352E+00 0.  1.
</event>
<event>
 5   0  0.7675750E-08  0.3860839E+04  0.7818609E-02  0.8033224E-01
        1   -1    0    0  501    0  0.00000000000E+00  0.00000000000E+00  0.18452846247E+04  0.18452846247E+04  0.50400001928E-02 0. -1.
       -1   -1    0    0    0  501  0.00000000000E+00  0.00000000000E+00 -0.20194821930E+04  0.20194821931E+04  0.50400001928E-02 0.  1.
    10030    2    1    2    0    0  0.00000000000E+00  0.00000000000E+00 -0.17419756839E+03  0.38647668177E+04  0.38608389972E+04 0.  0.
        5    1    3    3  502    0 -0.40603679801E+03 -0.90348675378E+03 -0.17456921462E+04  0.20071415881E+04  0.46999998093E+01 0.  1.
       -5    1    3    3    0  502  0.40603679801E+03  0.90348675378E+03  0.15714945778E+04  0.18576252296E+04  0.46999998093E+01 0. -1.
</event>
<event>
 5   0  0.2473224E-07  0.3744206E+04  0.7818609E-02  0.8058235E-01
       -2   -1    0    0    0  501  0.00000000000E+00  0.00000000000E+00  0.17113393416E+04  0.17113393416E+04  0.25500000920E-02 0. -1.
        2   -1    0    0  501    0  0.00000000000E+00  0.00000000000E+00 -0.20479686403E+04  0.20479686403E+04  0.25500000920E-02 0.  1.
    10030    2    1    2    0    0  0.00000000000E+00  0.00000000000E+00 -0.33662929867E+03  0.37593079819E+04  0.37442058194E+04 0.  0.
        2    1    3    3  502    0 -0.44024084917E+03  0.86284254533E+03  0.14401645399E+04  0.17356218382E+04  0.25500000920E-02 0. -1.
       -2    1    3    3    0  502  0.44024084917E+03 -0.86284254533E+03 -0.17767938386E+04  0.20236861437E+04  0.25500000920E-02 0.  1.
</event>
<event>
 5   0  0.7675750E-08  0.3919225E+04  0.7818609E-02  0.8021043E-01
       -1   -1    0    0    0  501  0.00000000000E+00  0.00000000000E+00  0.12596966349E+04  0.12596966349E+04  0.50400001928E-02 0. -1.
        1   -1    0    0  501    0  0.00000000000E+00  0.00000000000E+00 -0.30484180414E+04  0.30484180414E+04  0.50400001928E-02 0.  1.
    10030    2    1    2    0    0  0.00000000000E+00  0.00000000000E+00 -0.17887214065E+04  0.43081146763E+04  0.39192254073E+04 0.  0.
        2    1    3    3  502    0 -0.75804838219E+02  0.17698714107E+04  0.26559026216E+02  0.17716931353E+04  0.25500000920E-02 0. -1.
       -2    1    3    3    0  502  0.75804838219E+02 -0.17698714107E+04 -0.18152804327E+04  0.25364215409E+04  0.25500000920E-02 0.  1.
</event>
<event>
 5   0  0.7675750E-08  0.3139098E+04  0.7818609E-02  0.8205089E-01
        1   -1    0    0  501    0  0.00000000000E+00  0.00000000000E+00  0.21746422948E+04  0.21746422948E+04  0.50400001928E-02 0. -1.
       -1   -1    0    0    0  501  0.00000000000E+00  0.00000000000E+00 -0.11328223094E+04  0.11328223094E+04  0.50400001928E-02 0.  1.
    10030    2    1    2    0    0  0.00000000000E+00  0.00000000000E+00  0.10418199854E+04  0.33074646041E+04  0.31390975177E+04 0.  0.
        2    1    3    3  502    0 -0.94824265441E+03 -0.38708842391E+03  0.17740196251E+04  0.20484499530E+04  0.25500000920E-02 0. -1.
       -2    1    3    3    0  502  0.94824265441E+03  0.38708842391E+03 -0.73219963967E+03  0.12590146512E+04  0.25500000920E-02 0.  1.
</event>
<event>
 5   0  0.7675750E-08  0.3334037E+04  0.7818609E-02  0.8154288E-01
        1   -1    0    0  501    0  0.00000000000E+00  0.00000000000E+00  0.23348664507E+04  0.23348664507E+04  0.50400001928E-02 0.  1.
       -1   -1    0    0    0  501  0.00000000000E+00  0.00000000000E+00 -0.11901971130E+04  0.11901971130E+04  0.50400001928E-02 0. -1.
    10030    2    1    2    0    0  0.00000000000E+00  0.00000000000E+00  0.11446693377E+04  0.35250635637E+04  0.33340373776E+04 0.  0.
        1    1    3    3  502    0 -0.10126554389E+04 -0.62909302170E+03  0.18043098373E+04  0.21625824971E+04  0.50400001928E-02 0.  1.
       -1    1    3    3    0  502  0.10126554389E+04  0.62909302170E+03 -0.65964049963E+03  0.13624810666E+04  0.50400001928E-02 0. -1.
</event>
<event>
 5   0  0.2473224E-07  0.3944086E+04  0.7818609E-02  0.8015922E-01
       -2   -1    0    0    0  501  0.00000000000E+00  0.00000000000E+00  0.29523066892E+04  0.29523066892E+04  0.25500000920E-02 0. -1.
        2   -1    0    0  501    0  0.00000000000E+00  0.00000000000E+00 -0.13172596197E+04  0.13172596197E+04  0.25500000920E-02 0.  1.
    10030    2    1    2    0    0  0.00000000000E+00  0.00000000000E+00  0.16350470695E+04  0.42695663089E+04  0.39440864020E+04 0.  0.
        2    1    3    3  502    0  0.11194019823E+04  0.16170224004E+04  0.97488889348E+03  0.21950468323E+04  0.25500000920E-02 0. -1.
       -2    1    3    3    0  502 -0.11194019823E+04 -0.16170224004E+04  0.66015817603E+03  0.20745194766E+04  0.25500000920E-02 0.  1.
</event>
<event>
 5   0  0.2384787E-07  0.3922641E+04  0.7818609E-02  0.8020337E-01
       -2   -1    0    0    0  501  0.00000000000E+00  0.00000000000E+00  0.12318345037E+04  0.12318345037E+04  0.25500000920E-02 0.  1.
        2   -1    0    0  501    0  0.00000000000E+00  0.00000000000E+00 -0.31228041631E+04  0.31228041631E+04  0.25500000920E-02 0. -1.
    10030    2    1    2    0    0  0.00000000000E+00  0.00000000000E+00 -0.18909696594E+04  0.43546386668E+04  0.39226409045E+04 0.  0.
        4    1    3    3  502    0 -0.11964282243E+04  0.26195340678E+03  0.75512176698E+03  0.14388434866E+04  0.12699999809E+01 0.  1.
       -4    1    3    3    0  502  0.11964282243E+04 -0.26195340678E+03 -0.26460914264E+04  0.29157951802E+04  0.12699999809E+01 0. -1.
</event>
<event>
 5   0  0.7731706E-08  0.3825758E+04  0.7818609E-02  0.8040650E-01
       -1   -1    0    0    0  501  0.00000000000E+00  0.00000000000E+00  0.14600588459E+04  0.14600588459E+04  0.50400001928E-02 0.  1.
        1   -1    0    0  501    0  0.00000000000E+00  0.00000000000E+00 -0.25061365276E+04  0.25061365276E+04  0.50400001928E-02 0. -1.
    10030    2    1    2    0    0  0.00000000000E+00  0.00000000000E+00 -0.10460776817E+04  0.39661953736E+04  0.38257583856E+04 0.  0.
        3    1    3    3  502    0  0.78748653899E+03 -0.19607213140E+03 -0.23188280933E+04  0.24567342279E+04  0.10100000352E+00 0. -1.
       -3    1    3    3    0  502 -0.78748653899E+03  0.19607213140E+03  0.12727504116E+04  0.15094611457E+04  0.10100000352E+00 0.  1.
</event>
<event>
 5   0  0.2446281E-07  0.3805747E+04  0.7818609E-02  0.8044923E-01
        2   -1    0    0  501    0  0.00000000000E+00  0.00000000000E+00  0.20957775537E+04  0.20957775537E+04  0.25500000920E-02 0. -1.
       -2   -1    0    0    0  501  0.00000000000E+00  0.00000000000E+00 -0.17277247739E+04  0.17277247739E+04  0.25500000920E-02 0.  1.
    10030    2    1    2    0    0  0.00000000000E+00  0.00000000000E+00  0.36805277984E+03  0.38235023276E+04  0.38057466022E+04 0.  0.
        1    1    3    3  502    0  0.16666075732E+03 -0.40989360352E+03 -0.16753210149E+04  0.17327691932E+04  0.50400001928E-02 0.  1.
       -1    1    3    3    0  502 -0.16666075732E+03  0.40989360352E+03  0.20433737947E+04  0.20907331344E+04  0.50400001928E-02 0. -1.
</event>
<event>
 5   0  0.7675750E-08  0.4016721E+04  0.7818609E-02  0.8001182E-01
       -1   -1    0    0    0  501  0.00000000000E+00  0.00000000000E+00  0.13939268751E+04  0.13939268751E+04  0.50400001928E-02 0.  1.
        1   -1    0    0  501    0  0.00000000000E+00  0.00000000000E+00 -0.28936325564E+04  0.28936325564E+04  0.50400001928E-02 0. -1.
    10030    2    1    2    0    0  0.00000000000E+00  0.00000000000E+00 -0.14997056814E+04  0.42875594315E+04  0.40167211439E+04 0.  0.
        2    1    3    3  502    0  0.10886492902E+04  0.75166084634E+03  0.86311514993E+03  0.15795945895E+04  0.25500000920E-02 0.  1.
       -2    1    3    3    0  502 -0.10886492902E+04 -0.75166084634E+03 -0.23628208313E+04  0.27079648420E+04  0.25500000920E-02 0. -1.
</event>
<event>
 5   0  0.7675750E-08  0.3872912E+04  0.7818609E-02  0.8030687E-01
        1   -1    0    0  501    0  0.00000000000E+00  0.00000000000E+00  0.16040848507E+04  0.16040848507E+04  0.50400001928E-02 0.  1.
       -1   -1    0    0    0  501  0.00000000000E+00  0.00000000000E+00 -0.23376952425E+04  0.23376952425E+04  0.50400001928E-02 0. -1.
    10030    2    1    2    0    0  0.00000000000E+00  0.00000000000E+00 -0.73361039188E+03  0.39417800932E+04  0.38729118369E+04 0.  0.
        1    1    3    3  502    0 -0.11182903800E+04  0.73126211114E+03 -0.17933507591E+04  0.22363865038E+04  0.50400001928E-02 0. -1.
       -1    1    3    3    0  502  0.11182903800E+04 -0.73126211114E+03  0.10597403672E+04  0.17053935895E+04  0.50400001928E-02 0.  1.
</event>
<event>
 5   0  0.7731706E-08  0.3912147E+04  0.7818609E-02  0.8022508E-01
        1   -1    0    0  501    0  0.00000000000E+00  0.00000000000E+00  0.19734047998E+04  0.19734047998E+04  0.50400001928E-02 0. -1.
       -1   -1    0    0    0  501  0.00000000000E+00  0.00000000000E+00 -0.19388947138E+04  0.19388947138E+04  0.50400001928E-02 0.  1.
    10030    2    1    2    0    0  0.00000000000E+00  0.00000000000E+00  0.34510086054E+02  0.39122995136E+04  0.39121473053E+04 0.  0.
        3    1    3    3  502    0 -0.99612233799E+03  0.15946184732E+04 -0.52235499507E+03  0.19513898991E+04  0.10100000352E+00 0. -1.
       -3    1    3    3    0  502  0.99612233799E+03 -0.15946184732E+04  0.55686508112E+03  0.19609096145E+04  0.10100000352E+00 0.  1.
</event>
<event>
 5   0  0.7675750E-08  0.3879848E+04  0.7818609E-02  0.8029234E-01
       -1   -1    0    0    0  501  0.00000000000E+00  0.00000000000E+00  0.20162802909E+04  0.20162802909E+04  0.50400001928E-02 0. -1.
        1   -1    0    0  501    0  0.00000000000E+00  0.00000000000E+00 -0.18664589612E+04  0.18664589612E+04  0.50400001928E-02 0.  1.
    10030    2    1    2    0    0  0.00000000000E+00  0.00000000000E+00  0.14982132973E+03  0.38827392520E+04  0.38798476347E+04 0.  0.
        1    1    3    3  502    0 -0.42004955236E+03 -0.16547135931E+04  0.99689297076E+03  0.19769456990E+04  0.50400001928E-02 0. -1.
       -1    1    3    3    0  502  0.42004955236E+03  0.16547135931E+04 -0.84707164102E+03  0.19057935530E+04  0.50400001928E-02 0.  1.
</event>
<event>
 5   0  0.7675750E-08  0.3928082E+04  0.7818609E-02  0.8019214E-01
       -1   -1    0    0    0  501  0.00000000000E+00  0.00000000000E+00  0.25094699146E+04  0.25094699146E+04  0.50400001928E-02 0. -1.
        1   -1    0    0  501    0  0.00000000000E+00  0.00000000000E+00 -0.15371600231E+04  0.15371600232E+04  0.50400001928E-02 0.  1.
    10030    2    1    2    0    0  0.00000000000E+00  0.00000000000E+00  0.97230989146E+03  0.40466299378E+04  0.39280818892E+04 0.  0.
        1    1    3    3  502    0  0.11923421905E+04  0.70954197219E+03 -0.94587889849E+03  0.16792309550E+04  0.50400001928E-02 0.  1.
       -1    1    3    3    0  502 -0.11923421905E+04 -0.70954197219E+03  0.19181887899E+04  0.23673989828E+04  0.50400001928E-02 0. -1.
</event>
<event>
 5   0  0.7675750E-08  0.3910575E+04  0.7818609E-02  0.8022833E-01
        1   -1    0    0  501    0  0.00000000000E+00  0.00000000000E+00  0.26034215004E+04  0.26034215005E+04  0.50400001928E-02 0.  1.
       -1   -1    0    0    0  501  0.00000000000E+00  0.00000000000E+00 -0.14685092662E+04  0.14685092662E+04  0.50400001928E-02 0. -1.
    10030    2    1    2    0    0  0.00000000000E+00  0.00000000000E+00  0.11349122342E+04  0.40719307667E+04  0.39105746878E+04 0.  0.
        2    1    3    3  502    0  0.61596754110E+03 -0.37515302375E+03 -0.13249468204E+04  0.15085224161E+04  0.25500000920E-02 0. -1.
       -2    1    3    3    0  502 -0.61596754110E+03  0.37515302375E+03  0.24598590547E+04  0.25634083506E+04  0.25500000920E-02 0.  1.
</event>
<event>
 5   0  0.7675750E-08  0.3867065E+04  0.7818609E-02  0.8031914E-01
       -1   -1    0    0    0  501  0.00000000000E+00  0.00000000000E+00  0.24539652382E+04  0.24539652382E+04  0.50400001928E-02 0.  1.
        1   -1    0    0  501    0  0.00000000000E+00  0.00000000000E+00 -0.15234724146E+04  0.15234724146E+04  0.50400001928E-02 0. -1.
    10030    2    1    2    0    0  0.00000000000E+00  0.00000000000E+00  0.93049282356E+03  0.39774376528E+04  0.38670652163E+04 0.  0.
        1    1    3    3  502    0  0.47461277582E+03 -0.84850463361E+03  0.21842749269E+04  0.23908731369E+04  0.50400001928E-02 0.  1.
       -1    1    3    3    0  502 -0.47461277582E+03  0.84850463361E+03 -0.12537821034E+04  0.15865645159E+04  0.50400001928E-02 0. -1.
</event>
<event>
 5   0  0.2473224E-07  0.3878211E+04  0.7818609E-02  0.8029576E-01
        2   -1    0    0  501    0  0.00000000000E+00  0.00000000000E+00  0.25302127934E+04  0.25302127934E+04  0.25500000920E-02 0. -1.
       -2   -1    0    0    0  501  0.00000000000E+00  0.00000000000E+00 -0.14860924789E+04  0.14860924789E+04  0.25500000920E-02 0.  1.
    10030    2    1    2    0    0  0.00000000000E+00  0.00000000000E+00  0.10441203145E+04  0.40163052723E+04  0.38782110320E+04 0.  0.
        2    1    3    3  502    0  0.13014329527E+04  0.11117242609E+04  0.14658117138E+04  0.22535000650E+04  0.25500000920E-02 0. -1.
       -2    1    3    3    0  502 -0.13014329527E+04 -0.11117242609E+04 -0.42169139928E+03  0.17628052073E+04  0.25500000920E-02 0.  1.
</event>
<event>
 5   0  0.7675750E-08  0.3902181E+04  0.7818609E-02  0.8024576E-01
       -1   -1    0    0    0  501  0.00000000000E+00  0.00000000000E+00  0.20187295096E+04  0.20187295096E+04  0.50400001928E-02 0. -1.
        1   -1    0    0  501    0  0.00000000000E+00  0.00000000000E+00 -0.18857176205E+04  0.18857176205E+04  0.50400001928E-02 0.  1.
    10030    2    1    2    0    0  0.00000000000E+00  0.00000000000E+00  0.13301188909E+03  0.39044471300E+04  0.39021808298E+04 0.  0.
        2    1    3    3  502    0  0.12248800643E+04  0.36928646968E+03  0.15404704979E+04  0.20024367714E+04  0.25500000920E-02 0. -1.
       -2    1    3    3    0  502 -0.12248800643E+04 -0.36928646968E+03 -0.14074586088E+04  0.19020103586E+04  0.25500000920E-02 0.  1.
</event>
<event>
 5   0  0.7675750E-08  0.3881536E+04  0.7818609E-02  0.8028880E-01
        1   -1    0    0  501    0  0.00000000000E+00  0.00000000000E+00  0.14695657198E+04  0.14695657198E+04  0.50400001928E-02 0. -1.
       -1   -1    0    0    0  501  0.00000000000E+00  0.00000000000E+00 -0.25630574279E+04  0.25630574279E+04  0.50400001928E-02 0.  1.
    10030    2    1    2    0    0  0.00000000000E+00  0.00000000000E+00 -0.10934917081E+04  0.40326231476E+04  0.38815364658E+04 0.  0.
        5    1    3    3  502    0 -0.42969609867E+03 -0.11074428345E+04  0.10477547246E+04  0.15839445766E+04  0.46999998093E+01 0. -1.
       -5    1    3    3    0  502  0.42969609867E+03  0.11074428345E+04 -0.21412464327E+04  0.24486785710E+04  0.46999998093E+01 0.  1.
</event>
<event>
 5   0  0.2446281E-07  0.3886747E+04  0.7818609E-02  0.8027791E-01
       -2   -1    0    0    0  501  0.00000000000E+00  0.00000000000E+00  0.31631272097E+04  0.31631272097E+04  0.25500000920E-02 0. -1.
        2   -1    0    0  501    0  0.00000000000E+00  0.00000000000E+00 -0.11939765883E+04  0.11939765883E+04  0.25500000920E-02 0.  1.
    10030    2    1    2    0    0  0.00000000000E+00  0.00000000000E+00  0.19691506213E+04  0.43571037980E+04  0.38867466263E+04 0.  0.
        1    1    3    3  502    0  0.88375261865E+03  0.50550582056E+03 -0.87108487169E+03  0.13399043545E+04  0.50400001928E-02 0.  1.
       -1    1    3    3    0  502 -0.88375261865E+03 -0.50550582056E+03  0.28402354930E+04  0.30171994434E+04  0.50400001928E-02 0. -1.
</event>
<event>
 5   0  0.2446281E-07  0.3886977E+04  0.7818609E-02  0.8027743E-01
        2   -1    0    0  501    0  0.00000000000E+00  0.00000000000E+00  0.19786821316E+04  0.19786821316E+04  0.25500000920E-02 0. -1.
       -2   -1    0    0    0  501  0.00000000000E+00  0.00000000000E+00 -0.19089207984E+04  0.19089207984E+04  0.25500000920E-02 0.  1.
    10030    2    1    2    0    0  0.00000000000E+00  0.00000000000E+00  0.69761333278E+02  0.38876029300E+04  0.38869769613E+04 0.  0.
        1    1    3    3  502    0  0.14081460973E+04  0.92332441614E+03 -0.93571060257E+03  0.19263846294E+04  0.50400001928E-02 0.  1.
       -1    1    3    3    0  502 -0.14081460973E+04 -0.92332441614E+03  0.10054719358E+04  0.19612183006E+04  0.50400001928E-02 0. -1.
</event>
<event>
 5   0  0.2473224E-07  0.3833174E+04  0.7818609E-02  0.8039073E-01
        2   -1    0    0  501    0  0.00000000000E+00  0.00000000000E+00  0.14640001557E+04  0.14640001557E+04  0.25500000920E-02 0. -1.
       -2   -1    0    0    0  501  0.00000000000E+00  0.00000000000E+00 -0.25090878059E+04  0.25090878059E+04  0.25500000920E-02 0.  1.
    10030    2    1    2    0    0  0.00000000000E+00  0.00000000000E+00 -0.10450876502E+04  0.39730879616E+04  0.38331735878E+04 0.  0.
        2    1    3    3  502    0  0.10270289546E+03  0.13505038191E+04  0.88301276223E+03  0.16168240437E+04  0.25500000920E-02 0. -1.
       -2    1    3    3    0  502 -0.10270289546E+03 -0.13505038191E+04 -0.19281004124E+04  0.23562639178E+04  0.25500000920E-02 0.  1.
</event>
<event>
 5   0  0.2486268E-07  0.3170445E+04  0.7818609E-02  0.8196667E-01
        2   -1    0    0  501    0  0.00000000000E+00  0.00000000000E+00  0.28832000657E+04  0.28832000657E+04  0.25500000920E-02 0.  1.
       -2   -1    0    0    0  501  0.00000000000E+00  0.00000000000E+00 -0.87157666151E+03  0.87157666152E+03  0.25500000920E-02 0. -1.
    10030    2    1    2    0    0  0.00000000000E+00  0.00000000000E+00  0.20116234042E+04  0.37547767272E+04  0.31704446929E+04 0.  0.
        5    1    3    3  502    0 -0.28069533822E+03  0.29310687026E+03 -0.80900203992E+03  0.90510104457E+03  0.46999998093E+01 0. -1.
       -5    1    3    3    0  502  0.28069533822E+03 -0.29310687026E+03  0.28206254441E+04  0.28496756826E+04  0.46999998093E+01 0.  1.
</event>
<event>
 5   0  0.7675750E-08  0.3880539E+04  0.7818609E-02  0.8029089E-01
        1   -1    0    0  501    0  0.00000000000E+00  0.00000000000E+00  0.21809936501E+04  0.21809936501E+04  0.50400001928E-02 0. -1.
       -1   -1    0    0    0  501  0.00000000000E+00  0.00000000000E+00 -0.17261147862E+04  0.17261147862E+04  0.50400001928E-02 0.  1.
    10030    2    1    2    0    0  0.00000000000E+00  0.00000000000E+00  0.45487886388E+03  0.39071084364E+04  0.38805388225E+04 0.  0.
        4    1    3    3  502    0 -0.49078095812E+03 -0.13151663831E+04 -0.11211774633E+04  0.17965436486E+04  0.12699999809E+01 0.  1.
       -4    1    3    3    0  502  0.49078095812E+03  0.13151663831E+04  0.15760563272E+04  0.21105647878E+04  0.12699999809E+01 0. -1.
</event>
<event>
 5   0  0.2446281E-07  0.3901822E+04  0.7818609E-02  0.8024650E-01
        2   -1    0    0  501    0  0.00000000000E+00  0.00000000000E+00  0.18126596470E+04  0.18126596471E+04  0.25500000920E-02 0.  1.
       -2   -1    0    0    0  501  0.00000000000E+00  0.00000000000E+00 -0.20997064094E+04  0.20997064094E+04  0.25500000920E-02 0. -1.
    10030    2    1    2    0    0  0.00000000000E+00  0.00000000000E+00 -0.28704676236E+03  0.39123660565E+04  0.39018216663E+04 0.  0.
        1    1    3    3  502    0  0.17566471670E+04  0.67439135806E+03  0.37307773139E+03  0.19182804714E+04  0.50400001928E-02 0.  1.
       -1    1    3    3    0  502 -0.17566471670E+04 -0.67439135806E+03 -0.66012449374E+03  0.19940855851E+04  0.50400001928E-02 0. -1.
</event>
<event>
 5   0  0.7675750E-08  0.3661664E+04  0.7818609E-02  0.8076511E-01
        1   -1    0    0  501    0  0.00000000000E+00  0.00000000000E+00  0.24186910039E+04  0.24186910039E+04  0.50400001928E-02 0.  1.
       -1   -1    0    0    0  501  0.00000000000E+00  0.00000000000E+00 -0.13858513642E+04  0.13858513642E+04  0.50400001928E-02 0. -1.
    10030    2    1    2    0    0  0.00000000000E+00  0.00000000000E+00  0.10328396398E+04  0.38045423681E+04  0.36616642267E+04 0.  0.
        1    1    3    3  502    0  0.39476742816E+03  0.93878400217E+03  0.20972297661E+04  0.23314221876E+04  0.50400001928E-02 0.  1.
       -1    1    3    3    0  502 -0.39476742816E+03 -0.93878400217E+03 -0.10643901264E+04  0.14731201805E+04  0.50400001928E-02 0. -1.
</event>
<event>
 5   0  0.7675750E-08  0.3921220E+04  0.7818609E-02  0.8020630E-01
        1   -1    0    0  501    0  0.00000000000E+00  0.00000000000E+00  0.15758585217E+04  0.15758585217E+04  0.50400001928E-02 0. -1.
       -1   -1    0    0    0  501  0.00000000000E+00  0.00000000000E+00 -0.24393005429E+04  0.24393005429E+04  0.50400001928E-02 0.  1.
    10030    2    1    2    0    0  0.00000000000E+00  0.00000000000E+00 -0.86344202127E+03  0.40151590646E+04  0.39212204975E+04 0.  0.
        2    1    3    3  502    0 -0.14903976363E+03 -0.11440908481E+04 -0.20548892961E+04  0.23566346215E+04  0.25500000920E-02 0.  1.
       -2    1    3    3    0  502  0.14903976363E+03  0.11440908481E+04  0.11914472748E+04  0.16585244431E+04  0.25500000920E-02 0. -1.
</event>
<event>
 5   0  0.7731706E-08  0.3897950E+04  0.7818609E-02  0.8025456E-01
        1   -1    0    0  501    0  0.00000000000E+00  0.00000000000E+00  0.14031698081E+04  0.14031698081E+04  0.50400001928E-02 0.  1.
       -1   -1    0    0    0  501  0.00000000000E+00  0.00000000000E+00 -0.27070876419E+04  0.27070876420E+04  0.50400001928E-02 0. -1.
    10030    2    1    2    0    0  0.00000000000E+00  0.00000000000E+00 -0.13039178338E+04  0.41102574501E+04  0.38979500495E+04 0.  0.
        3    1    3    3  502    0  0.60886982355E+03 -0.12586343316E+04  0.77979557601E+03  0.16009259799E+04  0.10100000352E+00 0.  1.
       -3    1    3    3    0  502 -0.60886982355E+03  0.12586343316E+04 -0.20837134098E+04  0.25093314702E+04  0.10100000352E+00 0. -1.
</event>
<event>
 5   0  0.7675750E-08  0.3982885E+04  0.7818609E-02  0.8008008E-01
       -1   -1    0    0    0  501  0.00000000000E+00  0.00000000000E+00  0.27641500045E+04  0.27641500045E+04  0.50400001928E-02 0.  1.
        1   -1    0    0  501    0  0.00000000000E+00  0.00000000000E+00 -0.14347422478E+04  0.14347422478E+04  0.50400001928E-02 0. -1.
    10030    2    1    2    0    0  0.00000000000E+00  0.00000000000E+00  0.13294077566E+04  0.41988922523E+04  0.39828847790E+04 0.  0.
        5    1    3    3  502    0 -0.57038303633E+02  0.12353186520E+04  0.23103070334E+04  0.26204591618E+04  0.46999998093E+01 0.  1.
       -5    1    3    3    0  502  0.57038303633E+02 -0.12353186520E+04 -0.98089927674E+03  0.15784330905E+04  0.46999998093E+01 0. -1.
</event>
<event>
 5   0  0.7675750E-08  0.3872783E+04  0.7818609E-02  0.8030714E-01
       -1   -1    0    0    0  501  0.00000000000E+00  0.00000000000E+00  0.15178963328E+04  0.15178963328E+04  0.50400001928E-02 0. -1.
        1   -1    0    0  501    0  0.00000000000E+00  0.00000000000E+00 -0.24702685153E+04  0.24702685153E+04  0.50400001928E-02 0.  1.
    10030    2    1    2    0    0  0.00000000000E+00  0.00000000000E+00 -0.95237218247E+03  0.39881648481E+04  0.38727827311E+04 0.  0.
        2    1    3    3  502    0 -0.17347638745E+04 -0.35333964747E+03 -0.12840040622E+04  0.21869890348E+04  0.25500000920E-02 0.  1.
       -2    1    3    3    0  502  0.17347638745E+04  0.35333964747E+03  0.33163187975E+03  0.18011758133E+04  0.25500000920E-02 0. -1.
</event>
<event>
 5   0  0.2446281E-07  0.3873074E+04  0.7818609E-02  0.8030653E-01
       -2   -1    0    0    0  501  0.00000000000E+00  0.00000000000E+00  0.12969132852E+04  0.12969132852E+04  0.25500000920E-02 0.  1.
        2   -1    0    0  501    0  0.00000000000E+00  0.00000000000E+00 -0.28916156690E+04  0.28916156690E+04  0.25500000920E-02 0. -1.
    10030    2    1    2    0    0  0.00000000000E+00  0.00000000000E+00 -0.15947023838E+04  0.41885289542E+04  0.38730735995E+04 0.  0.
        1    1    3    3  502    0  0.73625340747E+03 -0.15192238706E+04  0.22863754947E+03  0.17036388638E+04  0.50400001928E-02 0.  1.
       -1    1    3    3    0  502 -0.73625340747E+03  0.15192238706E+04 -0.18233399333E+04  0.24848900904E+04  0.50400001928E-02 0. -1.
</event>
<event>
 5   0  0.2395572E-07  0.3940105E+04  0.7818609E-02  0.8016740E-01
       -2   -1    0    0    0  501  0.00000000000E+00  0.00000000000E+00  0.33404054173E+04  0.33404054173E+04  0.25500000920E-02 0. -1.
        2   -1    0    0  501    0  0.00000000000E+00  0.00000000000E+00 -0.11618668317E+04  0.11618668317E+04  0.25500000920E-02 0.  1.
    10030    2    1    2    0    0  0.00000000000E+00  0.00000000000E+00  0.21785385856E+04  0.45022722490E+04  0.39401046985E+04 0.  0.
        3    1    3    3  502    0 -0.11308363819E+04  0.14357981447E+04  0.24895464089E+03  0.18445285735E+04  0.10100000352E+00 0. -1.
       -3    1    3    3    0  502  0.11308363819E+04 -0.14357981447E+04  0.19295839447E+04  0.26577436755E+04  0.10100000352E+00 0.  1.
</event>
<event>
 5   0  0.7675750E-08  0.3909972E+04  0.7818609E-02  0.8022958E-01
        1   -1    0    0  501    0  0.00000000000E+00  0.00000000000E+00  0.13591039096E+04  0.13591039096E+04  0.50400001928E-02 0.  1.
       -1   -1    0    0    0  501  0.00000000000E+00  0.00000000000E+00 -0.28121257233E+04  0.28121257233E+04  0.50400001928E-02 0. -1.
    10030    2    1    2    0    0  0.00000000000E+00  0.00000000000E+00 -0.14530218137E+04  0.41712296328E+04  0.39099724115E+04 0.  0.
        1    1    3    3  502    0  0.69562715187E+03 -0.88846656915E+03 -0.24296489818E+04  0.26788923371E+04  0.50400001928E-02 0. -1.
       -1    1    3    3    0  502 -0.69562715187E+03  0.88846656915E+03  0.97662716806E+03  0.14923372958E+04  0.50400001928E-02 0.  1.
</event>
<event>
 5   0  0.7675750E-08  0.3915150E+04  0.7818609E-02  0.8021886E-01
        1   -1    0    0  501    0  0.00000000000E+00  0.00000000000E+00  0.23788394388E+04  0.23788394389E+04  0.50400001928E-02 0. -1.
       -1   -1    0    0    0  501  0.00000000000E+00  0.00000000000E+00 -0.16109112939E+04  0.16109112939E+04  0.50400001928E-02 0.  1.
    10030    2    1    2    0    0  0.00000000000E+00  0.00000000000E+00  0.76792814498E+03  0.39897507327E+04  0.39151497128E+04 0.  0.
        2    1    3    3  502    0 -0.17018318928E+04 -0.59746980735E+03  0.11593147531E+04  0.21441111582E+04  0.25500000920E-02 0. -1.
       -2    1    3    3    0  502  0.17018318928E+04  0.59746980735E+03 -0.39138660811E+03  0.18456395745E+04  0.25500000920E-02 0.  1.
</event>
<event>
 5   0  0.7675750E-08  0.3881340E+04  0.7818609E-02  0.8028921E-01
        1   -1    0    0  501    0  0.00000000000E+00  0.00000000000E+00  0.31056285928E+04  0.31056285928E+04  0.50400001928E-02 0.  1.
       -1   -1    0    0    0  501  0.00000000000E+00  0.00000000000E+00 -0.12127013482E+04  0.12127013482E+04  0.50400001928E-02 0. -1.
    10030    2    1    2    0    0  0.00000000000E+00  0.00000000000E+00  0.18929272446E+04  0.43183299410E+04  0.38813399653E+04 0.  0.
        1    1    3    3  502    0  0.23810764372E+02 -0.19619234151E+03 -0.12014760688E+04  0.12176219164E+04  0.50400001928E-02 0. -1.
       -1    1    3    3    0  502 -0.23810764372E+02  0.19619234151E+03  0.30944033134E+04  0.31007080246E+04  0.50400001928E-02 0.  1.
</event>
<event>
 5   0  0.7675750E-08  0.3874371E+04  0.7818609E-02  0.8030381E-01
       -1   -1    0    0    0  501  0.00000000000E+00  0.00000000000E+00  0.12838925489E+04  0.12838925489E+04  0.50400001928E-02 0. -1.
        1   -1    0    0  501    0  0.00000000000E+00  0.00000000000E+00 -0.29228985237E+04  0.29228985237E+04  0.50400001928E-02 0.  1.
    10030    2    1    2    0    0  0.00000000000E+00  0.00000000000E+00 -0.16390059748E+04  0.42067910727E+04  0.38743709868E+04 0.  0.
        4    1    3    3  502    0 -0.87229332891E+03 -0.13725156963E+04  0.32342235597E+03  0.16581009081E+04  0.12699999809E+01 0. -1.
       -4    1    3    3    0  502  0.87229332891E+03  0.13725156963E+04 -0.19624283308E+04  0.25486901645E+04  0.12699999809E+01 0.  1.
</event>
<event>
 5   0  0.7675750E-08  0.3792356E+04  0.7818609E-02  0.8047797E-01
        1   -1    0    0  501    0  0.00000000000E+00  0.00000000000E+00  0.18573655641E+04  0.18573655641E+04  0.50400001928E-02 0. -1.
       -1   -1    0    0    0  501  0.00000000000E+00  0.00000000000E+00 -0.19358014862E+04  0.19358014862E+04  0.50400001928E-02 0.  1.
    10030    2    1    2    0    0  0.00000000000E+00  0.00000000000E+00 -0.78435922092E+02  0.37931670503E+04  0.37923560062E+04 0.  0.
        5    1    3    3  502    0 -0.11781338671E+04 -0.13519710535E+04 -0.65550214197E+03  0.19093271817E+04  0.46999998093E+01 0.  1.
       -5    1    3    3    0  502  0.11781338671E+04  0.13519710535E+04  0.57706621987E+03  0.18838398686E+04  0.46999998093E+01 0. -1.
</event>
<event>
 5   0  0.2446281E-07  0.3980350E+04  0.7818609E-02  0.8008522E-01
        2   -1    0    0  501    0  0.00000000000E+00  0.00000000000E+00  0.23665889767E+04  0.23665889767E+04  0.25500000920E-02 0.  1.
       -2   -1    0    0    0  501  0.00000000000E+00  0.00000000000E+00 -0.16736305477E+04  0.16736305477E+04  0.25500000920E-02 0. -1.
    10030    2    1    2    0    0  0.00000000000E+00  0.00000000000E+00  0.69295842897E+03  0.40402195245E+04  0.39803495351E+04 0.  0.
        1    1    3    3  502    0  0.14836717047E+04 -0.11542306931E+04  0.10099665028E+04  0.21339078136E+04  0.50400001928E-02 0.  1.
       -1    1    3    3    0  502 -0.14836717047E+04  0.11542306931E+04 -0.31700807383E+03  0.19063117109E+04  0.50400001928E-02 0. -1.
</event>
<event>
 5   0  0.7675750E-08  0.3912824E+04  0.7818609E-02  0.8022367E-01
        1   -1    0    0  501    0  0.00000000000E+00  0.00000000000E+00  0.17965199550E+04  0.17965199550E+04  0.50400001928E-02 0.  1.
       -1   -1    0    0    0  501  0.00000000000E+00  0.00000000000E+00 -0.21305349436E+04  0.21305349436E+04  0.50400001928E-02 0. -1.
    10030    2    1    2    0    0  0.00000000000E+00  0.00000000000E+00 -0.33401498864E+03  0.39270548986E+04  0.39128243207E+04 0.  0.
        5    1    3    3  502    0 -0.49242408625E+03  0.11513951016E+04 -0.16755823689E+04  0.20918390295E+04  0.46999998093E+01 0. -1.
       -5    1    3    3    0  502  0.49242408625E+03 -0.11513951016E+04  0.13415673802E+04  0.18352158691E+04  0.46999998093E+01 0.  1.
</event>
<event>
 5   0  0.2473224E-07  0.3695990E+04  0.7818609E-02  0.8068851E-01
        2   -1    0    0  501    0  0.00000000000E+00  0.00000000000E+00  0.28930647774E+04  0.28930647774E+04  0.25500000920E-02 0.  1.
       -2   -1    0    0    0  501  0.00000000000E+00  0.00000000000E+00 -0.11804384348E+04  0.11804384348E+04  0.25500000920E-02 0. -1.
    10030    2    1    2    0    0  0.00000000000E+00  0.00000000000E+00  0.17126263426E+04  0.40735032122E+04  0.36959896415E+04 0.  0.
        2    1    3    3  502    0 -0.76216543426E+03 -0.52778756037E+03 -0.90560697528E+03  0.12959860538E+04  0.25500000920E-02 0. -1.
       -2    1    3    3    0  502  0.76216543426E+03  0.52778756037E+03  0.26182333179E+04  0.27775171583E+04  0.25500000920E-02 0.  1.
</event>
<event>
 5   0  0.7675750E-08  0.3915961E+04  0.7818609E-02  0.8021718E-01
        1   -1    0    0  501    0  0.00000000000E+00  0.00000000000E+00  0.26857284113E+04  0.26857284113E+04  0.50400001928E-02 0. -1.
       -1   -1    0    0    0  501  0.00000000000E+00  0.00000000000E+00 -0.14274297073E+04  0.14274297074E+04  0.50400001928E-02 0.  1.
    10030    2    1    2    0    0  0.00000000000E+00  0.00000000000E+00  0.12582987040E+04  0.41131581187E+04  0.39159614504E+04 0.  0.
        4    1    3    3  502    0 -0.11720932096E+04 -0.60646224435E+03  0.21483913844E+04  0.25213460888E+04  0.12699999809E+01 0. -1.
       -4    1    3    3    0  502  0.11720932096E+04  0.60646224435E+03 -0.89009268043E+03  0.15918120299E+04  0.12699999809E+01 0.  1.
</event>
<event>
 5   0  0.2395572E-07  0.3901414E+04  0.7818609E-02  0.8024735E-01
       -2   -1    0    0    0  501  0.00000000000E+00  0.00000000000E+00  0.17383754084E+04  0.17383754084E+04  0.25500000920E-02 0. -1.
        2   -1    0    0  501    0  0.00000000000E+00  0.00000000000E+00 -0.21889735316E+04  0.21889735316E+04  0.25500000920E-02 0.  1.
    10030    2    1    2    0    0  0.00000000000E+00  0.00000000000E+00 -0.45059812321E+03  0.39273489399E+04  0.39014139780E+04 0.  0.
        3    1    3    3  502    0 -0.17866669208E+04 -0.21944691418E+03 -0.98190847645E+03  0.20504828457E+04  0.10100000352E+00 0.  1.
       -3    1    3    3    0  502  0.17866669208E+04  0.21944691418E+03  0.53131035325E+03  0.18768660943E+04  0.10100000352E+00 0. -1.
</event>
<event>
 5   0  0.7675750E-08  0.3900690E+04  0.7818609E-02  0.8024886E-01
       -1   -1    0    0    0  501  0.00000000000E+00  0.00000000000E+00  0.33025610793E+04  0.33025610793E+04  0.50400001928E-02 0.  1.
        1   -1    0    0  501    0  0.00000000000E+00  0.00000000000E+00 -0.11517863923E+04  0.11517863923E+04  0.50400001928E-02 0. -1.
    10030    2    1    2    0    0  0.00000000000E+00  0.00000000000E+00  0.21507746870E+04  0.44543474716E+04  0.39006896369E+04 0.  0.
        1    1    3    3  502    0 -0.98476439521E+03  0.93637857142E+03  0.26729911348E+04  0.29985742195E+04  0.50400001928E-02 0.  1.
       -1    1    3    3    0  502  0.98476439521E+03 -0.93637857142E+03 -0.52221644780E+03  0.14557732521E+04  0.50400001928E-02 0. -1.
</event>
<event>
 5   0  0.2395572E-07  0.3894118E+04  0.7818609E-02  0.8026254E-01
        2   -1    0    0  501    0  0.00000000000E+00  0.00000000000E+00  0.16617469199E+04  0.16617469199E+04  0.25500000920E-02 0. -1.
       -2   -1    0    0    0  501  0.00000000000E+00  0.00000000000E+00 -0.22813570922E+04  0.22813570922E+04  0.25500000920E-02 0.  1.
    10030    2    1    2    0    0  0.00000000000E+00  0.00000000000E+00 -0.61961017230E+03  0.39431040120E+04  0.38941176772E+04 0.  0.
        3    1    3    3  502    0  0.20776056344E+03  0.17092846080E+04  0.61059565082E+03  0.18269223798E+04  0.10100000352E+00 0. -1.
       -3    1    3    3    0  502 -0.20776056344E+03 -0.17092846080E+04 -0.12302058231E+04  0.21161816322E+04  0.10100000352E+00 0.  1.
</event>
<event>
 5   0  0.7675750E-08  0.3902041E+04  0.7818609E-02  0.8024605E-01
       -1   -1    0    0    0  501  0.00000000000E+00  0.00000000000E+00  0.15024606449E+04  0.15024606449E+04  0.50400001928E-02 0. -1.
        1   -1    0    0  501    0  0.00000000000E+00  0.00000000000E+00 -0.25334978352E+04  0.25334978352E+04  0.50400001928E-02 0.  1.
    10030    2    1    2    0    0  0.00000000000E+00  0.00000000000E+00 -0.10310371903E+04  0.40359584801E+04  0.39020408974E+04 0.  0.
        5    1    3    3  502    0 -0.53943433227E+03 -0.84085739888E+03  0.12178324657E+04  0.15751725520E+04  0.46999998093E+01 0. -1.
       -5    1    3    3    0  502  0.53943433227E+03  0.84085739888E+03 -0.22488696560E+04  0.24607859281E+04  0.46999998093E+01 0.  1.
</event>
<event>
 5   0  0.7675750E-08  0.3898724E+04  0.7818609E-02  0.8025295E-01
       -1   -1    0    0    0  501  0.00000000000E+00  0.00000000000E+00  0.17429059270E+04  0.17429059270E+04  0.50400001928E-02 0. -1.
        1   -1    0    0  501    0  0.00000000000E+00  0.00000000000E+00 -0.21802742319E+04  0.21802742319E+04  0.50400001928E-02 0.  1.
    10030    2    1    2    0    0  0.00000000000E+00  0.00000000000E+00 -0.43736830485E+03  0.39231801589E+04  0.38987243458E+04 0.  0.
        5    1    3    3  502    0  0.16117746917E+03 -0.30328034462E+03  0.17122150292E+04  0.17463274436E+04  0.46999998093E+01 0. -1.
       -5    1    3    3    0  502 -0.16117746917E+03  0.30328034462E+03 -0.21495833341E+04  0.21768527153E+04  0.46999998093E+01 0.  1.
</event>
<event>
 5   0  0.7731706E-08  0.3883451E+04  0.7818609E-02  0.8028480E-01
       -1   -1    0    0    0  501  0.00000000000E+00  0.00000000000E+00  0.16657596591E+04  0.16657596591E+04  0.50400001928E-02 0.  1.
        1   -1    0    0  501    0  0.00000000000E+00  0.00000000000E+00 -0.22634104683E+04  0.22634104683E+04  0.50400001928E-02 0. -1.
    10030    2    1    2    0    0  0.00000000000E+00  0.00000000000E+00 -0.59765080919E+03  0.39291701274E+04  0.38834509653E+04 0.  0.
        3    1    3    3  502    0  0.74019920545E+03 -0.15697158292E+04 -0.11799367495E+04  0.20986074886E+04  0.10100000352E+00 0. -1.
       -3    1    3    3    0  502 -0.74019920545E+03  0.15697158292E+04  0.58228594035E+03  0.18305626388E+04  0.10100000352E+00 0.  1.
</event>
<event>
 5   0  0.2486268E-07  0.3897352E+04  0.7818609E-02  0.8025580E-01
        2   -1    0    0  501    0  0.00000000000E+00  0.00000000000E+00  0.19707180081E+04  0.19707180081E+04  0.25500000920E-02 0.  1.
       -2   -1    0    0    0  501  0.00000000000E+00  0.00000000000E+00 -0.19268806261E+04  0.19268806261E+04  0.25500000920E-02 0. -1.
    10030    2    1    2    0    0  0.00000000000E+00  0.00000000000E+00  0.43837381953E+02  0.38975986342E+04  0.38973521007E+04 0.  0.
        5    1    3    3  502    0  0.13165155621E+04 -0.14222037181E+04 -0.18166141924E+03  0.19465095947E+04  0.46999998093E+01 0.  1.
       -5    1    3    3    0  502 -0.13165155621E+04  0.14222037181E+04  0.22549880119E+03  0.19510890395E+04  0.46999998093E+01 0. -1.
</event>
<event>
 5   0  0.2446281E-07  0.3972355E+04  0.7818609E-02  0.8010147E-01
        2   -1    0    0  501    0  0.00000000000E+00  0.00000000000E+00  0.20515029722E+04  0.20515029722E+04  0.25500000920E-02 0. -1.
       -2   -1    0    0    0  501  0.00000000000E+00  0.00000000000E+00 -0.19229324308E+04  0.19229324308E+04  0.25500000920E-02 0.  1.
    10030    2    1    2    0    0  0.00000000000E+00  0.00000000000E+00  0.12857054141E+03  0.39744354030E+04  0.39723552697E+04 0.  0.
        1    1    3    3  502    0  0.14910155269E+04  0.10067937126E+04  0.90623690186E+03  0.20144543191E+04  0.50400001928E-02 0. -1.
       -1    1    3    3    0  502 -0.14910155269E+04 -0.10067937126E+04 -0.77766636045E+03  0.19599810840E+04  0.50400001928E-02 0.  1.
</event>
<event>
 5   0  0.2446281E-07  0.3880029E+04  0.7818609E-02  0.8029196E-01
       -2   -1    0    0    0  501  0.00000000000E+00  0.00000000000E+00  0.12605032658E+04  0.12605032658E+04  0.25500000920E-02 0. -1.
        2   -1    0    0  501    0  0.00000000000E+00  0.00000000000E+00 -0.29858356691E+04  0.29858356691E+04  0.25500000920E-02 0.  1.
    10030    2    1    2    0    0  0.00000000000E+00  0.00000000000E+00 -0.17253324034E+04  0.42463389349E+04  0.38800286659E+04 0.  0.
        1    1    3    3  502    0  0.17229434858E+04  0.85140047535E+03 -0.57261971749E+03  0.20053205144E+04  0.50400001928E-02 0. -1.
       -1    1    3    3    0  502 -0.17229434858E+04 -0.85140047535E+03 -0.11527126859E+04  0.22410184205E+04  0.50400001928E-02 0.  1.
</event>
<event>
 5   0  0.7675750E-08  0.3899431E+04  0.7818609E-02  0.8025148E-01
       -1   -1    0    0    0  501  0.00000000000E+00  0.00000000000E+00  0.18203389061E+04  0.18203389061E+04  0.50400001928E-02 0.  1.
        1   -1    0    0  501    0  0.00000000000E+00  0.00000000000E+00 -0.20882873861E+04  0.20882873861E+04  0.50400001928E-02 0. -1.
    10030    2    1    2    0    0  0.00000000000E+00  0.00000000000E+00 -0.26794848006E+03  0.39086262922E+04  0.38994311257E+04 0.  0.
        2    1    3    3  502    0  0.49068692296E+03 -0.10002799135E+04  0.14698166078E+04  0.18443682990E+04  0.25500000920E-02 0.  1.
       -2    1    3    3    0  502 -0.49068692296E+03  0.10002799135E+04 -0.17377650879E+04  0.20642579932E+04  0.25500000920E-02 0. -1.
</event>
<event>
 5   0  0.7675750E-08  0.3853422E+04  0.7818609E-02  0.8034787E-01
        1   -1    0    0  501    0  0.00000000000E+00  0.00000000000E+00  0.25396338438E+04  0.25396338438E+04  0.50400001928E-02 0. -1.
       -1   -1    0    0    0  501  0.00000000000E+00  0.00000000000E+00 -0.14617126581E+04  0.14617126581E+04  0.50400001928E-02 0.  1.
    10030    2    1    2    0    0  0.00000000000E+00  0.00000000000E+00  0.10779211857E+04  0.40013465019E+04  0.38534218229E+04 0.  0.
        2    1    3    3  502    0  0.43042940960E+03 -0.74520701750E+02  0.24875341425E+04  0.25255987254E+04  0.25500000920E-02 0. -1.
       -2    1    3    3    0  502 -0.43042940960E+03  0.74520701750E+02 -0.14096129568E+04  0.14757477765E+04  0.25500000920E-02 0.  1.
</event>
<event>
 5   0  0.2473224E-07  0.3828002E+04  0.7818609E-02  0.8040172E-01
        2   -1    0    0  501    0  0.00000000000E+00  0.00000000000E+00  0.22322568829E+04  0.22322568829E+04  0.25500000920E-02 0.  1.
       -2   -1    0    0    0  501  0.00000000000E+00  0.00000000000E+00 -0.16411196568E+04  0.16411196568E+04  0.25500000920E-02 0. -1.
    10030    2    1    2    0    0  0.00000000000E+00  0.00000000000E+00  0.59113722615E+03  0.38733765397E+04  0.38280024293E+04 0.  0.
        2    1    3    3  502    0  0.95240225498E+03  0.16487667779E+04  0.49255204831E+03  0.19667509917E+04  0.25500000920E-02 0.  1.
       -2    1    3    3    0  502 -0.95240225498E+03 -0.16487667779E+04  0.98585177840E+02  0.19066255480E+04  0.25500000920E-02 0. -1.
</event>
<event>
 5   0  0.7675750E-08  0.3891888E+04  0.7818609E-02  0.8026718E-01
        1   -1    0    0  501    0  0.00000000000E+00  0.00000000000E+00  0.24122064922E+04  0.24122064922E+04  0.50400001928E-02 0.  1.
       -1   -1    0    0    0  501  0.00000000000E+00  0.00000000000E+00 -0.15698070879E+04  0.15698070879E+04  0.50400001928E-02 0. -1.
    10030    2    1    2    0    0  0.00000000000E+00  0.00000000000E+00  0.84239940437E+03  0.39820135801E+04  0.38918884100E+04 0.  0.
        5    1    3    3  502    0 -0.22755309740E+03 -0.12300656984E+04 -0.11038999860E+04  0.16683702538E+04  0.46999998093E+01 0. -1.
       -5    1    3    3    0  502  0.22755309740E+03  0.12300656984E+04  0.19462993904E+04  0.23136433264E+04  0.46999998093E+01 0.  1.
</event>
<event>
 5   0  0.7675750E-08  0.3897857E+04  0.7818609E-02  0.8025475E-01
        1   -1    0    0  501    0  0.00000000000E+00  0.00000000000E+00  0.16879847043E+04  0.16879847043E+04  0.50400001928E-02 0. -1.
       -1   -1    0    0    0  501  0.00000000000E+00  0.00000000000E+00 -0.22502111892E+04  0.22502111892E+04  0.50400001928E-02 0.  1.
    10030    2    1    2    0    0  0.00000000000E+00  0.00000000000E+00 -0.56222648488E+03  0.39381958936E+04  0.38978568824E+04 0.  0.
        4    1    3    3  502    0 -0.32315821794E+03  0.79451651603E+03  0.14870358624E+04  0.17166726529E+04  0.12699999809E+01 0. -1.
       -4    1    3    3    0  502  0.32315821794E+03 -0.79451651603E+03 -0.20492623473E+04  0.22215232407E+04  0.12699999809E+01 0.  1.
</event>
<event>
 5   0  0.7731706E-08  0.3856026E+04  0.7818609E-02  0.8034238E-01
       -1   -1    0    0    0  501  0.00000000000E+00  0.00000000000E+00  0.25334368539E+04  0.25334368539E+04  0.50400001928E-02 0.  1.
        1   -1    0    0  501    0  0.00000000000E+00  0.00000000000E+00 -0.14672692524E+04  0.14672692524E+04  0.50400001928E-02 0. -1.
    10030    2    1    2    0    0  0.00000000000E+00  0.00000000000E+00  0.10661676014E+04  0.40007061063E+04  0.38560259329E+04 0.  0.
        3    1    3    3  502    0  0.13383408736E+04 -0.91318876758E+03 -0.55119414820E+03  0.17113985563E+04  0.10100000352E+00 0. -1.
       -3    1    3    3    0  502 -0.13383408736E+04  0.91318876758E+03  0.16173617496E+04  0.22893075500E+04  0.10100000352E+00 0.  1.
</event>
<event>
 5   0  0.7675750E-08  0.3583180E+04  0.7818609E-02  0.8094355E-01
        1   -1    0    0  501    0  0.00000000000E+00  0.00000000000E+00  0.24262340014E+04  0.24262340014E+04  0.50400001928E-02 0.  1.
       -1   -1    0    0    0  501  0.00000000000E+00  0.00000000000E+00 -0.13229536160E+04  0.13229536160E+04  0.50400001928E-02 0. -1.
    10030    2    1    2    0    0  0.00000000000E+00  0.00000000000E+00  0.11032803854E+04  0.37491876175E+04  0.35831801772E+04 0.  0.
        5    1    3    3  502    0 -0.91381075514E+03 -0.47869487211E+03 -0.98100025937E+03  0.14235808638E+04  0.46999998093E+01 0. -1.
       -5    1    3    3    0  502  0.91381075514E+03  0.47869487211E+03  0.20842806448E+04  0.23256067537E+04  0.46999998093E+01 0.  1.
</event>
<event>
 5   0  0.2473224E-07  0.3891274E+04  0.7818609E-02  0.8026846E-01
        2   -1    0    0  501    0  0.00000000000E+00  0.00000000000E+00  0.28022722800E+04  0.28022722800E+04  0.25500000920E-02 0. -1.
       -2   -1    0    0    0  501  0.00000000000E+00  0.00000000000E+00 -0.13508692744E+04  0.13508692744E+04  0.25500000920E-02 0.  1.
    10030    2    1    2    0    0  0.00000000000E+00  0.00000000000E+00  0.14514030056E+04  0.41531415543E+04  0.38912740954E+04 0.  0.
        2    1    3    3  502    0  0.10978858896E+04 -0.71174261830E+01 -0.98866286997E+03  0.14774499500E+04  0.25500000920E-02 0.  1.
       -2    1    3    3    0  502 -0.10978858896E+04  0.71174261830E+01  0.24400658756E+04  0.26756916043E+04  0.25500000920E-02 0. -1.
</event>
<event>
 5   0  0.2473224E-07  0.3862745E+04  0.7818609E-02  0.8032822E-01
        2   -1    0    0  501    0  0.00000000000E+00  0.00000000000E+00  0.18433007447E+04  0.18433007447E+04  0.25500000920E-02 0. -1.
       -2   -1    0    0    0  501  0.00000000000E+00  0.00000000000E+00 -0.20236523470E+04  0.20236523470E+04  0.25500000920E-02 0.  1.
    10030    2    1    2    0    0  0.00000000000E+00  0.00000000000E+00 -0.18035160225E+03  0.38669530917E+04  0.38627450748E+04 0.  0.
        2    1    3    3  502    0  0.32859932290E+03  0.10434324506E+04  0.15032462843E+04  0.18591606130E+04  0.25500000920E-02 0. -1.
       -2    1    3    3    0  502 -0.32859932290E+03 -0.10434324506E+04 -0.16835978865E+04  0.20077924787E+04  0.25500000920E-02 0.  1.
</event>
<event>
 5   0  0.7675750E-08  0.3897928E+04  0.7818609E-02  0.8025460E-01
        1   -1    0    0  501    0  0.00000000000E+00  0.00000000000E+00  0.21642862808E+04  0.21642862808E+04  0.50400001928E-02 0.  1.
       -1   -1    0    0    0  501  0.00000000000E+00  0.00000000000E+00 -0.17550642798E+04  0.17550642798E+04  0.50400001928E-02 0. -1.
    10030    2    1    2    0    0  0.00000000000E+00  0.00000000000E+00  0.40922200101E+03  0.39193505606E+04  0.38979284460E+04 0.  0.
        4    1    3    3  502    0  0.12436624535E+04  0.12420041417E+04 -0.64215097615E+03  0.18712642986E+04  0.12699999809E+01 0. -1.
       -4    1    3    3    0  502 -0.12436624535E+04 -0.12420041417E+04  0.10513729772E+04  0.20480862619E+04  0.12699999809E+01 0.  1.
</event>
<event>
 5   0  0.7731706E-08  0.3901019E+04  0.7818609E-02  0.8024817E-01
       -1   -1    0    0    0  501  0.00000000000E+00  0.00000000000E+00  0.19288084103E+04  0.19288084103E+04  0.50400001928E-02 0. -1.
        1   -1    0    0  501    0  0.00000000000E+00  0.00000000000E+00 -0.19724546020E+04  0.19724546020E+04  0.50400001928E-02 0.  1.
    10030    2    1    2    0    0  0.00000000000E+00  0.00000000000E+00 -0.43646191642E+02  0.39012630123E+04  0.39010188543E+04 0.  0.
        3    1    3    3  502    0 -0.16569297024E+04  0.33411457121E+02  0.10068105058E+04  0.19391234537E+04  0.10100000352E+00 0. -1.
       -3    1    3    3    0  502  0.16569297024E+04 -0.33411457121E+02 -0.10504566974E+04  0.19621395586E+04  0.10100000352E+00 0.  1.
</event>
<event>
 5   0  0.7675750E-08  0.3812541E+04  0.7818609E-02  0.8043469E-01
        1   -1    0    0  501    0  0.00000000000E+00  0.00000000000E+00  0.22594013611E+04  0.22594013611E+04  0.50400001928E-02 0. -1.
       -1   -1    0    0    0  501  0.00000000000E+00  0.00000000000E+00 -0.16083321111E+04  0.16083321112E+04  0.50400001928E-02 0.  1.
    10030    2    1    2    0    0  0.00000000000E+00  0.00000000000E+00  0.65106924994E+03  0.38677334722E+04  0.38125412842E+04 0.  0.
        1    1    3    3  502    0 -0.16643398929E+04  0.72307437662E+03  0.91794366125E+03  0.20335890437E+04  0.50400001928E-02 0. -1.
       -1    1    3    3    0  502  0.16643398929E+04 -0.72307437662E+03 -0.26687441132E+03  0.18341444286E+04  0.50400001928E-02 0.  1.
</event>
<event>
 5   0  0.7675750E-08  0.3864236E+04  0.7818609E-02  0.8032509E-01
       -1   -1    0    0    0  501  0.00000000000E+00  0.00000000000E+00  0.19117080111E+04  0.19117080111E+04  0.50400001928E-02 0. -1.
        1   -1    0    0  501    0  0.00000000000E+00  0.00000000000E+00 -0.19527460876E+04  0.19527460876E+04  0.50400001928E-02 0.  1.
    10030    2    1    2    0    0  0.00000000000E+00  0.00000000000E+00 -0.41038076568E+02  0.38644540987E+04  0.38642361933E+04 0.  0.
        5    1    3    3  502    0  0.15685387738E+04 -0.10514766257E+04  0.38833316113E+03  0.19278852957E+04  0.46999998093E+01 0.  1.
       -5    1    3    3    0  502 -0.15685387738E+04  0.10514766257E+04 -0.42937123770E+03  0.19365688031E+04  0.46999998093E+01 0. -1.
</event>
<event>
 5   0  0.2384787E-07  0.3834828E+04  0.7818609E-02  0.8038722E-01
        2   -1    0    0  501    0  0.00000000000E+00  0.00000000000E+00  0.31103676728E+04  0.31103676728E+04  0.25500000920E-02 0.  1.
       -2   -1    0    0    0  501  0.00000000000E+00  0.00000000000E+00 -0.11820072276E+04  0.11820072276E+04  0.25500000920E-02 0. -1.
    10030    2    1    2    0    0  0.00000000000E+00  0.00000000000E+00  0.19283604452E+04  0.42923749004E+04  0.38348283246E+04 0.  0.
        4    1    3    3  502    0 -0.17297057908E+03  0.90638423634E+03 -0.91714037511E+03  0.13009993411E+04  0.12699999809E+01 0. -1.
       -4    1    3    3    0  502  0.17297057908E+03 -0.90638423634E+03  0.28455008203E+04  0.29913755593E+04  0.12699999809E+01 0.  1.
</event>
<event>
 5   0  0.2395572E-07  0.3844302E+04  0.7818609E-02  0.8036714E-01
       -2   -1    0    0    0  501  0.00000000000E+00  0.00000000000E+00  0.17641123346E+04  0.17641123346E+04  0.25500000920E-02 0. -1.
        2   -1    0    0  501    0  0.00000000000E+00  0.00000000000E+00 -0.20943476194E+04  0.20943476194E+04  0.25500000920E-02 0.  1.
    10030    2    1    2    0    0  0.00000000000E+00  0.00000000000E+00 -0.33023528481E+03  0.38584599541E+04  0.38443020009E+04 0.  0.
        3    1    3    3  502    0  0.12498216826E+04  0.75989835999E+03  0.10865375196E+04  0.18221041538E+04  0.10100000352E+00 0. -1.
       -3    1    3    3    0  502 -0.12498216826E+04 -0.75989835999E+03 -0.14167728044E+04  0.20363558003E+04  0.10100000352E+00 0.  1.
</event>
<event>
 5   0  0.2446281E-07  0.3939049E+04  0.7818609E-02  0.8016957E-01
        2   -1    0    0  501    0  0.00000000000E+00  0.00000000000E+00  0.18538782087E+04  0.18538782087E+04  0.25500000920E-02 0.  1.
       -2   -1    0    0    0  501  0.00000000000E+00  0.00000000000E+00 -0.20923844645E+04  0.20923844645E+04  0.25500000920E-02 0. -1.
    10030    2    1    2    0    0  0.00000000000E+00  0.00000000000E+00 -0.23850625575E+03  0.39462626732E+04  0.39390485973E+04 0.  0.
        1    1    3    3  502    0  0.30814014584E+03  0.89103405279E+03  0.16131141477E+04  0.18684296311E+04  0.50400001928E-02 0.  1.
       -1    1    3    3    0  502 -0.30814014584E+03 -0.89103405279E+03 -0.18516204034E+04  0.20778330422E+04  0.50400001928E-02 0. -1.
</event>
<event>
 5   0  0.2395572E-07  0.4158588E+04  0.7818609E-02  0.7973297E-01
        2   -1    0    0  501    0  0.00000000000E+00  0.00000000000E+00  0.18947912613E+04  0.18947912613E+04  0.25500000920E-02 0. -1.
       -2   -1    0    0    0  501  0.00000000000E+00  0.00000000000E+00 -0.22817624905E+04  0.22817624905E+04  0.25500000920E-02 0.  1.
    10030    2    1    2    0    0  0.00000000000E+00  0.00000000000E+00 -0.38697122914E+03  0.41765537518E+04  0.41585880428E+04 0.  0.
        3    1    3    3  502    0 -0.14504832436E+04  0.79922540932E+03 -0.14562163090E+04  0.22052729636E+04  0.10100000352E+00 0.  1.
       -3    1    3    3    0  502  0.14504832436E+04 -0.79922540932E+03  0.10692450799E+04  0.19712807882E+04  0.10100000352E+00 0. -1.
</event>
<event>
 5   0  0.2486268E-07  0.3890676E+04  0.7818609E-02  0.8026971E-01
        2   -1    0    0  501    0  0.00000000000E+00  0.00000000000E+00  0.23946588227E+04  0.23946588227E+04  0.25500000920E-02 0.  1.
       -2   -1    0    0    0  501  0.00000000000E+00  0.00000000000E+00 -0.15803250913E+04  0.15803250913E+04  0.25500000920E-02 0. -1.
    10030    2    1    2    0    0  0.00000000000E+00  0.00000000000E+00  0.81433373141E+03  0.39749839139E+04  0.38906757369E+04 0.  0.
        5    1    3    3  502    0  0.11149896940E+04 -0.62913519478E+03  0.19035912710E+04  0.22940564352E+04  0.46999998093E+01 0.  1.
       -5    1    3    3    0  502 -0.11149896940E+04  0.62913519478E+03 -0.10892575396E+04  0.16809274787E+04  0.46999998093E+01 0. -1.
</event>
<event>
 5   0  0.7675750E-08  0.3851560E+04  0.7818609E-02  0.8035180E-01
       -4   -1    0    0    0  501  0.00000000000E+00  0.00000000000E+00  0.23992431719E+04  0.23992435080E+04  0.12699999809E+01 0.  1.
        4   -1    0    0  501    0  0.00000000000E+00  0.00000000000E+00 -0.15457484919E+04  0.15457490136E+04  0.12699999809E+01 0. -1.
    10030    2    1    2    0    0  0.00000000000E+00  0.00000000000E+00  0.85349467995E+03  0.39449925216E+04  0.38515597914E+04 0.  0.
        2    1    3    3  502    0 -0.56335796309E+03  0.81445697725E+03  0.21184538642E+04  0.23384950582E+04  0.25500000920E-02 0.  1.
       -2    1    3    3    0  502  0.56335796309E+03 -0.81445697725E+03 -0.12649591842E+04  0.16064974635E+04  0.25500000920E-02 0. -1.
</event>
<event>
 5   0  0.7731706E-08  0.3845756E+04  0.7818609E-02  0.8036407E-01
        1   -1    0    0  501    0  0.00000000000E+00  0.00000000000E+00  0.21310084376E+04  0.21310084376E+04  0.50400001928E-02 0.  1.
       -1   -1    0    0    0  501  0.00000000000E+00  0.00000000000E+00 -0.17350747909E+04  0.17350747909E+04  0.50400001928E-02 0. -1.
    10030    2    1    2    0    0  0.00000000000E+00  0.00000000000E+00  0.39593364669E+03  0.38660832286E+04  0.38457555925E+04 0.  0.
        3    1    3    3  502    0 -0.12681724488E+04 -0.22483999436E+03 -0.12373913357E+04  0.17860435916E+04  0.10100000352E+00 0. -1.
       -3    1    3    3    0  502  0.12681724488E+04  0.22483999436E+03  0.16333249824E+04  0.20800396370E+04  0.10100000352E+00 0.  1.
</event>
<event>
 5   0  0.2446281E-07  0.3888787E+04  0.7818609E-02  0.8027365E-01
       -2   -1    0    0    0  501  0.00000000000E+00  0.00000000000E+00  0.12000018524E+04  0.12000018524E+04  0.25500000920E-02 0.  1.
        2   -1    0    0  501    0  0.00000000000E+00  0.00000000000E+00 -0.31505499582E+04  0.31505499582E+04  0.25500000920E-02 0. -1.
    10030    2    1    2    0    0  0.00000000000E+00  0.00000000000E+00 -0.19505481059E+04  0.43505518106E+04  0.38887868472E+04 0.  0.
        1    1    3    3  502    0  0.52580773653E+03 -0.18696738988E+04 -0.10784869163E+04  0.22215508754E+04  0.50400001928E-02 0.  1.
       -1    1    3    3    0  502 -0.52580773653E+03  0.18696738988E+04 -0.87206118961E+03  0.21290009352E+04  0.50400001928E-02 0. -1.
</event>
<event>
 5   0  0.7675750E-08  0.4290904E+04  0.7818609E-02  0.7948302E-01
        1   -1    0    0  501    0  0.00000000000E+00  0.00000000000E+00  0.22491010593E+04  0.22491010593E+04  0.50400001928E-02 0.  1.
       -1   -1    0    0    0  501  0.00000000000E+00  0.00000000000E+00 -0.20465791133E+04  0.20465791133E+04  0.50400001928E-02 0. -1.
    10030    2    1    2    0    0  0.00000000000E+00  0.00000000000E+00  0.20252194594E+03  0.42956801726E+04  0.42909035187E+04 0.  0.
        5    1    3    3  502    0  0.49634022637E+03  0.64457738237E+03 -0.18861712755E+04  0.20541416194E+04  0.46999998093E+01 0. -1.
       -5    1    3    3    0  502 -0.49634022637E+03 -0.64457738237E+03  0.20886932214E+04  0.22415385532E+04  0.46999998093E+01 0.  1.
</event>
<event>
 5   0  0.7675750E-08  0.3916227E+04  0.7818609E-02  0.8021663E-01
       -1   -1    0    0    0  501  0.00000000000E+00  0.00000000000E+00  0.21223278833E+04  0.21223278833E+04  0.50400001928E-02 0.  1.
        1   -1    0    0  501    0  0.00000000000E+00  0.00000000000E+00 -0.18066048585E+04  0.18066048585E+04  0.50400001928E-02 0. -1.
    10030    2    1    2    0    0  0.00000000000E+00  0.00000000000E+00  0.31572302477E+03  0.39289327418E+04  0.39162266867E+04 0.  0.
        2    1    3    3  502    0  0.51303996958E+03 -0.12986044545E+04 -0.12194087423E+04  0.18537910401E+04  0.25500000920E-02 0. -1.
       -2    1    3    3    0  502 -0.51303996958E+03  0.12986044545E+04  0.15351317671E+04  0.20751417017E+04  0.25500000920E-02 0.  1.
</event>
<event>
 5   0  0.7675750E-08  0.3871394E+04  0.7818609E-02  0.8031005E-01
        1   -1    0    0  501    0  0.00000000000E+00  0.00000000000E+00  0.16564120512E+04  0.16564120512E+04  0.50400001928E-02 0. -1.
       -1   -1    0    0    0  501  0.00000000000E+00  0.00000000000E+00 -0.22620720435E+04  0.22620720435E+04  0.50400001928E-02 0.  1.
    10030    2    1    2    0    0  0.00000000000E+00  0.00000000000E+00 -0.60565999229E+03  0.39184840947E+04  0.38713942675E+04 0.  0.
        4    1    3    3  502    0 -0.11791681136E+04  0.12667410962E+04  0.57481053867E+03  0.18235896505E+04  0.12699999809E+01 0. -1.
       -4    1    3    3    0  502  0.11791681136E+04 -0.12667410962E+04 -0.11804705310E+04  0.20948944442E+04  0.12699999809E+01 0.  1.
</event>
<event>
 5   0  0.2384787E-07  0.3893173E+04  0.7818609E-02  0.8026450E-01
        2   -1    0    0  501    0  0.00000000000E+00  0.00000000000E+00  0.15531179190E+04  0.15531179190E+04  0.25500000920E-02 0. -1.
       -2   -1    0    0    0  501  0.00000000000E+00  0.00000000000E+00 -0.24397374355E+04  0.24397374355E+04  0.25500000920E-02 0.  1.
    10030    2    1    2    0    0  0.00000000000E+00  0.00000000000E+00 -0.88661951656E+03  0.39928553545E+04  0.38931734761E+04 0.  0.
        4    1    3    3  502    0 -0.36698961424E+03 -0.13524563108E+04  0.94234912666E+03  0.16887400448E+04  0.12699999809E+01 0. -1.
       -4    1    3    3    0  502  0.36698961424E+03  0.13524563108E+04 -0.18289686432E+04  0.23041153097E+04  0.12699999809E+01 0.  1.
</event>
<event>
 5   0  0.7675750E-08  0.3903310E+04  0.7818609E-02  0.8024341E-01
        3   -1    0    0  501    0  0.00000000000E+00  0.00000000000E+00  0.17464467157E+04  0.17464467187E+04  0.10100000352E+00 0.  1.
       -3   -1    0    0    0  501  0.00000000000E+00  0.00000000000E+00 -0.21809757886E+04  0.21809757910E+04  0.10100000352E+00 0. -1.
    10030    2    1    2    0    0  0.00000000000E+00  0.00000000000E+00 -0.43452907288E+03  0.39274225096E+04  0.39033103968E+04 0.  0.
        3    1    3    3  502    0 -0.56534192580E+03 -0.96813343698E+02  0.16597278741E+04  0.17560412702E+04  0.10100000352E+00 0.  1.
       -3    1    3    3    0  502  0.56534192580E+03  0.96813343698E+02 -0.20942569470E+04  0.21713812394E+04  0.10100000352E+00 0. -1.
</event>
<event>
 5   0  0.7675750E-08  0.3155493E+04  0.7818609E-02  0.8200671E-01
        1   -1    0    0  501    0  0.00000000000E+00  0.00000000000E+00  0.24719917059E+04  0.24719917060E+04  0.50400001928E-02 0.  1.
       -1   -1    0    0    0  501  0.00000000000E+00  0.00000000000E+00 -0.10069950578E+04  0.10069950578E+04  0.50400001928E-02 0. -1.
    10030    2    1    2    0    0  0.00000000000E+00  0.00000000000E+00  0.14649966481E+04  0.34789867638E+04  0.31554926277E+04 0.  0.
        5    1    3    3  502    0  0.91773148320E+03 -0.13056347249E+03 -0.67509501608E+03  0.11467577191E+04  0.46999998093E+01 0. -1.
       -5    1    3    3    0  502 -0.91773148320E+03  0.13056347249E+03  0.21400916642E+04  0.23322290447E+04  0.46999998093E+01 0.  1.
</event>
<event>
 5   0  0.7675750E-08  0.3856449E+04  0.7818609E-02  0.8034149E-01
       -1   -1    0    0    0  501  0.00000000000E+00  0.00000000000E+00  0.20530608974E+04  0.20530608974E+04  0.50400001928E-02 0.  1.
        1   -1    0    0  501    0  0.00000000000E+00  0.00000000000E+00 -0.18109783651E+04  0.18109783651E+04  0.50400001928E-02 0. -1.
    10030    2    1    2    0    0  0.00000000000E+00  0.00000000000E+00  0.24208253231E+03  0.38640392624E+04  0.38564485565E+04 0.  0.
        5    1    3    3  502    0 -0.69501219998E+03 -0.17979873068E+04  0.16831955957E+03  0.19349816221E+04  0.46999998093E+01 0.  1.
       -5    1    3    3    0  502  0.69501219998E+03  0.17979873068E+04  0.73762972738E+02  0.19290576404E+04  0.46999998093E+01 0. -1.
</event>
<event>
 5   0  0.2486268E-07  0.3582467E+04  0.7818609E-02  0.8094520E-01
        2   -1    0    0  501    0  0.00000000000E+00  0.00000000000E+00  0.19919397391E+04  0.19919397391E+04  0.25500000920E-02 0. -1.
       -2   -1    0    0    0  501  0.00000000000E+00  0.00000000000E+00 -0.16107506847E+04  0.16107506847E+04  0.25500000920E-02 0.  1.
    10030    2    1    2    0    0  0.00000000000E+00  0.00000000000E+00  0.38118905436E+03  0.36026904238E+04  0.35824674729E+04 0.  0.
        5    1    3    3  502    0 -0.88021900264E+03  0.48788734766E+03 -0.12995516780E+04  0.16436776479E+04  0.46999998093E+01 0.  1.
       -5    1    3    3    0  502  0.88021900264E+03 -0.48788734766E+03  0.16807407323E+04  0.19590127759E+04  0.46999998093E+01 0. -1.
</event>
<event>
 5   0  0.2446281E-07  0.3889065E+04  0.7818609E-02  0.8027307E-01
        2   -1    0    0  501    0  0.00000000000E+00  0.00000000000E+00  0.18267622333E+04  0.18267622333E+04  0.25500000920E-02 0.  1.
       -2   -1    0    0    0  501  0.00000000000E+00  0.00000000000E+00 -0.20698957093E+04  0.20698957093E+04  0.25500000920E-02 0. -1.
    10030    2    1    2    0    0  0.00000000000E+00  0.00000000000E+00 -0.24313347599E+03  0.38966579426E+04  0.38890653421E+04 0.  0.
        1    1    3    3  502    0  0.29235828515E+03 -0.55259875189E+03  0.17233233614E+04  0.18332163417E+04  0.50400001928E-02 0.  1.
       -1    1    3    3    0  502 -0.29235828515E+03  0.55259875189E+03 -0.19664568374E+04  0.20634416010E+04  0.50400001928E-02 0. -1.
</event>
<event>
 5   0  0.7675750E-08  0.4059250E+04  0.7818609E-02  0.7992700E-01
        1   -1    0    0  501    0  0.00000000000E+00  0.00000000000E+00  0.25703842573E+04  0.25703842573E+04  0.50400001928E-02 0. -1.
       -1   -1    0    0    0  501  0.00000000000E+00  0.00000000000E+00 -0.16026309360E+04  0.16026309360E+04  0.50400001928E-02 0.  1.
    10030    2    1    2    0    0  0.00000000000E+00  0.00000000000E+00  0.96775332127E+03  0.41730151933E+04  0.40592498460E+04 0.  0.
        2    1    3    3  502    0  0.50899507119E+03 -0.17425610287E+04 -0.44918520334E+03  0.18701235970E+04  0.25500000920E-02 0.  1.
       -2    1    3    3    0  502 -0.50899507119E+03  0.17425610287E+04  0.14169385246E+04  0.23028915962E+04  0.25500000920E-02 0. -1.
</event>
<event>
 5   0  0.2486268E-07  0.3893186E+04  0.7818609E-02  0.8026448E-01
        2   -1    0    0  501    0  0.00000000000E+00  0.00000000000E+00  0.28028723860E+04  0.28028723860E+04  0.25500000920E-02 0. -1.
       -2   -1    0    0    0  501  0.00000000000E+00  0.00000000000E+00 -0.13519072709E+04  0.13519072709E+04  0.25500000920E-02 0.  1.
    10030    2    1    2    0    0  0.00000000000E+00  0.00000000000E+00  0.14509651150E+04  0.41547796569E+04  0.38931856149E+04 0.  0.
        5    1    3    3  502    0 -0.12881429141E+04 -0.50030228070E+03 -0.73761772640E+03  0.15664343393E+04  0.46999998093E+01 0.  1.
       -5    1    3    3    0  502  0.12881429141E+04  0.50030228070E+03  0.21885828414E+04  0.25883453176E+04  0.46999998093E+01 0. -1.
</event>
<event>
 5   0  0.2446281E-07  0.3922639E+04  0.7818609E-02  0.8020337E-01
       -2   -1    0    0    0  501  0.00000000000E+00  0.00000000000E+00  0.16734985552E+04  0.16734985552E+04  0.25500000920E-02 0. -1.
        2   -1    0    0  501    0  0.00000000000E+00  0.00000000000E+00 -0.22986415624E+04  0.22986415624E+04  0.25500000920E-02 0.  1.
    10030    2    1    2    0    0  0.00000000000E+00  0.00000000000E+00 -0.62514300723E+03  0.39721401177E+04  0.39226385680E+04 0.  0.
        1    1    3    3  502    0  0.11482655560E+04  0.12880797491E+04  0.63145386660E+03  0.18374975409E+04  0.50400001928E-02 0. -1.
       -1    1    3    3    0  502 -0.11482655560E+04 -0.12880797491E+04 -0.12565968738E+04  0.21346425768E+04  0.50400001928E-02 0.  1.
</event>
<event>
 5   0  0.2446281E-07  0.3936053E+04  0.7818609E-02  0.8017572E-01
        2   -1    0    0  501    0  0.00000000000E+00  0.00000000000E+00  0.12319061956E+04  0.12319061956E+04  0.25500000920E-02 0. -1.
       -2   -1    0    0    0  501  0.00000000000E+00  0.00000000000E+00 -0.31440123041E+04  0.31440123041E+04  0.25500000920E-02 0.  1.
    10030    2    1    2    0    0  0.00000000000E+00  0.00000000000E+00 -0.19121061084E+04  0.43759184997E+04  0.39360529653E+04 0.  0.
        1    1    3    3  502    0  0.15248117699E+04 -0.66491178329E+02  0.42523286732E+03  0.15843910508E+04  0.50400001928E-02 0.  1.
       -1    1    3    3    0  502 -0.15248117699E+04  0.66491178329E+02 -0.23373389758E+04  0.27915274489E+04  0.50400001928E-02 0. -1.
</event>
<event>
 5   0  0.2395572E-07  0.3864775E+04  0.7818609E-02  0.8032395E-01
        2   -1    0    0  501    0  0.00000000000E+00  0.00000000000E+00  0.17902402074E+04  0.17902402074E+04  0.25500000920E-02 0.  1.
       -2   -1    0    0    0  501  0.00000000000E+00  0.00000000000E+00 -0.20858218994E+04  0.20858218994E+04  0.25500000920E-02 0. -1.
    10030    2    1    2    0    0  0.00000000000E+00  0.00000000000E+00 -0.29558169193E+03  0.38760621068E+04  0.38647754034E+04 0.  0.
        3    1    3    3  502    0  0.33920386133E+03 -0.17965131721E+04  0.47981890695E+03  0.18901706354E+04  0.10100000352E+00 0.  1.
       -3    1    3    3    0  502 -0.33920386133E+03  0.17965131721E+04 -0.77540059888E+03  0.19858914714E+04  0.10100000352E+00 0. -1.
</event>
<event>
 5   0  0.7675750E-08  0.3921410E+04  0.7818609E-02  0.8020591E-01
        1   -1    0    0  501    0  0.00000000000E+00  0.00000000000E+00  0.12505465541E+04  0.12505465541E+04  0.50400001928E-02 0.  1.
       -1   -1    0    0    0  501  0.00000000000E+00  0.00000000000E+00 -0.30741465812E+04  0.30741465812E+04  0.50400001928E-02 0. -1.
    10030    2    1    2    0    0  0.00000000000E+00  0.00000000000E+00 -0.18236000271E+04  0.43246931353E+04  0.39214096516E+04 0.  0.
        4    1    3    3  502    0  0.13469427840E+04  0.10606037789E+03  0.65518911873E+03  0.15015918425E+04  0.12699999809E+01 0.  1.
       -4    1    3    3    0  502 -0.13469427840E+04 -0.10606037789E+03 -0.24787891459E+04  0.28231012929E+04  0.12699999809E+01 0. -1.
</event>
<event>
 5   0  0.7675750E-08  0.3834934E+04  0.7818609E-02  0.8038700E-01
       -1   -1    0    0    0  501  0.00000000000E+00  0.00000000000E+00  0.15267875146E+04  0.15267875146E+04  0.50400001928E-02 0.  1.
        1   -1    0    0  501    0  0.00000000000E+00  0.00000000000E+00 -0.24081142501E+04  0.24081142501E+04  0.50400001928E-02 0. -1.
    10030    2    1    2    0    0  0.00000000000E+00  0.00000000000E+00 -0.88132673557E+03  0.39349017647E+04  0.38349335174E+04 0.  0.
        4    1    3    3  502    0 -0.27592298591E+03  0.17816445367E+04  0.22926257828E+03  0.18174030076E+04  0.12699999809E+01 0.  1.
       -4    1    3    3    0  502  0.27592298591E+03 -0.17816445367E+04 -0.11105893138E+04  0.21174987571E+04  0.12699999809E+01 0. -1.
</event>
<event>
 5   0  0.7675750E-08  0.3871743E+04  0.7818609E-02  0.8030932E-01
        1   -1    0    0  501    0  0.00000000000E+00  0.00000000000E+00  0.13871354236E+04  0.13871354236E+04  0.50400001928E-02 0. -1.
       -1   -1    0    0    0  501  0.00000000000E+00  0.00000000000E+00 -0.27016821638E+04  0.27016821638E+04  0.50400001928E-02 0.  1.
    10030    2    1    2    0    0  0.00000000000E+00  0.00000000000E+00 -0.13145467402E+04  0.40888175874E+04  0.38717432935E+04 0.  0.
        1    1    3    3  502    0 -0.83117292180E+03 -0.17199669419E+04 -0.98865668392E+03  0.21509478715E+04  0.50400001928E-02 0. -1.
       -1    1    3    3    0  502  0.83117292180E+03  0.17199669419E+04 -0.32589005624E+03  0.19378697159E+04  0.50400001928E-02 0.  1.
</event>
<event>
 5   0  0.2486268E-07  0.3942856E+04  0.7818609E-02  0.8016175E-01
        2   -1    0    0  501    0  0.00000000000E+00  0.00000000000E+00  0.23803733201E+04  0.23803733201E+04  0.25500000920E-02 0.  1.
       -2   -1    0    0    0  501  0.00000000000E+00  0.00000000000E+00 -0.16327391008E+04  0.16327391008E+04  0.25500000920E-02 0. -1.
    10030    2    1    2    0    0  0.00000000000E+00  0.00000000000E+00  0.74763421930E+03  0.40131124209E+04  0.39428561192E+04 0.  0.
        5    1    3    3  502    0  0.18107013151E+04 -0.77895210546E+03  0.34004655280E+03  0.20002648283E+04  0.46999998093E+01 0. -1.
       -5    1    3    3    0  502 -0.18107013151E+04  0.77895210546E+03  0.40758766650E+03  0.20128475926E+04  0.46999998093E+01 0.  1.
</event>
<event>
 5   0  0.7731706E-08  0.3853076E+04  0.7818609E-02  0.8034860E-01
       -1   -1    0    0    0  501  0.00000000000E+00  0.00000000000E+00  0.21657164119E+04  0.21657164120E+04  0.50400001928E-02 0.  1.
        1   -1    0    0  501    0  0.00000000000E+00  0.00000000000E+00 -0.17137738934E+04  0.17137738934E+04  0.50400001928E-02 0. -1.
    10030    2    1    2    0    0  0.00000000000E+00  0.00000000000E+00  0.45194251856E+03  0.38794903053E+04  0.38530757829E+04 0.  0.
        3    1    3    3  502    0 -0.27367058533E+03  0.26633133370E+03  0.21272279478E+04  0.21612326855E+04  0.10100000352E+00 0.  1.
       -3    1    3    3    0  502  0.27367058533E+03 -0.26633133370E+03 -0.16752854293E+04  0.17182576199E+04  0.10100000352E+00 0. -1.
</event>
<event>
 5   0  0.2486268E-07  0.3929708E+04  0.7818609E-02  0.8018879E-01
        2   -1    0    0  501    0  0.00000000000E+00  0.00000000000E+00  0.11717212382E+04  0.11717212382E+04  0.25500000920E-02 0. -1.
       -2   -1    0    0    0  501  0.00000000000E+00  0.00000000000E+00 -0.32948541269E+04  0.32948541269E+04  0.25500000920E-02 0.  1.
    10030    2    1    2    0    0  0.00000000000E+00  0.00000000000E+00 -0.21231328887E+04  0.44665753650E+04  0.39297076518E+04 0.  0.
        5    1    3    3  502    0 -0.15181930232E+04 -0.64998655790E+03  0.14840350173E+03  0.16581430187E+04  0.46999998093E+01 0. -1.
       -5    1    3    3    0  502  0.15181930232E+04  0.64998655790E+03 -0.22715363904E+04  0.28084323463E+04  0.46999998093E+01 0.  1.
</event>
<event>
 5   0  0.2446281E-07  0.3901493E+04  0.7818609E-02  0.8024719E-01
       -2   -1    0    0    0  501  0.00000000000E+00  0.00000000000E+00  0.13690649277E+04  0.13690649277E+04  0.25500000920E-02 0. -1.
        2   -1    0    0  501    0  0.00000000000E+00  0.00000000000E+00 -0.27795706345E+04  0.27795706345E+04  0.25500000920E-02 0.  1.
    10030    2    1    2    0    0  0.00000000000E+00  0.00000000000E+00 -0.14105057068E+04  0.41486355622E+04  0.39014933909E+04 0.  0.
        1    1    3    3  502    0 -0.15770132141E+04  0.11280264593E+04 -0.47719485961E+03  0.19967797335E+04  0.50400001928E-02 0. -1.
       -1    1    3    3    0  502  0.15770132141E+04 -0.11280264593E+04 -0.93331084721E+03  0.21518558287E+04  0.50400001928E-02 0.  1.
</event>
<event>
 5   0  0.2384787E-07  0.3961582E+04  0.7818609E-02  0.8012342E-01
       -2   -1    0    0    0  501  0.00000000000E+00  0.00000000000E+00  0.18253906356E+04  0.18253906356E+04  0.25500000920E-02 0. -1.
        2   -1    0    0  501    0  0.00000000000E+00  0.00000000000E+00 -0.21494204904E+04  0.21494204904E+04  0.25500000920E-02 0.  1.
    10030    2    1    2    0    0  0.00000000000E+00  0.00000000000E+00 -0.32402985471E+03  0.39748111260E+04  0.39615815201E+04 0.  0.
        4    1    3    3  502    0  0.18354328574E+03 -0.13197266580E+04 -0.16325710370E+04  0.21072865001E+04  0.12699999809E+01 0.  1.
       -4    1    3    3    0  502 -0.18354328574E+03  0.13197266580E+04  0.13085411823E+04  0.18675246259E+04  0.12699999809E+01 0. -1.
</event>
<event>
 5   0  0.2486268E-07  0.3826944E+04  0.7818609E-02  0.8040397E-01
       -2   -1    0    0    0  501  0.00000000000E+00  0.00000000000E+00  0.16380022112E+04  0.16380022112E+04  0.25500000920E-02 0.  1.
        2   -1    0    0  501    0  0.00000000000E+00  0.00000000000E+00 -0.22352687934E+04  0.22352687934E+04  0.25500000920E-02 0. -1.
    10030    2    1    2    0    0  0.00000000000E+00  0.00000000000E+00 -0.59726658219E+03  0.38732710046E+04  0.38269440687E+04 0.  0.
        5    1    3    3  502    0 -0.13449152554E+04 -0.13408143283E+04 -0.61763787869E+02  0.19001097239E+04  0.46999998093E+01 0.  1.
       -5    1    3    3    0  502  0.13449152554E+04  0.13408143283E+04 -0.53550279432E+03  0.19731612808E+04  0.46999998093E+01 0. -1.
</event>
<event>
 5   0  0.7675750E-08  0.3953564E+04  0.7818609E-02  0.8013980E-01
        1   -1    0    0  501    0  0.00000000000E+00  0.00000000000E+00  0.25374248158E+04  0.25374248158E+04  0.50400001928E-02 0.  1.
       -1   -1    0    0    0  501  0.00000000000E+00  0.00000000000E+00 -0.15400131264E+04  0.15400131264E+04  0.50400001928E-02 0. -1.
    10030    2    1    2    0    0  0.00000000000E+00  0.00000000000E+00  0.99741168941E+03  0.40774379422E+04  0.39535642266E+04 0.  0.
        4    1    3    3  502    0 -0.40371129282E+03  0.14740853739E+04  0.17916835720E+04  0.23550036375E+04  0.12699999809E+01 0.  1.
       -4    1    3    3    0  502  0.40371129282E+03 -0.14740853739E+04 -0.79427188256E+03  0.17224343047E+04  0.12699999809E+01 0. -1.
</event>
<event>
 5   0  0.2446281E-07  0.3874931E+04  0.7818609E-02  0.8030263E-01
        2   -1    0    0  501    0  0.00000000000E+00  0.00000000000E+00  0.13302331666E+04  0.13302331666E+04  0.25500000920E-02 0.  1.
       -2   -1    0    0    0  501  0.00000000000E+00  0.00000000000E+00 -0.28218912456E+04  0.28218912456E+04  0.25500000920E-02 0. -1.
    10030    2    1    2    0    0  0.00000000000E+00  0.00000000000E+00 -0.14916580790E+04  0.41521244122E+04  0.38749313942E+04 0.  0.
        1    1    3    3  502    0 -0.18051376632E+04 -0.26113156815E+03 -0.45581443875E+02  0.18244970121E+04  0.50400001928E-02 0. -1.
       -1    1    3    3    0  502  0.18051376632E+04  0.26113156815E+03 -0.14460766351E+04  0.23276274001E+04  0.50400001928E-02 0.  1.
</event>
<event>
 5   0  0.7675750E-08  0.3642831E+04  0.7818609E-02  0.8080751E-01
       -1   -1    0    0    0  501  0.00000000000E+00  0.00000000000E+00  0.18758078375E+04  0.18758078375E+04  0.50400001928E-02 0. -1.
        1   -1    0    0  501    0  0.00000000000E+00  0.00000000000E+00 -0.17685998802E+04  0.17685998802E+04  0.50400001928E-02 0.  1.
    10030    2    1    2    0    0  0.00000000000E+00  0.00000000000E+00  0.10720795724E+03  0.36444077177E+04  0.36428305020E+04 0.  0.
        1    1    3    3  502    0  0.11258691950E+04  0.80565084585E+03  0.12377121359E+04  0.18570369035E+04  0.50400001928E-02 0. -1.
       -1    1    3    3    0  502 -0.11258691950E+04 -0.80565084585E+03 -0.11305041786E+04  0.17873708142E+04  0.50400001928E-02 0.  1.
</event>
<event>
 5   0  0.7675750E-08  0.3129759E+04  0.7818609E-02  0.8207618E-01
       -1   -1    0    0    0  501  0.00000000000E+00  0.00000000000E+00  0.27889635422E+04  0.27889635422E+04  0.50400001928E-02 0. -1.
        1   -1    0    0  501    0  0.00000000000E+00  0.00000000000E+00 -0.87804932275E+03  0.87804932276E+03  0.50400001928E-02 0.  1.
    10030    2    1    2    0    0  0.00000000000E+00  0.00000000000E+00  0.19109142195E+04  0.36670128650E+04  0.31297588082E+04 0.  0.
        2    1    3    3  502    0  0.95200980449E+03 -0.23941502050E+03  0.23833473091E+04  0.25775931827E+04  0.25500000920E-02 0. -1.
       -2    1    3    3    0  502 -0.95200980449E+03  0.23941502050E+03 -0.47243308963E+03  0.10894196823E+04  0.25500000920E-02 0.  1.
</event>
<event>
 5   0  0.7675750E-08  0.3929592E+04  0.7818609E-02  0.8018903E-01
        1   -1    0    0  501    0  0.00000000000E+00  0.00000000000E+00  0.23722135855E+04  0.23722135855E+04  0.50400001928E-02 0.  1.
       -1   -1    0    0    0  501  0.00000000000E+00  0.00000000000E+00 -0.16273504760E+04  0.16273504760E+04  0.50400001928E-02 0. -1.
    10030    2    1    2    0    0  0.00000000000E+00  0.00000000000E+00  0.74486310947E+03  0.39995640615E+04  0.39295917893E+04 0.  0.
        2    1    3    3  502    0 -0.17391061226E+04 -0.51866650649E+03  0.11387782483E+04  0.21425034305E+04  0.25500000920E-02 0.  1.
       -2    1    3    3    0  502  0.17391061226E+04  0.51866650649E+03 -0.39391513886E+03  0.18570606311E+04  0.25500000920E-02 0. -1.
</event>
<event>
 5   0  0.7675750E-08  0.3942830E+04  0.7818609E-02  0.8016180E-01
        1   -1    0    0  501    0  0.00000000000E+00  0.00000000000E+00  0.24612339662E+04  0.24612339662E+04  0.50400001928E-02 0.  1.
       -1   -1    0    0    0  501  0.00000000000E+00  0.00000000000E+00 -0.15790767054E+04  0.15790767054E+04  0.50400001928E-02 0. -1.
    10030    2    1    2    0    0  0.00000000000E+00  0.00000000000E+00  0.88215726082E+03  0.40403106716E+04  0.39428300611E+04 0.  0.
        1    1    3    3  502    0  0.46667989583E+03 -0.48125496586E+03 -0.14586937507E+04  0.16053609955E+04  0.50400001928E-02 0. -1.
       -1    1    3    3    0  502 -0.46667989583E+03  0.48125496586E+03  0.23408510115E+04  0.24349496762E+04  0.50400001928E-02 0.  1.
</event>
<event>
 5   0  0.7675750E-08  0.3908826E+04  0.7818609E-02  0.8023196E-01
        1   -1    0    0  501    0  0.00000000000E+00  0.00000000000E+00  0.26240058774E+04  0.26240058774E+04  0.50400001928E-02 0. -1.
       -1   -1    0    0    0  501  0.00000000000E+00  0.00000000000E+00 -0.14556869187E+04  0.14556869188E+04  0.50400001928E-02 0.  1.
    10030    2    1    2    0    0  0.00000000000E+00  0.00000000000E+00  0.11683189587E+04  0.40796927962E+04  0.39088264379E+04 0.  0.
        4    1    3    3  502    0 -0.17609331936E+04  0.58180215966E+03 -0.59524585164E+02  0.18555118578E+04  0.12699999809E+01 0.  1.
       -4    1    3    3    0  502  0.17609331936E+04 -0.58180215966E+03  0.12278435438E+04  0.22241809383E+04  0.12699999809E+01 0. -1.
</event>
<event>
 5   0  0.2384787E-07  0.3911547E+04  0.7818609E-02  0.8022632E-01
       -2   -1    0    0    0  501  0.00000000000E+00  0.00000000000E+00  0.17884759315E+04  0.17884759315E+04  0.25500000920E-02 0. -1.
        2   -1    0    0  501    0  0.00000000000E+00  0.00000000000E+00 -0.21387200400E+04  0.21387200400E+04  0.25500000920E-02 0.  1.
    10030    2    1    2    0    0  0.00000000000E+00  0.00000000000E+00 -0.35024410848E+03  0.39271959715E+04  0.39115466587E+04 0.  0.
        4    1    3    3  502    0  0.18881456288E+04  0.44758887616E+03 -0.42026686619E+03  0.19854610470E+04  0.12699999809E+01 0.  1.
       -4    1    3    3    0  502 -0.18881456288E+04 -0.44758887616E+03  0.70022757704E+02  0.19417349245E+04  0.12699999809E+01 0. -1.
</event>
<event>
 5   0  0.2384787E-07  0.3916144E+04  0.7818609E-02  0.8021680E-01
        2   -1    0    0  501    0  0.00000000000E+00  0.00000000000E+00  0.16553273607E+04  0.16553273607E+04  0.25500000920E-02 0. -1.
       -2   -1    0    0    0  501  0.00000000000E+00  0.00000000000E+00 -0.23161864207E+04  0.23161864207E+04  0.25500000920E-02 0.  1.
    10030    2    1    2    0    0  0.00000000000E+00  0.00000000000E+00 -0.66085906000E+03  0.39715137814E+04  0.39161444073E+04 0.  0.
        4    1    3    3  502    0 -0.40683000797E+03  0.19067716055E+03  0.16023435160E+04  0.16641438613E+04  0.12699999809E+01 0. -1.
       -4    1    3    3    0  502  0.40683000797E+03 -0.19067716055E+03 -0.22632025760E+04  0.23073699201E+04  0.12699999809E+01 0.  1.
</event>
<event>
 5   0  0.7675750E-08  0.3902259E+04  0.7818609E-02  0.8024559E-01
       -1   -1    0    0    0  501  0.00000000000E+00  0.00000000000E+00  0.21414006860E+04  0.21414006861E+04  0.50400001928E-02 0. -1.
        1   -1    0    0  501    0  0.00000000000E+00  0.00000000000E+00 -0.17777649999E+04  0.17777649999E+04  0.50400001928E-02 0.  1.
    10030    2    1    2    0    0  0.00000000000E+00  0.00000000000E+00  0.36363568616E+03  0.39191656859E+04  0.39022594431E+04 0.  0.
        5    1    3    3  502    0 -0.11763493260E+03 -0.16993968113E+04 -0.77367005467E+03  0.18709288984E+04  0.46999998093E+01 0.  1.
       -5    1    3    3    0  502  0.11763493260E+03  0.16993968113E+04  0.11373057408E+04  0.20482367875E+04  0.46999998093E+01 0. -1.
</event>
<event>
 5   0  0.2473224E-07  0.3909788E+04  0.7818609E-02  0.8022997E-01
        2   -1    0    0  501    0  0.00000000000E+00  0.00000000000E+00  0.26757908573E+04  0.26757908573E+04  0.25500000920E-02 0. -1.
       -2   -1    0    0    0  501  0.00000000000E+00  0.00000000000E+00 -0.14282169853E+04  0.14282169853E+04  0.25500000920E-02 0.  1.
    10030    2    1    2    0    0  0.00000000000E+00  0.00000000000E+00  0.12475738720E+04  0.41040078426E+04  0.39097876932E+04 0.  0.
        2    1    3    3  502    0  0.50271119552E+03 -0.41286915075E+03 -0.13112720195E+04  0.14637669865E+04  0.25500000920E-02 0.  1.
       -2    1    3    3    0  502 -0.50271119552E+03  0.41286915075E+03  0.25588458915E+04  0.26402408561E+04  0.25500000920E-02 0. -1.
</event>
<event>
 5   0  0.7675750E-08  0.3850706E+04  0.7818609E-02  0.8035360E-01
       -3   -1    0    0    0  501  0.00000000000E+00  0.00000000000E+00  0.18338946112E+04  0.18338946140E+04  0.10100000352E+00 0. -1.
        3   -1    0    0  501    0  0.00000000000E+00  0.00000000000E+00 -0.20213724049E+04  0.20213724075E+04  0.10100000352E+00 0.  1.
    10030    2    1    2    0    0  0.00000000000E+00  0.00000000000E+00 -0.18747779376E+03  0.38552670214E+04  0.38507058942E+04 0.  0.
        1    1    3    3  502    0  0.50018987415E+03  0.18564689816E+04  0.79539544773E+01  0.19226882887E+04  0.50400001928E-02 0. -1.
       -1    1    3    3    0  502 -0.50018987415E+03 -0.18564689816E+04 -0.19543174824E+03  0.19325787327E+04  0.50400001928E-02 0.  1.
</event>
<event>
 5   0  0.2446281E-07  0.3912441E+04  0.7818609E-02  0.8022447E-01
        2   -1    0    0  501    0  0.00000000000E+00  0.00000000000E+00  0.17323249335E+04  0.17323249335E+04  0.25500000920E-02 0. -1.
       -2   -1    0    0    0  501  0.00000000000E+00  0.00000000000E+00 -0.22090534941E+04  0.22090534941E+04  0.25500000920E-02 0.  1.
    10030    2    1    2    0    0  0.00000000000E+00  0.00000000000E+00 -0.47672856060E+03  0.39413784276E+04  0.39124408991E+04 0.  0.
        1    1    3    3  502    0 -0.10386831450E+04  0.16560041953E+04 -0.16307276862E+03  0.19615823456E+04  0.50400001928E-02 0. -1.
       -1    1    3    3    0  502  0.10386831450E+04 -0.16560041953E+04 -0.31365579199E+03  0.19797960820E+04  0.50400001928E-02 0.  1.
</event>
<event>
 5   0  0.2384787E-07  0.3997789E+04  0.7818609E-02  0.8004993E-01
        2   -1    0    0  501    0  0.00000000000E+00  0.00000000000E+00  0.22948603616E+04  0.22948603616E+04  0.25500000920E-02 0. -1.
       -2   -1    0    0    0  501  0.00000000000E+00  0.00000000000E+00 -0.17410987370E+04  0.17410987370E+04  0.25500000920E-02 0.  1.
    10030    2    1    2    0    0  0.00000000000E+00  0.00000000000E+00  0.55376162456E+03  0.40359590986E+04  0.39977886273E+04 0.  0.
        4    1    3    3  502    0 -0.40082910729E+03  0.19074001200E+04  0.72466700032E+03  0.20794189249E+04  0.12699999809E+01 0. -1.
       -4    1    3    3    0  502  0.40082910729E+03 -0.19074001200E+04 -0.17090537576E+03  0.19565401737E+04  0.12699999809E+01 0.  1.
</event>
<event>
 5   0  0.7675750E-08  0.3883806E+04  0.7818609E-02  0.8028406E-01
        1   -1    0    0  501    0  0.00000000000E+00  0.00000000000E+00  0.19252178545E+04  0.19252178545E+04  0.50400001928E-02 0.  1.
       -1   -1    0    0    0  501  0.00000000000E+00  0.00000000000E+00 -0.19587322773E+04  0.19587322774E+04  0.50400001928E-02 0. -1.
    10030    2    1    2    0    0  0.00000000000E+00  0.00000000000E+00 -0.33514422868E+02  0.38839501318E+04  0.38838055320E+04 0.  0.
        5    1    3    3  502    0 -0.11692670996E+04 -0.25268685394E+03 -0.15464965054E+04  0.19551751143E+04  0.46999998093E+01 0. -1.
       -5    1    3    3    0  502  0.11692670996E+04  0.25268685394E+03  0.15129820825E+04  0.19287750176E+04  0.46999998093E+01 0.  1.
</event>
<event>
 5   0  0.2384787E-07  0.3896201E+04  0.7818609E-02  0.8025820E-01
        2   -1    0    0  501    0  0.00000000000E+00  0.00000000000E+00  0.21036593163E+04  0.21036593163E+04  0.25500000920E-02 0.  1.
       -2   -1    0    0    0  501  0.00000000000E+00  0.00000000000E+00 -0.18040450680E+04  0.18040450680E+04  0.25500000920E-02 0. -1.
    10030    2    1    2    0    0  0.00000000000E+00  0.00000000000E+00  0.29961424828E+03  0.39077043843E+04  0.38962013368E+04 0.  0.
        4    1    3    3  502    0  0.33776003963E+03 -0.14942621801E+03 -0.17686089077E+04  0.18067620541E+04  0.12699999809E+01 0. -1.
       -4    1    3    3    0  502 -0.33776003963E+03  0.14942621801E+03  0.20682231559E+04  0.21009423302E+04  0.12699999809E+01 0.  1.
</event>
<event>
 5   0  0.2486268E-07  0.3902367E+04  0.7818609E-02  0.8024537E-01
       -2   -1    0    0    0  501  0.00000000000E+00  0.00000000000E+00  0.20187226996E+04  0.20187226996E+04  0.25500000920E-02 0. -1.
        2   -1    0    0  501    0  0.00000000000E+00  0.00000000000E+00 -0.18859037722E+04  0.18859037722E+04  0.25500000920E-02 0.  1.
    10030    2    1    2    0    0  0.00000000000E+00  0.00000000000E+00  0.13281892741E+03  0.39046264718E+04  0.39023668480E+04 0.  0.
        5    1    3    3  502    0  0.84220597414E+03 -0.17412732488E+04 -0.19015904842E+03  0.19435858570E+04  0.46999998093E+01 0.  1.
       -5    1    3    3    0  502 -0.84220597414E+03  0.17412732488E+04  0.32297797584E+03  0.19610406148E+04  0.46999998093E+01 0. -1.
</event>
<event>
 5   0  0.2446281E-07  0.3923384E+04  0.7818609E-02  0.8020183E-01
       -2   -1    0    0    0  501  0.00000000000E+00  0.00000000000E+00  0.21386565039E+04  0.21386565039E+04  0.25500000920E-02 0.  1.
        2   -1    0    0  501    0  0.00000000000E+00  0.00000000000E+00 -0.17993707452E+04  0.17993707452E+04  0.25500000920E-02 0. -1.
    10030    2    1    2    0    0  0.00000000000E+00  0.00000000000E+00  0.33928575875E+03  0.39380272491E+04  0.39233842264E+04 0.  0.
        1    1    3    3  502    0  0.59861715408E+03 -0.18677343790E+04  0.13126748579E+03  0.19657073436E+04  0.50400001928E-02 0.  1.
       -1    1    3    3    0  502 -0.59861715408E+03  0.18677343790E+04  0.20801827296E+03  0.19723199055E+04  0.50400001928E-02 0. -1.
</event>
<event>
 5   0  0.7675750E-08  0.3948720E+04  0.7818609E-02  0.8014972E-01
       -1   -1    0    0    0  501  0.00000000000E+00  0.00000000000E+00  0.21730931919E+04  0.21730931919E+04  0.50400001928E-02 0.  1.
        1   -1    0    0  501    0  0.00000000000E+00  0.00000000000E+00 -0.17938012383E+04  0.17938012383E+04  0.50400001928E-02 0. -1.
    10030    2    1    2    0    0  0.00000000000E+00  0.00000000000E+00  0.37929195361E+03  0.39668944303E+04  0.39487199236E+04 0.  0.
        4    1    3    3  502    0  0.94269648619E+02  0.18212657241E+04  0.94956664105E+03  0.20561065204E+04  0.12699999809E+01 0. -1.
       -4    1    3    3    0  502 -0.94269648619E+02 -0.18212657241E+04 -0.57027468744E+03  0.19107879099E+04  0.12699999809E+01 0.  1.
</event>
<event>
 5   0  0.2446281E-07  0.4066537E+04  0.7818609E-02  0.7991257E-01
        2   -1    0    0  501    0  0.00000000000E+00  0.00000000000E+00  0.21863085864E+04  0.21863085864E+04  0.25500000920E-02 0.  1.
       -2   -1    0    0    0  501  0.00000000000E+00  0.00000000000E+00 -0.18909408275E+04  0.18909408275E+04  0.25500000920E-02 0. -1.
    10030    2    1    2    0    0  0.00000000000E+00  0.00000000000E+00  0.29536775890E+03  0.40772494139E+04  0.40665366924E+04 0.  0.
        1    1    3    3  502    0  0.11889356759E+04  0.65114681483E+03 -0.13717686987E+04  0.19285511605E+04  0.50400001928E-02 0. -1.
       -1    1    3    3    0  502 -0.11889356759E+04 -0.65114681483E+03  0.16671364576E+04  0.21486982534E+04  0.50400001928E-02 0.  1.
</event>
<event>
 5   0  0.7675750E-08  0.3958535E+04  0.7818609E-02  0.8012964E-01
       -1   -1    0    0    0  501  0.00000000000E+00  0.00000000000E+00  0.21473256136E+04  0.21473256136E+04  0.50400001928E-02 0. -1.
        1   -1    0    0  501    0  0.00000000000E+00  0.00000000000E+00 -0.18243623085E+04  0.18243623085E+04  0.50400001928E-02 0.  1.
    10030    2    1    2    0    0  0.00000000000E+00  0.00000000000E+00  0.32296330512E+03  0.39716879221E+04  0.39585350389E+04 0.  0.
        2    1    3    3  502    0  0.34173701976E+03  0.18156285802E+04 -0.55095415514E+03  0.19279112565E+04  0.25500000920E-02 0.  1.
       -2    1    3    3    0  502 -0.34173701976E+03 -0.18156285802E+04  0.87391746026E+03  0.20437766657E+04  0.25500000920E-02 0. -1.
</event>
<event>
 5   0  0.2395572E-07  0.3821860E+04  0.7818609E-02  0.8041480E-01
       -2   -1    0    0    0  501  0.00000000000E+00  0.00000000000E+00  0.14219119736E+04  0.14219119736E+04  0.25500000920E-02 0. -1.
        2   -1    0    0  501    0  0.00000000000E+00  0.00000000000E+00 -0.25681287829E+04  0.25681287829E+04  0.25500000920E-02 0.  1.
    10030    2    1    2    0    0  0.00000000000E+00  0.00000000000E+00 -0.11462168093E+04  0.39900407566E+04  0.38218597914E+04 0.  0.
        3    1    3    3  502    0 -0.63819725746E+03 -0.17811270315E+04 -0.85313501992E+03  0.20754634697E+04  0.10100000352E+00 0.  1.
       -3    1    3    3    0  502  0.63819725746E+03  0.17811270315E+04 -0.29308178938E+03  0.19145772868E+04  0.10100000352E+00 0. -1.
</event>
<event>
 5   0  0.7675750E-08  0.3881575E+04  0.7818609E-02  0.8028872E-01
       -1   -1    0    0    0  501  0.00000000000E+00  0.00000000000E+00  0.12096160783E+04  0.12096160783E+04  0.50400001928E-02 0.  1.
        1   -1    0    0  501    0  0.00000000000E+00  0.00000000000E+00 -0.31139265981E+04  0.31139265981E+04  0.50400001928E-02 0. -1.
    10030    2    1    2    0    0  0.00000000000E+00  0.00000000000E+00 -0.19043105198E+04  0.43235426764E+04  0.38815747731E+04 0.  0.
        4    1    3    3  502    0 -0.65040523418E+03  0.18253559678E+04 -0.83165870576E+03  0.21086984596E+04  0.12699999809E+01 0.  1.
       -4    1    3    3    0  502  0.65040523418E+03 -0.18253559678E+04 -0.10726518141E+04  0.22148442168E+04  0.12699999809E+01 0. -1.
</event>
<event>
 5   0  0.7675750E-08  0.3658442E+04  0.7818609E-02  0.8077234E-01
        1   -1    0    0  501    0  0.00000000000E+00  0.00000000000E+00  0.27369875592E+04  0.27369875592E+04  0.50400001928E-02 0.  1.
       -1   -1    0    0    0  501  0.00000000000E+00  0.00000000000E+00 -0.12225303513E+04  0.12225303513E+04  0.50400001928E-02 0. -1.
    10030    2    1    2    0    0  0.00000000000E+00  0.00000000000E+00  0.15144572079E+04  0.39595179106E+04  0.36584424896E+04 0.  0.
        1    1    3    3  502    0 -0.11986384454E+04 -0.10926332258E+04  0.16726929855E+04  0.23299105804E+04  0.50400001928E-02 0.  1.
       -1    1    3    3    0  502  0.11986384454E+04  0.10926332258E+04 -0.15823577761E+03  0.16296073301E+04  0.50400001928E-02 0. -1.
</event>
<event>
 5   0  0.2446281E-07  0.3869810E+04  0.7818609E-02  0.8031338E-01
       -2   -1    0    0    0  501  0.00000000000E+00  0.00000000000E+00  0.21486006524E+04  0.21486006524E+04  0.25500000920E-02 0. -1.
        2   -1    0    0  501    0  0.00000000000E+00  0.00000000000E+00 -0.17424626537E+04  0.17424626537E+04  0.25500000920E-02 0.  1.
    10030    2    1    2    0    0  0.00000000000E+00  0.00000000000E+00  0.40613799872E+03  0.38910633062E+04  0.38698095016E+04 0.  0.
        1    1    3    3  502    0 -0.25920484205E+03 -0.13827131875E+04  0.15388128859E+04  0.20849527589E+04  0.50400001928E-02 0. -1.
       -1    1    3    3    0  502  0.25920484205E+03  0.13827131875E+04 -0.11326748872E+04  0.18061105473E+04  0.50400001928E-02 0.  1.
</event>
<event>
 5   0  0.2384787E-07  0.3917347E+04  0.7818609E-02  0.8021431E-01
        2   -1    0    0  501    0  0.00000000000E+00  0.00000000000E+00  0.34095382590E+04  0.34095382590E+04  0.25500000920E-02 0.  1.
       -2   -1    0    0    0  501  0.00000000000E+00  0.00000000000E+00 -0.11251971709E+04  0.11251971709E+04  0.25500000920E-02 0. -1.
    10030    2    1    2    0    0  0.00000000000E+00  0.00000000000E+00  0.22843410881E+04  0.45347354299E+04  0.39173474715E+04 0.  0.
        4    1    3    3  502    0  0.38321095333E+03  0.16084638833E+04 -0.73255045822E+02  0.16551056200E+04  0.12699999809E+01 0. -1.
       -4    1    3    3    0  502 -0.38321095333E+03 -0.16084638833E+04  0.23575961339E+04  0.28796298099E+04  0.12699999809E+01 0.  1.
</event>
<event>
 5   0  0.7675750E-08  0.3940346E+04  0.7818609E-02  0.8016690E-01
        3   -1    0    0  501    0  0.00000000000E+00  0.00000000000E+00  0.28542649513E+04  0.28542649531E+04  0.10100000352E+00 0.  1.
       -3   -1    0    0    0  501  0.00000000000E+00  0.00000000000E+00 -0.13599232709E+04  0.13599232747E+04  0.10100000352E+00 0. -1.
    10030    2    1    2    0    0  0.00000000000E+00  0.00000000000E+00  0.14943416804E+04  0.42141882278E+04  0.39403458428E+04 0.  0.
        3    1    3    3  502    0 -0.18091158831E+04 -0.64900016327E+03  0.28408993351E+03  0.19428866645E+04  0.10100000352E+00 0. -1.
       -3    1    3    3    0  502  0.18091158831E+04  0.64900016327E+03  0.12102517469E+04  0.22713015633E+04  0.10100000352E+00 0.  1.
</event>
<event>
 5   0  0.2446281E-07  0.3927302E+04  0.7818609E-02  0.8019375E-01
        2   -1    0    0  501    0  0.00000000000E+00  0.00000000000E+00  0.23735275127E+04  0.23735275127E+04  0.25500000920E-02 0.  1.
       -2   -1    0    0    0  501  0.00000000000E+00  0.00000000000E+00 -0.16245549248E+04  0.16245549248E+04  0.25500000920E-02 0. -1.
    10030    2    1    2    0    0  0.00000000000E+00  0.00000000000E+00  0.74897258787E+03  0.39980824375E+04  0.39273022852E+04 0.  0.
        1    1    3    3  502    0  0.76208072089E+01  0.19619641033E+04  0.45696868377E+03  0.20144928884E+04  0.50400001928E-02 0.  1.
       -1    1    3    3    0  502 -0.76208072089E+01 -0.19619641033E+04  0.29200390410E+03  0.19835895491E+04  0.50400001928E-02 0. -1.
</event>
<event>
 5   0  0.2395572E-07  0.4077561E+04  0.7818609E-02  0.7989080E-01
       -2   -1    0    0    0  501  0.00000000000E+00  0.00000000000E+00  0.25942741264E+04  0.25942741264E+04  0.25500000920E-02 0. -1.
        2   -1    0    0  501    0  0.00000000000E+00  0.00000000000E+00 -0.16022311388E+04  0.16022311388E+04  0.25500000920E-02 0.  1.
    10030    2    1    2    0    0  0.00000000000E+00  0.00000000000E+00  0.99204298760E+03  0.41965052652E+04  0.40775614221E+04 0.  0.
        3    1    3    3  502    0  0.80995446355E+03  0.10962604647E+04  0.20564329626E+04  0.24671298668E+04  0.10100000352E+00 0. -1.
       -3    1    3    3    0  502 -0.80995446355E+03 -0.10962604647E+04 -0.10643899750E+04  0.17293753984E+04  0.10100000352E+00 0.  1.
</event>
<event>
 5   0  0.7675750E-08  0.3841165E+04  0.7818609E-02  0.8037378E-01
        1   -1    0    0  501    0  0.00000000000E+00  0.00000000000E+00  0.35519334769E+04  0.35519334769E+04  0.50400001928E-02 0.  1.
       -1   -1    0    0    0  501  0.00000000000E+00  0.00000000000E+00 -0.10384869235E+04  0.10384869235E+04  0.50400001928E-02 0. -1.
    10030    2    1    2    0    0  0.00000000000E+00  0.00000000000E+00  0.25134465535E+04  0.45904204004E+04  0.38411646509E+04 0.  0.
        1    1    3    3  502    0 -0.64505775288E+03  0.14881587554E+04  0.27541677274E+02  0.16221820273E+04  0.50400001928E-02 0. -1.
       -1    1    3    3    0  502  0.64505775288E+03 -0.14881587554E+04  0.24859048762E+04  0.29682383731E+04  0.50400001928E-02 0.  1.
</event>
<event>
 5   0  0.7675750E-08  0.3907299E+04  0.7818609E-02  0.8023513E-01
       -1   -1    0    0    0  501  0.00000000000E+00  0.00000000000E+00  0.15267068009E+04  0.15267068009E+04  0.50400001928E-02 0. -1.
        1   -1    0    0  501    0  0.00000000000E+00  0.00000000000E+00 -0.24999861319E+04  0.24999861319E+04  0.50400001928E-02 0.  1.
    10030    2    1    2    0    0  0.00000000000E+00  0.00000000000E+00 -0.97327933098E+03  0.40266929329E+04  0.39072987241E+04 0.  0.
        1    1    3    3  502    0  0.33448296740E+03  0.15374268717E+04 -0.16801229368E+04  0.23018195681E+04  0.50400001928E-02 0.  1.
       -1    1    3    3    0  502 -0.33448296740E+03 -0.15374268717E+04  0.70684360581E+03  0.17248733648E+04  0.50400001928E-02 0. -1.
</event>
<event>
 5   0  0.7731706E-08  0.3849811E+04  0.7818609E-02  0.8035549E-01
       -1   -1    0    0    0  501  0.00000000000E+00  0.00000000000E+00  0.32246054916E+04  0.32246054916E+04  0.50400001928E-02 0. -1.
        1   -1    0    0  501    0  0.00000000000E+00  0.00000000000E+00 -0.11490584681E+04  0.11490584681E+04  0.50400001928E-02 0.  1.
    10030    2    1    2    0    0  0.00000000000E+00  0.00000000000E+00  0.20755470235E+04  0.43736639596E+04  0.38498105129E+04 0.  0.
        3    1    3    3  502    0  0.15077636981E+03  0.18899103725E+04  0.14158749474E+04  0.23662621593E+04  0.10100000352E+00 0. -1.
       -3    1    3    3    0  502 -0.15077636981E+03 -0.18899103725E+04  0.65967207614E+03  0.20074018003E+04  0.10100000352E+00 0.  1.
</event>
<event>
 5   0  0.7675750E-08  0.3897994E+04  0.7818609E-02  0.8025446E-01
        1   -1    0    0  501    0  0.00000000000E+00  0.00000000000E+00  0.24347125100E+04  0.24347125100E+04  0.50400001928E-02 0. -1.
       -1   -1    0    0    0  501  0.00000000000E+00  0.00000000000E+00 -0.15601801466E+04  0.15601801466E+04  0.50400001928E-02 0.  1.
    10030    2    1    2    0    0  0.00000000000E+00  0.00000000000E+00  0.87453236340E+03  0.39948926567E+04  0.38979944181E+04 0.  0.
        5    1    3    3  502    0 -0.12301224130E+03 -0.30035496716E+03  0.24068146013E+04  0.24286053061E+04  0.46999998093E+01 0. -1.
       -5    1    3    3    0  502  0.12301224130E+03  0.30035496716E+03 -0.15322822379E+04  0.15662873505E+04  0.46999998093E+01 0.  1.
</event>
<event>
 5   0  0.7675750E-08  0.3900555E+04  0.7818609E-02  0.8024914E-01
        1   -1    0    0  501    0  0.00000000000E+00  0.00000000000E+00  0.25253258862E+04  0.25253258862E+04  0.50400001928E-02 0. -1.
       -1   -1    0    0    0  501  0.00000000000E+00  0.00000000000E+00 -0.15061748405E+04  0.15061748405E+04  0.50400001928E-02 0.  1.
    10030    2    1    2    0    0  0.00000000000E+00  0.00000000000E+00  0.10191510458E+04  0.40315007267E+04  0.39005549933E+04 0.  0.
        5    1    3    3  502    0 -0.14379609165E+03 -0.76633814335E+03  0.23572145981E+04  0.24828278671E+04  0.46999998093E+01 0. -1.
       -5    1    3    3    0  502  0.14379609165E+03  0.76633814335E+03 -0.13380635524E+04  0.15486728596E+04  0.46999998093E+01 0.  1.
</event>
<event>
 5   0  0.2384787E-07  0.3891980E+04  0.7818609E-02  0.8026699E-01
        2   -1    0    0  501    0  0.00000000000E+00  0.00000000000E+00  0.18697021450E+04  0.18697021450E+04  0.25500000920E-02 0. -1.
       -2   -1    0    0    0  501  0.00000000000E+00  0.00000000000E+00 -0.20253906367E+04  0.20253906367E+04  0.25500000920E-02 0.  1.
    10030    2    1    2    0    0  0.00000000000E+00  0.00000000000E+00 -0.15568849167E+03  0.38950927817E+04  0.38919800708E+04 0.  0.
        4    1    3    3  502    0  0.94721906471E+03 -0.47348454439E+03  0.15560863788E+04  0.18822374987E+04  0.12699999809E+01 0. -1.
       -4    1    3    3    0  502 -0.94721906471E+03  0.47348454439E+03 -0.17117748704E+04  0.20128552830E+04  0.12699999809E+01 0.  1.
</event>
<event>
 5   0  0.2446281E-07  0.3868335E+04  0.7818609E-02  0.8031647E-01
        2   -1    0    0  501    0  0.00000000000E+00  0.00000000000E+00  0.32279903673E+04  0.32279903673E+04  0.25500000920E-02 0.  1.
       -2   -1    0    0    0  501  0.00000000000E+00  0.00000000000E+00 -0.11589264465E+04  0.11589264465E+04  0.25500000920E-02 0. -1.
    10030    2    1    2    0    0  0.00000000000E+00  0.00000000000E+00  0.20690639208E+04  0.43869168137E+04  0.38683347350E+04 0.  0.
        1    1    3    3  502    0  0.26951597595E+03  0.17573481088E+04  0.17079032809E+03  0.17860796659E+04  0.50400001928E-02 0. -1.
       -1    1    3    3    0  502 -0.26951597595E+03 -0.17573481088E+04  0.18982735927E+04  0.26008371478E+04  0.50400001928E-02 0.  1.
</event>
<event>
 5   0  0.7675750E-08  0.3857007E+04  0.7818609E-02  0.8034031E-01
        1   -1    0    0  501    0  0.00000000000E+00  0.00000000000E+00  0.14817726268E+04  0.14817726268E+04  0.50400001928E-02 0.  1.
       -1   -1    0    0    0  501  0.00000000000E+00  0.00000000000E+00 -0.25099165426E+04  0.25099165426E+04  0.50400001928E-02 0. -1.
    10030    2    1    2    0    0  0.00000000000E+00  0.00000000000E+00 -0.10281439158E+04  0.39916891694E+04  0.38570069372E+04 0.  0.
        2    1    3    3  502    0  0.73544836655E+03 -0.16340339074E+04 -0.12518279366E+04  0.21858692306E+04  0.25500000920E-02 0. -1.
       -2    1    3    3    0  502 -0.73544836655E+03  0.16340339074E+04  0.22368402083E+03  0.18058199388E+04  0.25500000920E-02 0.  1.
</event>
<event>
 5   0  0.2486268E-07  0.4026495E+04  0.7818609E-02  0.7999223E-01
       -2   -1    0    0    0  501  0.00000000000E+00  0.00000000000E+00  0.17059764149E+04  0.17059764149E+04  0.25500000920E-02 0. -1.
        2   -1    0    0  501    0  0.00000000000E+00  0.00000000000E+00 -0.23758630900E+04  0.23758630900E+04  0.25500000920E-02 0.  1.
    10030    2    1    2    0    0  0.00000000000E+00  0.00000000000E+00 -0.66988667510E+03  0.40818395050E+04  0.40264954472E+04 0.  0.
        5    1    3    3  502    0  0.19057101117E+04 -0.11747921033E+03 -0.98216366062E+03  0.21471376157E+04  0.46999998093E+01 0.  1.
       -5    1    3    3    0  502 -0.19057101117E+04  0.11747921033E+03  0.31227698552E+03  0.19347018892E+04  0.46999998093E+01 0. -1.
</event>
<event>
 5   0  0.7675750E-08  0.3911356E+04  0.7818609E-02  0.8022671E-01
        1   -1    0    0  501    0  0.00000000000E+00  0.00000000000E+00  0.18555366697E+04  0.18555366697E+04  0.50400001928E-02 0. -1.
       -1   -1    0    0    0  501  0.00000000000E+00  0.00000000000E+00 -0.20612243536E+04  0.20612243536E+04  0.50400001928E-02 0.  1.
    10030    2    1    2    0    0  0.00000000000E+00  0.00000000000E+00 -0.20568768392E+03  0.39167610233E+04  0.39113564771E+04 0.  0.
        2    1    3    3  502    0  0.61732214017E+02 -0.19206755579E+04 -0.46648733420E+03  0.19774771549E+04  0.25500000920E-02 0.  1.
       -2    1    3    3    0  502 -0.61732214017E+02  0.19206755579E+04  0.26079965028E+03  0.19392838685E+04  0.25500000920E-02 0. -1.
</event>
<event>
 5   0  0.2473224E-07  0.3915833E+04  0.7818609E-02  0.8021744E-01
        2   -1    0    0  501    0  0.00000000000E+00  0.00000000000E+00  0.24143420505E+04  0.24143420505E+04  0.25500000920E-02 0. -1.
       -2   -1    0    0    0  501  0.00000000000E+00  0.00000000000E+00 -0.15877768220E+04  0.15877768220E+04  0.25500000920E-02 0.  1.
    10030    2    1    2    0    0  0.00000000000E+00  0.00000000000E+00  0.82656522847E+03  0.40021188725E+04  0.39158326563E+04 0.  0.
        2    1    3    3  502    0  0.16208303628E+04  0.71600039538E+03 -0.43794984445E+03  0.18252527763E+04  0.25500000920E-02 0.  1.
       -2    1    3    3    0  502 -0.16208303628E+04 -0.71600039538E+03  0.12645150729E+04  0.21768660962E+04  0.25500000920E-02 0. -1.
</event>
<event>
 5   0  0.2395572E-07  0.3924120E+04  0.7818609E-02  0.8020031E-01
       -2   -1    0    0    0  501  0.00000000000E+00  0.00000000000E+00  0.24423367878E+04  0.24423367878E+04  0.25500000920E-02 0.  1.
        2   -1    0    0  501    0  0.00000000000E+00  0.00000000000E+00 -0.15762280481E+04  0.15762280481E+04  0.25500000920E-02 0. -1.
    10030    2    1    2    0    0  0.00000000000E+00  0.00000000000E+00  0.86610873968E+03  0.40185648360E+04  0.39241201551E+04 0.  0.
        3    1    3    3  502    0  0.16563656319E+04 -0.96671550999E+03  0.88458170311E+01  0.19178540723E+04  0.10100000352E+00 0. -1.
       -3    1    3    3    0  502 -0.16563656319E+04  0.96671550999E+03  0.85726292265E+03  0.21007107637E+04  0.10100000352E+00 0.  1.
</event>
<event>
 5   0  0.2446281E-07  0.3783684E+04  0.7818609E-02  0.8049665E-01
        2   -1    0    0  501    0  0.00000000000E+00  0.00000000000E+00  0.23609650999E+04  0.23609650999E+04  0.25500000920E-02 0.  1.
       -2   -1    0    0    0  501  0.00000000000E+00  0.00000000000E+00 -0.15159332903E+04  0.15159332903E+04  0.25500000920E-02 0. -1.
    10030    2    1    2    0    0  0.00000000000E+00  0.00000000000E+00  0.84503180962E+03  0.38768983903E+04  0.37836837036E+04 0.  0.
        1    1    3    3  502    0  0.15570043985E+03  0.13322677535E+04 -0.94447504326E+03  0.16404917255E+04  0.50400001928E-02 0. -1.
       -1    1    3    3    0  502 -0.15570043985E+03 -0.13322677535E+04  0.17895068529E+04  0.22364066648E+04  0.50400001928E-02 0.  1.
</event>
<event>
 5   0  0.2384787E-07  0.3811178E+04  0.7818609E-02  0.8043760E-01
        2   -1    0    0  501    0  0.00000000000E+00  0.00000000000E+00  0.17000377577E+04  0.17000377577E+04  0.25500000920E-02 0.  1.
       -2   -1    0    0    0  501  0.00000000000E+00  0.00000000000E+00 -0.21359934780E+04  0.21359934780E+04  0.25500000920E-02 0. -1.
    10030    2    1    2    0    0  0.00000000000E+00  0.00000000000E+00 -0.43595572035E+03  0.38360312357E+04  0.38111780660E+04 0.  0.
        4    1    3    3  502    0  0.95694055756E+03 -0.13611013305E+04  0.71702332150E+03  0.18117549832E+04  0.12699999809E+01 0.  1.
       -4    1    3    3    0  502 -0.95694055756E+03  0.13611013305E+04 -0.11529790419E+04  0.20242762525E+04  0.12699999809E+01 0. -1.
</event>
<event>
 5   0  0.7675750E-08  0.3776281E+04  0.7818609E-02  0.8051264E-01
        1   -1    0    0  501    0  0.00000000000E+00  0.00000000000E+00  0.26826003288E+04  0.26826003288E+04  0.50400001928E-02 0. -1.
       -1   -1    0    0    0  501  0.00000000000E+00  0.00000000000E+00 -0.13289619310E+04  0.13289619310E+04  0.50400001928E-02 0.  1.
    10030    2    1    2    0    0  0.00000000000E+00  0.00000000000E+00  0.13536383978E+04  0.40115622598E+04  0.37762805579E+04 0.  0.
        5    1    3    3  502    0 -0.12391192193E+04  0.13861636450E+04  0.10262280306E+04  0.21236836278E+04  0.46999998093E+01 0.  1.
       -5    1    3    3    0  502  0.12391192193E+04 -0.13861636450E+04  0.32741036724E+03  0.18878786319E+04  0.46999998093E+01 0. -1.
</event>
<event>
 5   0  0.7675750E-08  0.3815394E+04  0.7818609E-02  0.8042859E-01
       -1   -1    0    0    0  501  0.00000000000E+00  0.00000000000E+00  0.13772221540E+04  0.13772221540E+04  0.50400001928E-02 0. -1.
        1   -1    0    0  501    0  0.00000000000E+00  0.00000000000E+00 -0.26424994532E+04  0.26424994532E+04  0.50400001928E-02 0.  1.
    10030    2    1    2    0    0  0.00000000000E+00  0.00000000000E+00 -0.12652772992E+04  0.40197216072E+04  0.38153944954E+04 0.  0.
        4    1    3    3  502    0 -0.17735303389E+04  0.18742859135E+03  0.80958338848E+02  0.17852437384E+04  0.12699999809E+01 0. -1.
       -4    1    3    3    0  502  0.17735303389E+04 -0.18742859135E+03 -0.13462356381E+04  0.22344778688E+04  0.12699999809E+01 0.  1.
</event>
<event>
 5   0  0.7675750E-08  0.3980281E+04  0.7818609E-02  0.8008536E-01
        3   -1    0    0  501    0  0.00000000000E+00  0.00000000000E+00  0.17665567757E+04  0.17665567786E+04  0.10100000352E+00 0. -1.
       -3   -1    0    0    0  501  0.00000000000E+00  0.00000000000E+00 -0.22420224002E+04  0.22420224025E+04  0.10100000352E+00 0.  1.
    10030    2    1    2    0    0  0.00000000000E+00  0.00000000000E+00 -0.47546562447E+03  0.40085791811E+04  0.39802813331E+04 0.  0.
        5    1    3    3  502    0  0.13617694839E+04 -0.51625075745E+03 -0.16037337731E+04  0.21663137069E+04  0.46999998093E+01 0.  1.
       -5    1    3    3    0  502 -0.13617694839E+04  0.51625075745E+03  0.11282681486E+04  0.18422654741E+04  0.46999998093E+01 0. -1.
</event>
<event>
 5   0  0.2395572E-07  0.3977224E+04  0.7818609E-02  0.8009157E-01
       -2   -1    0    0    0  501  0.00000000000E+00  0.00000000000E+00  0.13709665055E+04  0.13709665055E+04  0.25500000920E-02 0. -1.
        2   -1    0    0  501    0  0.00000000000E+00  0.00000000000E+00 -0.28845180885E+04  0.28845180885E+04  0.25500000920E-02 0.  1.
    10030    2    1    2    0    0  0.00000000000E+00  0.00000000000E+00 -0.15135515830E+04  0.42554845941E+04  0.39772239987E+04 0.  0.
        3    1    3    3  502    0 -0.41841323757E+03  0.10375838740E+04  0.10023066315E+04  0.15020880555E+04  0.10100000352E+00 0. -1.
       -3    1    3    3    0  502  0.41841323757E+03 -0.10375838740E+04 -0.25158582144E+04  0.27533965385E+04  0.10100000352E+00 0.  1.
</event>
<event>
 5   0  0.2473224E-07  0.3796181E+04  0.7818609E-02  0.8046975E-01
       -2   -1    0    0    0  501  0.00000000000E+00  0.00000000000E+00  0.16912590339E+04  0.16912590339E+04  0.25500000920E-02 0. -1.
        2   -1    0    0  501    0  0.00000000000E+00  0.00000000000E+00 -0.21302161378E+04  0.21302161378E+04  0.25500000920E-02 0.  1.
    10030    2    1    2    0    0  0.00000000000E+00  0.00000000000E+00 -0.43895710396E+03  0.38214751717E+04  0.37961808636E+04 0.  0.
        2    1    3    3  502    0 -0.30067965655E+03  0.15889802933E+04 -0.12198204194E+04  0.20256427336E+04  0.25500000920E-02 0.  1.
       -2    1    3    3    0  502  0.30067965655E+03 -0.15889802933E+04  0.78086331549E+03  0.17958324381E+04  0.25500000920E-02 0. -1.
</event>
<event>
 5   0  0.2486268E-07  0.3685948E+04  0.7818609E-02  0.8071083E-01
        2   -1    0    0  501    0  0.00000000000E+00  0.00000000000E+00  0.28138401216E+04  0.28138401216E+04  0.25500000920E-02 0. -1.
       -2   -1    0    0    0  501  0.00000000000E+00  0.00000000000E+00 -0.12070884508E+04  0.12070884508E+04  0.25500000920E-02 0.  1.
    10030    2    1    2    0    0  0.00000000000E+00  0.00000000000E+00  0.16067516708E+04  0.40209285723E+04  0.36859484061E+04 0.  0.
        5    1    3    3  502    0  0.68361965276E+03 -0.16877893834E+04  0.11130071644E+04  0.21341920884E+04  0.46999998093E+01 0.  1.
       -5    1    3    3    0  502 -0.68361965276E+03  0.16877893834E+04  0.49374450634E+03  0.18867364839E+04  0.46999998093E+01 0. -1.
</event>
<event>
 5   0  0.7675750E-08  0.3561981E+04  0.7818609E-02  0.8099256E-01
        1   -1    0    0  501    0  0.00000000000E+00  0.00000000000E+00  0.21741542131E+04  0.21741542131E+04  0.50400001928E-02 0. -1.
       -1   -1    0    0    0  501  0.00000000000E+00  0.00000000000E+00 -0.14589248966E+04  0.14589248966E+04  0.50400001928E-02 0.  1.
    10030    2    1    2    0    0  0.00000000000E+00  0.00000000000E+00  0.71522931657E+03  0.36330791097E+04  0.35619813085E+04 0.  0.
        4    1    3    3  502    0 -0.72310315582E+03  0.62610784731E+03  0.18899455144E+04  0.21182032175E+04  0.12699999809E+01 0. -1.
       -4    1    3    3    0  502  0.72310315582E+03 -0.62610784731E+03 -0.11747161978E+04  0.15148758922E+04  0.12699999809E+01 0.  1.
</event>
<event>
 5   0  0.7731706E-08  0.3853357E+04  0.7818609E-02  0.8034801E-01
       -1   -1    0    0    0  501  0.00000000000E+00  0.00000000000E+00  0.18981407199E+04  0.18981407199E+04  0.50400001928E-02 0.  1.
        1   -1    0    0  501    0  0.00000000000E+00  0.00000000000E+00 -0.19556448754E+04  0.19556448754E+04  0.50400001928E-02 0. -1.
    10030    2    1    2    0    0  0.00000000000E+00  0.00000000000E+00 -0.57504155548E+02  0.38537855953E+04  0.38533565480E+04 0.  0.
        3    1    3    3  502    0  0.37728620404E+03 -0.18530534160E+04 -0.39748991449E+03  0.19323949091E+04  0.10100000352E+00 0. -1.
       -3    1    3    3    0  502 -0.37728620404E+03  0.18530534160E+04  0.33998575895E+03  0.19213906862E+04  0.10100000352E+00 0.  1.
</event>
<event>
 5   0  0.2473224E-07  0.3914066E+04  0.7818609E-02  0.8022110E-01
        2   -1    0    0  501    0  0.00000000000E+00  0.00000000000E+00  0.30642101178E+04  0.30642101178E+04  0.25500000920E-02 0. -1.
       -2   -1    0    0    0  501  0.00000000000E+00  0.00000000000E+00 -0.12499071212E+04  0.12499071212E+04  0.25500000920E-02 0.  1.
    10030    2    1    2    0    0  0.00000000000E+00  0.00000000000E+00  0.18143029967E+04  0.43141172390E+04  0.39140659407E+04 0.  0.
        2    1    3    3  502    0  0.13687978120E+04 -0.10448158664E+04 -0.11780201697E+03  0.17260141830E+04  0.25500000920E-02 0.  1.
       -2    1    3    3    0  502 -0.13687978120E+04  0.10448158664E+04  0.19321050137E+04  0.25881030560E+04  0.25500000920E-02 0. -1.
</event>
<event>
 5   0  0.7675750E-08  0.3829820E+04  0.7818609E-02  0.8039786E-01
       -1   -1    0    0    0  501  0.00000000000E+00  0.00000000000E+00  0.13942101326E+04  0.13942101326E+04  0.50400001928E-02 0.  1.
        1   -1    0    0  501    0  0.00000000000E+00  0.00000000000E+00 -0.26300775611E+04  0.26300775611E+04  0.50400001928E-02 0. -1.
    10030    2    1    2    0    0  0.00000000000E+00  0.00000000000E+00 -0.12358674285E+04  0.40242876937E+04  0.38298202491E+04 0.  0.
        4    1    3    3  502    0 -0.13326465313E+04 -0.22462318856E+03  0.80759446068E+03  0.15743610704E+04  0.12699999809E+01 0.  1.
       -4    1    3    3    0  502  0.13326465313E+04  0.22462318856E+03 -0.20434618892E+04  0.24499266233E+04  0.12699999809E+01 0. -1.
</event>
<event>
 5   0  0.2384787E-07  0.3939672E+04  0.7818609E-02  0.8016828E-01
       -2   -1    0    0    0  501  0.00000000000E+00  0.00000000000E+00  0.19046552672E+04  0.19046552672E+04  0.25500000920E-02 0.  1.
        2   -1    0    0  501    0  0.00000000000E+00  0.00000000000E+00 -0.20372469751E+04  0.20372469751E+04  0.25500000920E-02 0. -1.
    10030    2    1    2    0    0  0.00000000000E+00  0.00000000000E+00 -0.13259170791E+03  0.39419022422E+04  0.39396716521E+04 0.  0.
        4    1    3    3  502    0 -0.12348115654E+04 -0.10147485631E+04  0.10857801074E+04  0.19321993434E+04  0.12699999809E+01 0.  1.
       -4    1    3    3    0  502  0.12348115654E+04  0.10147485631E+04 -0.12183718153E+04  0.20097028988E+04  0.12699999809E+01 0. -1.
</event>
<event>
 5   0  0.7675750E-08  0.3927372E+04  0.7818609E-02  0.8019360E-01
       -1   -1    0    0    0  501  0.00000000000E+00  0.00000000000E+00  0.15180878193E+04  0.15180878193E+04  0.50400001928E-02 0. -1.
        1   -1    0    0  501    0  0.00000000000E+00  0.00000000000E+00 -0.25400792191E+04  0.25400792191E+04  0.50400001928E-02 0.  1.
    10030    2    1    2    0    0  0.00000000000E+00  0.00000000000E+00 -0.10219913998E+04  0.40581670384E+04  0.39273723137E+04 0.  0.
        5    1    3    3  502    0 -0.95485090254E+03  0.71182341235E+03  0.11022845429E+04  0.16228019349E+04  0.46999998093E+01 0. -1.
       -5    1    3    3    0  502  0.95485090254E+03 -0.71182341235E+03 -0.21242759427E+04  0.24353651035E+04  0.46999998093E+01 0.  1.
</event>
<event>
 5   0  0.2395572E-07  0.3921376E+04  0.7818609E-02  0.8020598E-01
       -2   -1    0    0    0  501  0.00000000000E+00  0.00000000000E+00  0.35874822936E+04  0.35874822936E+04  0.25500000920E-02 0.  1.
        2   -1    0    0  501    0  0.00000000000E+00  0.00000000000E+00 -0.10715867017E+04  0.10715867018E+04  0.25500000920E-02 0. -1.
    10030    2    1    2    0    0  0.00000000000E+00  0.00000000000E+00  0.25158955919E+04  0.46590689954E+04  0.39213764515E+04 0.  0.
        3    1    3    3  502    0  0.11405200267E+04 -0.15920082330E+04  0.11450940597E+04  0.22685935204E+04  0.10100000352E+00 0.  1.
       -3    1    3    3    0  502 -0.11405200267E+04  0.15920082330E+04  0.13708015322E+04  0.23904754750E+04  0.10100000352E+00 0. -1.
</event>
<event>
 5   0  0.2446281E-07  0.3906058E+04  0.7818609E-02  0.8023771E-01
        2   -1    0    0  501    0  0.00000000000E+00  0.00000000000E+00  0.26441988070E+04  0.26441988070E+04  0.25500000920E-02 0. -1.
       -2   -1    0    0    0  501  0.00000000000E+00  0.00000000000E+00 -0.14425245236E+04  0.14425245236E+04  0.25500000920E-02 0.  1.
    10030    2    1    2    0    0  0.00000000000E+00  0.00000000000E+00  0.12016742834E+04  0.40867233306E+04  0.39060576669E+04 0.  0.
        1    1    3    3  502    0  0.10743581348E+04 -0.16130724564E+04  0.34870658275E+03  0.19692243224E+04  0.50400001928E-02 0. -1.
       -1    1    3    3    0  502 -0.10743581348E+04  0.16130724564E+04  0.85296770065E+03  0.21174990082E+04  0.50400001928E-02 0.  1.
</event>
<event>
 5   0  0.7731706E-08  0.3818376E+04  0.7818609E-02  0.8042223E-01
        1   -1    0    0  501    0  0.00000000000E+00  0.00000000000E+00  0.33595708719E+04  0.33595708719E+04  0.50400001928E-02 0.  1.
       -1   -1    0    0    0  501  0.00000000000E+00  0.00000000000E+00 -0.10849594025E+04  0.10849594025E+04  0.50400001928E-02 0. -1.
    10030    2    1    2    0    0  0.00000000000E+00  0.00000000000E+00  0.22746114694E+04  0.44445302744E+04  0.38183755739E+04 0.  0.
        3    1    3    3  502    0  0.25036360757E+03  0.14906073857E+04  0.24949357907E+04  0.29170699210E+04  0.10100000352E+00 0.  1.
       -3    1    3    3    0  502 -0.25036360757E+03 -0.14906073857E+04 -0.22032432127E+03  0.15274603534E+04  0.10100000352E+00 0. -1.
</event>
<event>
 5   0  0.7675750E-08  0.3898173E+04  0.7818609E-02  0.8025409E-01
        1   -1    0    0  501    0  0.00000000000E+00  0.00000000000E+00  0.30450392704E+04  0.30450392704E+04  0.50400001928E-02 0. -1.
       -1   -1    0    0    0  501  0.00000000000E+00  0.00000000000E+00 -0.12475828942E+04  0.12475828942E+04  0.50400001928E-02 0.  1.
    10030    2    1    2    0    0  0.00000000000E+00  0.00000000000E+00  0.17974563762E+04  0.42926221646E+04  0.38981733701E+04 0.  0.
        4    1    3    3  502    0  0.94199244902E+02  0.17003717388E+04  0.19427101229E+04  0.25834592666E+04  0.12699999809E+01 0. -1.
       -4    1    3    3    0  502 -0.94199244902E+02 -0.17003717388E+04 -0.14525374672E+03  0.17091628979E+04  0.12699999809E+01 0.  1.
</event>
<event>
 5   0  0.7675750E-08  0.3898974E+04  0.7818609E-02  0.8025243E-01
        1   -1    0    0  501    0  0.00000000000E+00  0.00000000000E+00  0.27678714928E+04  0.27678714929E+04  0.50400001928E-02 0. -1.
       -1   -1    0    0    0  501  0.00000000000E+00  0.00000000000E+00 -0.13730767257E+04  0.13730767257E+04  0.50400001928E-02 0.  1.
    10030    2    1    2    0    0  0.00000000000E+00  0.00000000000E+00  0.13947947671E+04  0.41409482186E+04  0.38989741864E+04 0.  0.
        4    1    3    3  502    0  0.49141500554E+03 -0.60339941548E+03 -0.12009660026E+04  0.14310487464E+04  0.12699999809E+01 0.  1.
       -4    1    3    3    0  502 -0.49141500554E+03  0.60339941548E+03  0.25957607698E+04  0.27098994721E+04  0.12699999809E+01 0. -1.
</event>
<event>
 5   0  0.7675750E-08  0.3947432E+04  0.7818609E-02  0.8015236E-01
        1   -1    0    0  501    0  0.00000000000E+00  0.00000000000E+00  0.23059930709E+04  0.23059930709E+04  0.50400001928E-02 0.  1.
       -1   -1    0    0    0  501  0.00000000000E+00  0.00000000000E+00 -0.16893179503E+04  0.16893179503E+04  0.50400001928E-02 0. -1.
    10030    2    1    2    0    0  0.00000000000E+00  0.00000000000E+00  0.61667512066E+03  0.39953110212E+04  0.39474323239E+04 0.  0.
        4    1    3    3  502    0 -0.16275531694E+03 -0.19138782789E+04 -0.15118967715E+03  0.19267276121E+04  0.12699999809E+01 0. -1.
       -4    1    3    3    0  502  0.16275531694E+03  0.19138782789E+04  0.76786479781E+03  0.20685834091E+04  0.12699999809E+01 0.  1.
</event>
<event>
 5   0  0.7731706E-08  0.3177431E+04  0.7818609E-02  0.8194803E-01
       -1   -1    0    0    0  501  0.00000000000E+00  0.00000000000E+00  0.12582675905E+04  0.12582675905E+04  0.50400001928E-02 0. -1.
        1   -1    0    0  501    0  0.00000000000E+00  0.00000000000E+00 -0.20059456776E+04  0.20059456777E+04  0.50400001928E-02 0.  1.
    10030    2    1    2    0    0  0.00000000000E+00  0.00000000000E+00 -0.74767808715E+03  0.32642132682E+04  0.31774306819E+04 0.  0.
        3    1    3    3  502    0  0.92735942700E+03 -0.10719643078E+03 -0.16944566909E+04  0.19345981673E+04  0.10100000352E+00 0.  1.
       -3    1    3    3    0  502 -0.92735942700E+03  0.10719643078E+03  0.94677860373E+03  0.13296151008E+04  0.10100000352E+00 0. -1.
</event>
<event>
 5   0  0.2486268E-07  0.3870068E+04  0.7818609E-02  0.8031283E-01
        2   -1    0    0  501    0  0.00000000000E+00  0.00000000000E+00  0.17906298821E+04  0.17906298821E+04  0.25500000920E-02 0.  1.
       -2   -1    0    0    0  501  0.00000000000E+00  0.00000000000E+00 -0.20910837244E+04  0.20910837244E+04  0.25500000920E-02 0. -1.
    10030    2    1    2    0    0  0.00000000000E+00  0.00000000000E+00 -0.30045384230E+03  0.38817136064E+04  0.38700682179E+04 0.  0.
        5    1    3    3  502    0  0.44235674844E+02 -0.37554825967E+03  0.17532036036E+04  0.17935267648E+04  0.46999998093E+01 0.  1.
       -5    1    3    3    0  502 -0.44235674844E+02  0.37554825967E+03 -0.20536574459E+04  0.20881868416E+04  0.46999998093E+01 0. -1.
</event>
<event>
 5   0  0.2473224E-07  0.3856710E+04  0.7818609E-02  0.8034093E-01
        2   -1    0    0  501    0  0.00000000000E+00  0.00000000000E+00  0.18607788593E+04  0.18607788593E+04  0.25500000920E-02 0. -1.
       -2   -1    0    0    0  501  0.00000000000E+00  0.00000000000E+00 -0.19983848886E+04  0.19983848886E+04  0.25500000920E-02 0.  1.
    10030    2    1    2    0    0  0.00000000000E+00  0.00000000000E+00 -0.13760602931E+03  0.38591637479E+04  0.38567096616E+04 0.  0.
        2    1    3    3  502    0  0.17933316180E+04 -0.26877940111E+03 -0.72517139196E+03  0.19529859718E+04  0.25500000920E-02 0. -1.
       -2    1    3    3    0  502 -0.17933316180E+04  0.26877940111E+03  0.58756536265E+03  0.19061777761E+04  0.25500000920E-02 0.  1.
</event>
<event>
 5   0  0.7675750E-08  0.3887695E+04  0.7818609E-02  0.8027593E-01
        1   -1    0    0  501    0  0.00000000000E+00  0.00000000000E+00  0.19658593170E+04  0.19658593170E+04  0.50400001928E-02 0.  1.
       -1   -1    0    0    0  501  0.00000000000E+00  0.00000000000E+00 -0.19220819598E+04  0.19220819598E+04  0.50400001928E-02 0. -1.
    10030    2    1    2    0    0  0.00000000000E+00  0.00000000000E+00  0.43777357224E+02  0.38879412768E+04  0.38876948073E+04 0.  0.
        2    1    3    3  502    0  0.10388221774E+04  0.15670314638E+04  0.51568470731E+03  0.19495306722E+04  0.25500000920E-02 0.  1.
       -2    1    3    3    0  502 -0.10388221774E+04 -0.15670314638E+04 -0.47190735009E+03  0.19384106045E+04  0.25500000920E-02 0. -1.
</event>
<event>
 5   0  0.7675750E-08  0.3867293E+04  0.7818609E-02  0.8031866E-01
       -1   -1    0    0    0  501  0.00000000000E+00  0.00000000000E+00  0.20431035044E+04  0.20431035044E+04  0.50400001928E-02 0.  1.
        1   -1    0    0  501    0  0.00000000000E+00  0.00000000000E+00 -0.18300537556E+04  0.18300537556E+04  0.50400001928E-02 0. -1.
    10030    2    1    2    0    0  0.00000000000E+00  0.00000000000E+00  0.21304974871E+03  0.38731572600E+04  0.38672932350E+04 0.  0.
        1    1    3    3  502    0 -0.18309545378E+03 -0.17912792467E+04 -0.59937289317E+03  0.18977494961E+04  0.50400001928E-02 0.  1.
       -1    1    3    3    0  502  0.18309545378E+03  0.17912792467E+04  0.81242264188E+03  0.19754077639E+04  0.50400001928E-02 0. -1.
</event>
<event>
 5   0  0.7731706E-08  0.3871128E+04  0.7818609E-02  0.8031061E-01
        1   -1    0    0  501    0  0.00000000000E+00  0.00000000000E+00  0.21842832984E+04  0.21842832984E+04  0.50400001928E-02 0.  1.
       -1   -1    0    0    0  501  0.00000000000E+00  0.00000000000E+00 -0.17151660145E+04  0.17151660145E+04  0.50400001928E-02 0. -1.
    10030    2    1    2    0    0  0.00000000000E+00  0.00000000000E+00  0.46911728393E+03  0.38994493129E+04  0.38711282486E+04 0.  0.
        3    1    3    3  502    0  0.18715038566E+03  0.81204949612E+03  0.19943251769E+04  0.21614306772E+04  0.10100000352E+00 0.  1.
       -3    1    3    3    0  502 -0.18715038566E+03 -0.81204949612E+03 -0.15252078929E+04  0.17380186357E+04  0.10100000352E+00 0. -1.
</event>
<event>
 5   0  0.7675750E-08  0.3859577E+04  0.7818609E-02  0.8033489E-01
       -1   -1    0    0    0  501  0.00000000000E+00  0.00000000000E+00  0.14052853522E+04  0.14052853522E+04  0.50400001928E-02 0. -1.
        1   -1    0    0  501    0  0.00000000000E+00  0.00000000000E+00 -0.26500553906E+04  0.26500553906E+04  0.50400001928E-02 0.  1.
    10030    2    1    2    0    0  0.00000000000E+00  0.00000000000E+00 -0.12447700384E+04  0.40553407428E+04  0.38595771908E+04 0.  0.
        1    1    3    3  502    0  0.20199844539E+03 -0.17947352244E+04  0.91955800937E+02  0.18084064164E+04  0.50400001928E-02 0. -1.
       -1    1    3    3    0  502 -0.20199844539E+03  0.17947352244E+04 -0.13367258393E+04  0.22469343264E+04  0.50400001928E-02 0.  1.
</event>
<event>
 5   0  0.7675750E-08  0.3910686E+04  0.7818609E-02  0.8022810E-01
       -1   -1    0    0    0  501  0.00000000000E+00  0.00000000000E+00  0.15713385438E+04  0.15713385438E+04  0.50400001928E-02 0. -1.
        1   -1    0    0  501    0  0.00000000000E+00  0.00000000000E+00 -0.24331909097E+04  0.24331909097E+04  0.50400001928E-02 0.  1.
    10030    2    1    2    0    0  0.00000000000E+00  0.00000000000E+00 -0.86185236591E+03  0.40045294535E+04  0.39106862113E+04 0.  0.
        4    1    3    3  502    0 -0.11200954695E+04  0.11587951611E+04 -0.15647198027E+04  0.22462790922E+04  0.12699999809E+01 0.  1.
       -4    1    3    3    0  502  0.11200954695E+04 -0.11587951611E+04  0.70286743684E+03  0.17582503613E+04  0.12699999809E+01 0. -1.
</event>
<event>
 5   0  0.7675750E-08  0.3254339E+04  0.7818609E-02  0.8174612E-01
       -1   -1    0    0    0  501  0.00000000000E+00  0.00000000000E+00  0.11056863596E+04  0.11056863596E+04  0.50400001928E-02 0.  1.
        1   -1    0    0  501    0  0.00000000000E+00  0.00000000000E+00 -0.23946031329E+04  0.23946031329E+04  0.50400001928E-02 0. -1.
    10030    2    1    2    0    0  0.00000000000E+00  0.00000000000E+00 -0.12889167733E+04  0.35002894925E+04  0.32543386552E+04 0.  0.
        4    1    3    3  502    0 -0.63217282957E+03 -0.12173132787E+04  0.29701455903E+03  0.14034647719E+04  0.12699999809E+01 0.  1.
       -4    1    3    3    0  502  0.63217282957E+03  0.12173132787E+04 -0.15859313324E+04  0.20968247206E+04  0.12699999809E+01 0. -1.
</event>
<event>
 5   0  0.7731706E-08  0.3921565E+04  0.7818609E-02  0.8020559E-01
        1   -1    0    0  501    0  0.00000000000E+00  0.00000000000E+00  0.23746680329E+04  0.23746680329E+04  0.50400001928E-02 0. -1.
       -1   -1    0    0    0  501  0.00000000000E+00  0.00000000000E+00 -0.16190336692E+04  0.16190336692E+04  0.50400001928E-02 0.  1.
    10030    2    1    2    0    0  0.00000000000E+00  0.00000000000E+00  0.75563436370E+03  0.39937017021E+04  0.39215647379E+04 0.  0.
        3    1    3    3  502    0  0.10338105077E+04 -0.44352733743E+03 -0.12577095064E+04  0.16873985533E+04  0.10100000352E+00 0.  1.
       -3    1    3    3    0  502 -0.10338105077E+04  0.44352733743E+03  0.20133438701E+04  0.23063031488E+04  0.10100000352E+00 0. -1.
</event>
<event>
 5   0  0.2473224E-07  0.4061825E+04  0.7818609E-02  0.7992189E-01
       -2   -1    0    0    0  501  0.00000000000E+00  0.00000000000E+00  0.19227057389E+04  0.19227057389E+04  0.25500000920E-02 0.  1.
        2   -1    0    0  501    0  0.00000000000E+00  0.00000000000E+00 -0.21452086280E+04  0.21452086280E+04  0.25500000920E-02 0. -1.
    10030    2    1    2    0    0  0.00000000000E+00  0.00000000000E+00 -0.22250288908E+03  0.40679143670E+04  0.40618246837E+04 0.  0.
        2    1    3    3  502    0 -0.10697153909E+04  0.52594403943E+02 -0.18393957124E+04  0.21284815657E+04  0.25500000920E-02 0. -1.
       -2    1    3    3    0  502  0.10697153909E+04 -0.52594403943E+02  0.16168928233E+04  0.19394328013E+04  0.25500000920E-02 0.  1.
</event>
<event>
 5   0  0.7675750E-08  0.3939334E+04  0.7818609E-02  0.8016898E-01
        3   -1    0    0  501    0  0.00000000000E+00  0.00000000000E+00  0.18523132730E+04  0.18523132758E+04  0.10100000352E+00 0. -1.
       -3   -1    0    0    0  501  0.00000000000E+00  0.00000000000E+00 -0.20944557959E+04  0.20944557983E+04  0.10100000352E+00 0.  1.
    10030    2    1    2    0    0  0.00000000000E+00  0.00000000000E+00 -0.24214252282E+03  0.39467690741E+04  0.39393340964E+04 0.  0.
        5    1    3    3  502    0  0.13423528592E+04  0.40892223976E+03  0.12637232364E+04  0.18884245034E+04  0.46999998093E+01 0. -1.
       -5    1    3    3    0  502 -0.13423528592E+04 -0.40892223976E+03 -0.15058657592E+04  0.20583445707E+04  0.46999998093E+01 0.  1.
</event>
<event>
 5   0  0.2446281E-07  0.3866297E+04  0.7818609E-02  0.8032075E-01
       -2   -1    0    0    0  501  0.00000000000E+00  0.00000000000E+00  0.19588241870E+04  0.19588241870E+04  0.25500000920E-02 0. -1.
        2   -1    0    0  501    0  0.00000000000E+00  0.00000000000E+00 -0.19078094427E+04  0.19078094427E+04  0.25500000920E-02 0.  1.
    10030    2    1    2    0    0  0.00000000000E+00  0.00000000000E+00  0.51014744263E+02  0.38666336297E+04  0.38662970815E+04 0.  0.
        1    1    3    3  502    0 -0.50733291099E+03 -0.53639842759E+03  0.18122667423E+04  0.19568905695E+04  0.50400001928E-02 0. -1.
       -1    1    3    3    0  502  0.50733291099E+03  0.53639842759E+03 -0.17612519980E+04  0.19097430603E+04  0.50400001928E-02 0.  1.
</event>
<event>
 5   0  0.7731706E-08  0.3902654E+04  0.7818609E-02  0.8024478E-01
        1   -1    0    0  501    0  0.00000000000E+00  0.00000000000E+00  0.26002763762E+04  0.26002763762E+04  0.50400001928E-02 0. -1.
       -1   -1    0    0    0  501  0.00000000000E+00  0.00000000000E+00 -0.14643352522E+04  0.14643352522E+04  0.50400001928E-02 0.  1.
    10030    2    1    2    0    0  0.00000000000E+00  0.00000000000E+00  0.11359411240E+04  0.40646116284E+04  0.39026536424E+04 0.  0.
        3    1    3    3  502    0 -0.34433254788E+03  0.88807245269E+03 -0.12057732621E+04  0.15365958332E+04  0.10100000352E+00 0.  1.
       -3    1    3    3    0  502  0.34433254788E+03 -0.88807245269E+03  0.23417143861E+04  0.25280157952E+04  0.10100000352E+00 0. -1.
</event>
<event>
 5   0  0.2446281E-07  0.3778805E+04  0.7818609E-02  0.8050719E-01
       -2   -1    0    0    0  501  0.00000000000E+00  0.00000000000E+00  0.14240203824E+04  0.14240203824E+04  0.25500000920E-02 0. -1.
        2   -1    0    0  501    0  0.00000000000E+00  0.00000000000E+00 -0.25068755709E+04  0.25068755709E+04  0.25500000920E-02 0.  1.
    10030    2    1    2    0    0  0.00000000000E+00  0.00000000000E+00 -0.10828551885E+04  0.39308959532E+04  0.37788050540E+04 0.  0.
        1    1    3    3  502    0 -0.43737986721E+03  0.56124705225E+03  0.12793169463E+04  0.14638822532E+04  0.50400001928E-02 0. -1.
       -1    1    3    3    0  502  0.43737986721E+03 -0.56124705225E+03 -0.23621721348E+04  0.24670137001E+04  0.50400001928E-02 0.  1.
</event>
<event>
 5   0  0.7675750E-08  0.3760637E+04  0.7818609E-02  0.8054655E-01
        1   -1    0    0  501    0  0.00000000000E+00  0.00000000000E+00  0.17974961712E+04  0.17974961712E+04  0.50400001928E-02 0. -1.
       -1   -1    0    0    0  501  0.00000000000E+00  0.00000000000E+00 -0.19669567278E+04  0.19669567278E+04  0.50400001928E-02 0.  1.
    10030    2    1    2    0    0  0.00000000000E+00  0.00000000000E+00 -0.16946055659E+03  0.37644528990E+04  0.37606367478E+04 0.  0.
        1    1    3    3  502    0  0.79015584978E+03  0.14970603399E+04 -0.90413363082E+03  0.19191126988E+04  0.50400001928E-02 0.  1.
       -1    1    3    3    0  502 -0.79015584978E+03 -0.14970603399E+04  0.73467307424E+03  0.18453402002E+04  0.50400001928E-02 0. -1.
</event>
<event>
 5   0  0.2486268E-07  0.3879583E+04  0.7818609E-02  0.8029289E-01
       -2   -1    0    0    0  501  0.00000000000E+00  0.00000000000E+00  0.23051965902E+04  0.23051965902E+04  0.25500000920E-02 0. -1.
        2   -1    0    0  501    0  0.00000000000E+00  0.00000000000E+00 -0.16323082485E+04  0.16323082485E+04  0.25500000920E-02 0.  1.
    10030    2    1    2    0    0  0.00000000000E+00  0.00000000000E+00  0.67288834169E+03  0.39375048388E+04  0.38795831780E+04 0.  0.
        5    1    3    3  502    0 -0.54700558437E+03  0.82006345572E+03  0.20320302879E+04  0.22585146361E+04  0.46999998093E+01 0. -1.
       -5    1    3    3    0  502  0.54700558437E+03 -0.82006345572E+03 -0.13591419462E+04  0.16789902027E+04  0.46999998093E+01 0.  1.
</event>
<event>
 5   0  0.7675750E-08  0.3906435E+04  0.7818609E-02  0.8023692E-01
        1   -1    0    0  501    0  0.00000000000E+00  0.00000000000E+00  0.16844827564E+04  0.16844827564E+04  0.50400001928E-02 0.  1.
       -1   -1    0    0    0  501  0.00000000000E+00  0.00000000000E+00 -0.22648247183E+04  0.22648247183E+04  0.50400001928E-02 0. -1.
    10030    2    1    2    0    0  0.00000000000E+00  0.00000000000E+00 -0.58034196189E+03  0.39493074747E+04  0.39064347860E+04 0.  0.
        2    1    3    3  502    0 -0.34210420166E+02  0.12419951215E+04  0.12334644244E+04  0.17507588986E+04  0.25500000920E-02 0.  1.
       -2    1    3    3    0  502  0.34210420166E+02 -0.12419951215E+04 -0.18138063863E+04  0.21985485761E+04  0.25500000920E-02 0. -1.
</event>
<event>
 5   0  0.2395572E-07  0.3926328E+04  0.7818609E-02  0.8019576E-01
        2   -1    0    0  501    0  0.00000000000E+00  0.00000000000E+00  0.21649721096E+04  0.21649721096E+04  0.25500000920E-02 0.  1.
       -2   -1    0    0    0  501  0.00000000000E+00  0.00000000000E+00 -0.17801671283E+04  0.17801671283E+04  0.25500000920E-02 0. -1.
    10030    2    1    2    0    0  0.00000000000E+00  0.00000000000E+00  0.38480498131E+03  0.39451392379E+04  0.39263276395E+04 0.  0.
        3    1    3    3  502    0  0.13330098794E+04 -0.13779197695E+04 -0.23203577854E+03  0.19311703298E+04  0.10100000352E+00 0. -1.
       -3    1    3    3    0  502 -0.13330098794E+04  0.13779197695E+04  0.61684075984E+03  0.20139689082E+04  0.10100000352E+00 0.  1.
</event>
<event>
 5   0  0.2473224E-07  0.3854302E+04  0.7818609E-02  0.8034601E-01
       -2   -1    0    0    0  501  0.00000000000E+00  0.00000000000E+00  0.19558547193E+04  0.19558547193E+04  0.25500000920E-02 0. -1.
        2   -1    0    0  501    0  0.00000000000E+00  0.00000000000E+00 -0.18988681839E+04  0.18988681839E+04  0.25500000920E-02 0.  1.
    10030    2    1    2    0    0  0.00000000000E+00  0.00000000000E+00  0.56986535353E+02  0.38547229032E+04  0.38543016482E+04 0.  0.
        2    1    3    3  502    0 -0.27154216082E+03  0.18778727552E+04 -0.30884030469E+03  0.19223744598E+04  0.25500000920E-02 0. -1.
       -2    1    3    3    0  502  0.27154216082E+03 -0.18778727552E+04  0.36582684004E+03  0.19323484434E+04  0.25500000920E-02 0.  1.
</event>
<event>
 5   0  0.7675750E-08  0.3932841E+04  0.7818609E-02  0.8018233E-01
        1   -1    0    0  501    0  0.00000000000E+00  0.00000000000E+00  0.19118200483E+04  0.19118200483E+04  0.50400001928E-02 0. -1.
       -1   -1    0    0    0  501  0.00000000000E+00  0.00000000000E+00 -0.20225799406E+04  0.20225799406E+04  0.50400001928E-02 0.  1.
    10030    2    1    2    0    0  0.00000000000E+00  0.00000000000E+00 -0.11075989234E+03  0.39343999889E+04  0.39328406425E+04 0.  0.
        2    1    3    3  502    0 -0.17754821337E+04 -0.82919079630E+03 -0.21950198448E+03  0.19718203024E+04  0.25500000920E-02 0.  1.
       -2    1    3    3    0  502  0.17754821337E+04  0.82919079630E+03  0.10874209213E+03  0.19625796866E+04  0.25500000920E-02 0. -1.
</event>
<event>
 5   0  0.2486268E-07  0.3929608E+04  0.7818609E-02  0.8018899E-01
       -2   -1    0    0    0  501  0.00000000000E+00  0.00000000000E+00  0.22830518003E+04  0.22830518003E+04  0.25500000920E-02 0. -1.
        2   -1    0    0  501    0  0.00000000000E+00  0.00000000000E+00 -0.16909183341E+04  0.16909183341E+04  0.25500000920E-02 0.  1.
    10030    2    1    2    0    0  0.00000000000E+00  0.00000000000E+00  0.59213346624E+03  0.39739701345E+04  0.39296076888E+04 0.  0.
        5    1    3    3  502    0 -0.34815236600E+03  0.14965789117E+04 -0.94228725882E+03  0.18024666091E+04  0.46999998093E+01 0.  1.
       -5    1    3    3    0  502  0.34815236600E+03 -0.14965789117E+04  0.15344207251E+04  0.21715035253E+04  0.46999998093E+01 0. -1.
</event>
<event>
 5   0  0.2486268E-07  0.4170813E+04  0.7818609E-02  0.7970947E-01
        2   -1    0    0  501    0  0.00000000000E+00  0.00000000000E+00  0.27776115145E+04  0.27776115145E+04  0.25500000920E-02 0.  1.
       -2   -1    0    0    0  501  0.00000000000E+00  0.00000000000E+00 -0.15657052562E+04  0.15657052562E+04  0.25500000920E-02 0. -1.
    10030    2    1    2    0    0  0.00000000000E+00  0.00000000000E+00  0.12119062583E+04  0.43433167707E+04  0.41708133250E+04 0.  0.
        5    1    3    3  502    0  0.96045211616E+03  0.18356438868E+04  0.35767649277E+03  0.21023822940E+04  0.46999998093E+01 0. -1.
       -5    1    3    3    0  502 -0.96045211616E+03 -0.18356438868E+04  0.85422976548E+03  0.22409344767E+04  0.46999998093E+01 0.  1.
</event>
<event>
 5   0  0.2395572E-07  0.3886066E+04  0.7818609E-02  0.8027933E-01
        2   -1    0    0  501    0  0.00000000000E+00  0.00000000000E+00  0.24806039439E+04  0.24806039440E+04  0.25500000920E-02 0.  1.
       -2   -1    0    0    0  501  0.00000000000E+00  0.00000000000E+00 -0.15219591307E+04  0.15219591307E+04  0.25500000920E-02 0. -1.
    10030    2    1    2    0    0  0.00000000000E+00  0.00000000000E+00  0.95864481325E+03  0.40025630746E+04  0.38860663001E+04 0.  0.
        3    1    3    3  502    0 -0.16874974569E+04  0.78202474607E+03  0.10584663929E+04  0.21399910013E+04  0.10100000352E+00 0.  1.
       -3    1    3    3    0  502  0.16874974569E+04 -0.78202474607E+03 -0.99821579668E+02  0.18625720734E+04  0.10100000352E+00 0. -1.
</event>
<event>
 5   0  0.2446281E-07  0.3865797E+04  0.7818609E-02  0.8032181E-01
       -2   -1    0    0    0  501  0.00000000000E+00  0.00000000000E+00  0.16202089833E+04  0.16202089833E+04  0.25500000920E-02 0.  1.
        2   -1    0    0  501    0  0.00000000000E+00  0.00000000000E+00 -0.23059349449E+04  0.23059349449E+04  0.25500000920E-02 0. -1.
    10030    2    1    2    0    0  0.00000000000E+00  0.00000000000E+00 -0.68572596161E+03  0.39261439282E+04  0.38657969490E+04 0.  0.
        1    1    3    3  502    0 -0.17032159575E+04  0.70986159797E+03  0.24166336355E+03  0.18609807273E+04  0.50400001928E-02 0.  1.
       -1    1    3    3    0  502  0.17032159575E+04 -0.70986159797E+03 -0.92738932516E+03  0.20651632009E+04  0.50400001928E-02 0. -1.
</event>
<event>
 5   0  0.7675750E-08  0.3909736E+04  0.7818609E-02  0.8023007E-01
       -1   -1    0    0    0  501  0.00000000000E+00  0.00000000000E+00  0.15394700248E+04  0.15394700248E+04  0.50400001928E-02 0. -1.
        1   -1    0    0  501    0  0.00000000000E+00  0.00000000000E+00 -0.24823530832E+04  0.24823530833E+04  0.50400001928E-02 0.  1.
    10030    2    1    2    0    0  0.00000000000E+00  0.00000000000E+00 -0.94288305848E+03  0.40218231080E+04  0.39097356241E+04 0.  0.
        5    1    3    3  502    0  0.42734520548E+03 -0.20798665261E+02 -0.24335931324E+04  0.24709217173E+04  0.46999998093E+01 0.  1.
       -5    1    3    3    0  502 -0.42734520548E+03  0.20798665261E+02  0.14907100739E+04  0.15509013907E+04  0.46999998093E+01 0. -1.
</event>
<event>
 5   0  0.7675750E-08  0.3926445E+04  0.7818609E-02  0.8019552E-01
        1   -1    0    0  501    0  0.00000000000E+00  0.00000000000E+00  0.23102466627E+04  0.23102466627E+04  0.50400001928E-02 0.  1.
       -1   -1    0    0    0  501  0.00000000000E+00  0.00000000000E+00 -0.16683248657E+04  0.16683248657E+04  0.50400001928E-02 0. -1.
    10030    2    1    2    0    0  0.00000000000E+00  0.00000000000E+00  0.64192179699E+03  0.39785715283E+04  0.39264446784E+04 0.  0.
        1    1    3    3  502    0 -0.62577953451E+03  0.90512303779E+03  0.19683972894E+04  0.22550910465E+04  0.50400001928E-02 0.  1.
       -1    1    3    3    0  502  0.62577953451E+03 -0.90512303779E+03 -0.13264754924E+04  0.17234804818E+04  0.50400001928E-02 0. -1.
</event>
<event>
 5   0  0.2473224E-07  0.3919473E+04  0.7818609E-02  0.8020991E-01
       -2   -1    0    0    0  501  0.00000000000E+00  0.00000000000E+00  0.32122188137E+04  0.32122188137E+04  0.25500000920E-02 0.  1.
        2   -1    0    0  501    0  0.00000000000E+00  0.00000000000E+00 -0.11956121064E+04  0.11956121064E+04  0.25500000920E-02 0. -1.
    10030    2    1    2    0    0  0.00000000000E+00  0.00000000000E+00  0.20166067073E+04  0.44078309201E+04  0.39194732820E+04 0.  0.
        2    1    3    3  502    0 -0.10422963863E+04 -0.14689917213E+04  0.13992068303E+03  0.18066256479E+04  0.25500000920E-02 0. -1.
       -2    1    3    3    0  502  0.10422963863E+04  0.14689917213E+04  0.18766860243E+04  0.26012052722E+04  0.25500000920E-02 0.  1.
</event>
<event>
 5   0  0.7675750E-08  0.3880187E+04  0.7818609E-02  0.8029163E-01
        1   -1    0    0  501    0  0.00000000000E+00  0.00000000000E+00  0.13131087541E+04  0.13131087542E+04  0.50400001928E-02 0.  1.
       -1   -1    0    0    0  501  0.00000000000E+00  0.00000000000E+00 -0.28664510251E+04  0.28664510251E+04  0.50400001928E-02 0. -1.
    10030    2    1    2    0    0  0.00000000000E+00  0.00000000000E+00 -0.15533422709E+04  0.41795597792E+04  0.38801865596E+04 0.  0.
        2    1    3    3  502    0  0.18152051051E+03 -0.13592683823E+04  0.70158405874E+03  0.15403832063E+04  0.25500000920E-02 0.  1.
       -2    1    3    3    0  502 -0.18152051051E+03  0.13592683823E+04 -0.22549263297E+04  0.26391765729E+04  0.25500000920E-02 0. -1.
</event>
<event>
 5   0  0.2446281E-07  0.3869006E+04  0.7818609E-02  0.8031506E-01
        2   -1    0    0  501    0  0.00000000000E+00  0.00000000000E+00  0.20359826709E+04  0.20359826709E+04  0.25500000920E-02 0. -1.
       -2   -1    0    0    0  501  0.00000000000E+00  0.00000000000E+00 -0.18380810496E+04  0.18380810496E+04  0.25500000920E-02 0.  1.
    10030    2    1    2    0    0  0.00000000000E+00  0.00000000000E+00  0.19790162130E+03  0.38740637206E+04  0.38690056422E+04 0.  0.
        1    1    3    3  502    0  0.11061102671E+04 -0.13812687083E+04 -0.68368345124E+03  0.18970519837E+04  0.50400001928E-02 0.  1.
       -1    1    3    3    0  502 -0.11061102671E+04  0.13812687083E+04  0.88158507253E+03  0.19770117368E+04  0.50400001928E-02 0. -1.
</event>
<event>
 5   0  0.2486268E-07  0.3292313E+04  0.7818609E-02  0.8164854E-01
       -2   -1    0    0    0  501  0.00000000000E+00  0.00000000000E+00  0.10504042368E+04  0.10504042368E+04  0.25500000920E-02 0. -1.
        2   -1    0    0  501    0  0.00000000000E+00  0.00000000000E+00 -0.25797988266E+04  0.25797988266E+04  0.25500000920E-02 0.  1.
    10030    2    1    2    0    0  0.00000000000E+00  0.00000000000E+00 -0.15293945897E+04  0.36302030634E+04  0.32923132400E+04 0.  0.
        5    1    3    3  502    0  0.16621436551E+03  0.14124689558E+04 -0.16786928709E+04  0.22001653600E+04  0.46999998093E+01 0.  1.
       -5    1    3    3    0  502 -0.16621436551E+03 -0.14124689558E+04  0.14929828112E+03  0.14300377034E+04  0.46999998093E+01 0. -1.
</event>
<event>
 5   0  0.7675750E-08  0.3870180E+04  0.7818609E-02  0.8031260E-01
       -1   -1    0    0    0  501  0.00000000000E+00  0.00000000000E+00  0.20586200017E+04  0.20586200017E+04  0.50400001928E-02 0. -1.
        1   -1    0    0  501    0  0.00000000000E+00  0.00000000000E+00 -0.18189726861E+04  0.18189726861E+04  0.50400001928E-02 0.  1.
    10030    2    1    2    0    0  0.00000000000E+00  0.00000000000E+00  0.23964731562E+03  0.38775926878E+04  0.38701801271E+04 0.  0.
        5    1    3    3  502    0  0.12360241447E+04 -0.13923660015E+04 -0.40855031490E+03  0.19061411853E+04  0.46999998093E+01 0.  1.
       -5    1    3    3    0  502 -0.12360241447E+04  0.13923660015E+04  0.64819763052E+03  0.19714515025E+04  0.46999998093E+01 0. -1.
</event>
<event>
 5   0  0.7675750E-08  0.3877163E+04  0.7818609E-02  0.8029796E-01
        1   -1    0    0  501    0  0.00000000000E+00  0.00000000000E+00  0.27438772556E+04  0.27438772556E+04  0.50400001928E-02 0.  1.
       -1   -1    0    0    0  501  0.00000000000E+00  0.00000000000E+00 -0.13696306059E+04  0.13696306059E+04  0.50400001928E-02 0. -1.
    10030    2    1    2    0    0  0.00000000000E+00  0.00000000000E+00  0.13742466497E+04  0.41135078616E+04  0.38771630186E+04 0.  0.
        5    1    3    3  502    0  0.20715124518E+03 -0.19003325316E+04  0.10291088583E+04  0.21710049519E+04  0.46999998093E+01 0.  1.
       -5    1    3    3    0  502 -0.20715124518E+03  0.19003325316E+04  0.34513779139E+03  0.19425029097E+04  0.46999998093E+01 0. -1.
</event>
<event>
 5   0  0.2446281E-07  0.3944343E+04  0.7818609E-02  0.8015869E-01
        2   -1    0    0  501    0  0.00000000000E+00  0.00000000000E+00  0.19056786638E+04  0.19056786638E+04  0.25500000920E-02 0. -1.
       -2   -1    0    0    0  501  0.00000000000E+00  0.00000000000E+00 -0.20409841202E+04  0.20409841202E+04  0.25500000920E-02 0.  1.
    10030    2    1    2    0    0  0.00000000000E+00  0.00000000000E+00 -0.13530545636E+03  0.39466627840E+04  0.39443427291E+04 0.  0.
        1    1    3    3  502    0  0.69975356187E+02  0.11585000732E+03 -0.20363318419E+04  0.20408246238E+04  0.50400001928E-02 0.  1.
       -1    1    3    3    0  502 -0.69975356187E+02 -0.11585000732E+03  0.19010263855E+04  0.19058381603E+04  0.50400001928E-02 0. -1.
</event>
<event>
 5   0  0.2384787E-07  0.3894210E+04  0.7818609E-02  0.8026234E-01
        2   -1    0    0  501    0  0.00000000000E+00  0.00000000000E+00  0.24925259411E+04  0.24925259411E+04  0.25500000920E-02 0. -1.
       -2   -1    0    0    0  501  0.00000000000E+00  0.00000000000E+00 -0.15210345667E+04  0.15210345667E+04  0.25500000920E-02 0.  1.
    10030    2    1    2    0    0  0.00000000000E+00  0.00000000000E+00  0.97149137447E+03  0.40135605078E+04  0.38942101201E+04 0.  0.
        4    1    3    3  502    0  0.90850334307E+03 -0.17221124545E+04  0.47243189811E+03  0.20035576212E+04  0.12699999809E+01 0. -1.
       -4    1    3    3    0  502 -0.90850334307E+03  0.17221124545E+04  0.49905947636E+03  0.20100028866E+04  0.12699999809E+01 0.  1.
</event>
<event>
 5   0  0.7675750E-08  0.3950352E+04  0.7818609E-02  0.8014638E-01
        1   -1    0    0  501    0  0.00000000000E+00  0.00000000000E+00  0.16482682918E+04  0.16482682918E+04  0.50400001928E-02 0.  1.
       -1   -1    0    0    0  501  0.00000000000E+00  0.00000000000E+00 -0.23669210626E+04  0.23669210626E+04  0.50400001928E-02 0. -1.
    10030    2    1    2    0    0  0.00000000000E+00  0.00000000000E+00 -0.71865277086E+03  0.40151893544E+04  0.39503523573E+04 0.  0.
        2    1    3    3  502    0  0.11013957441E+04  0.11594950602E+03 -0.20216523314E+04  0.23051236457E+04  0.25500000920E-02 0. -1.
       -2    1    3    3    0  502 -0.11013957441E+04 -0.11594950602E+03  0.13029995606E+04  0.17100657086E+04  0.25500000920E-02 0.  1.
</event>
<event>
 5   0  0.7675750E-08  0.3823581E+04  0.7818609E-02  0.8041113E-01
       -1   -1    0    0    0  501  0.00000000000E+00  0.00000000000E+00  0.15537220166E+04  0.15537220166E+04  0.50400001928E-02 0.  1.
        1   -1    0    0  501    0  0.00000000000E+00  0.00000000000E+00 -0.23523794697E+04  0.23523794697E+04  0.50400001928E-02 0. -1.
    10030    2    1    2    0    0  0.00000000000E+00  0.00000000000E+00 -0.79865745308E+03  0.39061014863E+04  0.38235814486E+04 0.  0.
        4    1    3    3  502    0  0.37235524368E+03  0.58400077171E+03 -0.22197053033E+04  0.23252523681E+04  0.12699999809E+01 0. -1.
       -4    1    3    3    0  502 -0.37235524368E+03 -0.58400077171E+03  0.14210478503E+04  0.15808491182E+04  0.12699999809E+01 0.  1.
</event>
<event>
 5   0  0.2395572E-07  0.3944768E+04  0.7818609E-02  0.8015782E-01
       -2   -1    0    0    0  501  0.00000000000E+00  0.00000000000E+00  0.24566674994E+04  0.24566674994E+04  0.25500000920E-02 0. -1.
        2   -1    0    0  501    0  0.00000000000E+00  0.00000000000E+00 -0.15835675637E+04  0.15835675637E+04  0.25500000920E-02 0.  1.
    10030    2    1    2    0    0  0.00000000000E+00  0.00000000000E+00  0.87309993575E+03  0.40402350631E+04  0.39447681640E+04 0.  0.
        3    1    3    3  502    0  0.16139291752E+04 -0.87543440009E+03  0.11745051424E+04  0.21795905834E+04  0.10100000352E+00 0. -1.
       -3    1    3    3    0  502 -0.16139291752E+04  0.87543440009E+03 -0.30140520667E+03  0.18606444798E+04  0.10100000352E+00 0.  1.
</event>
<event>
 5   0  0.7675750E-08  0.3896963E+04  0.7818609E-02  0.8025661E-01
        1   -1    0    0  501    0  0.00000000000E+00  0.00000000000E+00  0.18055732115E+04  0.18055732116E+04  0.50400001928E-02 0. -1.
       -1   -1    0    0    0  501  0.00000000000E+00  0.00000000000E+00 -0.21027008531E+04  0.21027008531E+04  0.50400001928E-02 0.  1.
    10030    2    1    2    0    0  0.00000000000E+00  0.00000000000E+00 -0.29712764157E+03  0.39082740647E+04  0.38969630906E+04 0.  0.
        1    1    3    3  502    0 -0.78717806677E+02 -0.16059027865E+04  0.95529433826E+03  0.18702159035E+04  0.50400001928E-02 0. -1.
       -1    1    3    3    0  502  0.78717806677E+02  0.16059027865E+04 -0.12524219798E+04  0.20380581612E+04  0.50400001928E-02 0.  1.
</event>
<event>
 5   0  0.2395572E-07  0.3885329E+04  0.7818609E-02  0.8028087E-01
       -2   -1    0    0    0  501  0.00000000000E+00  0.00000000000E+00  0.19044899917E+04  0.19044899917E+04  0.25500000920E-02 0.  1.
        2   -1    0    0  501    0  0.00000000000E+00  0.00000000000E+00 -0.19816043248E+04  0.19816043248E+04  0.25500000920E-02 0. -1.
    10030    2    1    2    0    0  0.00000000000E+00  0.00000000000E+00 -0.77114333137E+02  0.38860943165E+04  0.38853291258E+04 0.  0.
        3    1    3    3  502    0 -0.19309654016E+04  0.16354306782E+03  0.97748345831E+02  0.19403423580E+04  0.10100000352E+00 0.  1.
       -3    1    3    3    0  502  0.19309654016E+04 -0.16354306782E+03 -0.17486267897E+03  0.19457519584E+04  0.10100000352E+00 0. -1.
</event>
<event>
 5   0  0.7675750E-08  0.3870675E+04  0.7818609E-02  0.8031156E-01
        1   -1    0    0  501    0  0.00000000000E+00  0.00000000000E+00  0.11709104949E+04  0.11709104949E+04  0.50400001928E-02 0. -1.
       -1   -1    0    0    0  501  0.00000000000E+00  0.00000000000E+00 -0.31988196977E+04  0.31988196977E+04  0.50400001928E-02 0.  1.
    10030    2    1    2    0    0  0.00000000000E+00  0.00000000000E+00 -0.20279092028E+04  0.43697301926E+04  0.38706751634E+04 0.  0.
        2    1    3    3  502    0  0.84373011619E+03  0.16463279255E+04 -0.37209388531E+03  0.18869896679E+04  0.25500000920E-02 0. -1.
       -2    1    3    3    0  502 -0.84373011619E+03 -0.16463279255E+04 -0.16558153175E+04  0.24827405247E+04  0.25500000920E-02 0.  1.
</event>
<event>
 5   0  0.2446281E-07  0.3857755E+04  0.7818609E-02  0.8033873E-01
       -2   -1    0    0    0  501  0.00000000000E+00  0.00000000000E+00  0.28464895264E+04  0.28464895264E+04  0.25500000920E-02 0.  1.
        2   -1    0    0  501    0  0.00000000000E+00  0.00000000000E+00 -0.13070723427E+04  0.13070723427E+04  0.25500000920E-02 0. -1.
    10030    2    1    2    0    0  0.00000000000E+00  0.00000000000E+00  0.15394171837E+04  0.41535618692E+04  0.38577546495E+04 0.  0.
        1    1    3    3  502    0  0.45909888839E+03 -0.11951238294E+04 -0.78364983445E+03  0.15010662277E+04  0.50400001928E-02 0. -1.
       -1    1    3    3    0  502 -0.45909888839E+03  0.11951238294E+04  0.23230670181E+04  0.26524956414E+04  0.50400001928E-02 0.  1.
</event>
<event>
 5   0  0.2473224E-07  0.4334569E+04  0.7818609E-02  0.7940257E-01
        2   -1    0    0  501    0  0.00000000000E+00  0.00000000000E+00  0.18428485022E+04  0.18428485022E+04  0.25500000920E-02 0.  1.
       -2   -1    0    0    0  501  0.00000000000E+00  0.00000000000E+00 -0.25488374171E+04  0.25488374171E+04  0.25500000920E-02 0. -1.
    10030    2    1    2    0    0  0.00000000000E+00  0.00000000000E+00 -0.70598891490E+03  0.43916859194E+04  0.43345685906E+04 0.  0.
        2    1    3    3  502    0  0.29956923039E+03  0.92960144105E+03 -0.23132293148E+04  0.25109620518E+04  0.25500000920E-02 0. -1.
       -2    1    3    3    0  502 -0.29956923039E+03 -0.92960144105E+03  0.16072403999E+04  0.18807238676E+04  0.25500000920E-02 0.  1.
</event>
<event>
 5   0  0.7675750E-08  0.3864776E+04  0.7818609E-02  0.8032395E-01
       -1   -1    0    0    0  501  0.00000000000E+00  0.00000000000E+00  0.20373818883E+04  0.20373818883E+04  0.50400001928E-02 0. -1.
        1   -1    0    0  501    0  0.00000000000E+00  0.00000000000E+00 -0.18328051611E+04  0.18328051611E+04  0.50400001928E-02 0.  1.
    10030    2    1    2    0    0  0.00000000000E+00  0.00000000000E+00  0.20457672720E+03  0.38701870494E+04  0.38647763403E+04 0.  0.
        4    1    3    3  502    0  0.15979807457E+04  0.69047506644E+03  0.94240516584E+03  0.19795018036E+04  0.12699999809E+01 0.  1.
       -4    1    3    3    0  502 -0.15979807457E+04 -0.69047506644E+03 -0.73782843864E+03  0.18906852458E+04  0.12699999809E+01 0. -1.
</event>
<event>
 5   0  0.2384787E-07  0.3890370E+04  0.7818609E-02  0.8027035E-01
        2   -1    0    0  501    0  0.00000000000E+00  0.00000000000E+00  0.33394257006E+04  0.33394257006E+04  0.25500000920E-02 0. -1.
       -2   -1    0    0    0  501  0.00000000000E+00  0.00000000000E+00 -0.11330527990E+04  0.11330527990E+04  0.25500000920E-02 0.  1.
    10030    2    1    2    0    0  0.00000000000E+00  0.00000000000E+00  0.22063729016E+04  0.44724784996E+04  0.38903704899E+04 0.  0.
        4    1    3    3  502    0 -0.41803694388E+03 -0.13121911884E+04 -0.47609579517E+03  0.14571442689E+04  0.12699999809E+01 0.  1.
       -4    1    3    3    0  502  0.41803694388E+03  0.13121911884E+04  0.26824686967E+04  0.30153342307E+04  0.12699999809E+01 0. -1.
</event>
<event>
 5   0  0.2486268E-07  0.3917846E+04  0.7818609E-02  0.8021328E-01
        2   -1    0    0  501    0  0.00000000000E+00  0.00000000000E+00  0.17542528421E+04  0.17542528421E+04  0.25500000920E-02 0. -1.
       -2   -1    0    0    0  501  0.00000000000E+00  0.00000000000E+00 -0.21874726650E+04  0.21874726650E+04  0.25500000920E-02 0.  1.
    10030    2    1    2    0    0  0.00000000000E+00  0.00000000000E+00 -0.43321982289E+03  0.39417255071E+04  0.39178464184E+04 0.  0.
        5    1    3    3  502    0  0.88599036998E+03  0.63783275452E+03 -0.18530376535E+04  0.21507162049E+04  0.46999998093E+01 0.  1.
       -5    1    3    3    0  502 -0.88599036998E+03 -0.63783275452E+03  0.14198178306E+04  0.17910093022E+04  0.46999998093E+01 0. -1.
</event>
<event>
 5   0  0.7675750E-08  0.3915371E+04  0.7818609E-02  0.8021840E-01
       -1   -1    0    0    0  501  0.00000000000E+00  0.00000000000E+00  0.13261853120E+04  0.13261853120E+04  0.50400001928E-02 0.  1.
        1   -1    0    0  501    0  0.00000000000E+00  0.00000000000E+00 -0.28898925652E+04  0.28898925652E+04  0.50400001928E-02 0. -1.
    10030    2    1    2    0    0  0.00000000000E+00  0.00000000000E+00 -0.15637072532E+04  0.42160778772E+04  0.39153712841E+04 0.  0.
        1    1    3    3  502    0  0.22417149924E+03  0.16565677922E+04  0.31524988341E+03  0.17011326228E+04  0.50400001928E-02 0.  1.
       -1    1    3    3    0  502 -0.22417149924E+03 -0.16565677922E+04 -0.18789571367E+04  0.25149452544E+04  0.50400001928E-02 0. -1.
</event>
<event>
 5   0  0.2384787E-07  0.3288387E+04  0.7818609E-02  0.8165857E-01
        2   -1    0    0  501    0  0.00000000000E+00  0.00000000000E+00  0.21570920257E+04  0.21570920257E+04  0.25500000920E-02 0. -1.
       -2   -1    0    0    0  501  0.00000000000E+00  0.00000000000E+00 -0.12532485263E+04  0.12532485263E+04  0.25500000920E-02 0.  1.
    10030    2    1    2    0    0  0.00000000000E+00  0.00000000000E+00  0.90384349940E+03  0.34103405521E+04  0.32883870833E+04 0.  0.
        4    1    3    3  502    0  0.22262441001E+03  0.12354560302E+04 -0.64927498998E+03  0.14133197997E+04  0.12699999809E+01 0.  1.
       -4    1    3    3    0  502 -0.22262441001E+03 -0.12354560302E+04  0.15531184894E+04  0.19970207524E+04  0.12699999809E+01 0. -1.
</event>
<event>
 5   0  0.7675750E-08  0.4044060E+04  0.7818609E-02  0.7995717E-01
       -1   -1    0    0    0  501  0.00000000000E+00  0.00000000000E+00  0.17085969077E+04  0.17085969077E+04  0.50400001928E-02 0.  1.
        1   -1    0    0  501    0  0.00000000000E+00  0.00000000000E+00 -0.23929610496E+04  0.23929610496E+04  0.50400001928E-02 0. -1.
    10030    2    1    2    0    0  0.00000000000E+00  0.00000000000E+00 -0.68436414188E+03  0.41015579573E+04  0.40440602615E+04 0.  0.
        5    1    3    3  502    0 -0.11535273891E+04  0.91600091713E+03 -0.17471211033E+04  0.22851996318E+04  0.46999998093E+01 0. -1.
       -5    1    3    3    0  502  0.11535273891E+04 -0.91600091713E+03  0.10627569614E+04  0.18163583255E+04  0.46999998093E+01 0.  1.
</event>
<event>
 5   0  0.7675750E-08  0.3528760E+04  0.7818609E-02  0.8107008E-01
       -1   -1    0    0    0  501  0.00000000000E+00  0.00000000000E+00  0.19857435197E+04  0.19857435198E+04  0.50400001928E-02 0. -1.
        1   -1    0    0  501    0  0.00000000000E+00  0.00000000000E+00 -0.15676929634E+04  0.15676929634E+04  0.50400001928E-02 0.  1.
    10030    2    1    2    0    0  0.00000000000E+00  0.00000000000E+00  0.41805055632E+03  0.35534364832E+04  0.35287596365E+04 0.  0.
        2    1    3    3  502    0  0.69229850244E+03  0.13954011066E+04  0.10434420436E+04  0.18748847333E+04  0.25500000920E-02 0. -1.
       -2    1    3    3    0  502 -0.69229850244E+03 -0.13954011066E+04 -0.62539148725E+03  0.16785517499E+04  0.25500000920E-02 0.  1.
</event>
<event>
 5   0  0.7675750E-08  0.3872438E+04  0.7818609E-02  0.8030786E-01
        1   -1    0    0  501    0  0.00000000000E+00  0.00000000000E+00  0.19483478064E+04  0.19483478064E+04  0.50400001928E-02 0.  1.
       -1   -1    0    0    0  501  0.00000000000E+00  0.00000000000E+00 -0.19241657208E+04  0.19241657208E+04  0.50400001928E-02 0. -1.
    10030    2    1    2    0    0  0.00000000000E+00  0.00000000000E+00  0.24182085527E+02  0.38725135272E+04  0.38724380234E+04 0.  0.
        2    1    3    3  502    0 -0.13735720313E+03  0.19313283336E+04  0.51679064408E+01  0.19362135318E+04  0.25500000920E-02 0. -1.
       -2    1    3    3    0  502  0.13735720313E+03 -0.19313283336E+04  0.19014179086E+02  0.19362999955E+04  0.25500000920E-02 0.  1.
</event>
<event>
 5   0  0.7731706E-08  0.3857731E+04  0.7818609E-02  0.8033878E-01
        1   -1    0    0  501    0  0.00000000000E+00  0.00000000000E+00  0.17283823804E+04  0.17283823804E+04  0.50400001928E-02 0.  1.
       -1   -1    0    0    0  501  0.00000000000E+00  0.00000000000E+00 -0.21526038086E+04  0.21526038086E+04  0.50400001928E-02 0. -1.
    10030    2    1    2    0    0  0.00000000000E+00  0.00000000000E+00 -0.42422142816E+03  0.38809861890E+04  0.38577311958E+04 0.  0.
        3    1    3    3  502    0  0.44947577161E+03  0.10529169887E+04 -0.17738409750E+04  0.21112021384E+04  0.10100000352E+00 0. -1.
       -3    1    3    3    0  502 -0.44947577161E+03 -0.10529169887E+04  0.13496195469E+04  0.17697840506E+04  0.10100000352E+00 0.  1.
</event>
<event>
 5   0  0.7675750E-08  0.3898538E+04  0.7818609E-02  0.8025333E-01
       -1   -1    0    0    0  501  0.00000000000E+00  0.00000000000E+00  0.18182794703E+04  0.18182794703E+04  0.50400001928E-02 0.  1.
        1   -1    0    0  501    0  0.00000000000E+00  0.00000000000E+00 -0.20896948425E+04  0.20896948425E+04  0.50400001928E-02 0. -1.
    10030    2    1    2    0    0  0.00000000000E+00  0.00000000000E+00 -0.27141537219E+03  0.39079743129E+04  0.38985377933E+04 0.  0.
        5    1    3    3  502    0  0.82507197354E+03 -0.18551208006E+03  0.16248089440E+04  0.18317163230E+04  0.46999998093E+01 0.  1.
       -5    1    3    3    0  502 -0.82507197354E+03  0.18551208006E+03 -0.18962243162E+04  0.20762579899E+04  0.46999998093E+01 0. -1.
</event>
<event>
 5   0  0.7675750E-08  0.3898893E+04  0.7818609E-02  0.8025259E-01
        1   -1    0    0  501    0  0.00000000000E+00  0.00000000000E+00  0.26479547952E+04  0.26479547952E+04  0.50400001928E-02 0.  1.
       -1   -1    0    0    0  501  0.00000000000E+00  0.00000000000E+00 -0.14351988185E+04  0.14351988185E+04  0.50400001928E-02 0. -1.
    10030    2    1    2    0    0  0.00000000000E+00  0.00000000000E+00  0.12127559768E+04  0.40831536137E+04  0.38988929677E+04 0.  0.
        2    1    3    3  502    0 -0.13492837566E+04 -0.91940009131E+03  0.17218341928E+04  0.23728835140E+04  0.25500000920E-02 0.  1.
       -2    1    3    3    0  502  0.13492837566E+04  0.91940009131E+03 -0.50907821605E+03  0.17102700996E+04  0.25500000920E-02 0. -1.
</event>
<event>
 5   0  0.2384787E-07  0.3844832E+04  0.7818609E-02  0.8036602E-01
        2   -1    0    0  501    0  0.00000000000E+00  0.00000000000E+00  0.17475517870E+04  0.17475517870E+04  0.25500000920E-02 0.  1.
       -2   -1    0    0    0  501  0.00000000000E+00  0.00000000000E+00 -0.21147778541E+04  0.21147778541E+04  0.25500000920E-02 0. -1.
    10030    2    1    2    0    0  0.00000000000E+00  0.00000000000E+00 -0.36722606711E+03  0.38623296410E+04  0.38448322813E+04 0.  0.
        4    1    3    3  502    0  0.81112016780E+03  0.27675472841E+03 -0.19122501547E+04  0.20955217425E+04  0.12699999809E+01 0. -1.
       -4    1    3    3    0  502 -0.81112016780E+03 -0.27675472841E+03  0.15450240876E+04  0.17668078985E+04  0.12699999809E+01 0.  1.
</event>
<event>
 5   0  0.2384787E-07  0.3552679E+04  0.7818609E-02  0.8101418E-01
       -2   -1    0    0    0  501  0.00000000000E+00  0.00000000000E+00  0.12316446031E+04  0.12316446031E+04  0.25500000920E-02 0. -1.
        2   -1    0    0  501    0  0.00000000000E+00  0.00000000000E+00 -0.25619253767E+04  0.25619253767E+04  0.25500000920E-02 0.  1.
    10030    2    1    2    0    0  0.00000000000E+00  0.00000000000E+00 -0.13302807736E+04  0.37935699798E+04  0.35526787436E+04 0.  0.
        4    1    3    3  502    0  0.11718707251E+04  0.13113065008E+04 -0.93225021577E+03  0.19904516606E+04  0.12699999809E+01 0.  1.
       -4    1    3    3    0  502 -0.11718707251E+04 -0.13113065008E+04 -0.39803055782E+03  0.18031183193E+04  0.12699999809E+01 0. -1.
</event>
<event>
 5   0  0.2446281E-07  0.3511903E+04  0.7818609E-02  0.8110975E-01
       -2   -1    0    0    0  501  0.00000000000E+00  0.00000000000E+00  0.14890060863E+04  0.14890060863E+04  0.25500000920E-02 0. -1.
        2   -1    0    0  501    0  0.00000000000E+00  0.00000000000E+00 -0.20707544511E+04  0.20707544511E+04  0.25500000920E-02 0.  1.
    10030    2    1    2    0    0  0.00000000000E+00  0.00000000000E+00 -0.58174836483E+03  0.35597605375E+04  0.35119031769E+04 0.  0.
        1    1    3    3  502    0  0.25191097849E+03 -0.66603649828E+03  0.13360849891E+04  0.15139969803E+04  0.50400001928E-02 0. -1.
       -1    1    3    3    0  502 -0.25191097849E+03  0.66603649828E+03 -0.19178333540E+04  0.20457635572E+04  0.50400001928E-02 0.  1.
</event>
<event>
 5   0  0.7675750E-08  0.3906189E+04  0.7818609E-02  0.8023743E-01
       -1   -1    0    0    0  501  0.00000000000E+00  0.00000000000E+00  0.17937571048E+04  0.17937571048E+04  0.50400001928E-02 0. -1.
        1   -1    0    0  501    0  0.00000000000E+00  0.00000000000E+00 -0.21265857919E+04  0.21265857919E+04  0.50400001928E-02 0.  1.
    10030    2    1    2    0    0  0.00000000000E+00  0.00000000000E+00 -0.33282868715E+03  0.39203428967E+04  0.39061891266E+04 0.  0.
        4    1    3    3  502    0  0.26147868051E+03 -0.84520464261E+03  0.15811112811E+04  0.18118102782E+04  0.12699999809E+01 0. -1.
       -4    1    3    3    0  502 -0.26147868051E+03  0.84520464261E+03 -0.19139399682E+04  0.21085326185E+04  0.12699999809E+01 0.  1.
</event>
<event>
 5   0  0.7675750E-08  0.3951624E+04  0.7818609E-02  0.8014377E-01
       -1   -1    0    0    0  501  0.00000000000E+00  0.00000000000E+00  0.16409376266E+04  0.16409376266E+04  0.50400001928E-02 0. -1.
        1   -1    0    0  501    0  0.00000000000E+00  0.00000000000E+00 -0.23790257367E+04  0.23790257367E+04  0.50400001928E-02 0.  1.
    10030    2    1    2    0    0  0.00000000000E+00  0.00000000000E+00 -0.73808811006E+03  0.40199633634E+04  0.39516238921E+04 0.  0.
        4    1    3    3  502    0  0.10563799514E+04 -0.12876595229E+04 -0.14503589740E+04  0.22085172435E+04  0.12699999809E+01 0.  1.
       -4    1    3    3    0  502 -0.10563799514E+04  0.12876595229E+04  0.71227086395E+03  0.18114461198E+04  0.12699999809E+01 0. -1.
</event>
<event>
 5   0  0.2486268E-07  0.3881172E+04  0.7818609E-02  0.8028956E-01
        2   -1    0    0  501    0  0.00000000000E+00  0.00000000000E+00  0.18663597423E+04  0.18663597423E+04  0.25500000920E-02 0. -1.
       -2   -1    0    0    0  501  0.00000000000E+00  0.00000000000E+00 -0.20177647954E+04  0.20177647954E+04  0.25500000920E-02 0.  1.
    10030    2    1    2    0    0  0.00000000000E+00  0.00000000000E+00 -0.15140505310E+03  0.38841245378E+04  0.38811724949E+04 0.  0.
        5    1    3    3  502    0  0.35237368263E+03 -0.17779635144E+04  0.61802846690E+03  0.19150202992E+04  0.46999998093E+01 0. -1.
       -5    1    3    3    0  502 -0.35237368263E+03  0.17779635144E+04 -0.76943352001E+03  0.19691042386E+04  0.46999998093E+01 0.  1.
</event>
<event>
 5   0  0.7675750E-08  0.3871638E+04  0.7818609E-02  0.8030954E-01
       -1   -1    0    0    0  501  0.00000000000E+00  0.00000000000E+00  0.28004351669E+04  0.28004351669E+04  0.50400001928E-02 0. -1.
        1   -1    0    0  501    0  0.00000000000E+00  0.00000000000E+00 -0.13381476433E+04  0.13381476433E+04  0.50400001928E-02 0.  1.
    10030    2    1    2    0    0  0.00000000000E+00  0.00000000000E+00  0.14622875236E+04  0.41385828102E+04  0.38716382676E+04 0.  0.
        5    1    3    3  502    0 -0.16556453339E+04  0.72312366959E+03 -0.11990376332E+02  0.18067194503E+04  0.46999998093E+01 0.  1.
       -5    1    3    3    0  502  0.16556453339E+04 -0.72312366959E+03  0.14742778999E+04  0.23318633599E+04  0.46999998093E+01 0. -1.
</event>
<event>
 5   0  0.7675750E-08  0.3882590E+04  0.7818609E-02  0.8028660E-01
        3   -1    0    0  501    0  0.00000000000E+00  0.00000000000E+00  0.17964757533E+04  0.17964757562E+04  0.10100000352E+00 0.  1.
       -3   -1    0    0    0  501  0.00000000000E+00  0.00000000000E+00 -0.20977889119E+04  0.20977889144E+04  0.10100000352E+00 0. -1.
    10030    2    1    2    0    0  0.00000000000E+00  0.00000000000E+00 -0.30131315860E+03  0.38942646706E+04  0.38825903344E+04 0.  0.
        5    1    3    3  502    0 -0.11534405598E+04  0.13449479310E+04  0.64500970986E+03  0.18855687943E+04  0.46999998093E+01 0.  1.
       -5    1    3    3    0  502  0.11534405598E+04 -0.13449479310E+04 -0.94632286846E+03  0.20086958763E+04  0.46999998093E+01 0. -1.
</event>
<event>
 5   0  0.2473224E-07  0.3861745E+04  0.7818609E-02  0.8033033E-01
        2   -1    0    0  501    0  0.00000000000E+00  0.00000000000E+00  0.26238657098E+04  0.26238657098E+04  0.25500000920E-02 0.  1.
       -2   -1    0    0    0  501  0.00000000000E+00  0.00000000000E+00 -0.14209071605E+04  0.14209071605E+04  0.25500000920E-02 0. -1.
    10030    2    1    2    0    0  0.00000000000E+00  0.00000000000E+00  0.12029585492E+04  0.40447728703E+04  0.38617454993E+04 0.  0.
        2    1    3    3  502    0 -0.14798324291E+04 -0.47687026469E+03 -0.59775839434E+03  0.16657203744E+04  0.25500000920E-02 0. -1.
       -2    1    3    3    0  502  0.14798324291E+04  0.47687026469E+03  0.18007169436E+04  0.23790524959E+04  0.25500000920E-02 0.  1.
</event>
<event>
 5   0  0.7731706E-08  0.3891859E+04  0.7818609E-02  0.8026724E-01
        1   -1    0    0  501    0  0.00000000000E+00  0.00000000000E+00  0.17195916478E+04  0.17195916478E+04  0.50400001928E-02 0.  1.
       -1   -1    0    0    0  501  0.00000000000E+00  0.00000000000E+00 -0.22020587460E+04  0.22020587460E+04  0.50400001928E-02 0. -1.
    10030    2    1    2    0    0  0.00000000000E+00  0.00000000000E+00 -0.48246709821E+03  0.39216503937E+04  0.38918591071E+04 0.  0.
        3    1    3    3  502    0  0.82506887168E+03  0.17611719067E+04 -0.17611152985E+03  0.19528134598E+04  0.10100000352E+00 0. -1.
       -3    1    3    3    0  502 -0.82506887168E+03 -0.17611719067E+04 -0.30635556836E+03  0.19688369339E+04  0.10100000352E+00 0.  1.
</event>
<event>
 5   0  0.2395572E-07  0.3878485E+04  0.7818609E-02  0.8029519E-01
        2   -1    0    0  501    0  0.00000000000E+00  0.00000000000E+00  0.28917650305E+04  0.28917650305E+04  0.25500000920E-02 0. -1.
       -2   -1    0    0    0  501  0.00000000000E+00  0.00000000000E+00 -0.13004725226E+04  0.13004725226E+04  0.25500000920E-02 0.  1.
    10030    2    1    2    0    0  0.00000000000E+00  0.00000000000E+00  0.15912925079E+04  0.41922375531E+04  0.38784847371E+04 0.  0.
        3    1    3    3  502    0 -0.74126030062E+03 -0.85260357208E+03 -0.90801180334E+03  0.14494430412E+04  0.10100000352E+00 0.  1.
       -3    1    3    3    0  502  0.74126030062E+03  0.85260357208E+03  0.24993043112E+04  0.27427945119E+04  0.10100000352E+00 0. -1.
</event>
<event>
 5   0  0.2384787E-07  0.3884051E+04  0.7818609E-02  0.8028355E-01
        2   -1    0    0  501    0  0.00000000000E+00  0.00000000000E+00  0.18279127398E+04  0.18279127398E+04  0.25500000920E-02 0.  1.
       -2   -1    0    0    0  501  0.00000000000E+00  0.00000000000E+00 -0.20632616063E+04  0.20632616063E+04  0.25500000920E-02 0. -1.
    10030    2    1    2    0    0  0.00000000000E+00  0.00000000000E+00 -0.23534886651E+03  0.38911743461E+04  0.38840505536E+04 0.  0.
        4    1    3    3  502    0 -0.42199031061E+03  0.20552016604E+03  0.17702303746E+04  0.18314015270E+04  0.12699999809E+01 0.  1.
       -4    1    3    3    0  502  0.42199031061E+03 -0.20552016604E+03 -0.20055792411E+04  0.20597728191E+04  0.12699999809E+01 0. -1.
</event>
<event>
 5   0  0.2384787E-07  0.3880606E+04  0.7818609E-02  0.8029075E-01
       -2   -1    0    0    0  501  0.00000000000E+00  0.00000000000E+00  0.25525249504E+04  0.25525249504E+04  0.25500000920E-02 0. -1.
        2   -1    0    0  501    0  0.00000000000E+00  0.00000000000E+00 -0.14749219751E+04  0.14749219751E+04  0.25500000920E-02 0.  1.
    10030    2    1    2    0    0  0.00000000000E+00  0.00000000000E+00  0.10776029753E+04  0.40274469254E+04  0.38806056956E+04 0.  0.
        4    1    3    3  502    0  0.13297424870E+04 -0.13910526840E+04  0.28136099312E+03  0.19448414518E+04  0.12699999809E+01 0.  1.
       -4    1    3    3    0  502 -0.13297424870E+04  0.13910526840E+04  0.79624198218E+03  0.20826054736E+04  0.12699999809E+01 0. -1.
</event>
<event>
 5   0  0.7675750E-08  0.3847117E+04  0.7818609E-02  0.8036119E-01
       -1   -1    0    0    0  501  0.00000000000E+00  0.00000000000E+00  0.19427892079E+04  0.19427892079E+04  0.50400001928E-02 0.  1.
        1   -1    0    0  501    0  0.00000000000E+00  0.00000000000E+00 -0.19045185885E+04  0.19045185885E+04  0.50400001928E-02 0. -1.
    10030    2    1    2    0    0  0.00000000000E+00  0.00000000000E+00  0.38270619405E+02  0.38473077964E+04  0.38471174456E+04 0.  0.
        2    1    3    3  502    0  0.14922287569E+02 -0.10698321673E+04 -0.15794789318E+04  0.19077518804E+04  0.25500000920E-02 0. -1.
       -2    1    3    3    0  502 -0.14922287569E+02  0.10698321673E+04  0.16177495512E+04  0.19395559160E+04  0.25500000920E-02 0.  1.
</event>
<event>
 5   0  0.2446281E-07  0.3603098E+04  0.7818609E-02  0.8089782E-01
        2   -1    0    0  501    0  0.00000000000E+00  0.00000000000E+00  0.16907730885E+04  0.16907730885E+04  0.25500000920E-02 0. -1.
       -2   -1    0    0    0  501  0.00000000000E+00  0.00000000000E+00 -0.19195824236E+04  0.19195824236E+04  0.25500000920E-02 0.  1.
    10030    2    1    2    0    0  0.00000000000E+00  0.00000000000E+00 -0.22880933518E+03  0.36103555121E+04  0.36030977244E+04 0.  0.
        1    1    3    3  502    0  0.12631017851E+04  0.11177018489E+04  0.52003323073E+03  0.17649697175E+04  0.50400001928E-02 0. -1.
       -1    1    3    3    0  502 -0.12631017851E+04 -0.11177018489E+04 -0.74884256590E+03  0.18453857946E+04  0.50400001928E-02 0.  1.
</event>
<event>
 5   0  0.7675750E-08  0.3876954E+04  0.7818609E-02  0.8029839E-01
       -1   -1    0    0    0  501  0.00000000000E+00  0.00000000000E+00  0.13991025065E+04  0.13991025065E+04  0.50400001928E-02 0. -1.
        1   -1    0    0  501    0  0.00000000000E+00  0.00000000000E+00 -0.26857883743E+04  0.26857883743E+04  0.50400001928E-02 0.  1.
    10030    2    1    2    0    0  0.00000000000E+00  0.00000000000E+00 -0.12866858677E+04  0.40848908808E+04  0.38769540861E+04 0.  0.
        1    1    3    3  502    0  0.71480849854E+03 -0.16939669093E+04 -0.12904648407E+04  0.22462801661E+04  0.50400001928E-02 0. -1.
       -1    1    3    3    0  502 -0.71480849854E+03  0.16939669093E+04  0.37789730134E+01  0.18386107147E+04  0.50400001928E-02 0.  1.
</event>
<event>
 5   0  0.7675750E-08  0.3912876E+04  0.7818609E-02  0.8022356E-01
        3   -1    0    0  501    0  0.00000000000E+00  0.00000000000E+00  0.15959908894E+04  0.15959908926E+04  0.10100000352E+00 0.  1.
       -3   -1    0    0    0  501  0.00000000000E+00  0.00000000000E+00 -0.23982908212E+04  0.23982908234E+04  0.10100000352E+00 0. -1.
    10030    2    1    2    0    0  0.00000000000E+00  0.00000000000E+00 -0.80229993186E+03  0.39942817159E+04  0.39128763392E+04 0.  0.
        4    1    3    3  502    0  0.11777189194E+04  0.53022869442E+03 -0.19012409563E+04  0.22984523290E+04  0.12699999809E+01 0. -1.
       -4    1    3    3    0  502 -0.11777189194E+04 -0.53022869442E+03  0.10989410245E+04  0.16958293870E+04  0.12699999809E+01 0.  1.
</event>
<event>
 5   0  0.2446281E-07  0.3957068E+04  0.7818609E-02  0.8013264E-01
        2   -1    0    0  501    0  0.00000000000E+00  0.00000000000E+00  0.17263433589E+04  0.17263433589E+04  0.25500000920E-02 0.  1.
       -2   -1    0    0    0  501  0.00000000000E+00  0.00000000000E+00 -0.22675660303E+04  0.22675660303E+04  0.25500000920E-02 0. -1.
    10030    2    1    2    0    0  0.00000000000E+00  0.00000000000E+00 -0.54122267139E+03  0.39939093891E+04  0.39570683881E+04 0.  0.
        1    1    3    3  502    0 -0.69856764207E+03 -0.55620960904E+03  0.15113947880E+04  0.17554714708E+04  0.50400001928E-02 0.  1.
       -1    1    3    3    0  502  0.69856764207E+03  0.55620960904E+03 -0.20526174593E+04  0.22384379183E+04  0.50400001928E-02 0. -1.
</event>
<event>
 5   0  0.7675750E-08  0.3827208E+04  0.7818609E-02  0.8040341E-01
       -1   -1    0    0    0  501  0.00000000000E+00  0.00000000000E+00  0.15798839896E+04  0.15798839896E+04  0.50400001928E-02 0. -1.
        1   -1    0    0  501    0  0.00000000000E+00  0.00000000000E+00 -0.23178161762E+04  0.23178161762E+04  0.50400001928E-02 0.  1.
    10030    2    1    2    0    0  0.00000000000E+00  0.00000000000E+00 -0.73793218662E+03  0.38977001658E+04  0.38272082084E+04 0.  0.
        5    1    3    3  502    0 -0.14392816111E+04  0.58660135314E+02 -0.16518849951E+04  0.21917387378E+04  0.46999998093E+01 0.  1.
       -5    1    3    3    0  502  0.14392816111E+04 -0.58660135314E+02  0.91395280852E+03  0.17059614280E+04  0.46999998093E+01 0. -1.
</event>
<event>
 5   0  0.7675750E-08  0.3938383E+04  0.7818609E-02  0.8017093E-01
        1   -1    0    0  501    0  0.00000000000E+00  0.00000000000E+00  0.17875285262E+04  0.17875285262E+04  0.50400001928E-02 0.  1.
       -1   -1    0    0    0  501  0.00000000000E+00  0.00000000000E+00 -0.21693169456E+04  0.21693169456E+04  0.50400001928E-02 0. -1.
    10030    2    1    2    0    0  0.00000000000E+00  0.00000000000E+00 -0.38178841936E+03  0.39568454718E+04  0.39383833854E+04 0.  0.
        5    1    3    3  502    0 -0.93105642424E+03  0.11484112047E+04  0.11159645227E+04  0.18523264470E+04  0.46999998093E+01 0.  1.
       -5    1    3    3    0  502  0.93105642424E+03 -0.11484112047E+04 -0.14977529421E+04  0.21045190248E+04  0.46999998093E+01 0. -1.
</event>
<event>
 5   0  0.7675750E-08  0.3833825E+04  0.7818609E-02  0.8038935E-01
        1   -1    0    0  501    0  0.00000000000E+00  0.00000000000E+00  0.23121709112E+04  0.23121709112E+04  0.50400001928E-02 0. -1.
       -1   -1    0    0    0  501  0.00000000000E+00  0.00000000000E+00 -0.15892226625E+04  0.15892226625E+04  0.50400001928E-02 0.  1.
    10030    2    1    2    0    0  0.00000000000E+00  0.00000000000E+00  0.72294824879E+03  0.39013935737E+04  0.38338254585E+04 0.  0.
        4    1    3    3  502    0  0.29500034481E+03 -0.72533257504E+03  0.21420025138E+04  0.22806378340E+04  0.12699999809E+01 0. -1.
       -4    1    3    3    0  502 -0.29500034481E+03  0.72533257504E+03 -0.14190542650E+04  0.16207557397E+04  0.12699999809E+01 0.  1.
</event>
<event>
 5   0  0.2486268E-07  0.3765681E+04  0.7818609E-02  0.8053560E-01
        2   -1    0    0  501    0  0.00000000000E+00  0.00000000000E+00  0.17287577086E+04  0.17287577086E+04  0.25500000920E-02 0. -1.
       -2   -1    0    0    0  501  0.00000000000E+00  0.00000000000E+00 -0.20506567613E+04  0.20506567613E+04  0.25500000920E-02 0.  1.
    10030    2    1    2    0    0  0.00000000000E+00  0.00000000000E+00 -0.32189905275E+03  0.37794144699E+04  0.37656811781E+04 0.  0.
        5    1    3    3  502    0 -0.45064054910E+03  0.75719176698E+03  0.15090449227E+04  0.17474710141E+04  0.46999998093E+01 0. -1.
       -5    1    3    3    0  502  0.45064054910E+03 -0.75719176698E+03 -0.18309439754E+04  0.20319434558E+04  0.46999998093E+01 0.  1.
</event>
<event>
 5   0  0.2446281E-07  0.3874275E+04  0.7818609E-02  0.8030401E-01
       -2   -1    0    0    0  501  0.00000000000E+00  0.00000000000E+00  0.23923496886E+04  0.23923496886E+04  0.25500000920E-02 0.  1.
        2   -1    0    0  501    0  0.00000000000E+00  0.00000000000E+00 -0.15685421148E+04  0.15685421148E+04  0.25500000920E-02 0. -1.
    10030    2    1    2    0    0  0.00000000000E+00  0.00000000000E+00  0.82380757379E+03  0.39608918034E+04  0.38742747656E+04 0.  0.
        1    1    3    3  502    0  0.49067266285E+03 -0.12929112447E+04 -0.97493468568E+03  0.16920037796E+04  0.50400001928E-02 0. -1.
       -1    1    3    3    0  502 -0.49067266285E+03  0.12929112447E+04  0.17987422595E+04  0.22688880238E+04  0.50400001928E-02 0.  1.
</event>
<event>
 5   0  0.7675750E-08  0.3850992E+04  0.7818609E-02  0.8035300E-01
        1   -1    0    0  501    0  0.00000000000E+00  0.00000000000E+00  0.22722916877E+04  0.22722916877E+04  0.50400001928E-02 0.  1.
       -1   -1    0    0    0  501  0.00000000000E+00  0.00000000000E+00 -0.16316284265E+04  0.16316284266E+04  0.50400001928E-02 0. -1.
    10030    2    1    2    0    0  0.00000000000E+00  0.00000000000E+00  0.64066326111E+03  0.39039201142E+04  0.38509924492E+04 0.  0.
        2    1    3    3  502    0  0.12496741807E+04 -0.13841262964E+02  0.18052704579E+04  0.21956499185E+04  0.25500000920E-02 0.  1.
       -2    1    3    3    0  502 -0.12496741807E+04  0.13841262964E+02 -0.11646071968E+04  0.17082701957E+04  0.25500000920E-02 0. -1.
</event>
<event>
 5   0  0.7675750E-08  0.3917189E+04  0.7818609E-02  0.8021464E-01
       -1   -1    0    0    0  501  0.00000000000E+00  0.00000000000E+00  0.13637882812E+04  0.13637882813E+04  0.50400001928E-02 0.  1.
        1   -1    0    0  501    0  0.00000000000E+00  0.00000000000E+00 -0.28128204743E+04  0.28128204743E+04  0.50400001928E-02 0. -1.
    10030    2    1    2    0    0  0.00000000000E+00  0.00000000000E+00 -0.14490321930E+04  0.41766087555E+04  0.39171885837E+04 0.  0.
        5    1    3    3  502    0 -0.11746924101E+04 -0.13666663583E+04 -0.15423819434E+04  0.23720546668E+04  0.46999998093E+01 0. -1.
       -5    1    3    3    0  502  0.11746924101E+04  0.13666663583E+04  0.93349750327E+02  0.18045540887E+04  0.46999998093E+01 0.  1.
</event>
<event>
 5   0  0.2395572E-07  0.3917279E+04  0.7818609E-02  0.8021445E-01
        2   -1    0    0  501    0  0.00000000000E+00  0.00000000000E+00  0.21335425405E+04  0.21335425405E+04  0.25500000920E-02 0. -1.
       -2   -1    0    0    0  501  0.00000000000E+00  0.00000000000E+00 -0.17980745180E+04  0.17980745180E+04  0.25500000920E-02 0.  1.
    10030    2    1    2    0    0  0.00000000000E+00  0.00000000000E+00  0.33546802254E+03  0.39316170585E+04  0.39172788898E+04 0.  0.
        3    1    3    3  502    0 -0.11252630043E+04  0.13976158096E+04 -0.62045672849E+03  0.18985555936E+04  0.10100000352E+00 0.  1.
       -3    1    3    3    0  502  0.11252630043E+04 -0.13976158096E+04  0.95592475103E+03  0.20330614649E+04  0.10100000352E+00 0. -1.
</event>
<event>
 5   0  0.2446281E-07  0.3882203E+04  0.7818609E-02  0.8028741E-01
       -2   -1    0    0    0  501  0.00000000000E+00  0.00000000000E+00  0.15495268736E+04  0.15495268736E+04  0.25500000920E-02 0.  1.
        2   -1    0    0  501    0  0.00000000000E+00  0.00000000000E+00 -0.24316295098E+04  0.24316295098E+04  0.25500000920E-02 0. -1.
    10030    2    1    2    0    0  0.00000000000E+00  0.00000000000E+00 -0.88210263626E+03  0.39811563834E+04  0.38822031230E+04 0.  0.
        1    1    3    3  502    0  0.74003640122E+03 -0.15086468915E+04  0.55541896129E+03  0.17697908184E+04  0.50400001928E-02 0.  1.
       -1    1    3    3    0  502 -0.74003640122E+03  0.15086468915E+04 -0.14375215976E+04  0.22113655650E+04  0.50400001928E-02 0. -1.
</event>
<event>
 5   0  0.7675750E-08  0.3948929E+04  0.7818609E-02  0.8014929E-01
        1   -1    0    0  501    0  0.00000000000E+00  0.00000000000E+00  0.26750811479E+04  0.26750811479E+04  0.50400001928E-02 0.  1.
       -1   -1    0    0    0  501  0.00000000000E+00  0.00000000000E+00 -0.14573428059E+04  0.14573428059E+04  0.50400001928E-02 0. -1.
    10030    2    1    2    0    0  0.00000000000E+00  0.00000000000E+00  0.12177383420E+04  0.41324239538E+04  0.39489291035E+04 0.  0.
        2    1    3    3  502    0 -0.13824141758E+04 -0.13993239682E+04  0.42963975642E+03  0.20133968416E+04  0.25500000920E-02 0.  1.
       -2    1    3    3    0  502  0.13824141758E+04  0.13993239682E+04  0.78809858556E+03  0.21190271122E+04  0.25500000920E-02 0. -1.
</event>
<event>
 5   0  0.7675750E-08  0.3946369E+04  0.7818609E-02  0.8015454E-01
        1   -1    0    0  501    0  0.00000000000E+00  0.00000000000E+00  0.26288242555E+04  0.26288242555E+04  0.50400001928E-02 0.  1.
       -1   -1    0    0    0  501  0.00000000000E+00  0.00000000000E+00 -0.14810640605E+04  0.14810640606E+04  0.50400001928E-02 0. -1.
    10030    2    1    2    0    0  0.00000000000E+00  0.00000000000E+00  0.11477601949E+04  0.41098883161E+04  0.39463690280E+04 0.  0.
        5    1    3    3  502    0  0.14057254818E+04  0.69454509963E+03  0.18214214476E+04  0.24033425069E+04  0.46999998093E+01 0.  1.
       -5    1    3    3    0  502 -0.14057254818E+04 -0.69454509963E+03 -0.67366125263E+03  0.17065458092E+04  0.46999998093E+01 0. -1.
</event>
<event>
 5   0  0.7675750E-08  0.3912367E+04  0.7818609E-02  0.8022462E-01
       -1   -1    0    0    0  501  0.00000000000E+00  0.00000000000E+00  0.22102889848E+04  0.22102889848E+04  0.50400001928E-02 0.  1.
        1   -1    0    0  501    0  0.00000000000E+00  0.00000000000E+00 -0.17312908849E+04  0.17312908850E+04  0.50400001928E-02 0. -1.
    10030    2    1    2    0    0  0.00000000000E+00  0.00000000000E+00  0.47899809983E+03  0.39415798697E+04  0.39123666354E+04 0.  0.
        2    1    3    3  502    0  0.38329209542E+03 -0.71193038275E+03 -0.15550637759E+04  0.17527067774E+04  0.25500000920E-02 0. -1.
       -2    1    3    3    0  502 -0.38329209542E+03  0.71193038275E+03  0.20340618757E+04  0.21888730924E+04  0.25500000920E-02 0.  1.
</event>
<event>
 5   0  0.7675750E-08  0.3706255E+04  0.7818609E-02  0.8066577E-01
       -3   -1    0    0    0  501  0.00000000000E+00  0.00000000000E+00  0.14910040380E+04  0.14910040414E+04  0.10100000352E+00 0.  1.
        3   -1    0    0  501    0  0.00000000000E+00  0.00000000000E+00 -0.23032007674E+04  0.23032007697E+04  0.10100000352E+00 0. -1.
    10030    2    1    2    0    0  0.00000000000E+00  0.00000000000E+00 -0.81219672948E+03  0.37942048110E+04  0.37062550669E+04 0.  0.
        2    1    3    3  502    0  0.93834644502E+03 -0.14407333147E+04  0.30159101144E+03  0.17456126928E+04  0.25500000920E-02 0.  1.
       -2    1    3    3    0  502 -0.93834644502E+03  0.14407333147E+04 -0.11137877409E+04  0.20485921182E+04  0.25500000920E-02 0. -1.
</event>
<event>
 5   0  0.7675750E-08  0.3912163E+04  0.7818609E-02  0.8022504E-01
       -1   -1    0    0    0  501  0.00000000000E+00  0.00000000000E+00  0.14280501397E+04  0.14280501397E+04  0.50400001928E-02 0. -1.
        1   -1    0    0  501    0  0.00000000000E+00  0.00000000000E+00 -0.26793564640E+04  0.26793564640E+04  0.50400001928E-02 0.  1.
    10030    2    1    2    0    0  0.00000000000E+00  0.00000000000E+00 -0.12513063243E+04  0.41074066037E+04  0.39121632751E+04 0.  0.
        2    1    3    3  502    0 -0.15844877824E+04  0.21024785096E+03  0.55820674733E+03  0.16930447319E+04  0.25500000920E-02 0.  1.
       -2    1    3    3    0  502  0.15844877824E+04 -0.21024785096E+03 -0.18095130717E+04  0.24143618718E+04  0.25500000920E-02 0. -1.
</event>
<event>
 5   0  0.2395572E-07  0.3895396E+04  0.7818609E-02  0.8025987E-01
        2   -1    0    0  501    0  0.00000000000E+00  0.00000000000E+00  0.16262491587E+04  0.16262491587E+04  0.25500000920E-02 0.  1.
       -2   -1    0    0    0  501  0.00000000000E+00  0.00000000000E+00 -0.23326850140E+04  0.23326850140E+04  0.25500000920E-02 0. -1.
    10030    2    1    2    0    0  0.00000000000E+00  0.00000000000E+00 -0.70643585531E+03  0.39589341726E+04  0.38953957649E+04 0.  0.
        3    1    3    3  502    0  0.38073920082E+03  0.14682517567E+04  0.88851363425E+03  0.17578913642E+04  0.10100000352E+00 0.  1.
       -3    1    3    3    0  502 -0.38073920082E+03 -0.14682517567E+04 -0.15949494896E+04  0.22010428084E+04  0.10100000352E+00 0. -1.
</event>
<event>
 5   0  0.2473224E-07  0.3920141E+04  0.7818609E-02  0.8020853E-01
        2   -1    0    0  501    0  0.00000000000E+00  0.00000000000E+00  0.16306709871E+04  0.16306709871E+04  0.25500000920E-02 0. -1.
       -2   -1    0    0    0  501  0.00000000000E+00  0.00000000000E+00 -0.23560093373E+04  0.23560093373E+04  0.25500000920E-02 0.  1.
    10030    2    1    2    0    0  0.00000000000E+00  0.00000000000E+00 -0.72533835019E+03  0.39866803244E+04  0.39201408503E+04 0.  0.
        2    1    3    3  502    0  0.84721646292E+03 -0.14534603407E+04 -0.13855007891E+04  0.21794345904E+04  0.25500000920E-02 0.  1.
       -2    1    3    3    0  502 -0.84721646292E+03  0.14534603407E+04  0.66016243895E+03  0.18072457340E+04  0.25500000920E-02 0. -1.
</event>
<event>
 5   0  0.2446281E-07  0.3888727E+04  0.7818609E-02  0.8027378E-01
        2   -1    0    0  501    0  0.00000000000E+00  0.00000000000E+00  0.24511500440E+04  0.24511500440E+04  0.25500000920E-02 0. -1.
       -2   -1    0    0    0  501  0.00000000000E+00  0.00000000000E+00 -0.15423576134E+04  0.15423576134E+04  0.25500000920E-02 0.  1.
    10030    2    1    2    0    0  0.00000000000E+00  0.00000000000E+00  0.90879243059E+03  0.39935076575E+04  0.38887272633E+04 0.  0.
        1    1    3    3  502    0  0.73535488598E+03  0.42038870381E+03 -0.13429260550E+04  0.15877417485E+04  0.50400001928E-02 0.  1.
       -1    1    3    3    0  502 -0.73535488598E+03 -0.42038870381E+03  0.22517184856E+04  0.24057659090E+04  0.50400001928E-02 0. -1.
</event>
<event>
 5   0  0.7675750E-08  0.3914113E+04  0.7818609E-02  0.8022100E-01
        1   -1    0    0  501    0  0.00000000000E+00  0.00000000000E+00  0.19791232262E+04  0.19791232262E+04  0.50400001928E-02 0. -1.
       -1   -1    0    0    0  501  0.00000000000E+00  0.00000000000E+00 -0.19352360557E+04  0.19352360557E+04  0.50400001928E-02 0.  1.
    10030    2    1    2    0    0  0.00000000000E+00  0.00000000000E+00  0.43887170488E+02  0.39143592818E+04  0.39141132461E+04 0.  0.
        2    1    3    3  502    0 -0.85231746147E+03 -0.50917477253E+03  0.17085746115E+04  0.19760898783E+04  0.25500000920E-02 0. -1.
       -2    1    3    3    0  502  0.85231746147E+03  0.50917477253E+03 -0.16646874410E+04  0.19382694035E+04  0.25500000920E-02 0.  1.
</event>
<event>
 5   0  0.2384787E-07  0.3764596E+04  0.7818609E-02  0.8053795E-01
       -2   -1    0    0    0  501  0.00000000000E+00  0.00000000000E+00  0.14984825601E+04  0.14984825601E+04  0.25500000920E-02 0. -1.
        2   -1    0    0  501    0  0.00000000000E+00  0.00000000000E+00 -0.23644228125E+04  0.23644228125E+04  0.25500000920E-02 0.  1.
    10030    2    1    2    0    0  0.00000000000E+00  0.00000000000E+00 -0.86594025237E+03  0.38629053726E+04  0.37645963126E+04 0.  0.
        4    1    3    3  502    0  0.63194992334E+03 -0.13831014420E+04  0.70537592080E+03  0.16762717879E+04  0.12699999809E+01 0. -1.
       -4    1    3    3    0  502 -0.63194992334E+03  0.13831014420E+04 -0.15713161732E+04  0.21866335846E+04  0.12699999809E+01 0.  1.
</event>
<event>
 5   0  0.7675750E-08  0.3890891E+04  0.7818609E-02  0.8026926E-01
        1   -1    0    0  501    0  0.00000000000E+00  0.00000000000E+00  0.26187260855E+04  0.26187260855E+04  0.50400001928E-02 0.  1.
       -1   -1    0    0    0  501  0.00000000000E+00  0.00000000000E+00 -0.14452670081E+04  0.14452670081E+04  0.50400001928E-02 0. -1.
    10030    2    1    2    0    0  0.00000000000E+00  0.00000000000E+00  0.11734590774E+04  0.40639930936E+04  0.38908911137E+04 0.  0.
        1    1    3    3  502    0  0.64373553683E+03 -0.27530259887E+02 -0.13305850848E+04  0.14783808793E+04  0.50400001928E-02 0. -1.
       -1    1    3    3    0  502 -0.64373553683E+03  0.27530259887E+02  0.25040441622E+04  0.25856122143E+04  0.50400001928E-02 0.  1.
</event>
<event>
 5   0  0.7675750E-08  0.3907813E+04  0.7818609E-02  0.8023406E-01
        1   -1    0    0  501    0  0.00000000000E+00  0.00000000000E+00  0.17130912526E+04  0.17130912526E+04  0.50400001928E-02 0. -1.
       -1   -1    0    0    0  501  0.00000000000E+00  0.00000000000E+00 -0.22285744662E+04  0.22285744663E+04  0.50400001928E-02 0.  1.
    10030    2    1    2    0    0  0.00000000000E+00  0.00000000000E+00 -0.51548321362E+03  0.39416657189E+04  0.39078134162E+04 0.  0.
        4    1    3    3  502    0 -0.61197882298E+03  0.17289581355E+04  0.42184223338E+03  0.18819582346E+04  0.12699999809E+01 0. -1.
       -4    1    3    3    0  502  0.61197882298E+03 -0.17289581355E+04 -0.93732544700E+03  0.20597074842E+04  0.12699999809E+01 0.  1.
</event>
<event>
 5   0  0.2395572E-07  0.3809421E+04  0.7818609E-02  0.8044136E-01
        2   -1    0    0  501    0  0.00000000000E+00  0.00000000000E+00  0.20676092446E+04  0.20676092446E+04  0.25500000920E-02 0.  1.
       -2   -1    0    0    0  501  0.00000000000E+00  0.00000000000E+00 -0.17546460662E+04  0.17546460662E+04  0.25500000920E-02 0. -1.
    10030    2    1    2    0    0  0.00000000000E+00  0.00000000000E+00  0.31296317837E+03  0.38222553108E+04  0.38094211778E+04 0.  0.
        3    1    3    3  502    0  0.38718606044E+03 -0.85655321053E+03  0.18186634882E+04  0.20472257671E+04  0.10100000352E+00 0.  1.
       -3    1    3    3    0  502 -0.38718606044E+03  0.85655321053E+03 -0.15057003098E+04  0.17750295437E+04  0.10100000352E+00 0. -1.
</event>
<event>
 5   0  0.7675750E-08  0.3127668E+04  0.7818609E-02  0.8208185E-01
       -1   -1    0    0    0  501  0.00000000000E+00  0.00000000000E+00  0.82518295940E+03  0.82518295942E+03  0.50400001928E-02 0. -1.
        1   -1    0    0  501    0  0.00000000000E+00  0.00000000000E+00 -0.29636791091E+04  0.29636791091E+04  0.50400001928E-02 0.  1.
    10030    2    1    2    0    0  0.00000000000E+00  0.00000000000E+00 -0.21384961497E+04  0.37888620685E+04  0.31276684594E+04 0.  0.
        5    1    3    3  502    0  0.91890116225E+03 -0.10589767132E+04 -0.19083081062E+04  0.23680103343E+04  0.46999998093E+01 0.  1.
       -5    1    3    3    0  502 -0.91890116225E+03  0.10589767132E+04 -0.23018804346E+03  0.14208517342E+04  0.46999998093E+01 0. -1.
</event>
<event>
 5   0  0.2395572E-07  0.3895701E+04  0.7818609E-02  0.8025924E-01
       -2   -1    0    0    0  501  0.00000000000E+00  0.00000000000E+00  0.16950930032E+04  0.16950930032E+04  0.25500000920E-02 0. -1.
        2   -1    0    0  501    0  0.00000000000E+00  0.00000000000E+00 -0.22382974629E+04  0.22382974629E+04  0.25500000920E-02 0.  1.
    10030    2    1    2    0    0  0.00000000000E+00  0.00000000000E+00 -0.54320445971E+03  0.39333904660E+04  0.38957014097E+04 0.  0.
        3    1    3    3  502    0 -0.18222483494E+04  0.39941712102E+03  0.29417533318E+03  0.18885608860E+04  0.10100000352E+00 0.  1.
       -3    1    3    3    0  502  0.18222483494E+04 -0.39941712102E+03 -0.83737979289E+03  0.20448295800E+04  0.10100000352E+00 0. -1.
</event>
<event>
 5   0  0.7675750E-08  0.3924612E+04  0.7818609E-02  0.8019930E-01
       -1   -1    0    0    0  501  0.00000000000E+00  0.00000000000E+00  0.17375723301E+04  0.17375723301E+04  0.50400001928E-02 0. -1.
        1   -1    0    0  501    0  0.00000000000E+00  0.00000000000E+00 -0.22161064148E+04  0.22161064148E+04  0.50400001928E-02 0.  1.
    10030    2    1    2    0    0  0.00000000000E+00  0.00000000000E+00 -0.47853408470E+03  0.39536787449E+04  0.39246121780E+04 0.  0.
        4    1    3    3  502    0  0.16201952909E+04 -0.82676779605E+03 -0.98097106854E+03  0.20666116277E+04  0.12699999809E+01 0. -1.
       -4    1    3    3    0  502 -0.16201952909E+04  0.82676779605E+03  0.50243698385E+03  0.18870671173E+04  0.12699999809E+01 0.  1.
</event>
<event>
 5   0  0.7675750E-08  0.3921936E+04  0.7818609E-02  0.8020482E-01
        3   -1    0    0  501    0  0.00000000000E+00  0.00000000000E+00  0.25671907544E+04  0.25671907564E+04  0.10100000352E+00 0.  1.
       -3   -1    0    0    0  501  0.00000000000E+00  0.00000000000E+00 -0.14978998741E+04  0.14978998775E+04  0.10100000352E+00 0. -1.
    10030    2    1    2    0    0  0.00000000000E+00  0.00000000000E+00  0.10692908804E+04  0.40650906339E+04  0.39219356031E+04 0.  0.
        4    1    3    3  502    0  0.19700454739E+03 -0.14933332739E+04  0.18360790029E+04  0.23748774235E+04  0.12699999809E+01 0.  1.
       -4    1    3    3    0  502 -0.19700454739E+03  0.14933332739E+04 -0.76678812259E+03  0.16902132104E+04  0.12699999809E+01 0. -1.
</event>
<event>
 5   0  0.2486268E-07  0.3883998E+04  0.7818609E-02  0.8028365E-01
        2   -1    0    0  501    0  0.00000000000E+00  0.00000000000E+00  0.11123853003E+04  0.11123853003E+04  0.25500000920E-02 0.  1.
       -2   -1    0    0    0  501  0.00000000000E+00  0.00000000000E+00 -0.33903368765E+04  0.33903368765E+04  0.25500000920E-02 0. -1.
    10030    2    1    2    0    0  0.00000000000E+00  0.00000000000E+00 -0.22779515762E+04  0.45027221768E+04  0.38839984060E+04 0.  0.
        5    1    3    3  502    0  0.14804920637E+04  0.35453498957E+03 -0.25367804981E+04  0.29585180742E+04  0.46999998093E+01 0. -1.
       -5    1    3    3    0  502 -0.14804920637E+04 -0.35453498957E+03  0.25882892197E+03  0.15442041026E+04  0.46999998093E+01 0.  1.
</event>
<event>
 5   0  0.7675750E-08  0.3906246E+04  0.7818609E-02  0.8023731E-01
       -1   -1    0    0    0  501  0.00000000000E+00  0.00000000000E+00  0.17574985322E+04  0.17574985322E+04  0.50400001928E-02 0. -1.
        1   -1    0    0  501    0  0.00000000000E+00  0.00000000000E+00 -0.21705224647E+04  0.21705224647E+04  0.50400001928E-02 0.  1.
    10030    2    1    2    0    0  0.00000000000E+00  0.00000000000E+00 -0.41302393242E+03  0.39280209969E+04  0.39062463035E+04 0.  0.
        1    1    3    3  502    0  0.76540772497E+02  0.13538325615E+04 -0.16200393781E+04  0.21126402157E+04  0.50400001928E-02 0.  1.
       -1    1    3    3    0  502 -0.76540772497E+02 -0.13538325615E+04  0.12070154457E+04  0.18153807812E+04  0.50400001928E-02 0. -1.
</event>
<event>
 5   0  0.2486268E-07  0.3902521E+04  0.7818609E-02  0.8024505E-01
        2   -1    0    0  501    0  0.00000000000E+00  0.00000000000E+00  0.23518980054E+04  0.23518980054E+04  0.25500000920E-02 0.  1.
       -2   -1    0    0    0  501  0.00000000000E+00  0.00000000000E+00 -0.16188704531E+04  0.16188704531E+04  0.25500000920E-02 0. -1.
    10030    2    1    2    0    0  0.00000000000E+00  0.00000000000E+00  0.73302755226E+03  0.39707684585E+04  0.39025213336E+04 0.  0.
        5    1    3    3  502    0 -0.33414179775E+03 -0.59990956029E+03  0.22248863479E+04  0.23284508955E+04  0.46999998093E+01 0.  1.
       -5    1    3    3    0  502  0.33414179775E+03  0.59990956029E+03 -0.14918587957E+04  0.16423175630E+04  0.46999998093E+01 0. -1.
</event>
<event>
 5   0  0.7675750E-08  0.3993852E+04  0.7818609E-02  0.8005788E-01
        1   -1    0    0  501    0  0.00000000000E+00  0.00000000000E+00  0.13035356530E+04  0.13035356530E+04  0.50400001928E-02 0. -1.
       -1   -1    0    0    0  501  0.00000000000E+00  0.00000000000E+00 -0.30591518524E+04  0.30591518524E+04  0.50400001928E-02 0.  1.
    10030    2    1    2    0    0  0.00000000000E+00  0.00000000000E+00 -0.17556161994E+04  0.43626875054E+04  0.39938520291E+04 0.  0.
        2    1    3    3  502    0  0.38907141992E+03 -0.57077756810E+03 -0.29244869953E+04  0.30049605301E+04  0.25500000920E-02 0.  1.
       -2    1    3    3    0  502 -0.38907141992E+03  0.57077756810E+03  0.11688707958E+04  0.13577269753E+04  0.25500000920E-02 0. -1.
</event>
<event>
 5   0  0.7731706E-08  0.3909017E+04  0.7818609E-02  0.8023156E-01
       -1   -1    0    0    0  501  0.00000000000E+00  0.00000000000E+00  0.26766777405E+04  0.26766777405E+04  0.50400001928E-02 0. -1.
        1   -1    0    0  501    0  0.00000000000E+00  0.00000000000E+00 -0.14271808570E+04  0.14271808571E+04  0.50400001928E-02 0.  1.
    10030    2    1    2    0    0  0.00000000000E+00  0.00000000000E+00  0.12494968835E+04  0.41038585976E+04  0.39090168748E+04 0.  0.
        3    1    3    3  502    0 -0.16422501059E+04  0.77735893048E+03 -0.13145345375E+03  0.18216894186E+04  0.10100000352E+00 0.  1.
       -3    1    3    3    0  502  0.16422501059E+04 -0.77735893048E+03  0.13809503372E+04  0.22821691790E+04  0.10100000352E+00 0. -1.
</event>
<event>
 5   0  0.7675750E-08  0.3904275E+04  0.7818609E-02  0.8024141E-01
       -1   -1    0    0    0  501  0.00000000000E+00  0.00000000000E+00  0.27436416500E+04  0.27436416500E+04  0.50400001928E-02 0.  1.
        1   -1    0    0  501    0  0.00000000000E+00  0.00000000000E+00 -0.13889718917E+04  0.13889718917E+04  0.50400001928E-02 0. -1.
    10030    2    1    2    0    0  0.00000000000E+00  0.00000000000E+00  0.13546697584E+04  0.41326135417E+04  0.39042751608E+04 0.  0.
        5    1    3    3  502    0 -0.11111901829E+04  0.43403714992E+03  0.23129197695E+04  0.26024511177E+04  0.46999998093E+01 0.  1.
       -5    1    3    3    0  502  0.11111901829E+04 -0.43403714992E+03 -0.95825001107E+03  0.15301624240E+04  0.46999998093E+01 0. -1.
</event>
<event>
 5   0  0.2473224E-07  0.3880132E+04  0.7818609E-02  0.8029174E-01
        2   -1    0    0  501    0  0.00000000000E+00  0.00000000000E+00  0.29086162884E+04  0.29086162884E+04  0.25500000920E-02 0.  1.
       -2   -1    0    0    0  501  0.00000000000E+00  0.00000000000E+00 -0.12940367438E+04  0.12940367438E+04  0.25500000920E-02 0. -1.
    10030    2    1    2    0    0  0.00000000000E+00  0.00000000000E+00  0.16145795446E+04  0.42026530323E+04  0.38801321374E+04 0.  0.
        2    1    3    3  502    0 -0.11499992137E+04  0.62186189389E+03 -0.74525995188E+03  0.15048663736E+04  0.25500000920E-02 0. -1.
       -2    1    3    3    0  502  0.11499992137E+04 -0.62186189389E+03  0.23598394965E+04  0.26977866587E+04  0.25500000920E-02 0.  1.
</event>
<event>
 5   0  0.2446281E-07  0.3901735E+04  0.7818609E-02  0.8024668E-01
       -2   -1    0    0    0  501  0.00000000000E+00  0.00000000000E+00  0.25422857233E+04  0.25422857233E+04  0.25500000920E-02 0.  1.
        2   -1    0    0  501    0  0.00000000000E+00  0.00000000000E+00 -0.14970323170E+04  0.14970323170E+04  0.25500000920E-02 0. -1.
    10030    2    1    2    0    0  0.00000000000E+00  0.00000000000E+00  0.10452534064E+04  0.40393180403E+04  0.39017349406E+04 0.  0.
        1    1    3    3  502    0 -0.51125657239E+03  0.93788780524E+03  0.22126319829E+04  0.24569813002E+04  0.50400001928E-02 0.  1.
       -1    1    3    3    0  502  0.51125657239E+03 -0.93788780524E+03 -0.11673785765E+04  0.15823367401E+04  0.50400001928E-02 0. -1.
</event>
<event>
 5   0  0.7675750E-08  0.3933679E+04  0.7818609E-02  0.8018061E-01
        1   -1    0    0  501    0  0.00000000000E+00  0.00000000000E+00  0.17720187032E+04  0.17720187032E+04  0.50400001928E-02 0.  1.
       -1   -1    0    0    0  501  0.00000000000E+00  0.00000000000E+00 -0.21830789605E+04  0.21830789605E+04  0.50400001928E-02 0. -1.
    10030    2    1    2    0    0  0.00000000000E+00  0.00000000000E+00 -0.41106025722E+03  0.39550976637E+04  0.39336785576E+04 0.  0.
        1    1    3    3  502    0  0.31101851377E+03  0.15802005492E+04 -0.13406996206E+04  0.20955289939E+04  0.50400001928E-02 0. -1.
       -1    1    3    3    0  502 -0.31101851377E+03 -0.15802005492E+04  0.92963936342E+03  0.18595686698E+04  0.50400001928E-02 0.  1.
</event>
<event>
 5   0  0.7731706E-08  0.3931616E+04  0.7818609E-02  0.8018486E-01
       -1   -1    0    0    0  501  0.00000000000E+00  0.00000000000E+00  0.17907212771E+04  0.17907212771E+04  0.50400001928E-02 0.  1.
        1   -1    0    0  501    0  0.00000000000E+00  0.00000000000E+00 -0.21580139581E+04  0.21580139581E+04  0.50400001928E-02 0. -1.
    10030    2    1    2    0    0  0.00000000000E+00  0.00000000000E+00 -0.36729268100E+03  0.39487352352E+04  0.39316162127E+04 0.  0.
        3    1    3    3  502    0 -0.17088623945E+04  0.78987457650E+03 -0.75205134093E+03  0.20272379632E+04  0.10100000352E+00 0. -1.
       -3    1    3    3    0  502  0.17088623945E+04 -0.78987457650E+03  0.38475865993E+03  0.19214972720E+04  0.10100000352E+00 0.  1.
</event>
<event>
 5   0  0.7731706E-08  0.3894933E+04  0.7818609E-02  0.8026084E-01
       -1   -1    0    0    0  501  0.00000000000E+00  0.00000000000E+00  0.20503488261E+04  0.20503488261E+04  0.50400001928E-02 0. -1.
        1   -1    0    0  501    0  0.00000000000E+00  0.00000000000E+00 -0.18497469893E+04  0.18497469893E+04  0.50400001928E-02 0.  1.
    10030    2    1    2    0    0  0.00000000000E+00  0.00000000000E+00  0.20060183685E+03  0.39000958154E+04  0.38949334106E+04 0.  0.
        3    1    3    3  502    0  0.25222501851E+03  0.10217866490E+02 -0.18332957147E+04  0.18505931623E+04  0.10100000352E+00 0.  1.
       -3    1    3    3    0  502 -0.25222501851E+03 -0.10217866490E+02  0.20338975515E+04  0.20495026531E+04  0.10100000352E+00 0. -1.
</event>
<event>
 5   0  0.7675750E-08  0.3887848E+04  0.7818609E-02  0.8027561E-01
       -1   -1    0    0    0  501  0.00000000000E+00  0.00000000000E+00  0.11807878605E+04  0.11807878605E+04  0.50400001928E-02 0.  1.
        1   -1    0    0  501    0  0.00000000000E+00  0.00000000000E+00 -0.32002700490E+04  0.32002700490E+04  0.50400001928E-02 0. -1.
    10030    2    1    2    0    0  0.00000000000E+00  0.00000000000E+00 -0.20194821885E+04  0.43810579095E+04  0.38878477461E+04 0.  0.
        4    1    3    3  502    0 -0.48274276492E+03 -0.16567508350E+04 -0.12336898449E+01  0.17256497447E+04  0.12699999809E+01 0.  1.
       -4    1    3    3    0  502  0.48274276492E+03  0.16567508350E+04 -0.20182484987E+04  0.26554081648E+04  0.12699999809E+01 0. -1.
</event>
<event>
 5   0  0.2446281E-07  0.3925046E+04  0.7818609E-02  0.8019840E-01
       -2   -1    0    0    0  501  0.00000000000E+00  0.00000000000E+00  0.15381606601E+04  0.15381606601E+04  0.25500000920E-02 0. -1.
        2   -1    0    0  501    0  0.00000000000E+00  0.00000000000E+00 -0.25039622320E+04  0.25039622320E+04  0.25500000920E-02 0.  1.
    10030    2    1    2    0    0  0.00000000000E+00  0.00000000000E+00 -0.96580157191E+03  0.40421228921E+04  0.39250458339E+04 0.  0.
        1    1    3    3  502    0 -0.19444906492E+04 -0.12212403248E+03 -0.24020622842E+03  0.19630734057E+04  0.50400001928E-02 0. -1.
       -1    1    3    3    0  502  0.19444906492E+04  0.12212403248E+03 -0.72559534349E+03  0.20790494863E+04  0.50400001928E-02 0.  1.
</event>
<event>
 5   0  0.2395572E-07  0.3873354E+04  0.7818609E-02  0.8030594E-01
       -2   -1    0    0    0  501  0.00000000000E+00  0.00000000000E+00  0.19499455265E+04  0.19499455265E+04  0.25500000920E-02 0. -1.
        2   -1    0    0  501    0  0.00000000000E+00  0.00000000000E+00 -0.19234982804E+04  0.19234982805E+04  0.25500000920E-02 0.  1.
    10030    2    1    2    0    0  0.00000000000E+00  0.00000000000E+00  0.26447246087E+02  0.38734438070E+04  0.38733535172E+04 0.  0.
        3    1    3    3  502    0  0.66233027804E+03  0.11779404147E+04 -0.13740692667E+04  0.19272496926E+04  0.10100000352E+00 0.  1.
       -3    1    3    3    0  502 -0.66233027804E+03 -0.11779404147E+04  0.14005165128E+04  0.19461941143E+04  0.10100000352E+00 0. -1.
</event>
<event>
 5   0  0.7731706E-08  0.3682814E+04  0.7818609E-02  0.8071781E-01
       -1   -1    0    0    0  501  0.00000000000E+00  0.00000000000E+00  0.14451155049E+04  0.14451155049E+04  0.50400001928E-02 0.  1.
        1   -1    0    0  501    0  0.00000000000E+00  0.00000000000E+00 -0.23463731009E+04  0.23463731009E+04  0.50400001928E-02 0. -1.
    10030    2    1    2    0    0  0.00000000000E+00  0.00000000000E+00 -0.90125759593E+03  0.37914886058E+04  0.36828142220E+04 0.  0.
        3    1    3    3  502    0 -0.12306176956E+04 -0.64288455277E+03 -0.16958914534E+04  0.21917500526E+04  0.10100000352E+00 0. -1.
       -3    1    3    3    0  502  0.12306176956E+04  0.64288455277E+03  0.79463385751E+03  0.15997385532E+04  0.10100000352E+00 0.  1.
</event>
<event>
 5   0  0.2384787E-07  0.3889685E+04  0.7818609E-02  0.8027178E-01
       -2   -1    0    0    0  501  0.00000000000E+00  0.00000000000E+00  0.16055673006E+04  0.16055673006E+04  0.25500000920E-02 0. -1.
        2   -1    0    0  501    0  0.00000000000E+00  0.00000000000E+00 -0.23558100090E+04  0.23558100090E+04  0.25500000920E-02 0.  1.
    10030    2    1    2    0    0  0.00000000000E+00  0.00000000000E+00 -0.75024270840E+03  0.39613773096E+04  0.38896845717E+04 0.  0.
        4    1    3    3  502    0 -0.17649874574E+04  0.72055675021E+03  0.16713001946E+02  0.19064793973E+04  0.12699999809E+01 0. -1.
       -4    1    3    3    0  502  0.17649874574E+04 -0.72055675021E+03 -0.76695571034E+03  0.20548979122E+04  0.12699999809E+01 0.  1.
</event>
<event>
 5   0  0.7731706E-08  0.3905419E+04  0.7818609E-02  0.8023903E-01
       -1   -1    0    0    0  501  0.00000000000E+00  0.00000000000E+00  0.21195348541E+04  0.21195348541E+04  0.50400001928E-02 0. -1.
        1   -1    0    0  501    0  0.00000000000E+00  0.00000000000E+00 -0.17990145848E+04  0.17990145848E+04  0.50400001928E-02 0.  1.
    10030    2    1    2    0    0  0.00000000000E+00  0.00000000000E+00  0.32052026927E+03  0.39185494389E+04  0.39054188587E+04 0.  0.
        3    1    3    3  502    0  0.68193633485E+03 -0.42455237589E+03 -0.16255531747E+04  0.18132029723E+04  0.10100000352E+00 0.  1.
       -3    1    3    3    0  502 -0.68193633485E+03  0.42455237589E+03  0.19460734440E+04  0.21053464666E+04  0.10100000352E+00 0. -1.
</event>
<event>
 5   0  0.7731706E-08  0.3903308E+04  0.7818609E-02  0.8024342E-01
        1   -1    0    0  501    0  0.00000000000E+00  0.00000000000E+00  0.22935780405E+04  0.22935780405E+04  0.50400001928E-02 0. -1.
       -1   -1    0    0    0  501  0.00000000000E+00  0.00000000000E+00 -0.16607038434E+04  0.16607038434E+04  0.50400001928E-02 0.  1.
    10030    2    1    2    0    0  0.00000000000E+00  0.00000000000E+00  0.63287419711E+03  0.39542818840E+04  0.39033082723E+04 0.  0.
        3    1    3    3  502    0 -0.13238977346E+03 -0.11716115622E+04 -0.12591069417E+04  0.17249785523E+04  0.10100000352E+00 0.  1.
       -3    1    3    3    0  502  0.13238977346E+03  0.11716115622E+04  0.18919811388E+04  0.22293033317E+04  0.10100000352E+00 0. -1.
</event>
<event>
 5   0  0.2395572E-07  0.3899532E+04  0.7818609E-02  0.8025127E-01
        2   -1    0    0  501    0  0.00000000000E+00  0.00000000000E+00  0.24607692962E+04  0.24607692962E+04  0.25500000920E-02 0. -1.
       -2   -1    0    0    0  501  0.00000000000E+00  0.00000000000E+00 -0.15448776509E+04  0.15448776509E+04  0.25500000920E-02 0.  1.
    10030    2    1    2    0    0  0.00000000000E+00  0.00000000000E+00  0.91589164527E+03  0.40056469472E+04  0.38995320180E+04 0.  0.
        3    1    3    3  502    0 -0.19766739235E+03  0.47692658010E+03  0.23892840390E+04  0.24444241838E+04  0.10100000352E+00 0. -1.
       -3    1    3    3    0  502  0.19766739235E+03 -0.47692658010E+03 -0.14733923938E+04  0.15612227634E+04  0.10100000352E+00 0.  1.
</event>
<event>
 5   0  0.7675750E-08  0.3661228E+04  0.7818609E-02  0.8076609E-01
        1   -1    0    0  501    0  0.00000000000E+00  0.00000000000E+00  0.17725205628E+04  0.17725205628E+04  0.50400001928E-02 0. -1.
       -1   -1    0    0    0  501  0.00000000000E+00  0.00000000000E+00 -0.18906114924E+04  0.18906114924E+04  0.50400001928E-02 0.  1.
    10030    2    1    2    0    0  0.00000000000E+00  0.00000000000E+00 -0.11809092963E+03  0.36631320552E+04  0.36612280708E+04 0.  0.
        4    1    3    3  502    0 -0.71895385275E+03 -0.11796671514E+04  0.11426773612E+04  0.17928252551E+04  0.12699999809E+01 0. -1.
       -4    1    3    3    0  502  0.71895385275E+03  0.11796671514E+04 -0.12607682908E+04  0.18703068001E+04  0.12699999809E+01 0.  1.
</event>
<event>
 5   0  0.7731706E-08  0.3869350E+04  0.7818609E-02  0.8031434E-01
       -1   -1    0    0    0  501  0.00000000000E+00  0.00000000000E+00  0.18368149703E+04  0.18368149703E+04  0.50400001928E-02 0. -1.
        1   -1    0    0  501    0  0.00000000000E+00  0.00000000000E+00 -0.20377489616E+04  0.20377489616E+04  0.50400001928E-02 0.  1.
    10030    2    1    2    0    0  0.00000000000E+00  0.00000000000E+00 -0.20093399130E+03  0.38745639320E+04  0.38693502289E+04 0.  0.
        3    1    3    3  502    0  0.12773583837E+04 -0.12868178224E+04  0.57529285392E+03  0.19022372161E+04  0.10100000352E+00 0. -1.
       -3    1    3    3    0  502 -0.12773583837E+04  0.12868178224E+04 -0.77622684522E+03  0.19723267158E+04  0.10100000352E+00 0.  1.
</event>
<event>
 5   0  0.2473224E-07  0.4021352E+04  0.7818609E-02  0.8000253E-01
        2   -1    0    0  501    0  0.00000000000E+00  0.00000000000E+00  0.29881563894E+04  0.29881563894E+04  0.25500000920E-02 0. -1.
       -2   -1    0    0    0  501  0.00000000000E+00  0.00000000000E+00 -0.13529470342E+04  0.13529470342E+04  0.25500000920E-02 0.  1.
    10030    2    1    2    0    0  0.00000000000E+00  0.00000000000E+00  0.16352093552E+04  0.43411034235E+04  0.40213516755E+04 0.  0.
        2    1    3    3  502    0  0.83844179023E+03  0.17604071240E+04  0.13473362041E+04  0.23700912904E+04  0.25500000920E-02 0.  1.
       -2    1    3    3    0  502 -0.83844179023E+03 -0.17604071240E+04  0.28787315106E+03  0.19710121331E+04  0.25500000920E-02 0. -1.
</event>
<event>
 5   0  0.7675750E-08  0.3713963E+04  0.7818609E-02  0.8064875E-01
       -1   -1    0    0    0  501  0.00000000000E+00  0.00000000000E+00  0.19346065209E+04  0.19346065209E+04  0.50400001928E-02 0.  1.
        1   -1    0    0  501    0  0.00000000000E+00  0.00000000000E+00 -0.17824710634E+04  0.17824710634E+04  0.50400001928E-02 0. -1.
    10030    2    1    2    0    0  0.00000000000E+00  0.00000000000E+00  0.15213545745E+03  0.37170775843E+04  0.37139629199E+04 0.  0.
        1    1    3    3  502    0 -0.93669393376E+03  0.19780472870E+03 -0.15164479865E+04  0.17933590639E+04  0.50400001928E-02 0. -1.
       -1    1    3    3    0  502  0.93669393376E+03 -0.19780472870E+03  0.16685834440E+04  0.19237185204E+04  0.50400001928E-02 0.  1.
</event>
<event>
 5   0  0.2446281E-07  0.3905860E+04  0.7818609E-02  0.8023812E-01
        2   -1    0    0  501    0  0.00000000000E+00  0.00000000000E+00  0.20437948796E+04  0.20437948796E+04  0.25500000920E-02 0. -1.
       -2   -1    0    0    0  501  0.00000000000E+00  0.00000000000E+00 -0.18661049514E+04  0.18661049515E+04  0.25500000920E-02 0.  1.
    10030    2    1    2    0    0  0.00000000000E+00  0.00000000000E+00  0.17768992813E+03  0.39098998310E+04  0.39058600817E+04 0.  0.
        1    1    3    3  502    0 -0.59754588979E+03 -0.10918542453E+04 -0.14176131692E+04  0.18864871802E+04  0.50400001928E-02 0.  1.
       -1    1    3    3    0  502  0.59754588979E+03  0.10918542453E+04  0.15953030973E+04  0.20234126509E+04  0.50400001928E-02 0. -1.
</event>
<event>
 5   0  0.7675750E-08  0.3881398E+04  0.7818609E-02  0.8028909E-01
       -1   -1    0    0    0  501  0.00000000000E+00  0.00000000000E+00  0.16847301881E+04  0.16847301881E+04  0.50400001928E-02 0. -1.
        1   -1    0    0  501    0  0.00000000000E+00  0.00000000000E+00 -0.22355587460E+04  0.22355587460E+04  0.50400001928E-02 0.  1.
    10030    2    1    2    0    0  0.00000000000E+00  0.00000000000E+00 -0.55082855791E+03  0.39202889341E+04  0.38813983597E+04 0.  0.
        2    1    3    3  502    0  0.17964856200E+04 -0.69376943073E+02  0.46275715093E+03  0.18564261159E+04  0.25500000920E-02 0. -1.
       -2    1    3    3    0  502 -0.17964856200E+04  0.69376943073E+02 -0.10135857088E+04  0.20638628182E+04  0.25500000920E-02 0.  1.
</event>
<event>
 5   0  0.7675750E-08  0.3897514E+04  0.7818609E-02  0.8025546E-01
        1   -1    0    0  501    0  0.00000000000E+00  0.00000000000E+00  0.17404088423E+04  0.17404088423E+04  0.50400001928E-02 0.  1.
       -1   -1    0    0    0  501  0.00000000000E+00  0.00000000000E+00 -0.21820469406E+04  0.21820469406E+04  0.50400001928E-02 0. -1.
    10030    2    1    2    0    0  0.00000000000E+00  0.00000000000E+00 -0.44163809830E+03  0.39224557830E+04  0.38975139717E+04 0.  0.
        4    1    3    3  502    0  0.10555169234E+04 -0.16243889958E+04 -0.75749301021E+01  0.19372182576E+04  0.12699999809E+01 0. -1.
       -4    1    3    3    0  502 -0.10555169234E+04  0.16243889958E+04 -0.43406316820E+03  0.19852375254E+04  0.12699999809E+01 0.  1.
</event>
<event>
 5   0  0.2395572E-07  0.3770260E+04  0.7818609E-02  0.8052567E-01
       -2   -1    0    0    0  501  0.00000000000E+00  0.00000000000E+00  0.20940616029E+04  0.20940616029E+04  0.25500000920E-02 0. -1.
        2   -1    0    0  501    0  0.00000000000E+00  0.00000000000E+00 -0.16970440567E+04  0.16970440567E+04  0.25500000920E-02 0.  1.
    10030    2    1    2    0    0  0.00000000000E+00  0.00000000000E+00  0.39701754618E+03  0.37911056597E+04  0.37702598307E+04 0.  0.
        3    1    3    3  502    0  0.10319380444E+04 -0.63596699387E+03  0.16502240810E+04  0.20475814202E+04  0.10100000352E+00 0.  1.
       -3    1    3    3    0  502 -0.10319380444E+04  0.63596699387E+03 -0.12532065348E+04  0.17435242395E+04  0.10100000352E+00 0. -1.
</event>
<event>
 5   0  0.7731706E-08  0.3991976E+04  0.7818609E-02  0.8006167E-01
       -1   -1    0    0    0  501  0.00000000000E+00  0.00000000000E+00  0.16932698237E+04  0.16932698238E+04  0.50400001928E-02 0. -1.
        1   -1    0    0  501    0  0.00000000000E+00  0.00000000000E+00 -0.23528252351E+04  0.23528252351E+04  0.50400001928E-02 0.  1.
    10030    2    1    2    0    0  0.00000000000E+00  0.00000000000E+00 -0.65955541135E+03  0.40460950589E+04  0.39919759374E+04 0.  0.
        3    1    3    3  502    0 -0.15632671615E+04  0.89501829272E+03 -0.12011455524E+04  0.21650895156E+04  0.10100000352E+00 0.  1.
       -3    1    3    3    0  502  0.15632671615E+04 -0.89501829272E+03  0.54159014102E+03  0.18810055432E+04  0.10100000352E+00 0. -1.
</event>
<event>
 5   0  0.2473224E-07  0.3880184E+04  0.7818609E-02  0.8029163E-01
       -2   -1    0    0    0  501  0.00000000000E+00  0.00000000000E+00  0.16340828105E+04  0.16340828105E+04  0.25500000920E-02 0.  1.
        2   -1    0    0  501    0  0.00000000000E+00  0.00000000000E+00 -0.23034067704E+04  0.23034067704E+04  0.25500000920E-02 0. -1.
    10030    2    1    2    0    0  0.00000000000E+00  0.00000000000E+00 -0.66932395985E+03  0.39374895809E+04  0.38801842271E+04 0.  0.
        2    1    3    3  502    0  0.16989313107E+04 -0.61906762134E+03  0.37881864578E+03  0.18474620117E+04  0.25500000920E-02 0.  1.
       -2    1    3    3    0  502 -0.16989313107E+04  0.61906762134E+03 -0.10481426056E+04  0.20900275692E+04  0.25500000920E-02 0. -1.
</event>
<event>
 5   0  0.2395572E-07  0.3758014E+04  0.7818609E-02  0.8055225E-01
       -2   -1    0    0    0  501  0.00000000000E+00  0.00000000000E+00  0.16987053606E+04  0.16987053606E+04  0.25500000920E-02 0. -1.
        2   -1    0    0  501    0  0.00000000000E+00  0.00000000000E+00 -0.20784462743E+04  0.20784462743E+04  0.25500000920E-02 0.  1.
    10030    2    1    2    0    0  0.00000000000E+00  0.00000000000E+00 -0.37974091377E+03  0.37771516349E+04  0.37580142777E+04 0.  0.
        3    1    3    3  502    0  0.25250029856E+03 -0.17196404425E+04  0.52773185635E+03  0.18164307239E+04  0.10100000352E+00 0. -1.
       -3    1    3    3    0  502 -0.25250029856E+03  0.17196404425E+04 -0.90747277011E+03  0.19607209110E+04  0.10100000352E+00 0.  1.
</event>
<event>
 5   0  0.2473224E-07  0.3807882E+04  0.7818609E-02  0.8044466E-01
        2   -1    0    0  501    0  0.00000000000E+00  0.00000000000E+00  0.27398790715E+04  0.27398790715E+04  0.25500000920E-02 0.  1.
       -2   -1    0    0    0  501  0.00000000000E+00  0.00000000000E+00 -0.13230477871E+04  0.13230477871E+04  0.25500000920E-02 0. -1.
    10030    2    1    2    0    0  0.00000000000E+00  0.00000000000E+00  0.14168312844E+04  0.40629268586E+04  0.38078817957E+04 0.  0.
        2    1    3    3  502    0  0.88442369945E+02  0.13199632415E+04  0.21693834765E+04  0.25409348043E+04  0.25500000920E-02 0.  1.
       -2    1    3    3    0  502 -0.88442369945E+02 -0.13199632415E+04 -0.75255219205E+03  0.15219920543E+04  0.25500000920E-02 0. -1.
</event>
<event>
 5   0  0.2473224E-07  0.3880735E+04  0.7818609E-02  0.8029048E-01
       -2   -1    0    0    0  501  0.00000000000E+00  0.00000000000E+00  0.13367269028E+04  0.13367269028E+04  0.25500000920E-02 0.  1.
        2   -1    0    0  501    0  0.00000000000E+00  0.00000000000E+00 -0.28166008437E+04  0.28166008437E+04  0.25500000920E-02 0. -1.
    10030    2    1    2    0    0  0.00000000000E+00  0.00000000000E+00 -0.14798739409E+04  0.41533277465E+04  0.38807350449E+04 0.  0.
        2    1    3    3  502    0 -0.19186118074E+04  0.22112079764E+03 -0.94033384214E+03  0.21480673661E+04  0.25500000920E-02 0. -1.
       -2    1    3    3    0  502  0.19186118074E+04 -0.22112079764E+03 -0.53954009877E+03  0.20052603803E+04  0.25500000920E-02 0.  1.
</event>
<event>
 5   0  0.7675750E-08  0.3713044E+04  0.7818609E-02  0.8065077E-01
       -1   -1    0    0    0  501  0.00000000000E+00  0.00000000000E+00  0.14649780458E+04  0.14649780458E+04  0.50400001928E-02 0. -1.
        1   -1    0    0  501    0  0.00000000000E+00  0.00000000000E+00 -0.23527134966E+04  0.23527134966E+04  0.50400001928E-02 0.  1.
    10030    2    1    2    0    0  0.00000000000E+00  0.00000000000E+00 -0.88773545079E+03  0.38176915425E+04  0.37130438299E+04 0.  0.
        5    1    3    3  502    0  0.74090939778E+03 -0.14051545235E+04 -0.14318050054E+04  0.21385728031E+04  0.46999998093E+01 0.  1.
       -5    1    3    3    0  502 -0.74090939778E+03  0.14051545235E+04  0.54406955457E+03  0.16791187394E+04  0.46999998093E+01 0. -1.
</event>
<event>
 5   0  0.7675750E-08  0.3883567E+04  0.7818609E-02  0.8028456E-01
        1   -1    0    0  501    0  0.00000000000E+00  0.00000000000E+00  0.11998899845E+04  0.11998899845E+04  0.50400001928E-02 0.  1.
       -1   -1    0    0    0  501  0.00000000000E+00  0.00000000000E+00 -0.31423908593E+04  0.31423908593E+04  0.50400001928E-02 0. -1.
    10030    2    1    2    0    0  0.00000000000E+00  0.00000000000E+00 -0.19425008748E+04  0.43422808437E+04  0.38835670816E+04 0.  0.
        1    1    3    3  502    0 -0.13447304258E+04 -0.10090516332E+04 -0.20576307387E+04  0.26571280311E+04  0.50400001928E-02 0. -1.
       -1    1    3    3    0  502  0.13447304258E+04  0.10090516332E+04  0.11512986388E+03  0.16851528127E+04  0.50400001928E-02 0.  1.
</event>
<event>
 5   0  0.2473224E-07  0.3836101E+04  0.7818609E-02  0.8038452E-01
        2   -1    0    0  501    0  0.00000000000E+00  0.00000000000E+00  0.20233601644E+04  0.20233601644E+04  0.25500000920E-02 0. -1.
       -2   -1    0    0    0  501  0.00000000000E+00  0.00000000000E+00 -0.18182221521E+04  0.18182221521E+04  0.25500000920E-02 0.  1.
    10030    2    1    2    0    0  0.00000000000E+00  0.00000000000E+00  0.20513801228E+03  0.38415823165E+04  0.38361012878E+04 0.  0.
        2    1    3    3  502    0 -0.91180901410E+03 -0.11783497283E+04  0.13121915820E+04  0.19853842218E+04  0.25500000920E-02 0. -1.
       -2    1    3    3    0  502  0.91180901410E+03  0.11783497283E+04 -0.11070535698E+04  0.18561980947E+04  0.25500000920E-02 0.  1.
</event>
<event>
 5   0  0.2473224E-07  0.3887796E+04  0.7818609E-02  0.8027572E-01
       -2   -1    0    0    0  501  0.00000000000E+00  0.00000000000E+00  0.17394206001E+04  0.17394206001E+04  0.25500000920E-02 0. -1.
        2   -1    0    0  501    0  0.00000000000E+00  0.00000000000E+00 -0.21724128264E+04  0.21724128264E+04  0.25500000920E-02 0.  1.
    10030    2    1    2    0    0  0.00000000000E+00  0.00000000000E+00 -0.43299222624E+03  0.39118334265E+04  0.38877960966E+04 0.  0.
        2    1    3    3  502    0  0.17710701924E+03 -0.18354910079E+04  0.40240484125E+03  0.18874119297E+04  0.25500000920E-02 0. -1.
       -2    1    3    3    0  502 -0.17710701924E+03  0.18354910079E+04 -0.83539706749E+03  0.20244214968E+04  0.25500000920E-02 0.  1.
</event>
<event>
 5   0  0.2395572E-07  0.3903402E+04  0.7818609E-02  0.8024322E-01
        2   -1    0    0  501    0  0.00000000000E+00  0.00000000000E+00  0.25031789369E+04  0.25031789369E+04  0.25500000920E-02 0.  1.
       -2   -1    0    0    0  501  0.00000000000E+00  0.00000000000E+00 -0.15217196508E+04  0.15217196508E+04  0.25500000920E-02 0. -1.
    10030    2    1    2    0    0  0.00000000000E+00  0.00000000000E+00  0.98145928609E+03  0.40248985877E+04  0.39034018895E+04 0.  0.
        3    1    3    3  502    0 -0.14171959202E+04  0.85340512356E+03 -0.57706676166E+03  0.17520703864E+04  0.10100000352E+00 0. -1.
       -3    1    3    3    0  502  0.14171959202E+04 -0.85340512356E+03  0.15585260477E+04  0.22728282013E+04  0.10100000352E+00 0.  1.
</event>
<event>
 5   0  0.7675750E-08  0.3734346E+04  0.7818609E-02  0.8060393E-01
       -1   -1    0    0    0  501  0.00000000000E+00  0.00000000000E+00  0.15147020318E+04  0.15147020318E+04  0.50400001928E-02 0.  1.
        1   -1    0    0  501    0  0.00000000000E+00  0.00000000000E+00 -0.23016636210E+04  0.23016636210E+04  0.50400001928E-02 0. -1.
    10030    2    1    2    0    0  0.00000000000E+00  0.00000000000E+00 -0.78696158920E+03  0.38163656527E+04  0.37343457596E+04 0.  0.
        2    1    3    3  502    0 -0.16194176960E+04 -0.54214315814E+03 -0.11649798926E+04  0.20672713969E+04  0.25500000920E-02 0. -1.
       -2    1    3    3    0  502  0.16194176960E+04  0.54214315814E+03  0.37801830343E+03  0.17490942559E+04  0.25500000920E-02 0.  1.
</event>
<event>
 5   0  0.7675750E-08  0.3940601E+04  0.7818609E-02  0.8016638E-01
       -1   -1    0    0    0  501  0.00000000000E+00  0.00000000000E+00  0.33116013350E+04  0.33116013350E+04  0.50400001928E-02 0. -1.
        1   -1    0    0  501    0  0.00000000000E+00  0.00000000000E+00 -0.11722676817E+04  0.11722676817E+04  0.50400001928E-02 0.  1.
    10030    2    1    2    0    0  0.00000000000E+00  0.00000000000E+00  0.21393336533E+04  0.44838690167E+04  0.39406005733E+04 0.  0.
        1    1    3    3  502    0  0.11895948142E+04 -0.11092126590E+03  0.28523934371E+04  0.30925050799E+04  0.50400001928E-02 0. -1.
       -1    1    3    3    0  502 -0.11895948142E+04  0.11092126590E+03 -0.71305978379E+03  0.13913639368E+04  0.50400001928E-02 0.  1.
</event>
<event>
 5   0  0.2473224E-07  0.3836208E+04  0.7818609E-02  0.8038429E-01
       -2   -1    0    0    0  501  0.00000000000E+00  0.00000000000E+00  0.15413762751E+04  0.15413762751E+04  0.25500000920E-02 0. -1.
        2   -1    0    0  501    0  0.00000000000E+00  0.00000000000E+00 -0.23869077308E+04  0.23869077308E+04  0.25500000920E-02 0.  1.
    10030    2    1    2    0    0  0.00000000000E+00  0.00000000000E+00 -0.84553145567E+03  0.39282840058E+04  0.38362079959E+04 0.  0.
        2    1    3    3  502    0 -0.10151665233E+04  0.15937696298E+04 -0.85531212701E+02  0.18915549929E+04  0.25500000920E-02 0. -1.
       -2    1    3    3    0  502  0.10151665233E+04 -0.15937696298E+04 -0.76000024297E+03  0.20367290129E+04  0.25500000920E-02 0.  1.
</event>
<event>
 5   0  0.2486268E-07  0.3869511E+04  0.7818609E-02  0.8031400E-01
       -2   -1    0    0    0  501  0.00000000000E+00  0.00000000000E+00  0.18497915680E+04  0.18497915680E+04  0.25500000920E-02 0. -1.
        2   -1    0    0  501    0  0.00000000000E+00  0.00000000000E+00 -0.20236217997E+04  0.20236217997E+04  0.25500000920E-02 0.  1.
    10030    2    1    2    0    0  0.00000000000E+00  0.00000000000E+00 -0.17383023168E+03  0.38734133676E+04  0.38695108434E+04 0.  0.
        5    1    3    3  502    0 -0.13992133742E+04  0.50904207913E+03  0.11497800014E+04  0.18812065401E+04  0.46999998093E+01 0. -1.
       -5    1    3    3    0  502  0.13992133742E+04 -0.50904207913E+03 -0.13236102331E+04  0.19922068276E+04  0.46999998093E+01 0.  1.
</event>
<event>
 5   0  0.7675750E-08  0.3885918E+04  0.7818609E-02  0.8027964E-01
       -1   -1    0    0    0  501  0.00000000000E+00  0.00000000000E+00  0.28982276484E+04  0.28982276484E+04  0.50400001928E-02 0. -1.
        1   -1    0    0  501    0  0.00000000000E+00  0.00000000000E+00 -0.13025508638E+04  0.13025508638E+04  0.50400001928E-02 0.  1.
    10030    2    1    2    0    0  0.00000000000E+00  0.00000000000E+00  0.15956767846E+04  0.42007785123E+04  0.38859176147E+04 0.  0.
        2    1    3    3  502    0  0.15884804513E+04  0.11008972100E+04  0.10136219218E+04  0.21823551983E+04  0.25500000920E-02 0. -1.
       -2    1    3    3    0  502 -0.15884804513E+04 -0.11008972100E+04  0.58205486282E+03  0.20184233140E+04  0.25500000920E-02 0.  1.
</event>
<event>
 5   0  0.7675750E-08  0.3862732E+04  0.7818609E-02  0.8032825E-01
        1   -1    0    0  501    0  0.00000000000E+00  0.00000000000E+00  0.13600484359E+04  0.13600484359E+04  0.50400001928E-02 0.  1.
       -1   -1    0    0    0  501  0.00000000000E+00  0.00000000000E+00 -0.27426773267E+04  0.27426773267E+04  0.50400001928E-02 0. -1.
    10030    2    1    2    0    0  0.00000000000E+00  0.00000000000E+00 -0.13826288908E+04  0.41027257626E+04  0.38627316803E+04 0.  0.
        5    1    3    3  502    0  0.11675130816E+04 -0.83065049003E+03 -0.20667982131E+04  0.25149043672E+04  0.46999998093E+01 0. -1.
       -5    1    3    3    0  502 -0.11675130816E+04  0.83065049003E+03  0.68416932230E+03  0.15878213955E+04  0.46999998093E+01 0.  1.
</event>
<event>
 5   0  0.2384787E-07  0.3883295E+04  0.7818609E-02  0.8028513E-01
       -2   -1    0    0    0  501  0.00000000000E+00  0.00000000000E+00  0.14752628639E+04  0.14752628639E+04  0.25500000920E-02 0.  1.
        2   -1    0    0  501    0  0.00000000000E+00  0.00000000000E+00 -0.25554728454E+04  0.25554728454E+04  0.25500000920E-02 0. -1.
    10030    2    1    2    0    0  0.00000000000E+00  0.00000000000E+00 -0.10802099815E+04  0.40307357093E+04  0.38832945747E+04 0.  0.
        4    1    3    3  502    0 -0.18615722675E+04  0.14211522466E+03  0.13380737535E+02  0.18670374129E+04  0.12699999809E+01 0.  1.
       -4    1    3    3    0  502  0.18615722675E+04 -0.14211522466E+03 -0.10935907190E+04  0.21636982964E+04  0.12699999809E+01 0. -1.
</event>
<event>
 5   0  0.7731706E-08  0.3606686E+04  0.7818609E-02  0.8088962E-01
       -1   -1    0    0    0  501  0.00000000000E+00  0.00000000000E+00  0.18142849907E+04  0.18142849907E+04  0.50400001928E-02 0.  1.
        1   -1    0    0  501    0  0.00000000000E+00  0.00000000000E+00 -0.17924671989E+04  0.17924671989E+04  0.50400001928E-02 0. -1.
    10030    2    1    2    0    0  0.00000000000E+00  0.00000000000E+00  0.21817791742E+02  0.36067521896E+04  0.36066861994E+04 0.  0.
        3    1    3    3  502    0 -0.22679527386E+02 -0.52692188272E+03  0.17354361119E+04  0.18138080218E+04  0.10100000352E+00 0.  1.
       -3    1    3    3    0  502  0.22679527386E+02  0.52692188272E+03 -0.17136183201E+04  0.17929441678E+04  0.10100000352E+00 0. -1.
</event>
<event>
 5   0  0.7675750E-08  0.3859161E+04  0.7818609E-02  0.8033577E-01
       -1   -1    0    0    0  501  0.00000000000E+00  0.00000000000E+00  0.19105236407E+04  0.19105236407E+04  0.50400001928E-02 0. -1.
        1   -1    0    0  501    0  0.00000000000E+00  0.00000000000E+00 -0.19488275062E+04  0.19488275062E+04  0.50400001928E-02 0.  1.
    10030    2    1    2    0    0  0.00000000000E+00  0.00000000000E+00 -0.38303865503E+02  0.38593511469E+04  0.38591610602E+04 0.  0.
        2    1    3    3  502    0 -0.12262451995E+04  0.14881620852E+04 -0.89705681835E+02  0.19303758159E+04  0.25500000920E-02 0. -1.
       -2    1    3    3    0  502  0.12262451995E+04 -0.14881620852E+04  0.51401816332E+02  0.19289753310E+04  0.25500000920E-02 0.  1.
</event>
<event>
 5   0  0.2473224E-07  0.3845898E+04  0.7818609E-02  0.8036376E-01
        2   -1    0    0  501    0  0.00000000000E+00  0.00000000000E+00  0.19844435265E+04  0.19844435266E+04  0.25500000920E-02 0. -1.
       -2   -1    0    0    0  501  0.00000000000E+00  0.00000000000E+00 -0.18633597865E+04  0.18633597865E+04  0.25500000920E-02 0.  1.
    10030    2    1    2    0    0  0.00000000000E+00  0.00000000000E+00  0.12108374010E+03  0.38478033130E+04  0.38458976928E+04 0.  0.
        2    1    3    3  502    0 -0.83566489981E+03  0.90265239006E+03 -0.14182348435E+04  0.18773671014E+04  0.25500000920E-02 0.  1.
       -2    1    3    3    0  502  0.83566489981E+03 -0.90265239006E+03  0.15393185836E+04  0.19704362116E+04  0.25500000920E-02 0. -1.
</event>
<event>
 5   0  0.2395572E-07  0.3842498E+04  0.7818609E-02  0.8037096E-01
       -2   -1    0    0    0  501  0.00000000000E+00  0.00000000000E+00  0.13353722948E+04  0.13353722948E+04  0.25500000920E-02 0.  1.
        2   -1    0    0  501    0  0.00000000000E+00  0.00000000000E+00 -0.27641710422E+04  0.27641710422E+04  0.25500000920E-02 0. -1.
    10030    2    1    2    0    0  0.00000000000E+00  0.00000000000E+00 -0.14287987474E+04  0.40995433370E+04  0.38424978480E+04 0.  0.
        3    1    3    3  502    0  0.90375864774E+03 -0.10009496876E+04 -0.21743386261E+04  0.25585989216E+04  0.10100000352E+00 0. -1.
       -3    1    3    3    0  502 -0.90375864774E+03  0.10009496876E+04  0.74553987869E+03  0.15409444154E+04  0.10100000352E+00 0.  1.
</event>
<event>
 5   0  0.7675750E-08  0.3894206E+04  0.7818609E-02  0.8026235E-01
       -1   -1    0    0    0  501  0.00000000000E+00  0.00000000000E+00  0.15592882524E+04  0.15592882524E+04  0.50400001928E-02 0.  1.
        1   -1    0    0  501    0  0.00000000000E+00  0.00000000000E+00 -0.24313724315E+04  0.24313724315E+04  0.50400001928E-02 0. -1.
    10030    2    1    2    0    0  0.00000000000E+00  0.00000000000E+00 -0.87208417911E+03  0.39906606840E+04  0.38942061937E+04 0.  0.
        4    1    3    3  502    0 -0.17851093048E+04 -0.13662884052E+03  0.34837548149E+03  0.18239105677E+04  0.12699999809E+01 0.  1.
       -4    1    3    3    0  502  0.17851093048E+04  0.13662884052E+03 -0.12204596606E+04  0.21667501162E+04  0.12699999809E+01 0. -1.
</event>
<event>
 5   0  0.2395572E-07  0.3905757E+04  0.7818609E-02  0.8023833E-01
        2   -1    0    0  501    0  0.00000000000E+00  0.00000000000E+00  0.20759140184E+04  0.20759140184E+04  0.25500000920E-02 0.  1.
       -2   -1    0    0    0  501  0.00000000000E+00  0.00000000000E+00 -0.18371353475E+04  0.18371353475E+04  0.25500000920E-02 0. -1.
    10030    2    1    2    0    0  0.00000000000E+00  0.00000000000E+00  0.23877867088E+03  0.39130493659E+04  0.39057573000E+04 0.  0.
        3    1    3    3  502    0  0.10381299941E+03 -0.95309253498E+03  0.18239100719E+04  0.20605364543E+04  0.10100000352E+00 0.  1.
       -3    1    3    3    0  502 -0.10381299941E+03  0.95309253498E+03 -0.15851314010E+04  0.18525129116E+04  0.10100000352E+00 0. -1.
</event>
<event>
 5   0  0.7731706E-08  0.3935690E+04  0.7818609E-02  0.8017647E-01
       -1   -1    0    0    0  501  0.00000000000E+00  0.00000000000E+00  0.15419759364E+04  0.15419759364E+04  0.50400001928E-02 0.  1.
        1   -1    0    0  501    0  0.00000000000E+00  0.00000000000E+00 -0.25113321996E+04  0.25113321996E+04  0.50400001928E-02 0. -1.
    10030    2    1    2    0    0  0.00000000000E+00  0.00000000000E+00 -0.96935626318E+03  0.40533081360E+04  0.39356899370E+04 0.  0.
        3    1    3    3  502    0  0.19213059326E+03  0.18239710739E+04  0.24981776570E+03  0.18509979929E+04  0.10100000352E+00 0.  1.
       -3    1    3    3    0  502 -0.19213059326E+03 -0.18239710739E+04 -0.12191740289E+04  0.22023101431E+04  0.10100000352E+00 0. -1.
</event>
<event>
 5   0  0.2473224E-07  0.3909806E+04  0.7818609E-02  0.8022993E-01
       -2   -1    0    0    0  501  0.00000000000E+00  0.00000000000E+00  0.17315625702E+04  0.17315625702E+04  0.25500000920E-02 0. -1.
        2   -1    0    0  501    0  0.00000000000E+00  0.00000000000E+00 -0.22070503032E+04  0.22070503032E+04  0.25500000920E-02 0.  1.
    10030    2    1    2    0    0  0.00000000000E+00  0.00000000000E+00 -0.47548773293E+03  0.39386128734E+04  0.39098059776E+04 0.  0.
        2    1    3    3  502    0  0.52884451169E+02  0.13752428817E+04 -0.16363376253E+04  0.21381512044E+04  0.25500000920E-02 0. -1.
       -2    1    3    3    0  502 -0.52884451169E+02 -0.13752428817E+04  0.11608498924E+04  0.18004616690E+04  0.25500000920E-02 0.  1.
</event>
<event>
 5   0  0.2395572E-07  0.3874631E+04  0.7818609E-02  0.8030326E-01
       -2   -1    0    0    0  501  0.00000000000E+00  0.00000000000E+00  0.21357385179E+04  0.21357385179E+04  0.25500000920E-02 0. -1.
        2   -1    0    0  501    0  0.00000000000E+00  0.00000000000E+00 -0.17573270035E+04  0.17573270035E+04  0.25500000920E-02 0.  1.
    10030    2    1    2    0    0  0.00000000000E+00  0.00000000000E+00  0.37841151441E+03  0.38930655214E+04  0.38746308056E+04 0.  0.
        3    1    3    3  502    0 -0.18587626165E+04 -0.50954176705E+03  0.38650622439E+03  0.19657106472E+04  0.10100000352E+00 0. -1.
       -3    1    3    3    0  502  0.18587626165E+04  0.50954176705E+03 -0.80947099808E+01  0.19273548742E+04  0.10100000352E+00 0.  1.
</event>
<event>
 5   0  0.2446281E-07  0.3902386E+04  0.7818609E-02  0.8024533E-01
        2   -1    0    0  501    0  0.00000000000E+00  0.00000000000E+00  0.12197795522E+04  0.12197795522E+04  0.25500000920E-02 0. -1.
       -2   -1    0    0    0  501  0.00000000000E+00  0.00000000000E+00 -0.31211817181E+04  0.31211817181E+04  0.25500000920E-02 0.  1.
    10030    2    1    2    0    0  0.00000000000E+00  0.00000000000E+00 -0.19014021659E+04  0.43409612703E+04  0.39023857515E+04 0.  0.
        1    1    3    3  502    0  0.11105351314E+04 -0.12448442030E+04 -0.20764825460E+04  0.26635887692E+04  0.50400001928E-02 0.  1.
       -1    1    3    3    0  502 -0.11105351314E+04  0.12448442030E+04  0.17508038011E+03  0.16773725011E+04  0.50400001928E-02 0. -1.
</event>
<event>
 5   0  0.7675750E-08  0.3898152E+04  0.7818609E-02  0.8025414E-01
       -1   -1    0    0    0  501  0.00000000000E+00  0.00000000000E+00  0.16450656967E+04  0.16450656967E+04  0.50400001928E-02 0. -1.
        1   -1    0    0  501    0  0.00000000000E+00  0.00000000000E+00 -0.23092672513E+04  0.23092672513E+04  0.50400001928E-02 0.  1.
    10030    2    1    2    0    0  0.00000000000E+00  0.00000000000E+00 -0.66420155464E+03  0.39543329480E+04  0.38981515309E+04 0.  0.
        1    1    3    3  502    0  0.35344494463E+03 -0.82078798647E+03 -0.20891964787E+04  0.22723023950E+04  0.50400001928E-02 0.  1.
       -1    1    3    3    0  502 -0.35344494463E+03  0.82078798647E+03  0.14249949240E+04  0.16820305530E+04  0.50400001928E-02 0. -1.
</event>
<event>
 5   0  0.2395572E-07  0.4082385E+04  0.7818609E-02  0.7988130E-01
       -2   -1    0    0    0  501  0.00000000000E+00  0.00000000000E+00  0.28476633373E+04  0.28476633373E+04  0.25500000920E-02 0. -1.
        2   -1    0    0  501    0  0.00000000000E+00  0.00000000000E+00 -0.14631178479E+04  0.14631178479E+04  0.25500000920E-02 0.  1.
    10030    2    1    2    0    0  0.00000000000E+00  0.00000000000E+00  0.13845454894E+04  0.43107811852E+04  0.40823851134E+04 0.  0.
        3    1    3    3  502    0 -0.10804607988E+04 -0.16037033340E+04  0.13824509634E+04  0.23770634399E+04  0.10100000352E+00 0. -1.
       -3    1    3    3    0  502  0.10804607988E+04  0.16037033340E+04  0.20945260172E+01  0.19337177453E+04  0.10100000352E+00 0.  1.
</event>
<event>
 5   0  0.7675750E-08  0.3916953E+04  0.7818609E-02  0.8021513E-01
        1   -1    0    0  501    0  0.00000000000E+00  0.00000000000E+00  0.14557395071E+04  0.14557395071E+04  0.50400001928E-02 0. -1.
       -1   -1    0    0    0  501  0.00000000000E+00  0.00000000000E+00 -0.26348324682E+04  0.26348324682E+04  0.50400001928E-02 0.  1.
    10030    2    1    2    0    0  0.00000000000E+00  0.00000000000E+00 -0.11790929611E+04  0.40905719754E+04  0.39169527537E+04 0.  0.
        4    1    3    3  502    0 -0.91664596741E+03 -0.40145198401E+03 -0.23476839741E+04  0.25520629264E+04  0.12699999809E+01 0.  1.
       -4    1    3    3    0  502  0.91664596741E+03  0.40145198401E+03  0.11685910130E+04  0.15385090489E+04  0.12699999809E+01 0. -1.
</event>
<event>
 5   0  0.2486268E-07  0.3831674E+04  0.7818609E-02  0.8039392E-01
       -2   -1    0    0    0  501  0.00000000000E+00  0.00000000000E+00  0.16204839646E+04  0.16204839646E+04  0.25500000920E-02 0. -1.
        2   -1    0    0  501    0  0.00000000000E+00  0.00000000000E+00 -0.22650217377E+04  0.22650217377E+04  0.25500000920E-02 0.  1.
    10030    2    1    2    0    0  0.00000000000E+00  0.00000000000E+00 -0.64453777311E+03  0.38855057023E+04  0.38316739973E+04 0.  0.
        5    1    3    3  502    0 -0.12447354905E+04 -0.16012921858E+03 -0.17901558887E+04  0.21862497579E+04  0.46999998093E+01 0.  1.
       -5    1    3    3    0  502  0.12447354905E+04  0.16012921858E+03  0.11456181156E+04  0.16992559444E+04  0.46999998093E+01 0. -1.
</event>
<event>
 5   0  0.7675750E-08  0.3878852E+04  0.7818609E-02  0.8029442E-01
        1   -1    0    0  501    0  0.00000000000E+00  0.00000000000E+00  0.19242604133E+04  0.19242604133E+04  0.50400001928E-02 0. -1.
       -1   -1    0    0    0  501  0.00000000000E+00  0.00000000000E+00 -0.19547110481E+04  0.19547110481E+04  0.50400001928E-02 0.  1.
    10030    2    1    2    0    0  0.00000000000E+00  0.00000000000E+00 -0.30450634804E+02  0.38789714614E+04  0.38788519380E+04 0.  0.
        4    1    3    3  502    0  0.12558555391E+04 -0.14155873630E+04 -0.43986854584E+03  0.19428192576E+04  0.12699999809E+01 0.  1.
       -4    1    3    3    0  502 -0.12558555391E+04  0.14155873630E+04  0.40941791104E+03  0.19361522038E+04  0.12699999809E+01 0. -1.
</event>
<event>
 5   0  0.7675750E-08  0.3882292E+04  0.7818609E-02  0.8028722E-01
       -1   -1    0    0    0  501  0.00000000000E+00  0.00000000000E+00  0.13072766743E+04  0.13072766743E+04  0.50400001928E-02 0. -1.
        1   -1    0    0  501    0  0.00000000000E+00  0.00000000000E+00 -0.28823643085E+04  0.28823643085E+04  0.50400001928E-02 0.  1.
    10030    2    1    2    0    0  0.00000000000E+00  0.00000000000E+00 -0.15750876342E+04  0.41896409828E+04  0.38822919145E+04 0.  0.
        5    1    3    3  502    0  0.15144894231E+04  0.85366985253E+03 -0.17193812372E+04  0.24451430139E+04  0.46999998093E+01 0.  1.
       -5    1    3    3    0  502 -0.15144894231E+04 -0.85366985253E+03  0.14429360302E+03  0.17444979689E+04  0.46999998093E+01 0. -1.
</event>
<event>
 5   0  0.2446281E-07  0.3852859E+04  0.7818609E-02  0.8034906E-01
        2   -1    0    0  501    0  0.00000000000E+00  0.00000000000E+00  0.28009053511E+04  0.28009053511E+04  0.25500000920E-02 0. -1.
       -2   -1    0    0    0  501  0.00000000000E+00  0.00000000000E+00 -0.13249756091E+04  0.13249756091E+04  0.25500000920E-02 0.  1.
    10030    2    1    2    0    0  0.00000000000E+00  0.00000000000E+00  0.14759297419E+04  0.41258809602E+04  0.38528593401E+04 0.  0.
        1    1    3    3  502    0 -0.95720189756E+03  0.78818213559E+03 -0.84084494518E+03  0.14981611307E+04  0.50400001928E-02 0.  1.
       -1    1    3    3    0  502  0.95720189756E+03 -0.78818213559E+03  0.23167746871E+04  0.26277198295E+04  0.50400001928E-02 0. -1.
</event>
<event>
 5   0  0.2384787E-07  0.3215598E+04  0.7818609E-02  0.8184710E-01
       -2   -1    0    0    0  501  0.00000000000E+00  0.00000000000E+00  0.12211991454E+04  0.12211991454E+04  0.25500000920E-02 0. -1.
        2   -1    0    0  501    0  0.00000000000E+00  0.00000000000E+00 -0.21167858627E+04  0.21167858627E+04  0.25500000920E-02 0.  1.
    10030    2    1    2    0    0  0.00000000000E+00  0.00000000000E+00 -0.89558671734E+03  0.33379850081E+04  0.32155976654E+04 0.  0.
        4    1    3    3  502    0 -0.98185606903E+03 -0.11104629335E+04 -0.10942694250E+04  0.18424430668E+04  0.12699999809E+01 0.  1.
       -4    1    3    3    0  502  0.98185606903E+03  0.11104629335E+04  0.19868270766E+03  0.14955419413E+04  0.12699999809E+01 0. -1.
</event>
<event>
 5   0  0.2395572E-07  0.3881912E+04  0.7818609E-02  0.8028802E-01
        2   -1    0    0  501    0  0.00000000000E+00  0.00000000000E+00  0.30571297941E+04  0.30571297941E+04  0.25500000920E-02 0.  1.
       -2   -1    0    0    0  501  0.00000000000E+00  0.00000000000E+00 -0.12323026865E+04  0.12323026865E+04  0.25500000920E-02 0. -1.
    10030    2    1    2    0    0  0.00000000000E+00  0.00000000000E+00  0.18248271077E+04  0.42894324806E+04  0.38819115179E+04 0.  0.
        3    1    3    3  502    0  0.25756605097E+03 -0.92741845724E+03  0.27748412623E+04  0.29370375051E+04  0.10100000352E+00 0.  1.
       -3    1    3    3    0  502 -0.25756605097E+03  0.92741845724E+03 -0.95001415465E+03  0.13523949755E+04  0.10100000352E+00 0. -1.
</event>
<event>
 5   0  0.7675750E-08  0.3869811E+04  0.7818609E-02  0.8031337E-01
        1   -1    0    0  501    0  0.00000000000E+00  0.00000000000E+00  0.13705599844E+04  0.13705599844E+04  0.50400001928E-02 0.  1.
       -1   -1    0    0    0  501  0.00000000000E+00  0.00000000000E+00 -0.27316269617E+04  0.27316269617E+04  0.50400001928E-02 0. -1.
    10030    2    1    2    0    0  0.00000000000E+00  0.00000000000E+00 -0.13610669773E+04  0.41021869461E+04  0.38698106444E+04 0.  0.
        4    1    3    3  502    0  0.70665908881E+03 -0.73689443360E+03  0.10617801327E+04  0.14730102298E+04  0.12699999809E+01 0.  1.
       -4    1    3    3    0  502 -0.70665908881E+03  0.73689443360E+03 -0.24228471100E+04  0.26291767163E+04  0.12699999809E+01 0. -1.
</event>
<event>
 5   0  0.7675750E-08  0.3546484E+04  0.7818609E-02  0.8102861E-01
        1   -1    0    0  501    0  0.00000000000E+00  0.00000000000E+00  0.12420841548E+04  0.12420841548E+04  0.50400001928E-02 0.  1.
       -1   -1    0    0    0  501  0.00000000000E+00  0.00000000000E+00 -0.25315417720E+04  0.25315417720E+04  0.50400001928E-02 0. -1.
    10030    2    1    2    0    0  0.00000000000E+00  0.00000000000E+00 -0.12894576172E+04  0.37736259268E+04  0.35464844126E+04 0.  0.
        2    1    3    3  502    0  0.15184791559E+04 -0.41576853845E+03  0.22346145437E+03  0.15901501332E+04  0.25500000920E-02 0.  1.
       -2    1    3    3    0  502 -0.15184791559E+04  0.41576853845E+03 -0.15129190716E+04  0.21834757937E+04  0.25500000920E-02 0. -1.
</event>
<event>
 5   0  0.2486268E-07  0.3981379E+04  0.7818609E-02  0.8008314E-01
       -2   -1    0    0    0  501  0.00000000000E+00  0.00000000000E+00  0.18607583588E+04  0.18607583588E+04  0.25500000920E-02 0.  1.
        2   -1    0    0  501    0  0.00000000000E+00  0.00000000000E+00 -0.21296933483E+04  0.21296933483E+04  0.25500000920E-02 0. -1.
    10030    2    1    2    0    0  0.00000000000E+00  0.00000000000E+00 -0.26893498947E+03  0.39904517071E+04  0.39813790071E+04 0.  0.
        5    1    3    3  502    0 -0.84144193952E+03  0.13591443792E+03  0.16686109594E+04  0.18737080604E+04  0.46999998093E+01 0.  1.
       -5    1    3    3    0  502  0.84144193952E+03 -0.13591443792E+03 -0.19375459488E+04  0.21167436467E+04  0.46999998093E+01 0. -1.
</event>
<event>
 5   0  0.7675750E-08  0.3683078E+04  0.7818609E-02  0.8071722E-01
       -1   -1    0    0    0  501  0.00000000000E+00  0.00000000000E+00  0.25041302458E+04  0.25041302458E+04  0.50400001928E-02 0. -1.
        1   -1    0    0  501    0  0.00000000000E+00  0.00000000000E+00 -0.13542688592E+04  0.13542688593E+04  0.50400001928E-02 0.  1.
    10030    2    1    2    0    0  0.00000000000E+00  0.00000000000E+00  0.11498613865E+04  0.38583991050E+04  0.36830778495E+04 0.  0.
        1    1    3    3  502    0 -0.15740190368E+04  0.49126244013E+02 -0.42514026926E+03  0.16311632550E+04  0.50400001928E-02 0.  1.
       -1    1    3    3    0  502  0.15740190368E+04 -0.49126244013E+02  0.15750016558E+04  0.22272358500E+04  0.50400001928E-02 0. -1.
</event>
<event>
 5   0  0.2395572E-07  0.3873746E+04  0.7818609E-02  0.8030512E-01
        2   -1    0    0  501    0  0.00000000000E+00  0.00000000000E+00  0.13823259933E+04  0.13823259933E+04  0.25500000920E-02 0.  1.
       -2   -1    0    0    0  501  0.00000000000E+00  0.00000000000E+00 -0.27138869752E+04  0.27138869752E+04  0.25500000920E-02 0. -1.
    10030    2    1    2    0    0  0.00000000000E+00  0.00000000000E+00 -0.13315609820E+04  0.40962129685E+04  0.38737457370E+04 0.  0.
        3    1    3    3  502    0  0.43196478576E+03 -0.13008666266E+04 -0.21128096495E+04  0.25184940305E+04  0.10100000352E+00 0. -1.
       -3    1    3    3    0  502 -0.43196478576E+03  0.13008666266E+04  0.78124866759E+03  0.15777189380E+04  0.10100000352E+00 0.  1.
</event>
<event>
 5   0  0.7675750E-08  0.3870409E+04  0.7818609E-02  0.8031212E-01
       -1   -1    0    0    0  501  0.00000000000E+00  0.00000000000E+00  0.18534363757E+04  0.18534363757E+04  0.50400001928E-02 0.  1.
        1   -1    0    0  501    0  0.00000000000E+00  0.00000000000E+00 -0.20205804005E+04  0.20205804006E+04  0.50400001928E-02 0. -1.
    10030    2    1    2    0    0  0.00000000000E+00  0.00000000000E+00 -0.16714402489E+03  0.38740167762E+04  0.38704093914E+04 0.  0.
        2    1    3    3  502    0 -0.12754447734E+04  0.16430620342E+03  0.13638952307E+04  0.18745575742E+04  0.25500000920E-02 0.  1.
       -2    1    3    3    0  502  0.12754447734E+04 -0.16430620342E+03 -0.15310392556E+04  0.19994592021E+04  0.25500000920E-02 0. -1.
</event>
<event>
 5   0  0.7675750E-08  0.3915405E+04  0.7818609E-02  0.8021833E-01
        1   -1    0    0  501    0  0.00000000000E+00  0.00000000000E+00  0.23995710851E+04  0.23995710851E+04  0.50400001928E-02 0.  1.
       -1   -1    0    0    0  501  0.00000000000E+00  0.00000000000E+00 -0.15972014056E+04  0.15972014056E+04  0.50400001928E-02 0. -1.
    10030    2    1    2    0    0  0.00000000000E+00  0.00000000000E+00  0.80236967947E+03  0.39967724907E+04  0.39154046074E+04 0.  0.
        4    1    3    3  502    0  0.13424891260E+04  0.13824416978E+04  0.48793989211E+02  0.19276422302E+04  0.12699999809E+01 0.  1.
       -4    1    3    3    0  502 -0.13424891260E+04 -0.13824416978E+04  0.75357569025E+03  0.20691302605E+04  0.12699999809E+01 0. -1.
</event>
<event>
 5   0  0.2384787E-07  0.3909128E+04  0.7818609E-02  0.8023133E-01
        2   -1    0    0  501    0  0.00000000000E+00  0.00000000000E+00  0.27502196712E+04  0.27502196712E+04  0.25500000920E-02 0.  1.
       -2   -1    0    0    0  501  0.00000000000E+00  0.00000000000E+00 -0.13890967924E+04  0.13890967924E+04  0.25500000920E-02 0. -1.
    10030    2    1    2    0    0  0.00000000000E+00  0.00000000000E+00  0.13611228787E+04  0.41393164636E+04  0.39091284572E+04 0.  0.
        4    1    3    3  502    0 -0.11947433496E+04  0.80727284813E+02  0.23163211355E+04  0.26075417123E+04  0.12699999809E+01 0.  1.
       -4    1    3    3    0  502  0.11947433496E+04 -0.80727284813E+02 -0.95519825673E+03  0.15317747513E+04  0.12699999809E+01 0. -1.
</event>
<event>
 5   0  0.7675750E-08  0.3727697E+04  0.7818609E-02  0.8061851E-01
       -1   -1    0    0    0  501  0.00000000000E+00  0.00000000000E+00  0.21768587080E+04  0.21768587080E+04  0.50400001928E-02 0.  1.
        1   -1    0    0  501    0  0.00000000000E+00  0.00000000000E+00 -0.15958458023E+04  0.15958458024E+04  0.50400001928E-02 0. -1.
    10030    2    1    2    0    0  0.00000000000E+00  0.00000000000E+00  0.58101290562E+03  0.37727045103E+04  0.37276967856E+04 0.  0.
        5    1    3    3  502    0 -0.34645799631E+03  0.59113348691E+03  0.20447655946E+04  0.21565157939E+04  0.46999998093E+01 0.  1.
       -5    1    3    3    0  502  0.34645799631E+03 -0.59113348691E+03 -0.14637526890E+04  0.16161887164E+04  0.46999998093E+01 0. -1.
</event>
<event>
 5   0  0.2473224E-07  0.3739197E+04  0.7818609E-02  0.8059330E-01
       -2   -1    0    0    0  501  0.00000000000E+00  0.00000000000E+00  0.14885023493E+04  0.14885023493E+04  0.25500000920E-02 0.  1.
        2   -1    0    0  501    0  0.00000000000E+00  0.00000000000E+00 -0.23482657534E+04  0.23482657534E+04  0.25500000920E-02 0. -1.
    10030    2    1    2    0    0  0.00000000000E+00  0.00000000000E+00 -0.85976340410E+03  0.38367681027E+04  0.37391972886E+04 0.  0.
        2    1    3    3  502    0  0.14250365272E+04  0.11658366899E+04 -0.96606733523E+02  0.18437020237E+04  0.25500000920E-02 0.  1.
       -2    1    3    3    0  502 -0.14250365272E+04 -0.11658366899E+04 -0.76315667057E+03  0.19930660790E+04  0.25500000920E-02 0. -1.
</event>
<event>
 5   0  0.7675750E-08  0.3871385E+04  0.7818609E-02  0.8031007E-01
       -1   -1    0    0    0  501  0.00000000000E+00  0.00000000000E+00  0.26165458165E+04  0.26165458165E+04  0.50400001928E-02 0. -1.
        1   -1    0    0  501    0  0.00000000000E+00  0.00000000000E+00 -0.14320045652E+04  0.14320045652E+04  0.50400001928E-02 0.  1.
    10030    2    1    2    0    0  0.00000000000E+00  0.00000000000E+00  0.11845412512E+04  0.40485503817E+04  0.38713850516E+04 0.  0.
        4    1    3    3  502    0  0.18470593823E+04 -0.57900945064E+03  0.59735478408E+03  0.20257627345E+04  0.12699999809E+01 0.  1.
       -4    1    3    3    0  502 -0.18470593823E+04  0.57900945064E+03  0.58718646716E+03  0.20227876472E+04  0.12699999809E+01 0. -1.
</event>
<event>
 5   0  0.7675750E-08  0.3908150E+04  0.7818609E-02  0.8023336E-01
       -1   -1    0    0    0  501  0.00000000000E+00  0.00000000000E+00  0.18418995683E+04  0.18418995683E+04  0.50400001928E-02 0.  1.
        1   -1    0    0  501    0  0.00000000000E+00  0.00000000000E+00 -0.20730819431E+04  0.20730819431E+04  0.50400001928E-02 0. -1.
    10030    2    1    2    0    0  0.00000000000E+00  0.00000000000E+00 -0.23118237478E+03  0.39149815115E+04  0.39081498109E+04 0.  0.
        1    1    3    3  502    0 -0.63927024386E+03  0.65856563705E+03  0.16125428608E+04  0.18554432411E+04  0.50400001928E-02 0.  1.
       -1    1    3    3    0  502  0.63927024386E+03 -0.65856563705E+03 -0.18437252355E+04  0.20595382704E+04  0.50400001928E-02 0. -1.
</event>
<event>
 5   0  0.2473224E-07  0.3884107E+04  0.7818609E-02  0.8028343E-01
        2   -1    0    0  501    0  0.00000000000E+00  0.00000000000E+00  0.21785941267E+04  0.21785941267E+04  0.25500000920E-02 0. -1.
       -2   -1    0    0    0  501  0.00000000000E+00  0.00000000000E+00 -0.17311948931E+04  0.17311948931E+04  0.25500000920E-02 0.  1.
    10030    2    1    2    0    0  0.00000000000E+00  0.00000000000E+00  0.44739923358E+03  0.39097890198E+04  0.38841066032E+04 0.  0.
        2    1    3    3  502    0  0.90396271800E+03  0.16106287648E+04 -0.38051712325E+03  0.18857536675E+04  0.25500000920E-02 0. -1.
       -2    1    3    3    0  502 -0.90396271800E+03 -0.16106287648E+04  0.82791635683E+03  0.20240353523E+04  0.25500000920E-02 0.  1.
</event>
<event>
 5   0  0.2384787E-07  0.3908803E+04  0.7818609E-02  0.8023201E-01
       -2   -1    0    0    0  501  0.00000000000E+00  0.00000000000E+00  0.25584504107E+04  0.25584504107E+04  0.25500000920E-02 0. -1.
        2   -1    0    0  501    0  0.00000000000E+00  0.00000000000E+00 -0.14929683959E+04  0.14929683959E+04  0.25500000920E-02 0.  1.
    10030    2    1    2    0    0  0.00000000000E+00  0.00000000000E+00  0.10654820148E+04  0.40514188066E+04  0.39088031957E+04 0.  0.
        4    1    3    3  502    0  0.13860123517E+04  0.13023527251E+04  0.66286567164E+02  0.19030366211E+04  0.12699999809E+01 0.  1.
       -4    1    3    3    0  502 -0.13860123517E+04 -0.13023527251E+04  0.99919544764E+03  0.21483821855E+04  0.12699999809E+01 0. -1.
</event>
<event>
 5   0  0.7675750E-08  0.3872991E+04  0.7818609E-02  0.8030670E-01
        1   -1    0    0  501    0  0.00000000000E+00  0.00000000000E+00  0.21612934209E+04  0.21612934209E+04  0.50400001928E-02 0. -1.
       -1   -1    0    0    0  501  0.00000000000E+00  0.00000000000E+00 -0.17350793417E+04  0.17350793417E+04  0.50400001928E-02 0.  1.
    10030    2    1    2    0    0  0.00000000000E+00  0.00000000000E+00  0.42621407919E+03  0.38963727625E+04  0.38729913843E+04 0.  0.
        2    1    3    3  502    0 -0.13332719248E+04  0.12702742316E+04  0.81572651169E+03  0.20141053575E+04  0.25500000920E-02 0.  1.
       -2    1    3    3    0  502  0.13332719248E+04 -0.12702742316E+04 -0.38951243250E+03  0.18822674051E+04  0.25500000920E-02 0. -1.
</event>
<event>
 5   0  0.7731706E-08  0.3898713E+04  0.7818609E-02  0.8025297E-01
       -1   -1    0    0    0  501  0.00000000000E+00  0.00000000000E+00  0.14268394296E+04  0.14268394296E+04  0.50400001928E-02 0.  1.
        1   -1    0    0  501    0  0.00000000000E+00  0.00000000000E+00 -0.26632219702E+04  0.26632219702E+04  0.50400001928E-02 0. -1.
    10030    2    1    2    0    0  0.00000000000E+00  0.00000000000E+00 -0.12363825406E+04  0.40900613998E+04  0.38987126680E+04 0.  0.
        3    1    3    3  502    0  0.63370071860E+03  0.16800245118E+04 -0.14143394035E+04  0.22856979064E+04  0.10100000352E+00 0.  1.
       -3    1    3    3    0  502 -0.63370071860E+03 -0.16800245118E+04  0.17795686288E+03  0.18043634934E+04  0.10100000352E+00 0. -1.
</event>
<event>
 5   0  0.7675750E-08  0.3889226E+04  0.7818609E-02  0.8027274E-01
        1   -1    0    0  501    0  0.00000000000E+00  0.00000000000E+00  0.31746513714E+04  0.31746513714E+04  0.50400001928E-02 0. -1.
       -1   -1    0    0    0  501  0.00000000000E+00  0.00000000000E+00 -0.11911607503E+04  0.11911607504E+04  0.50400001928E-02 0.  1.
    10030    2    1    2    0    0  0.00000000000E+00  0.00000000000E+00  0.19834906211E+04  0.43658121218E+04  0.38892262005E+04 0.  0.
        1    1    3    3  502    0 -0.78391836500E+03 -0.16264067307E+04  0.18087561638E+03  0.18145089819E+04  0.50400001928E-02 0. -1.
       -1    1    3    3    0  502  0.78391836500E+03  0.16264067307E+04  0.18026150047E+04  0.25513031399E+04  0.50400001928E-02 0.  1.
</event>
<event>
 5   0  0.2384787E-07  0.3920275E+04  0.7818609E-02  0.8020826E-01
        2   -1    0    0  501    0  0.00000000000E+00  0.00000000000E+00  0.24580516738E+04  0.24580516738E+04  0.25500000920E-02 0. -1.
       -2   -1    0    0    0  501  0.00000000000E+00  0.00000000000E+00 -0.15630828677E+04  0.15630828677E+04  0.25500000920E-02 0.  1.
    10030    2    1    2    0    0  0.00000000000E+00  0.00000000000E+00  0.89496880612E+03  0.40211345415E+04  0.39202747144E+04 0.  0.
        4    1    3    3  502    0  0.15622198825E+04 -0.10143492906E+04  0.10736837580E+04  0.21499381083E+04  0.12699999809E+01 0. -1.
       -4    1    3    3    0  502 -0.15622198825E+04  0.10143492906E+04 -0.17871495185E+03  0.18711964332E+04  0.12699999809E+01 0.  1.
</event>
<event>
 5   0  0.7731706E-08  0.3145816E+04  0.7818609E-02  0.8203275E-01
        1   -1    0    0  501    0  0.00000000000E+00  0.00000000000E+00  0.16439754830E+04  0.16439754830E+04  0.50400001928E-02 0. -1.
       -1   -1    0    0    0  501  0.00000000000E+00  0.00000000000E+00 -0.15049130306E+04  0.15049130306E+04  0.50400001928E-02 0.  1.
    10030    2    1    2    0    0  0.00000000000E+00  0.00000000000E+00  0.13906245245E+03  0.31488885136E+04  0.31458163496E+04 0.  0.
        3    1    3    3  502    0 -0.92326708018E+02 -0.30119279911E+03 -0.14730119511E+04  0.15063218586E+04  0.10100000352E+00 0.  1.
       -3    1    3    3    0  502  0.92326708018E+02  0.30119279911E+03  0.16120744036E+04  0.16425666550E+04  0.10100000352E+00 0. -1.
</event>
<event>
 5   0  0.7675750E-08  0.3883217E+04  0.7818609E-02  0.8028529E-01
       -1   -1    0    0    0  501  0.00000000000E+00  0.00000000000E+00  0.25128650275E+04  0.25128650275E+04  0.50400001928E-02 0. -1.
        1   -1    0    0  501    0  0.00000000000E+00  0.00000000000E+00 -0.15002169769E+04  0.15002169769E+04  0.50400001928E-02 0.  1.
    10030    2    1    2    0    0  0.00000000000E+00  0.00000000000E+00  0.10126480506E+04  0.40130820045E+04  0.38832165920E+04 0.  0.
        1    1    3    3  502    0  0.17807611572E+03  0.37768502860E+02 -0.14913785920E+04  0.15024472262E+04  0.50400001928E-02 0.  1.
       -1    1    3    3    0  502 -0.17807611572E+03 -0.37768502860E+02  0.25040266426E+04  0.25106347783E+04  0.50400001928E-02 0. -1.
</event>
<event>
 5   0  0.7675750E-08  0.3855602E+04  0.7818609E-02  0.8034327E-01
        1   -1    0    0  501    0  0.00000000000E+00  0.00000000000E+00  0.16377526208E+04  0.16377526208E+04  0.50400001928E-02 0. -1.
       -1   -1    0    0    0  501  0.00000000000E+00  0.00000000000E+00 -0.22692174100E+04  0.22692174100E+04  0.50400001928E-02 0.  1.
    10030    2    1    2    0    0  0.00000000000E+00  0.00000000000E+00 -0.63146478915E+03  0.39069700308E+04  0.38556020336E+04 0.  0.
        1    1    3    3  502    0  0.59908513232E+03  0.17143895918E+04  0.33970984069E+03  0.18475490370E+04  0.50400001928E-02 0.  1.
       -1    1    3    3    0  502 -0.59908513232E+03 -0.17143895918E+04 -0.97117462984E+03  0.20594209938E+04  0.50400001928E-02 0. -1.
</event>
<event>
 5   0  0.2384787E-07  0.3914702E+04  0.7818609E-02  0.8021978E-01
       -2   -1    0    0    0  501  0.00000000000E+00  0.00000000000E+00  0.17361685466E+04  0.17361685466E+04  0.25500000920E-02 0. -1.
        2   -1    0    0  501    0  0.00000000000E+00  0.00000000000E+00 -0.22067113674E+04  0.22067113674E+04  0.25500000920E-02 0.  1.
    10030    2    1    2    0    0  0.00000000000E+00  0.00000000000E+00 -0.47054282074E+03  0.39428799140E+04  0.39147019644E+04 0.  0.
        4    1    3    3  502    0 -0.92273673891E+03 -0.14715673388E+04  0.67359166378E+03  0.18629763456E+04  0.12699999809E+01 0. -1.
       -4    1    3    3    0  502  0.92273673891E+03  0.14715673388E+04 -0.11441344845E+04  0.20799035683E+04  0.12699999809E+01 0.  1.
</event>
<event>
 5   0  0.2395572E-07  0.3815426E+04  0.7818609E-02  0.8042853E-01
        2   -1    0    0  501    0  0.00000000000E+00  0.00000000000E+00  0.20652895474E+04  0.20652895474E+04  0.25500000920E-02 0.  1.
       -2   -1    0    0    0  501  0.00000000000E+00  0.00000000000E+00 -0.17621594080E+04  0.17621594080E+04  0.25500000920E-02 0. -1.
    10030    2    1    2    0    0  0.00000000000E+00  0.00000000000E+00  0.30313013939E+03  0.38274489554E+04  0.38154262704E+04 0.  0.
        3    1    3    3  502    0 -0.10991468018E+04  0.56750289252E+03  0.16084451304E+04  0.20291079253E+04  0.10100000352E+00 0.  1.
       -3    1    3    3    0  502  0.10991468018E+04 -0.56750289252E+03 -0.13053149910E+04  0.17983410302E+04  0.10100000352E+00 0. -1.
</event>
<event>
 5   0  0.2486268E-07  0.3848800E+04  0.7818609E-02  0.8035763E-01
       -2   -1    0    0    0  501  0.00000000000E+00  0.00000000000E+00  0.16928965444E+04  0.16928965444E+04  0.25500000920E-02 0.  1.
        2   -1    0    0  501    0  0.00000000000E+00  0.00000000000E+00 -0.21875618421E+04  0.21875618421E+04  0.25500000920E-02 0. -1.
    10030    2    1    2    0    0  0.00000000000E+00  0.00000000000E+00 -0.49466529764E+03  0.38804583865E+04  0.38488002718E+04 0.  0.
        5    1    3    3  502    0  0.11665596970E+03  0.15095509488E+04  0.95026821279E+03  0.17875638306E+04  0.46999998093E+01 0.  1.
       -5    1    3    3    0  502 -0.11665596970E+03 -0.15095509488E+04 -0.14449335104E+04  0.20928945559E+04  0.46999998093E+01 0. -1.
</event>
<event>
 5   0  0.2395572E-07  0.3349479E+04  0.7818609E-02  0.8150418E-01
        2   -1    0    0  501    0  0.00000000000E+00  0.00000000000E+00  0.18553382888E+04  0.18553382888E+04  0.25500000920E-02 0. -1.
       -2   -1    0    0    0  501  0.00000000000E+00  0.00000000000E+00 -0.15117203976E+04  0.15117203976E+04  0.25500000920E-02 0.  1.
    10030    2    1    2    0    0  0.00000000000E+00  0.00000000000E+00  0.34361789120E+03  0.33670586865E+04  0.33494792048E+04 0.  0.
        3    1    3    3  502    0 -0.12069363920E+04 -0.42805500722E+02  0.13381678775E+04  0.18025595812E+04  0.10100000352E+00 0. -1.
       -3    1    3    3    0  502  0.12069363920E+04  0.42805500722E+02 -0.99454998627E+03  0.15644991053E+04  0.10100000352E+00 0.  1.
</event>
<event>
 5   0  0.7675750E-08  0.3309082E+04  0.7818609E-02  0.8160588E-01
       -1   -1    0    0    0  501  0.00000000000E+00  0.00000000000E+00  0.16889880574E+04  0.16889880574E+04  0.50400001928E-02 0. -1.
        1   -1    0    0  501    0  0.00000000000E+00  0.00000000000E+00 -0.16207969592E+04  0.16207969592E+04  0.50400001928E-02 0.  1.
    10030    2    1    2    0    0  0.00000000000E+00  0.00000000000E+00  0.68191098229E+02  0.33097850167E+04  0.33090824756E+04 0.  0.
        5    1    3    3  502    0  0.40665176602E+03 -0.54825167414E+03  0.15415781161E+04  0.16859509883E+04  0.46999998093E+01 0. -1.
       -5    1    3    3    0  502 -0.40665176602E+03  0.54825167414E+03 -0.14733870179E+04  0.16238340283E+04  0.46999998093E+01 0.  1.
</event>
<event>
 5   0  0.2486268E-07  0.3844147E+04  0.7818609E-02  0.8036747E-01
       -2   -1    0    0    0  501  0.00000000000E+00  0.00000000000E+00  0.25613990606E+04  0.25613990606E+04  0.25500000920E-02 0.  1.
        2   -1    0    0  501    0  0.00000000000E+00  0.00000000000E+00 -0.14423236183E+04  0.14423236183E+04  0.25500000920E-02 0. -1.
    10030    2    1    2    0    0  0.00000000000E+00  0.00000000000E+00  0.11190754423E+04  0.40037226789E+04  0.38441469072E+04 0.  0.
        5    1    3    3  502    0  0.12396532487E+04  0.10918430312E+04 -0.46384081154E+03  0.17158181052E+04  0.46999998093E+01 0. -1.
       -5    1    3    3    0  502 -0.12396532487E+04 -0.10918430312E+04  0.15829162538E+04  0.22879045737E+04  0.46999998093E+01 0.  1.
</event>
<event>
 5   0  0.2473224E-07  0.3895531E+04  0.7818609E-02  0.8025959E-01
        2   -1    0    0  501    0  0.00000000000E+00  0.00000000000E+00  0.19417839618E+04  0.19417839618E+04  0.25500000920E-02 0.  1.
       -2   -1    0    0    0  501  0.00000000000E+00  0.00000000000E+00 -0.19537657386E+04  0.19537657386E+04  0.25500000920E-02 0. -1.
    10030    2    1    2    0    0  0.00000000000E+00  0.00000000000E+00 -0.11981776762E+02  0.38955497004E+04  0.38955312738E+04 0.  0.
        2    1    3    3  502    0  0.37837370134E+03  0.27764387019E+03 -0.18963802681E+04  0.19535892346E+04  0.25500000920E-02 0. -1.
       -2    1    3    3    0  502 -0.37837370134E+03 -0.27764387019E+03  0.18843984913E+04  0.19419604658E+04  0.25500000920E-02 0.  1.
</event>
<event>
 5   0  0.2486268E-07  0.3910400E+04  0.7818609E-02  0.8022870E-01
       -2   -1    0    0    0  501  0.00000000000E+00  0.00000000000E+00  0.18255760452E+04  0.18255760452E+04  0.25500000920E-02 0.  1.
        2   -1    0    0  501    0  0.00000000000E+00  0.00000000000E+00 -0.20940280036E+04  0.20940280036E+04  0.25500000920E-02 0. -1.
    10030    2    1    2    0    0  0.00000000000E+00  0.00000000000E+00 -0.26845195847E+03  0.39196040488E+04  0.39104001644E+04 0.  0.
        5    1    3    3  502    0 -0.29785662354E+03 -0.79762342746E+03 -0.18984435331E+04  0.20806325092E+04  0.46999998093E+01 0. -1.
       -5    1    3    3    0  502  0.29785662354E+03  0.79762342746E+03  0.16299915746E+04  0.18389715396E+04  0.46999998093E+01 0.  1.
</event>
<event>
 5   0  0.7675750E-08  0.3860085E+04  0.7818609E-02  0.8033382E-01
       -1   -1    0    0    0  501  0.00000000000E+00  0.00000000000E+00  0.23884868731E+04  0.23884868731E+04  0.50400001928E-02 0.  1.
        1   -1    0    0  501    0  0.00000000000E+00  0.00000000000E+00 -0.15595914422E+04  0.15595914422E+04  0.50400001928E-02 0. -1.
    10030    2    1    2    0    0  0.00000000000E+00  0.00000000000E+00  0.82889543094E+03  0.39480783153E+04  0.38600848111E+04 0.  0.
        1    1    3    3  502    0 -0.10346991642E+04  0.11433824634E+04 -0.77267313904E+03  0.17248042201E+04  0.50400001928E-02 0. -1.
       -1    1    3    3    0  502  0.10346991642E+04 -0.11433824634E+04  0.16015685700E+04  0.22232740952E+04  0.50400001928E-02 0.  1.
</event>
<event>
 5   0  0.2473224E-07  0.3857774E+04  0.7818609E-02  0.8033869E-01
        2   -1    0    0  501    0  0.00000000000E+00  0.00000000000E+00  0.16110129993E+04  0.16110129993E+04  0.25500000920E-02 0.  1.
       -2   -1    0    0    0  501  0.00000000000E+00  0.00000000000E+00 -0.23094817114E+04  0.23094817114E+04  0.25500000920E-02 0. -1.
    10030    2    1    2    0    0  0.00000000000E+00  0.00000000000E+00 -0.69846871215E+03  0.39204947107E+04  0.38577739999E+04 0.  0.
        2    1    3    3  502    0  0.13810675575E+04 -0.13455477981E+04 -0.29585821759E+03  0.19507379527E+04  0.25500000920E-02 0. -1.
       -2    1    3    3    0  502 -0.13810675575E+04  0.13455477981E+04 -0.40261049456E+03  0.19697567580E+04  0.25500000920E-02 0.  1.
</event>
<event>
 5   0  0.7675750E-08  0.3834810E+04  0.7818609E-02  0.8038726E-01
       -1   -1    0    0    0  501  0.00000000000E+00  0.00000000000E+00  0.23199237722E+04  0.23199237722E+04  0.50400001928E-02 0.  1.
        1   -1    0    0  501    0  0.00000000000E+00  0.00000000000E+00 -0.15847253835E+04  0.15847253835E+04  0.50400001928E-02 0. -1.
    10030    2    1    2    0    0  0.00000000000E+00  0.00000000000E+00  0.73519838868E+03  0.39046491557E+04  0.38348100811E+04 0.  0.
        5    1    3    3  502    0 -0.12808729352E+04 -0.10316601576E+04 -0.63597857006E+03  0.17633629770E+04  0.46999998093E+01 0. -1.
       -5    1    3    3    0  502  0.12808729352E+04  0.10316601576E+04  0.13711769587E+04  0.21412861787E+04  0.46999998093E+01 0.  1.
</event>
<event>
 5   0  0.7675750E-08  0.3928819E+04  0.7818609E-02  0.8019062E-01
        1   -1    0    0  501    0  0.00000000000E+00  0.00000000000E+00  0.15839749243E+04  0.15839749243E+04  0.50400001928E-02 0.  1.
       -1   -1    0    0    0  501  0.00000000000E+00  0.00000000000E+00 -0.24362153248E+04  0.24362153248E+04  0.50400001928E-02 0. -1.
    10030    2    1    2    0    0  0.00000000000E+00  0.00000000000E+00 -0.85224040045E+03  0.40201902491E+04  0.39288186442E+04 0.  0.
        5    1    3    3  502    0  0.13640495493E+04  0.14135813329E+04 -0.41976800153E+03  0.20087485215E+04  0.46999998093E+01 0. -1.
       -5    1    3    3    0  502 -0.13640495493E+04 -0.14135813329E+04 -0.43247239893E+03  0.20114417276E+04  0.46999998093E+01 0.  1.
</event>
<event>
 5   0  0.2384787E-07  0.3986638E+04  0.7818609E-02  0.8007247E-01
        2   -1    0    0  501    0  0.00000000000E+00  0.00000000000E+00  0.26477326200E+04  0.26477326200E+04  0.25500000920E-02 0. -1.
       -2   -1    0    0    0  501  0.00000000000E+00  0.00000000000E+00 -0.15006506065E+04  0.15006506065E+04  0.25500000920E-02 0.  1.
    10030    2    1    2    0    0  0.00000000000E+00  0.00000000000E+00  0.11470820136E+04  0.41483832265E+04  0.39866384647E+04 0.  0.
        4    1    3    3  502    0  0.13683532148E+04 -0.81210229490E+03 -0.67576026463E+03  0.17287435339E+04  0.12699999809E+01 0.  1.
       -4    1    3    3    0  502 -0.13683532148E+04  0.81210229490E+03  0.18228422782E+04  0.24196396926E+04  0.12699999809E+01 0. -1.
</event>
<event>
 5   0  0.7675750E-08  0.3889566E+04  0.7818609E-02  0.8027203E-01
       -1   -1    0    0    0  501  0.00000000000E+00  0.00000000000E+00  0.13874019761E+04  0.13874019761E+04  0.50400001928E-02 0.  1.
        1   -1    0    0  501    0  0.00000000000E+00  0.00000000000E+00 -0.27260887807E+04  0.27260887807E+04  0.50400001928E-02 0. -1.
    10030    2    1    2    0    0  0.00000000000E+00  0.00000000000E+00 -0.13386868046E+04  0.41134907568E+04  0.38895660228E+04 0.  0.
        5    1    3    3  502    0  0.33574113206E+03 -0.13501669054E+04 -0.21064282103E+04  0.25244275937E+04  0.46999998093E+01 0. -1.
       -5    1    3    3    0  502 -0.33574113206E+03  0.13501669054E+04  0.76774140577E+03  0.15890631631E+04  0.46999998093E+01 0.  1.
</event>
<event>
 5   0  0.7675750E-08  0.3909672E+04  0.7818609E-02  0.8023021E-01
       -1   -1    0    0    0  501  0.00000000000E+00  0.00000000000E+00  0.19789276196E+04  0.19789276196E+04  0.50400001928E-02 0. -1.
        1   -1    0    0  501    0  0.00000000000E+00  0.00000000000E+00 -0.19310375378E+04  0.19310375378E+04  0.50400001928E-02 0.  1.
    10030    2    1    2    0    0  0.00000000000E+00  0.00000000000E+00  0.47890081845E+02  0.39099651574E+04  0.39096718625E+04 0.  0.
        1    1    3    3  502    0 -0.44569848305E+03  0.16046658289E+04 -0.99974493592E+03  0.19424442069E+04  0.50400001928E-02 0.  1.
       -1    1    3    3    0  502  0.44569848305E+03 -0.16046658289E+04  0.10476350178E+04  0.19675209505E+04  0.50400001928E-02 0. -1.
</event>
<event>
 5   0  0.7675750E-08  0.3896610E+04  0.7818609E-02  0.8025735E-01
       -1   -1    0    0    0  501  0.00000000000E+00  0.00000000000E+00  0.28823497457E+04  0.28823497457E+04  0.50400001928E-02 0.  1.
        1   -1    0    0  501    0  0.00000000000E+00  0.00000000000E+00 -0.13169435366E+04  0.13169435366E+04  0.50400001928E-02 0. -1.
    10030    2    1    2    0    0  0.00000000000E+00  0.00000000000E+00  0.15654062091E+04  0.41992932822E+04  0.38966097406E+04 0.  0.
        5    1    3    3  502    0  0.16156128713E+04  0.77268761955E+03  0.16095142306E+04  0.24078640442E+04  0.46999998093E+01 0. -1.
       -5    1    3    3    0  502 -0.16156128713E+04 -0.77268761955E+03 -0.44108021435E+02  0.17914292380E+04  0.46999998093E+01 0.  1.
</event>
<event>
 5   0  0.2486268E-07  0.3868673E+04  0.7818609E-02  0.8031576E-01
       -2   -1    0    0    0  501  0.00000000000E+00  0.00000000000E+00  0.15589651875E+04  0.15589651875E+04  0.25500000920E-02 0.  1.
        2   -1    0    0  501    0  0.00000000000E+00  0.00000000000E+00 -0.24000900358E+04  0.24000900358E+04  0.25500000920E-02 0. -1.
    10030    2    1    2    0    0  0.00000000000E+00  0.00000000000E+00 -0.84112484822E+03  0.39590552233E+04  0.38686725438E+04 0.  0.
        5    1    3    3  502    0  0.70030270424E+03  0.51020323885E+02  0.14239357422E+04  0.15876529970E+04  0.46999998093E+01 0.  1.
       -5    1    3    3    0  502 -0.70030270424E+03 -0.51020323885E+02 -0.22650605904E+04  0.23714022263E+04  0.46999998093E+01 0. -1.
</event>
<event>
 5   0  0.7675750E-08  0.3908341E+04  0.7818609E-02  0.8023297E-01
        1   -1    0    0  501    0  0.00000000000E+00  0.00000000000E+00  0.23743476210E+04  0.23743476210E+04  0.50400001928E-02 0.  1.
       -1   -1    0    0    0  501  0.00000000000E+00  0.00000000000E+00 -0.16083504285E+04  0.16083504285E+04  0.50400001928E-02 0. -1.
    10030    2    1    2    0    0  0.00000000000E+00  0.00000000000E+00  0.76599719249E+03  0.39826980494E+04  0.39083413431E+04 0.  0.
        1    1    3    3  502    0 -0.31802627981E+03 -0.96108949493E+03 -0.13203131984E+04  0.16637489816E+04  0.50400001928E-02 0. -1.
       -1    1    3    3    0  502  0.31802627981E+03  0.96108949493E+03  0.20863103909E+04  0.23189490678E+04  0.50400001928E-02 0.  1.
</event>
<event>
 5   0  0.2486268E-07  0.3902129E+04  0.7818609E-02  0.8024587E-01
       -2   -1    0    0    0  501  0.00000000000E+00  0.00000000000E+00  0.15647488495E+04  0.15647488495E+04  0.25500000920E-02 0. -1.
        2   -1    0    0  501    0  0.00000000000E+00  0.00000000000E+00 -0.24327561535E+04  0.24327561535E+04  0.25500000920E-02 0.  1.
    10030    2    1    2    0    0  0.00000000000E+00  0.00000000000E+00 -0.86800730393E+03  0.39975050030E+04  0.39021288509E+04 0.  0.
        5    1    3    3  502    0  0.63210417199E+03  0.19152241042E+03 -0.23147391968E+04  0.24071302743E+04  0.46999998093E+01 0.  1.
       -5    1    3    3    0  502 -0.63210417199E+03 -0.19152241042E+03  0.14467318929E+04  0.15903747287E+04  0.46999998093E+01 0. -1.
</event>
<event>
 5   0  0.7675750E-08  0.3901408E+04  0.7818609E-02  0.8024737E-01
       -1   -1    0    0    0  501  0.00000000000E+00  0.00000000000E+00  0.18446606127E+04  0.18446606127E+04  0.50400001928E-02 0.  1.
        1   -1    0    0  501    0  0.00000000000E+00  0.00000000000E+00 -0.20628431174E+04  0.20628431174E+04  0.50400001928E-02 0. -1.
    10030    2    1    2    0    0  0.00000000000E+00  0.00000000000E+00 -0.21818250468E+03  0.39075037301E+04  0.39014076685E+04 0.  0.
        5    1    3    3  502    0 -0.30061325494E+03  0.13151184229E+03  0.18168173071E+04  0.18462152938E+04  0.46999998093E+01 0.  1.
       -5    1    3    3    0  502  0.30061325494E+03 -0.13151184229E+03 -0.20349998118E+04  0.20612884363E+04  0.46999998093E+01 0. -1.
</event>
<event>
 5   0  0.2384787E-07  0.3898128E+04  0.7818609E-02  0.8025419E-01
        2   -1    0    0  501    0  0.00000000000E+00  0.00000000000E+00  0.20067441716E+04  0.20067441716E+04  0.25500000920E-02 0. -1.
       -2   -1    0    0    0  501  0.00000000000E+00  0.00000000000E+00 -0.18930414744E+04  0.18930414744E+04  0.25500000920E-02 0.  1.
    10030    2    1    2    0    0  0.00000000000E+00  0.00000000000E+00  0.11370269722E+03  0.38997856460E+04  0.38981277277E+04 0.  0.
        4    1    3    3  502    0 -0.39999595812E+03 -0.80629417648E+03 -0.16726815650E+04  0.18994663188E+04  0.12699999809E+01 0.  1.
       -4    1    3    3    0  502  0.39999595812E+03  0.80629417648E+03  0.17863842622E+04  0.20003193272E+04  0.12699999809E+01 0. -1.
</event>
<event>
 5   0  0.7675750E-08  0.3873205E+04  0.7818609E-02  0.8030625E-01
        1   -1    0    0  501    0  0.00000000000E+00  0.00000000000E+00  0.25612466904E+04  0.25612466904E+04  0.50400001928E-02 0.  1.
       -1   -1    0    0    0  501  0.00000000000E+00  0.00000000000E+00 -0.14642979673E+04  0.14642979673E+04  0.50400001928E-02 0. -1.
    10030    2    1    2    0    0  0.00000000000E+00  0.00000000000E+00  0.10969487231E+04  0.40255446577E+04  0.38732045247E+04 0.  0.
        4    1    3    3  502    0 -0.10571608206E+04 -0.11058648337E+04  0.17825690359E+04  0.23490593887E+04  0.12699999809E+01 0.  1.
       -4    1    3    3    0  502  0.10571608206E+04  0.11058648337E+04 -0.68562031285E+03  0.16764852690E+04  0.12699999809E+01 0. -1.
</event>
<event>
 5   0  0.7675750E-08  0.3872123E+04  0.7818609E-02  0.8030852E-01
        1   -1    0    0  501    0  0.00000000000E+00  0.00000000000E+00  0.13190869602E+04  0.13190869602E+04  0.50400001928E-02 0. -1.
       -1   -1    0    0    0  501  0.00000000000E+00  0.00000000000E+00 -0.28416125031E+04  0.28416125031E+04  0.50400001928E-02 0.  1.
    10030    2    1    2    0    0  0.00000000000E+00  0.00000000000E+00 -0.15225255429E+04  0.41606994633E+04  0.38721229313E+04 0.  0.
        2    1    3    3  502    0  0.12764101264E+04 -0.86162282511E+03  0.49951805117E+03  0.16189919663E+04  0.25500000920E-02 0. -1.
       -2    1    3    3    0  502 -0.12764101264E+04  0.86162282511E+03 -0.20220435941E+04  0.25417074969E+04  0.25500000920E-02 0.  1.
</event>
<event>
 5   0  0.7731706E-08  0.3905027E+04  0.7818609E-02  0.8023985E-01
       -1   -1    0    0    0  501  0.00000000000E+00  0.00000000000E+00  0.13532104540E+04  0.13532104541E+04  0.50400001928E-02 0.  1.
        1   -1    0    0  501    0  0.00000000000E+00  0.00000000000E+00 -0.28172324680E+04  0.28172324680E+04  0.50400001928E-02 0. -1.
    10030    2    1    2    0    0  0.00000000000E+00  0.00000000000E+00 -0.14640220139E+04  0.41704429220E+04  0.39050267232E+04 0.  0.
        3    1    3    3  502    0 -0.43102564631E+03 -0.12158110448E+04 -0.22973505198E+04  0.26347294027E+04  0.10100000352E+00 0. -1.
       -3    1    3    3    0  502  0.43102564631E+03  0.12158110448E+04  0.83332850587E+03  0.15357135193E+04  0.10100000352E+00 0.  1.
</event>
<event>
 5   0  0.2395572E-07  0.3843653E+04  0.7818609E-02  0.8036851E-01
       -2   -1    0    0    0  501  0.00000000000E+00  0.00000000000E+00  0.16393861165E+04  0.16393861165E+04  0.25500000920E-02 0.  1.
        2   -1    0    0  501    0  0.00000000000E+00  0.00000000000E+00 -0.22529273862E+04  0.22529273862E+04  0.25500000920E-02 0. -1.
    10030    2    1    2    0    0  0.00000000000E+00  0.00000000000E+00 -0.61354126971E+03  0.38923135027E+04  0.38436534071E+04 0.  0.
        3    1    3    3  502    0  0.55036788800E+03  0.68270110944E+03  0.14249760942E+04  0.16731833420E+04  0.10100000352E+00 0.  1.
       -3    1    3    3    0  502 -0.55036788800E+03 -0.68270110944E+03 -0.20385173639E+04  0.22191301607E+04  0.10100000352E+00 0. -1.
</event>
<event>
 5   0  0.7675750E-08  0.3904835E+04  0.7818609E-02  0.8024024E-01
       -1   -1    0    0    0  501  0.00000000000E+00  0.00000000000E+00  0.18151292657E+04  0.18151292657E+04  0.50400001928E-02 0.  1.
        1   -1    0    0  501    0  0.00000000000E+00  0.00000000000E+00 -0.21000900732E+04  0.21000900733E+04  0.50400001928E-02 0. -1.
    10030    2    1    2    0    0  0.00000000000E+00  0.00000000000E+00 -0.28496080754E+03  0.39152193390E+04  0.39048354396E+04 0.  0.
        2    1    3    3  502    0 -0.61589291381E+03 -0.16638726413E+04  0.67463379353E+03  0.18981377724E+04  0.25500000920E-02 0. -1.
       -2    1    3    3    0  502  0.61589291381E+03  0.16638726413E+04 -0.95959460108E+03  0.20170815666E+04  0.25500000920E-02 0.  1.
</event>
<event>
 5   0  0.7675750E-08  0.3913862E+04  0.7818609E-02  0.8022152E-01
       -1   -1    0    0    0  501  0.00000000000E+00  0.00000000000E+00  0.27471192946E+04  0.27471192946E+04  0.50400001928E-02 0. -1.
        1   -1    0    0  501    0  0.00000000000E+00  0.00000000000E+00 -0.13940342740E+04  0.13940342740E+04  0.50400001928E-02 0.  1.
    10030    2    1    2    0    0  0.00000000000E+00  0.00000000000E+00  0.13530850206E+04  0.41411535687E+04  0.39138617510E+04 0.  0.
        2    1    3    3  502    0 -0.14661162106E+04 -0.12551944301E+04  0.33439246035E+03  0.19587823049E+04  0.25500000920E-02 0. -1.
       -2    1    3    3    0  502  0.14661162106E+04  0.12551944301E+04  0.10186925602E+04  0.21823712637E+04  0.25500000920E-02 0.  1.
</event>
<event>
 5   0  0.2486268E-07  0.3877728E+04  0.7818609E-02  0.8029677E-01
       -2   -1    0    0    0  501  0.00000000000E+00  0.00000000000E+00  0.13172043768E+04  0.13172043768E+04  0.25500000920E-02 0.  1.
        2   -1    0    0  501    0  0.00000000000E+00  0.00000000000E+00 -0.28539177770E+04  0.28539177770E+04  0.25500000920E-02 0. -1.
    10030    2    1    2    0    0  0.00000000000E+00  0.00000000000E+00 -0.15367134001E+04  0.41711221538E+04  0.38777276784E+04 0.  0.
        5    1    3    3  502    0  0.12953388332E+04  0.10430134013E+04  0.30374446252E+03  0.16905805028E+04  0.46999998093E+01 0.  1.
       -5    1    3    3    0  502 -0.12953388332E+04 -0.10430134013E+04 -0.18404578627E+04  0.24805416510E+04  0.46999998093E+01 0. -1.
</event>
<event>
 5   0  0.2384787E-07  0.3913080E+04  0.7818609E-02  0.8022314E-01
        2   -1    0    0  501    0  0.00000000000E+00  0.00000000000E+00  0.24287972551E+04  0.24287972551E+04  0.25500000920E-02 0. -1.
       -2   -1    0    0    0  501  0.00000000000E+00  0.00000000000E+00 -0.15761088487E+04  0.15761088487E+04  0.25500000920E-02 0.  1.
    10030    2    1    2    0    0  0.00000000000E+00  0.00000000000E+00  0.85268840642E+03  0.40049061037E+04  0.39130800377E+04 0.  0.
        4    1    3    3  502    0  0.66285579783E+03 -0.51542099615E+03  0.22350183797E+04  0.23875396085E+04  0.12699999809E+01 0. -1.
       -4    1    3    3    0  502 -0.66285579783E+03  0.51542099615E+03 -0.13823299732E+04  0.16173664952E+04  0.12699999809E+01 0.  1.
</event>
<event>
 5   0  0.7675750E-08  0.3824932E+04  0.7818609E-02  0.8040826E-01
       -1   -1    0    0    0  501  0.00000000000E+00  0.00000000000E+00  0.24934733478E+04  0.24934733478E+04  0.50400001928E-02 0.  1.
        1   -1    0    0  501    0  0.00000000000E+00  0.00000000000E+00 -0.14668398457E+04  0.14668398457E+04  0.50400001928E-02 0. -1.
    10030    2    1    2    0    0  0.00000000000E+00  0.00000000000E+00  0.10266335021E+04  0.39603131935E+04  0.38249319266E+04 0.  0.
        2    1    3    3  502    0 -0.18414828943E+04  0.21988669483E+02  0.10473066168E+04  0.21185829937E+04  0.25500000920E-02 0. -1.
       -2    1    3    3    0  502  0.18414828943E+04 -0.21988669483E+02 -0.20673114648E+02  0.18417301999E+04  0.25500000920E-02 0.  1.
</event>
<event>
 5   0  0.7731706E-08  0.3863383E+04  0.7818609E-02  0.8032688E-01
       -1   -1    0    0    0  501  0.00000000000E+00  0.00000000000E+00  0.16473090510E+04  0.16473090510E+04  0.50400001928E-02 0. -1.
        1   -1    0    0  501    0  0.00000000000E+00  0.00000000000E+00 -0.22651684292E+04  0.22651684292E+04  0.50400001928E-02 0.  1.
    10030    2    1    2    0    0  0.00000000000E+00  0.00000000000E+00 -0.61785937817E+03  0.39124774802E+04  0.38633832093E+04 0.  0.
        3    1    3    3  502    0 -0.76135097190E+03 -0.20133973528E+03  0.14773554353E+04  0.16741481666E+04  0.10100000352E+00 0. -1.
       -3    1    3    3    0  502  0.76135097190E+03  0.20133973528E+03 -0.20952148134E+04  0.22383293136E+04  0.10100000352E+00 0.  1.
</event>
<event>
 5   0  0.7675750E-08  0.3877498E+04  0.7818609E-02  0.8029726E-01
       -1   -1    0    0    0  501  0.00000000000E+00  0.00000000000E+00  0.14777098230E+04  0.14777098230E+04  0.50400001928E-02 0.  1.
        1   -1    0    0  501    0  0.00000000000E+00  0.00000000000E+00 -0.25436305113E+04  0.25436305113E+04  0.50400001928E-02 0. -1.
    10030    2    1    2    0    0  0.00000000000E+00  0.00000000000E+00 -0.10659206883E+04  0.40213403344E+04  0.38774980556E+04 0.  0.
        5    1    3    3  502    0 -0.15301042190E+04 -0.24882133346E+02  0.70152787670E+03  0.16834492844E+04  0.46999998093E+01 0.  1.
       -5    1    3    3    0  502  0.15301042190E+04  0.24882133346E+02 -0.17674485650E+04  0.23378910499E+04  0.46999998093E+01 0. -1.
</event>
<event>
 5   0  0.2473224E-07  0.3882222E+04  0.7818609E-02  0.8028737E-01
        2   -1    0    0  501    0  0.00000000000E+00  0.00000000000E+00  0.17702438783E+04  0.17702438783E+04  0.25500000920E-02 0.  1.
       -2   -1    0    0    0  501  0.00000000000E+00  0.00000000000E+00 -0.21284702004E+04  0.21284702004E+04  0.25500000920E-02 0. -1.
    10030    2    1    2    0    0  0.00000000000E+00  0.00000000000E+00 -0.35822632215E+03  0.38987140787E+04  0.38822217053E+04 0.  0.
        2    1    3    3  502    0 -0.16941885150E+03 -0.15948097215E+04 -0.12772807224E+04  0.20502601881E+04  0.25500000920E-02 0.  1.
       -2    1    3    3    0  502  0.16941885150E+03  0.15948097215E+04  0.91905440026E+03  0.18484538906E+04  0.25500000920E-02 0. -1.
</event>
<event>
 5   0  0.7675750E-08  0.3891589E+04  0.7818609E-02  0.8026781E-01
       -1   -1    0    0    0  501  0.00000000000E+00  0.00000000000E+00  0.21041637909E+04  0.21041637909E+04  0.50400001928E-02 0. -1.
        1   -1    0    0  501    0  0.00000000000E+00  0.00000000000E+00 -0.17993444556E+04  0.17993444556E+04  0.50400001928E-02 0.  1.
    10030    2    1    2    0    0  0.00000000000E+00  0.00000000000E+00  0.30481933537E+03  0.39035082465E+04  0.38915885964E+04 0.  0.
        1    1    3    3  502    0 -0.42945985701E+03  0.11775506719E+04 -0.13404546844E+04  0.18351784967E+04  0.50400001928E-02 0.  1.
       -1    1    3    3    0  502  0.42945985701E+03 -0.11775506719E+04  0.16452740198E+04  0.20683297498E+04  0.50400001928E-02 0. -1.
</event>
<event>
 5   0  0.2486268E-07  0.3891501E+04  0.7818609E-02  0.8026799E-01
        2   -1    0    0  501    0  0.00000000000E+00  0.00000000000E+00  0.17195552964E+04  0.17195552964E+04  0.25500000920E-02 0. -1.
       -2   -1    0    0    0  501  0.00000000000E+00  0.00000000000E+00 -0.22017004782E+04  0.22017004782E+04  0.25500000920E-02 0.  1.
    10030    2    1    2    0    0  0.00000000000E+00  0.00000000000E+00 -0.48214518184E+03  0.39212557746E+04  0.38915013649E+04 0.  0.
        5    1    3    3  502    0 -0.98698520169E+03  0.16641179322E+04 -0.44879276498E+03  0.19861685015E+04  0.46999998093E+01 0. -1.
       -5    1    3    3    0  502  0.98698520169E+03 -0.16641179322E+04 -0.33352416862E+02  0.19350872730E+04  0.46999998093E+01 0.  1.
</event>
<event>
 5   0  0.7731706E-08  0.3892496E+04  0.7818609E-02  0.8026592E-01
        1   -1    0    0  501    0  0.00000000000E+00  0.00000000000E+00  0.13446161702E+04  0.13446161702E+04  0.50400001928E-02 0. -1.
       -1   -1    0    0    0  501  0.00000000000E+00  0.00000000000E+00 -0.28170727956E+04  0.28170727956E+04  0.50400001928E-02 0.  1.
    10030    2    1    2    0    0  0.00000000000E+00  0.00000000000E+00 -0.14724566255E+04  0.41616889658E+04  0.38924961829E+04 0.  0.
        3    1    3    3  502    0 -0.75914574028E+03  0.84810436008E+01 -0.26522300119E+04  0.27587493959E+04  0.10100000352E+00 0.  1.
       -3    1    3    3    0  502  0.75914574028E+03 -0.84810436008E+01  0.11797733865E+04  0.14029395699E+04  0.10100000352E+00 0. -1.
</event>
<event>
 5   0  0.2473224E-07  0.3917356E+04  0.7818609E-02  0.8021429E-01
       -2   -1    0    0    0  501  0.00000000000E+00  0.00000000000E+00  0.12871720188E+04  0.12871720188E+04  0.25500000920E-02 0. -1.
        2   -1    0    0  501    0  0.00000000000E+00  0.00000000000E+00 -0.29805024424E+04  0.29805024424E+04  0.25500000920E-02 0.  1.
    10030    2    1    2    0    0  0.00000000000E+00  0.00000000000E+00 -0.16933304236E+04  0.42676744612E+04  0.39173559173E+04 0.  0.
        2    1    3    3  502    0  0.13766439453E+04 -0.13883644322E+04 -0.71908124170E+03  0.20832143867E+04  0.25500000920E-02 0.  1.
       -2    1    3    3    0  502 -0.13766439453E+04  0.13883644322E+04 -0.97424918193E+03  0.21844600745E+04  0.25500000920E-02 0. -1.
</event>
<event>
 5   0  0.2486268E-07  0.3882326E+04  0.7818609E-02  0.8028715E-01
        2   -1    0    0  501    0  0.00000000000E+00  0.00000000000E+00  0.14529840063E+04  0.14529840063E+04  0.25500000920E-02 0. -1.
       -2   -1    0    0    0  501  0.00000000000E+00  0.00000000000E+00 -0.25933616246E+04  0.25933616246E+04  0.25500000920E-02 0.  1.
    10030    2    1    2    0    0  0.00000000000E+00  0.00000000000E+00 -0.11403776184E+04  0.40463456309E+04  0.38823255727E+04 0.  0.
        5    1    3    3  502    0  0.16470614094E+04  0.93356785290E+03 -0.10169360004E+04  0.21490791379E+04  0.46999998093E+01 0.  1.
       -5    1    3    3    0  502 -0.16470614094E+04 -0.93356785290E+03 -0.12344161795E+03  0.18972664930E+04  0.46999998093E+01 0. -1.
</event>
<event>
 5   0  0.7675750E-08  0.3869604E+04  0.7818609E-02  0.8031381E-01
       -1   -1    0    0    0  501  0.00000000000E+00  0.00000000000E+00  0.14226984320E+04  0.14226984321E+04  0.50400001928E-02 0.  1.
        1   -1    0    0  501    0  0.00000000000E+00  0.00000000000E+00 -0.26312388764E+04  0.26312388764E+04  0.50400001928E-02 0. -1.
    10030    2    1    2    0    0  0.00000000000E+00  0.00000000000E+00 -0.12085404443E+04  0.40539373084E+04  0.38696043332E+04 0.  0.
        1    1    3    3  502    0 -0.64430656170E+03 -0.17327882469E+04 -0.63155581394E+01  0.18487092633E+04  0.50400001928E-02 0.  1.
       -1    1    3    3    0  502  0.64430656170E+03  0.17327882469E+04 -0.12022248862E+04  0.22052280451E+04  0.50400001928E-02 0. -1.
</event>
<event>
 5   0  0.7675750E-08  0.3887642E+04  0.7818609E-02  0.8027604E-01
       -1   -1    0    0    0  501  0.00000000000E+00  0.00000000000E+00  0.19037326187E+04  0.19037326187E+04  0.50400001928E-02 0. -1.
        1   -1    0    0  501    0  0.00000000000E+00  0.00000000000E+00 -0.19847534142E+04  0.19847534142E+04  0.50400001928E-02 0.  1.
    10030    2    1    2    0    0  0.00000000000E+00  0.00000000000E+00 -0.81020795525E+02  0.38884860329E+04  0.38876418635E+04 0.  0.
        4    1    3    3  502    0  0.11384567393E+04 -0.15003503641E+03 -0.16092399245E+04  0.19769291861E+04  0.12699999809E+01 0.  1.
       -4    1    3    3    0  502 -0.11384567393E+04  0.15003503641E+03  0.15282191290E+04  0.19115568468E+04  0.12699999809E+01 0. -1.
</event>
<event>
 5   0  0.2395572E-07  0.3923993E+04  0.7818609E-02  0.8020058E-01
        2   -1    0    0  501    0  0.00000000000E+00  0.00000000000E+00  0.24547079333E+04  0.24547079333E+04  0.25500000920E-02 0.  1.
       -2   -1    0    0    0  501  0.00000000000E+00  0.00000000000E+00 -0.15681824899E+04  0.15681824899E+04  0.25500000920E-02 0. -1.
    10030    2    1    2    0    0  0.00000000000E+00  0.00000000000E+00  0.88652544335E+03  0.40228904232E+04  0.39239928638E+04 0.  0.
        3    1    3    3  502    0  0.16120934495E+03  0.19481432004E+04  0.61536136903E+03  0.20493706368E+04  0.10100000352E+00 0.  1.
       -3    1    3    3    0  502 -0.16120934495E+03 -0.19481432004E+04  0.27116407433E+03  0.19735197865E+04  0.10100000352E+00 0. -1.
</event>
<event>
 5   0  0.7675750E-08  0.3904307E+04  0.7818609E-02  0.8024134E-01
       -1   -1    0    0    0  501  0.00000000000E+00  0.00000000000E+00  0.16595785166E+04  0.16595785166E+04  0.50400001928E-02 0. -1.
        1   -1    0    0  501    0  0.00000000000E+00  0.00000000000E+00 -0.22963075978E+04  0.22963075978E+04  0.50400001928E-02 0.  1.
    10030    2    1    2    0    0  0.00000000000E+00  0.00000000000E+00 -0.63672908120E+03  0.39558861145E+04  0.39043067282E+04 0.  0.
        5    1    3    3  502    0  0.31075344507E+03  0.17307970451E+04  0.54056975063E+03  0.18396912405E+04  0.46999998093E+01 0. -1.
       -5    1    3    3    0  502 -0.31075344507E+03 -0.17307970451E+04 -0.11772988318E+04  0.21161948740E+04  0.46999998093E+01 0.  1.
</event>
<event>
 5   0  0.2446281E-07  0.3868973E+04  0.7818609E-02  0.8031513E-01
       -2   -1    0    0    0  501  0.00000000000E+00  0.00000000000E+00  0.20095261281E+04  0.20095261281E+04  0.25500000920E-02 0.  1.
        2   -1    0    0  501    0  0.00000000000E+00  0.00000000000E+00 -0.18622488662E+04  0.18622488662E+04  0.25500000920E-02 0. -1.
    10030    2    1    2    0    0  0.00000000000E+00  0.00000000000E+00  0.14727726189E+03  0.38717749942E+04  0.38689728629E+04 0.  0.
        1    1    3    3  502    0  0.96430786645E+03  0.16542143576E+04  0.34937939100E+03  0.19463763153E+04  0.50400001928E-02 0.  1.
       -1    1    3    3    0  502 -0.96430786645E+03 -0.16542143576E+04 -0.20210212912E+03  0.19253986789E+04  0.50400001928E-02 0. -1.
</event>
<event>
 5   0  0.7675750E-08  0.3857643E+04  0.7818609E-02  0.8033897E-01
        1   -1    0    0  501    0  0.00000000000E+00  0.00000000000E+00  0.25198801185E+04  0.25198801185E+04  0.50400001928E-02 0.  1.
       -1   -1    0    0    0  501  0.00000000000E+00  0.00000000000E+00 -0.14764007816E+04  0.14764007816E+04  0.50400001928E-02 0. -1.
    10030    2    1    2    0    0  0.00000000000E+00  0.00000000000E+00  0.10434793369E+04  0.39962809001E+04  0.38576433098E+04 0.  0.
        1    1    3    3  502    0 -0.58763638747E+03 -0.11858532274E+04  0.19753013937E+04  0.23776837462E+04  0.50400001928E-02 0.  1.
       -1    1    3    3    0  502  0.58763638747E+03  0.11858532274E+04 -0.93182205684E+03  0.16185971539E+04  0.50400001928E-02 0. -1.
</event>
<event>
 5   0  0.2473224E-07  0.3729403E+04  0.7818609E-02  0.8061477E-01
        2   -1    0    0  501    0  0.00000000000E+00  0.00000000000E+00  0.19353791111E+04  0.19353791111E+04  0.25500000920E-02 0.  1.
       -2   -1    0    0    0  501  0.00000000000E+00  0.00000000000E+00 -0.17966053047E+04  0.17966053047E+04  0.25500000920E-02 0. -1.
    10030    2    1    2    0    0  0.00000000000E+00  0.00000000000E+00  0.13877380636E+03  0.37319844158E+04  0.37294033719E+04 0.  0.
        2    1    3    3  502    0 -0.53652041358E+03  0.52228808484E+03 -0.16395635467E+04  0.18024449011E+04  0.25500000920E-02 0. -1.
       -2    1    3    3    0  502  0.53652041358E+03 -0.52228808484E+03  0.17783373530E+04  0.19295395148E+04  0.25500000920E-02 0.  1.
</event>
<event>
 5   0  0.7731706E-08  0.3943800E+04  0.7818609E-02  0.8015981E-01
        1   -1    0    0  501    0  0.00000000000E+00  0.00000000000E+00  0.27900834744E+04  0.27900834744E+04  0.50400001928E-02 0. -1.
       -1   -1    0    0    0  501  0.00000000000E+00  0.00000000000E+00 -0.13936463421E+04  0.13936463421E+04  0.50400001928E-02 0.  1.
    10030    2    1    2    0    0  0.00000000000E+00  0.00000000000E+00  0.13964371323E+04  0.41837298165E+04  0.39438000092E+04 0.  0.
        3    1    3    3  502    0 -0.18975317702E+03 -0.19610440760E+04  0.61145348276E+03  0.20629046289E+04  0.10100000352E+00 0. -1.
       -3    1    3    3    0  502  0.18975317702E+03  0.19610440760E+04  0.78498364954E+03  0.21208251876E+04  0.10100000352E+00 0.  1.
</event>
<event>
 5   0  0.2384787E-07  0.3893209E+04  0.7818609E-02  0.8026443E-01
       -2   -1    0    0    0  501  0.00000000000E+00  0.00000000000E+00  0.26852051753E+04  0.26852051753E+04  0.25500000920E-02 0.  1.
        2   -1    0    0  501    0  0.00000000000E+00  0.00000000000E+00 -0.14111656210E+04  0.14111656210E+04  0.25500000920E-02 0. -1.
    10030    2    1    2    0    0  0.00000000000E+00  0.00000000000E+00  0.12740395544E+04  0.40963707963E+04  0.38932090767E+04 0.  0.
        4    1    3    3  502    0  0.17557265305E+04  0.41893183911E+03 -0.12983953303E+03  0.18096793785E+04  0.12699999809E+01 0. -1.
       -4    1    3    3    0  502 -0.17557265305E+04 -0.41893183911E+03  0.14038790874E+04  0.22866914179E+04  0.12699999809E+01 0.  1.
</event>
<event>
 5   0  0.2446281E-07  0.3911514E+04  0.7818609E-02  0.8022639E-01
       -2   -1    0    0    0  501  0.00000000000E+00  0.00000000000E+00  0.18831592123E+04  0.18831592123E+04  0.25500000920E-02 0.  1.
        2   -1    0    0  501    0  0.00000000000E+00  0.00000000000E+00 -0.20311533519E+04  0.20311533519E+04  0.25500000920E-02 0. -1.
    10030    2    1    2    0    0  0.00000000000E+00  0.00000000000E+00 -0.14799413964E+03  0.39143125642E+04  0.39115138482E+04 0.  0.
        1    1    3    3  502    0 -0.16796134821E+04  0.58530988285E+03  0.73978588684E+03  0.19263883997E+04  0.50400001928E-02 0.  1.
       -1    1    3    3    0  502  0.16796134821E+04 -0.58530988285E+03 -0.88778002648E+03  0.19879241644E+04  0.50400001928E-02 0. -1.
</event>
<event>
 5   0  0.7731706E-08  0.3890540E+04  0.7818609E-02  0.8027000E-01
        1   -1    0    0  501    0  0.00000000000E+00  0.00000000000E+00  0.22949591633E+04  0.22949591633E+04  0.50400001928E-02 0. -1.
       -1   -1    0    0    0  501  0.00000000000E+00  0.00000000000E+00 -0.16488636436E+04  0.16488636436E+04  0.50400001928E-02 0.  1.
    10030    2    1    2    0    0  0.00000000000E+00  0.00000000000E+00  0.64609551971E+03  0.39438228069E+04  0.38905396685E+04 0.  0.
        3    1    3    3  502    0 -0.33873790627E+03  0.16161933524E+04 -0.71926120874E+03  0.18011554675E+04  0.10100000352E+00 0.  1.
       -3    1    3    3    0  502  0.33873790627E+03 -0.16161933524E+04  0.13653567285E+04  0.21426673395E+04  0.10100000352E+00 0. -1.
</event>
<event>
 5   0  0.7675750E-08  0.3724278E+04  0.7818609E-02  0.8062603E-01
        1   -1    0    0  501    0  0.00000000000E+00  0.00000000000E+00  0.26738432669E+04  0.26738432669E+04  0.50400001928E-02 0. -1.
       -1   -1    0    0    0  501  0.00000000000E+00  0.00000000000E+00 -0.12968456401E+04  0.12968456401E+04  0.50400001928E-02 0.  1.
    10030    2    1    2    0    0  0.00000000000E+00  0.00000000000E+00  0.13769976268E+04  0.39706889070E+04  0.37242781759E+04 0.  0.
        5    1    3    3  502    0 -0.38500359724E+03 -0.14127258617E+03  0.26250911986E+04  0.26569365074E+04  0.46999998093E+01 0. -1.
       -5    1    3    3    0  502  0.38500359724E+03  0.14127258617E+03 -0.12480935718E+04  0.13137523996E+04  0.46999998093E+01 0.  1.
</event>
<event>
 5   0  0.7731706E-08  0.3879709E+04  0.7818609E-02  0.8029263E-01
       -1   -1    0    0    0  501  0.00000000000E+00  0.00000000000E+00  0.21879369420E+04  0.21879369420E+04  0.50400001928E-02 0. -1.
        1   -1    0    0  501    0  0.00000000000E+00  0.00000000000E+00 -0.17199013689E+04  0.17199013689E+04  0.50400001928E-02 0.  1.
    10030    2    1    2    0    0  0.00000000000E+00  0.00000000000E+00  0.46803557310E+03  0.39078383109E+04  0.38797091343E+04 0.  0.
        3    1    3    3  502    0  0.12169293093E+04  0.13031946970E+04 -0.53559158153E+03  0.18617442667E+04  0.10100000352E+00 0.  1.
       -3    1    3    3    0  502 -0.12169293093E+04 -0.13031946970E+04  0.10036271546E+04  0.20460940442E+04  0.10100000352E+00 0. -1.
</event>
<event>
 5   0  0.7675750E-08  0.3911839E+04  0.7818609E-02  0.8022571E-01
        3   -1    0    0  501    0  0.00000000000E+00  0.00000000000E+00  0.16422006706E+04  0.16422006737E+04  0.10100000352E+00 0. -1.
       -3   -1    0    0    0  501  0.00000000000E+00  0.00000000000E+00 -0.23295699760E+04  0.23295699782E+04  0.10100000352E+00 0.  1.
    10030    2    1    2    0    0  0.00000000000E+00  0.00000000000E+00 -0.68736930545E+03  0.39717706518E+04  0.39118391517E+04 0.  0.
        5    1    3    3  502    0 -0.10166102476E+04  0.14357714154E+03  0.13465994788E+04  0.16933585082E+04  0.46999998093E+01 0. -1.
       -5    1    3    3    0  502  0.10166102476E+04 -0.14357714154E+03 -0.20339687842E+04  0.22784121436E+04  0.46999998093E+01 0.  1.
</event>
<event>
 5   0  0.2473224E-07  0.3898436E+04  0.7818609E-02  0.8025354E-01
        2   -1    0    0  501    0  0.00000000000E+00  0.00000000000E+00  0.31681257128E+04  0.31681257128E+04  0.25500000920E-02 0.  1.
       -2   -1    0    0    0  501  0.00000000000E+00  0.00000000000E+00 -0.11992742372E+04  0.11992742372E+04  0.25500000920E-02 0. -1.
    10030    2    1    2    0    0  0.00000000000E+00  0.00000000000E+00  0.19688514756E+04  0.43673999500E+04  0.38984363776E+04 0.  0.
        2    1    3    3  502    0 -0.33938141040E+02 -0.24436642048E+03 -0.11817123162E+04  0.12071912621E+04  0.25500000920E-02 0. -1.
       -2    1    3    3    0  502  0.33938141040E+02  0.24436642048E+03  0.31505637918E+04  0.31602086879E+04  0.25500000920E-02 0.  1.
</event>
<event>
 5   0  0.7731706E-08  0.3213300E+04  0.7818609E-02  0.8185313E-01
        1   -1    0    0  501    0  0.00000000000E+00  0.00000000000E+00  0.17785063085E+04  0.17785063085E+04  0.50400001928E-02 0.  1.
       -1   -1    0    0    0  501  0.00000000000E+00  0.00000000000E+00 -0.14514004533E+04  0.14514004533E+04  0.50400001928E-02 0. -1.
    10030    2    1    2    0    0  0.00000000000E+00  0.00000000000E+00  0.32710585521E+03  0.32299067617E+04  0.32133003982E+04 0.  0.
        3    1    3    3  502    0  0.11349940815E+04 -0.42312240788E+03 -0.89740212669E+03  0.15075061274E+04  0.10100000352E+00 0. -1.
       -3    1    3    3    0  502 -0.11349940815E+04  0.42312240788E+03  0.12245079819E+04  0.17224006343E+04  0.10100000352E+00 0.  1.
</event>
<event>
 5   0  0.2446281E-07  0.3918635E+04  0.7818609E-02  0.8021165E-01
        2   -1    0    0  501    0  0.00000000000E+00  0.00000000000E+00  0.14602350918E+04  0.14602350918E+04  0.25500000920E-02 0.  1.
       -2   -1    0    0    0  501  0.00000000000E+00  0.00000000000E+00 -0.26289770109E+04  0.26289770109E+04  0.25500000920E-02 0. -1.
    10030    2    1    2    0    0  0.00000000000E+00  0.00000000000E+00 -0.11687419191E+04  0.40892121026E+04  0.39186347044E+04 0.  0.
        1    1    3    3  502    0 -0.13449003390E+04 -0.11030534645E+04 -0.15255403293E+04  0.23136026374E+04  0.50400001928E-02 0.  1.
       -1    1    3    3    0  502  0.13449003390E+04  0.11030534645E+04  0.35679841017E+03  0.17756094652E+04  0.50400001928E-02 0. -1.
</event>
<event>
 5   0  0.2384787E-07  0.4078469E+04  0.7818609E-02  0.7988901E-01
        2   -1    0    0  501    0  0.00000000000E+00  0.00000000000E+00  0.17863662983E+04  0.17863662983E+04  0.25500000920E-02 0.  1.
       -2   -1    0    0    0  501  0.00000000000E+00  0.00000000000E+00 -0.23278975222E+04  0.23278975222E+04  0.25500000920E-02 0. -1.
    10030    2    1    2    0    0  0.00000000000E+00  0.00000000000E+00 -0.54153122392E+03  0.41142638205E+04  0.40784691635E+04 0.  0.
        4    1    3    3  502    0 -0.14128598501E+04 -0.19303030673E+03 -0.17413120876E+04  0.22506894621E+04  0.12699999809E+01 0. -1.
       -4    1    3    3    0  502  0.14128598501E+04  0.19303030673E+03  0.11997808637E+04  0.18635743584E+04  0.12699999809E+01 0.  1.
</event>
<event>
 5   0  0.7675750E-08  0.3849224E+04  0.7818609E-02  0.8035673E-01
        1   -1    0    0  501    0  0.00000000000E+00  0.00000000000E+00  0.22951417071E+04  0.22951417071E+04  0.50400001928E-02 0.  1.
       -1   -1    0    0    0  501  0.00000000000E+00  0.00000000000E+00 -0.16139005512E+04  0.16139005512E+04  0.50400001928E-02 0. -1.
    10030    2    1    2    0    0  0.00000000000E+00  0.00000000000E+00  0.68124115594E+03  0.39090422584E+04  0.38492235405E+04 0.  0.
        5    1    3    3  502    0 -0.12759172742E+03 -0.83175668254E+03  0.20984180227E+04  0.22608580486E+04  0.46999998093E+01 0.  1.
       -5    1    3    3    0  502  0.12759172742E+03  0.83175668254E+03 -0.14171768667E+04  0.16481842098E+04  0.46999998093E+01 0. -1.
</event>
<event>
 5   0  0.2395572E-07  0.3951815E+04  0.7818609E-02  0.8014338E-01
       -2   -1    0    0    0  501  0.00000000000E+00  0.00000000000E+00  0.15113259637E+04  0.15113259637E+04  0.25500000920E-02 0.  1.
        2   -1    0    0  501    0  0.00000000000E+00  0.00000000000E+00 -0.25833017355E+04  0.25833017355E+04  0.25500000920E-02 0. -1.
    10030    2    1    2    0    0  0.00000000000E+00  0.00000000000E+00 -0.10719757718E+04  0.40946276992E+04  0.39518152715E+04 0.  0.
        3    1    3    3  502    0  0.44119628796E+03 -0.13683678912E+04 -0.19403764079E+04  0.24149835330E+04  0.10100000352E+00 0. -1.
       -3    1    3    3    0  502 -0.44119628796E+03  0.13683678912E+04  0.86840063613E+03  0.16796441662E+04  0.10100000352E+00 0.  1.
</event>
<event>
 5   0  0.2395572E-07  0.3949933E+04  0.7818609E-02  0.8014724E-01
        2   -1    0    0  501    0  0.00000000000E+00  0.00000000000E+00  0.17712942167E+04  0.17712942167E+04  0.25500000920E-02 0. -1.
       -2   -1    0    0    0  501  0.00000000000E+00  0.00000000000E+00 -0.22020579764E+04  0.22020579764E+04  0.25500000920E-02 0.  1.
    10030    2    1    2    0    0  0.00000000000E+00  0.00000000000E+00 -0.43076375969E+03  0.39733521931E+04  0.39499329404E+04 0.  0.
        3    1    3    3  502    0 -0.72567260001E+03 -0.17068934578E+04 -0.89793756144E+03  0.20606741308E+04  0.10100000352E+00 0.  1.
       -3    1    3    3    0  502  0.72567260001E+03  0.17068934578E+04  0.46717380175E+03  0.19126780623E+04  0.10100000352E+00 0. -1.
</event>
<event>
 5   0  0.7675750E-08  0.3719579E+04  0.7818609E-02  0.8063637E-01
       -1   -1    0    0    0  501  0.00000000000E+00  0.00000000000E+00  0.20380113275E+04  0.20380113275E+04  0.50400001928E-02 0.  1.
        1   -1    0    0  501    0  0.00000000000E+00  0.00000000000E+00 -0.16971533056E+04  0.16971533056E+04  0.50400001928E-02 0. -1.
    10030    2    1    2    0    0  0.00000000000E+00  0.00000000000E+00  0.34085802186E+03  0.37351646331E+04  0.37195793640E+04 0.  0.
        2    1    3    3  502    0 -0.58486117164E+02  0.11115836130E+04  0.16665639989E+04  0.20041143473E+04  0.25500000920E-02 0.  1.
       -2    1    3    3    0  502  0.58486117164E+02 -0.11115836130E+04 -0.13257059770E+04  0.17310502858E+04  0.25500000920E-02 0. -1.
</event>
<event>
 5   0  0.7675750E-08  0.3269990E+04  0.7818609E-02  0.8170574E-01
        1   -1    0    0  501    0  0.00000000000E+00  0.00000000000E+00  0.25181579564E+04  0.25181579564E+04  0.50400001928E-02 0.  1.
       -1   -1    0    0    0  501  0.00000000000E+00  0.00000000000E+00 -0.10615732489E+04  0.10615732489E+04  0.50400001928E-02 0. -1.
    10030    2    1    2    0    0  0.00000000000E+00  0.00000000000E+00  0.14565847075E+04  0.35797312053E+04  0.32699902892E+04 0.  0.
        5    1    3    3  502    0 -0.11264440256E+04 -0.31998748636E+03 -0.52080394147E+03  0.12816110836E+04  0.46999998093E+01 0. -1.
       -5    1    3    3    0  502  0.11264440256E+04  0.31998748636E+03  0.19773886490E+04  0.22981201216E+04  0.46999998093E+01 0.  1.
</event>
<event>
 5   0  0.7675750E-08  0.3913903E+04  0.7818609E-02  0.8022144E-01
       -1   -1    0    0    0  501  0.00000000000E+00  0.00000000000E+00  0.27213819221E+04  0.27213819222E+04  0.50400001928E-02 0.  1.
        1   -1    0    0  501    0  0.00000000000E+00  0.00000000000E+00 -0.14072478539E+04  0.14072478539E+04  0.50400001928E-02 0. -1.
    10030    2    1    2    0    0  0.00000000000E+00  0.00000000000E+00  0.13141340683E+04  0.41286297760E+04  0.39139028447E+04 0.  0.
        1    1    3    3  502    0  0.92645458813E+03  0.35103061454E+02 -0.11608834907E+04  0.14856651062E+04  0.50400001928E-02 0. -1.
       -1    1    3    3    0  502 -0.92645458813E+03 -0.35103061454E+02  0.24750175590E+04  0.26429646698E+04  0.50400001928E-02 0.  1.
</event>
<event>
 5   0  0.2486268E-07  0.3882416E+04  0.7818609E-02  0.8028696E-01
        2   -1    0    0  501    0  0.00000000000E+00  0.00000000000E+00  0.21705024951E+04  0.21705024951E+04  0.25500000920E-02 0. -1.
       -2   -1    0    0    0  501  0.00000000000E+00  0.00000000000E+00 -0.17361360629E+04  0.17361360629E+04  0.25500000920E-02 0.  1.
    10030    2    1    2    0    0  0.00000000000E+00  0.00000000000E+00  0.43436643213E+03  0.39066385580E+04  0.38824155658E+04 0.  0.
        5    1    3    3  502    0 -0.16207261291E+03  0.15495092094E+04 -0.94806572736E+03  0.18237590398E+04  0.46999998093E+01 0.  1.
       -5    1    3    3    0  502  0.16207261291E+03 -0.15495092094E+04  0.13824321595E+04  0.20828795182E+04  0.46999998093E+01 0. -1.
</event>
<event>
 5   0  0.2395572E-07  0.3827113E+04  0.7818609E-02  0.8040361E-01
       -2   -1    0    0    0  501  0.00000000000E+00  0.00000000000E+00  0.19036093805E+04  0.19036093805E+04  0.25500000920E-02 0.  1.
        2   -1    0    0  501    0  0.00000000000E+00  0.00000000000E+00 -0.19235555856E+04  0.19235555856E+04  0.25500000920E-02 0. -1.
    10030    2    1    2    0    0  0.00000000000E+00  0.00000000000E+00 -0.19946205104E+02  0.38271649661E+04  0.38271129885E+04 0.  0.
        3    1    3    3  502    0  0.17744162980E+04  0.68723799774E+03 -0.21208765452E+03  0.19146358524E+04  0.10100000352E+00 0. -1.
       -3    1    3    3    0  502 -0.17744162980E+04 -0.68723799774E+03  0.19214144941E+03  0.19125291137E+04  0.10100000352E+00 0.  1.
</event>
<event>
 5   0  0.2384787E-07  0.3910776E+04  0.7818609E-02  0.8022792E-01
       -2   -1    0    0    0  501  0.00000000000E+00  0.00000000000E+00  0.20560743596E+04  0.20560743596E+04  0.25500000920E-02 0.  1.
        2   -1    0    0  501    0  0.00000000000E+00  0.00000000000E+00 -0.18596320736E+04  0.18596320736E+04  0.25500000920E-02 0. -1.
    10030    2    1    2    0    0  0.00000000000E+00  0.00000000000E+00  0.19644228597E+03  0.39157064332E+04  0.39107757925E+04 0.  0.
        4    1    3    3  502    0 -0.17077085982E+03 -0.75206900019E+03  0.18973643931E+04  0.20481122334E+04  0.12699999809E+01 0.  1.
       -4    1    3    3    0  502  0.17077085982E+03  0.75206900019E+03 -0.17009221071E+04  0.18675941998E+04  0.12699999809E+01 0. -1.
</event>
<event>
 5   0  0.2395572E-07  0.3908141E+04  0.7818609E-02  0.8023338E-01
        2   -1    0    0  501    0  0.00000000000E+00  0.00000000000E+00  0.13842445437E+04  0.13842445437E+04  0.25500000920E-02 0. -1.
       -2   -1    0    0    0  501  0.00000000000E+00  0.00000000000E+00 -0.27584663883E+04  0.27584663883E+04  0.25500000920E-02 0.  1.
    10030    2    1    2    0    0  0.00000000000E+00  0.00000000000E+00 -0.13742218447E+04  0.41427109320E+04  0.39081412702E+04 0.  0.
        3    1    3    3  502    0 -0.10943215533E+04 -0.16034267439E+04 -0.92384242493E+03  0.21498841414E+04  0.10100000352E+00 0. -1.
       -3    1    3    3    0  502  0.10943215533E+04  0.16034267439E+04 -0.45037941972E+03  0.19928267906E+04  0.10100000352E+00 0.  1.
</event>
<event>
 5   0  0.7675750E-08  0.3818515E+04  0.7818609E-02  0.8042193E-01
       -1   -1    0    0    0  501  0.00000000000E+00  0.00000000000E+00  0.19034247324E+04  0.19034247324E+04  0.50400001928E-02 0.  1.
        1   -1    0    0  501    0  0.00000000000E+00  0.00000000000E+00 -0.19151076857E+04  0.19151076857E+04  0.50400001928E-02 0. -1.
    10030    2    1    2    0    0  0.00000000000E+00  0.00000000000E+00 -0.11682953339E+02  0.38185324181E+04  0.38185145458E+04 0.  0.
        5    1    3    3  502    0  0.35285329297E+03  0.75497320929E+03 -0.17236246040E+04  0.19145218355E+04  0.46999998093E+01 0. -1.
       -5    1    3    3    0  502 -0.35285329297E+03 -0.75497320929E+03  0.17119416507E+04  0.19040105826E+04  0.46999998093E+01 0.  1.
</event>
<event>
 5   0  0.7675750E-08  0.3912900E+04  0.7818609E-02  0.8022352E-01
       -1   -1    0    0    0  501  0.00000000000E+00  0.00000000000E+00  0.11948810967E+04  0.11948810967E+04  0.50400001928E-02 0. -1.
        1   -1    0    0  501    0  0.00000000000E+00  0.00000000000E+00 -0.32034118590E+04  0.32034118590E+04  0.50400001928E-02 0.  1.
    10030    2    1    2    0    0  0.00000000000E+00  0.00000000000E+00 -0.20085307624E+04  0.43982929557E+04  0.39128998327E+04 0.  0.
        4    1    3    3  502    0  0.12724200744E+04 -0.11697211322E+04  0.26184726153E+02  0.17285796556E+04  0.12699999809E+01 0. -1.
       -4    1    3    3    0  502 -0.12724200744E+04  0.11697211322E+04 -0.20347154885E+04  0.26697133002E+04  0.12699999809E+01 0.  1.
</event>
<event>
 5   0  0.7675750E-08  0.3873015E+04  0.7818609E-02  0.8030665E-01
       -1   -1    0    0    0  501  0.00000000000E+00  0.00000000000E+00  0.25783624792E+04  0.25783624792E+04  0.50400001928E-02 0. -1.
        1   -1    0    0  501    0  0.00000000000E+00  0.00000000000E+00 -0.14544350415E+04  0.14544350416E+04  0.50400001928E-02 0.  1.
    10030    2    1    2    0    0  0.00000000000E+00  0.00000000000E+00  0.11239274377E+04  0.40327975208E+04  0.38730147119E+04 0.  0.
        5    1    3    3  502    0 -0.45203627282E+03 -0.15988554666E+04 -0.47373899701E+03  0.17277518116E+04  0.46999998093E+01 0.  1.
       -5    1    3    3    0  502  0.45203627282E+03  0.15988554666E+04  0.15976664347E+04  0.23050457092E+04  0.46999998093E+01 0. -1.
</event>
<event>
 5   0  0.7675750E-08  0.3904954E+04  0.7818609E-02  0.8024000E-01
        1   -1    0    0  501    0  0.00000000000E+00  0.00000000000E+00  0.23351501089E+04  0.23351501089E+04  0.50400001928E-02 0. -1.
       -1   -1    0    0    0  501  0.00000000000E+00  0.00000000000E+00 -0.16325147782E+04  0.16325147782E+04  0.50400001928E-02 0.  1.
    10030    2    1    2    0    0  0.00000000000E+00  0.00000000000E+00  0.70263533070E+03  0.39676648870E+04  0.39049543209E+04 0.  0.
        4    1    3    3  502    0 -0.11275740273E+04 -0.99189356342E+03  0.16191093820E+04  0.22083461758E+04  0.12699999809E+01 0. -1.
       -4    1    3    3    0  502  0.11275740273E+04  0.99189356342E+03 -0.91647405128E+03  0.17593187113E+04  0.12699999809E+01 0.  1.
</event>
<event>
 5   0  0.2395572E-07  0.3221344E+04  0.7818609E-02  0.8183203E-01
       -2   -1    0    0    0  501  0.00000000000E+00  0.00000000000E+00  0.91263144331E+03  0.91263144332E+03  0.25500000920E-02 0.  1.
        2   -1    0    0  501    0  0.00000000000E+00  0.00000000000E+00 -0.28426196585E+04  0.28426196585E+04  0.25500000920E-02 0. -1.
    10030    2    1    2    0    0  0.00000000000E+00  0.00000000000E+00 -0.19299882152E+04  0.37552511018E+04  0.32213438697E+04 0.  0.
        3    1    3    3  502    0 -0.66328585187E+02  0.15731261087E+04 -0.56943370212E+03  0.16743297126E+04  0.10100000352E+00 0. -1.
       -3    1    3    3    0  502  0.66328585187E+02 -0.15731261087E+04 -0.13605545131E+04  0.20809213893E+04  0.10100000352E+00 0.  1.
</event>
<event>
 5   0  0.7731706E-08  0.3742778E+04  0.7818609E-02  0.8058547E-01
       -1   -1    0    0    0  501  0.00000000000E+00  0.00000000000E+00  0.14353543390E+04  0.14353543390E+04  0.50400001928E-02 0.  1.
        1   -1    0    0  501    0  0.00000000000E+00  0.00000000000E+00 -0.24398825650E+04  0.24398825651E+04  0.50400001928E-02 0. -1.
    10030    2    1    2    0    0  0.00000000000E+00  0.00000000000E+00 -0.10045282261E+04  0.38752369040E+04  0.37427775923E+04 0.  0.
        3    1    3    3  502    0  0.90175499681E+03  0.10454946232E+04  0.80572359708E+03  0.15985654840E+04  0.10100000352E+00 0. -1.
       -3    1    3    3    0  502 -0.90175499681E+03 -0.10454946232E+04 -0.18102518232E+04  0.22766714201E+04  0.10100000352E+00 0.  1.
</event>
<event>
 5   0  0.2486268E-07  0.3901693E+04  0.7818609E-02  0.8024677E-01
       -2   -1    0    0    0  501  0.00000000000E+00  0.00000000000E+00  0.17766411794E+04  0.17766411794E+04  0.25500000920E-02 0.  1.
        2   -1    0    0  501    0  0.00000000000E+00  0.00000000000E+00 -0.21421336917E+04  0.21421336917E+04  0.25500000920E-02 0. -1.
    10030    2    1    2    0    0  0.00000000000E+00  0.00000000000E+00 -0.36549251229E+03  0.39187748710E+04  0.39016934417E+04 0.  0.
        5    1    3    3  502    0 -0.36032693339E+03 -0.17504356332E+04  0.60293184537E+03  0.18861095687E+04  0.46999998093E+01 0.  1.
       -5    1    3    3    0  502  0.36032693339E+03  0.17504356332E+04 -0.96842435766E+03  0.20326653024E+04  0.46999998093E+01 0. -1.
</event>
<event>
 5   0  0.2395572E-07  0.3924692E+04  0.7818609E-02  0.8019913E-01
        2   -1    0    0  501    0  0.00000000000E+00  0.00000000000E+00  0.14874106792E+04  0.14874106792E+04  0.25500000920E-02 0.  1.
       -2   -1    0    0    0  501  0.00000000000E+00  0.00000000000E+00 -0.25889304199E+04  0.25889304199E+04  0.25500000920E-02 0. -1.
    10030    2    1    2    0    0  0.00000000000E+00  0.00000000000E+00 -0.11015197407E+04  0.40763410991E+04  0.39246924742E+04 0.  0.
        3    1    3    3  502    0 -0.16347503591E+04 -0.16890733206E+03 -0.16645110686E+04  0.23391313625E+04  0.10100000352E+00 0. -1.
       -3    1    3    3    0  502  0.16347503591E+04  0.16890733206E+03  0.56299132791E+03  0.17372097366E+04  0.10100000352E+00 0.  1.
</event>
<event>
 5   0  0.7731706E-08  0.3231897E+04  0.7818609E-02  0.8180444E-01
        1   -1    0    0  501    0  0.00000000000E+00  0.00000000000E+00  0.22847208679E+04  0.22847208679E+04  0.50400001928E-02 0. -1.
       -1   -1    0    0    0  501  0.00000000000E+00  0.00000000000E+00 -0.11429361865E+04  0.11429361865E+04  0.50400001928E-02 0.  1.
    10030    2    1    2    0    0  0.00000000000E+00  0.00000000000E+00  0.11417846814E+04  0.34276570545E+04  0.32318973722E+04 0.  0.
        3    1    3    3  502    0  0.77034998168E+03  0.60579757391E+03 -0.79179107460E+03  0.12599059135E+04  0.10100000352E+00 0.  1.
       -3    1    3    3    0  502 -0.77034998168E+03 -0.60579757391E+03  0.19335757560E+04  0.21677511410E+04  0.10100000352E+00 0. -1.
</event>
<event>
 5   0  0.2384787E-07  0.3908039E+04  0.7818609E-02  0.8023359E-01
        2   -1    0    0  501    0  0.00000000000E+00  0.00000000000E+00  0.18720962837E+04  0.18720962837E+04  0.25500000920E-02 0. -1.
       -2   -1    0    0    0  501  0.00000000000E+00  0.00000000000E+00 -0.20395272218E+04  0.20395272218E+04  0.25500000920E-02 0.  1.
    10030    2    1    2    0    0  0.00000000000E+00  0.00000000000E+00 -0.16743093805E+03  0.39116235055E+04  0.39080385527E+04 0.  0.
        4    1    3    3  502    0 -0.13781921806E+04  0.25794795783E+02 -0.14699446522E+04  0.20151471290E+04  0.12699999809E+01 0.  1.
       -4    1    3    3    0  502  0.13781921806E+04 -0.25794795783E+02  0.13025137141E+04  0.18964763765E+04  0.12699999809E+01 0. -1.
</event>
<event>
 5   0  0.2486268E-07  0.3968700E+04  0.7818609E-02  0.8010891E-01
       -2   -1    0    0    0  501  0.00000000000E+00  0.00000000000E+00  0.23983685407E+04  0.23983685407E+04  0.25500000920E-02 0. -1.
        2   -1    0    0  501    0  0.00000000000E+00  0.00000000000E+00 -0.16418015754E+04  0.16418015754E+04  0.25500000920E-02 0.  1.
    10030    2    1    2    0    0  0.00000000000E+00  0.00000000000E+00  0.75656696532E+03  0.40401701161E+04  0.39687001643E+04 0.  0.
        5    1    3    3  502    0  0.19493176858E+04  0.16568244894E+03  0.71642941242E+03  0.20834066590E+04  0.46999998093E+01 0.  1.
       -5    1    3    3    0  502 -0.19493176858E+04 -0.16568244894E+03  0.40137552900E+02  0.19567634571E+04  0.46999998093E+01 0. -1.
</event>
<event>
 5   0  0.7675750E-08  0.3876360E+04  0.7818609E-02  0.8029964E-01
        1   -1    0    0  501    0  0.00000000000E+00  0.00000000000E+00  0.30601200543E+04  0.30601200543E+04  0.50400001928E-02 0.  1.
       -1   -1    0    0    0  501  0.00000000000E+00  0.00000000000E+00 -0.12275799521E+04  0.12275799521E+04  0.50400001928E-02 0. -1.
    10030    2    1    2    0    0  0.00000000000E+00  0.00000000000E+00  0.18325401022E+04  0.42877000064E+04  0.38763601637E+04 0.  0.
        2    1    3    3  502    0  0.10594527675E+04  0.88119848008E+03 -0.59129246658E+03  0.14995258280E+04  0.25500000920E-02 0. -1.
       -2    1    3    3    0  502 -0.10594527675E+04 -0.88119848008E+03  0.24238325688E+04  0.27881741785E+04  0.25500000920E-02 0.  1.
</event>
<event>
 5   0  0.7675750E-08  0.3859075E+04  0.7818609E-02  0.8033595E-01
        1   -1    0    0  501    0  0.00000000000E+00  0.00000000000E+00  0.25748510406E+04  0.25748510406E+04  0.50400001928E-02 0.  1.
       -1   -1    0    0    0  501  0.00000000000E+00  0.00000000000E+00 -0.14459532099E+04  0.14459532099E+04  0.50400001928E-02 0. -1.
    10030    2    1    2    0    0  0.00000000000E+00  0.00000000000E+00  0.11288978307E+04  0.40208042506E+04  0.38590745664E+04 0.  0.
        4    1    3    3  502    0 -0.43182597066E+03 -0.18952324836E+03 -0.13849846280E+04  0.14630710042E+04  0.12699999809E+01 0. -1.
       -4    1    3    3    0  502  0.43182597066E+03  0.18952324836E+03  0.25138824587E+04  0.25577332464E+04  0.12699999809E+01 0.  1.
</event>
<event>
 5   0  0.7731706E-08  0.3846047E+04  0.7818609E-02  0.8036345E-01
       -1   -1    0    0    0  501  0.00000000000E+00  0.00000000000E+00  0.17220495396E+04  0.17220495396E+04  0.50400001928E-02 0.  1.
        1   -1    0    0  501    0  0.00000000000E+00  0.00000000000E+00 -0.21474518954E+04  0.21474518954E+04  0.50400001928E-02 0. -1.
    10030    2    1    2    0    0  0.00000000000E+00  0.00000000000E+00 -0.42540235575E+03  0.38695014350E+04  0.38460465664E+04 0.  0.
        3    1    3    3  502    0  0.22436229031E+03  0.14457745502E+04 -0.14682765742E+04  0.20727852267E+04  0.10100000352E+00 0. -1.
       -3    1    3    3    0  502 -0.22436229031E+03 -0.14457745502E+04  0.10428742185E+04  0.17967162083E+04  0.10100000352E+00 0.  1.
</event>
<event>
 5   0  0.7675750E-08  0.3854877E+04  0.7818609E-02  0.8034480E-01
        1   -1    0    0  501    0  0.00000000000E+00  0.00000000000E+00  0.21885080597E+04  0.21885080597E+04  0.50400001928E-02 0. -1.
       -1   -1    0    0    0  501  0.00000000000E+00  0.00000000000E+00 -0.16975119599E+04  0.16975119599E+04  0.50400001928E-02 0.  1.
    10030    2    1    2    0    0  0.00000000000E+00  0.00000000000E+00  0.49099609981E+03  0.38860200196E+04  0.38548767066E+04 0.  0.
        5    1    3    3  502    0  0.45346451868E+03  0.16991935974E+04  0.10406081725E+04  0.20434716562E+04  0.46999998093E+01 0. -1.
       -5    1    3    3    0  502 -0.45346451868E+03 -0.16991935974E+04 -0.54961207269E+03  0.18425483634E+04  0.46999998093E+01 0.  1.
</event>
<event>
 5   0  0.2446281E-07  0.3869079E+04  0.7818609E-02  0.8031491E-01
       -2   -1    0    0    0  501  0.00000000000E+00  0.00000000000E+00  0.28280971600E+04  0.28280971600E+04  0.25500000920E-02 0.  1.
        2   -1    0    0  501    0  0.00000000000E+00  0.00000000000E+00 -0.13233075307E+04  0.13233075307E+04  0.25500000920E-02 0. -1.
    10030    2    1    2    0    0  0.00000000000E+00  0.00000000000E+00  0.15047896293E+04  0.41514046907E+04  0.38690785826E+04 0.  0.
        1    1    3    3  502    0  0.16542302874E+04  0.77845723283E+03  0.14309740380E+04  0.23216718555E+04  0.50400001928E-02 0. -1.
       -1    1    3    3    0  502 -0.16542302874E+04 -0.77845723283E+03  0.73815591282E+02  0.18297328353E+04  0.50400001928E-02 0.  1.
</event>
<event>
 5   0  0.7675750E-08  0.3919653E+04  0.7818609E-02  0.8020954E-01
       -1   -1    0    0    0  501  0.00000000000E+00  0.00000000000E+00  0.12588880236E+04  0.12588880236E+04  0.50400001928E-02 0. -1.
        1   -1    0    0  501    0  0.00000000000E+00  0.00000000000E+00 -0.30510417522E+04  0.30510417522E+04  0.50400001928E-02 0.  1.
    10030    2    1    2    0    0  0.00000000000E+00  0.00000000000E+00 -0.17921537286E+04  0.43099297757E+04  0.39196530057E+04 0.  0.
        1    1    3    3  502    0 -0.17119266313E+04  0.69377538084E+03 -0.17596156379E+03  0.18555267559E+04  0.50400001928E-02 0. -1.
       -1    1    3    3    0  502  0.17119266313E+04 -0.69377538084E+03 -0.16161921648E+04  0.24544030198E+04  0.50400001928E-02 0.  1.
</event>
<event>
 5   0  0.2446281E-07  0.3958895E+04  0.7818609E-02  0.8012891E-01
        2   -1    0    0  501    0  0.00000000000E+00  0.00000000000E+00  0.31528734712E+04  0.31528734712E+04  0.25500000920E-02 0. -1.
       -2   -1    0    0    0  501  0.00000000000E+00  0.00000000000E+00 -0.12427430577E+04  0.12427430577E+04  0.25500000920E-02 0.  1.
    10030    2    1    2    0    0  0.00000000000E+00  0.00000000000E+00  0.19101304135E+04  0.43956165288E+04  0.39588946023E+04 0.  0.
        1    1    3    3  502    0 -0.14293217525E+04 -0.13434495241E+04  0.66047746320E+03  0.20697941384E+04  0.50400001928E-02 0.  1.
       -1    1    3    3    0  502  0.14293217525E+04  0.13434495241E+04  0.12496529503E+04  0.23258223905E+04  0.50400001928E-02 0. -1.
</event>
<event>
 5   0  0.7731706E-08  0.3874847E+04  0.7818609E-02  0.8030281E-01
        1   -1    0    0  501    0  0.00000000000E+00  0.00000000000E+00  0.14807658722E+04  0.14807658722E+04  0.50400001928E-02 0. -1.
       -1   -1    0    0    0  501  0.00000000000E+00  0.00000000000E+00 -0.25349108772E+04  0.25349108772E+04  0.50400001928E-02 0.  1.
    10030    2    1    2    0    0  0.00000000000E+00  0.00000000000E+00 -0.10541450050E+04  0.40156767494E+04  0.38748468439E+04 0.  0.
        3    1    3    3  502    0 -0.10882374657E+04 -0.41492949989E+03  0.10774829472E+04  0.15866306386E+04  0.10100000352E+00 0. -1.
       -3    1    3    3    0  502  0.10882374657E+04  0.41492949989E+03 -0.21316279521E+04  0.24290461108E+04  0.10100000352E+00 0.  1.
</event>
<event>
 5   0  0.7675750E-08  0.3903895E+04  0.7818609E-02  0.8024220E-01
       -1   -1    0    0    0  501  0.00000000000E+00  0.00000000000E+00  0.14594186726E+04  0.14594186726E+04  0.50400001928E-02 0.  1.
        1   -1    0    0  501    0  0.00000000000E+00  0.00000000000E+00 -0.26106962134E+04  0.26106962134E+04  0.50400001928E-02 0. -1.
    10030    2    1    2    0    0  0.00000000000E+00  0.00000000000E+00 -0.11512775408E+04  0.40701148860E+04  0.39038948768E+04 0.  0.
        2    1    3    3  502    0 -0.10310818313E+03 -0.47912537962E+03  0.13942285107E+04  0.14778584394E+04  0.25500000920E-02 0.  1.
       -2    1    3    3    0  502  0.10310818313E+03  0.47912537962E+03 -0.25455060515E+04  0.25922564466E+04  0.25500000920E-02 0. -1.
</event>
<event>
 5   0  0.7675750E-08  0.3850303E+04  0.7818609E-02  0.8035445E-01
        3   -1    0    0  501    0  0.00000000000E+00  0.00000000000E+00  0.12470908015E+04  0.12470908056E+04  0.10100000352E+00 0. -1.
       -3   -1    0    0    0  501  0.00000000000E+00  0.00000000000E+00 -0.29718832858E+04  0.29718832876E+04  0.10100000352E+00 0.  1.
    10030    2    1    2    0    0  0.00000000000E+00  0.00000000000E+00 -0.17247924843E+04  0.42189740932E+04  0.38503030121E+04 0.  0.
        4    1    3    3  502    0  0.11864301121E+04  0.12292450119E+04 -0.18348079738E+04  0.25070264506E+04  0.12699999809E+01 0. -1.
       -4    1    3    3    0  502 -0.11864301121E+04 -0.12292450119E+04  0.11001548944E+03  0.17119476426E+04  0.12699999809E+01 0.  1.
</event>
<event>
 5   0  0.2486268E-07  0.3841150E+04  0.7818609E-02  0.8037381E-01
        2   -1    0    0  501    0  0.00000000000E+00  0.00000000000E+00  0.21917606287E+04  0.21917606287E+04  0.25500000920E-02 0. -1.
       -2   -1    0    0    0  501  0.00000000000E+00  0.00000000000E+00 -0.16829433235E+04  0.16829433235E+04  0.25500000920E-02 0.  1.
    10030    2    1    2    0    0  0.00000000000E+00  0.00000000000E+00  0.50881730520E+03  0.38747039523E+04  0.38411503053E+04 0.  0.
        5    1    3    3  502    0  0.42245432159E+03 -0.14193141604E+04 -0.97924885343E+03  0.17753508799E+04  0.46999998093E+01 0.  1.
       -5    1    3    3    0  502 -0.42245432159E+03  0.14193141604E+04  0.14880661586E+04  0.20993530723E+04  0.46999998093E+01 0. -1.
</event>
<event>
 5   0  0.2486268E-07  0.3354276E+04  0.7818609E-02  0.8149221E-01
       -2   -1    0    0    0  501  0.00000000000E+00  0.00000000000E+00  0.19729705045E+04  0.19729705045E+04  0.25500000920E-02 0. -1.
        2   -1    0    0  501    0  0.00000000000E+00  0.00000000000E+00 -0.14256629920E+04  0.14256629920E+04  0.25500000920E-02 0.  1.
    10030    2    1    2    0    0  0.00000000000E+00  0.00000000000E+00  0.54730751246E+03  0.33986334965E+04  0.33542755001E+04 0.  0.
        5    1    3    3  502    0  0.71620795524E+03  0.60469982502E+03  0.16827836943E+04  0.19262395400E+04  0.46999998093E+01 0. -1.
       -5    1    3    3    0  502 -0.71620795524E+03 -0.60469982502E+03 -0.11354761819E+04  0.14723939565E+04  0.46999998093E+01 0.  1.
</event>
<event>
 5   0  0.2486268E-07  0.3884957E+04  0.7818609E-02  0.8028165E-01
       -2   -1    0    0    0  501  0.00000000000E+00  0.00000000000E+00  0.15461933833E+04  0.15461933833E+04  0.25500000920E-02 0.  1.
        2   -1    0    0  501    0  0.00000000000E+00  0.00000000000E+00 -0.24403299335E+04  0.24403299335E+04  0.25500000920E-02 0. -1.
    10030    2    1    2    0    0  0.00000000000E+00  0.00000000000E+00 -0.89413655020E+03  0.39865233168E+04  0.38849566259E+04 0.  0.
        5    1    3    3  502    0  0.94847611350E+03  0.13468032115E+04  0.60926871063E+03  0.17563360385E+04  0.46999998093E+01 0.  1.
       -5    1    3    3    0  502 -0.94847611350E+03 -0.13468032115E+04 -0.15034052608E+04  0.22301872784E+04  0.46999998093E+01 0. -1.
</event>
<event>
 5   0  0.7675750E-08  0.3932648E+04  0.7818609E-02  0.8018273E-01
        1   -1    0    0  501    0  0.00000000000E+00  0.00000000000E+00  0.18193317814E+04  0.18193317814E+04  0.50400001928E-02 0.  1.
       -1   -1    0    0    0  501  0.00000000000E+00  0.00000000000E+00 -0.21251928051E+04  0.21251928051E+04  0.50400001928E-02 0. -1.
    10030    2    1    2    0    0  0.00000000000E+00  0.00000000000E+00 -0.30586102364E+03  0.39445245865E+04  0.39326483758E+04 0.  0.
        4    1    3    3  502    0  0.18352370815E+04  0.67059783044E+03  0.68263472308E+02  0.19551107667E+04  0.12699999809E+01 0.  1.
       -4    1    3    3    0  502 -0.18352370815E+04 -0.67059783044E+03 -0.37412449595E+03  0.19894138199E+04  0.12699999809E+01 0. -1.
</event>
<event>
 5   0  0.2473224E-07  0.3913628E+04  0.7818609E-02  0.8022201E-01
       -2   -1    0    0    0  501  0.00000000000E+00  0.00000000000E+00  0.18295099195E+04  0.18295099195E+04  0.25500000920E-02 0. -1.
        2   -1    0    0  501    0  0.00000000000E+00  0.00000000000E+00 -0.20929766041E+04  0.20929766041E+04  0.25500000920E-02 0.  1.
    10030    2    1    2    0    0  0.00000000000E+00  0.00000000000E+00 -0.26346668455E+03  0.39224865236E+04  0.39136282187E+04 0.  0.
        2    1    3    3  502    0 -0.60666024910E+03  0.98056467859E+03 -0.17163171551E+04  0.20676770356E+04  0.25500000920E-02 0.  1.
       -2    1    3    3    0  502  0.60666024910E+03 -0.98056467859E+03  0.14528504706E+04  0.18548094880E+04  0.25500000920E-02 0. -1.
</event>
<event>
 5   0  0.2395572E-07  0.3938404E+04  0.7818609E-02  0.8017089E-01
       -2   -1    0    0    0  501  0.00000000000E+00  0.00000000000E+00  0.22791795704E+04  0.22791795704E+04  0.25500000920E-02 0.  1.
        2   -1    0    0  501    0  0.00000000000E+00  0.00000000000E+00 -0.17013825625E+04  0.17013825625E+04  0.25500000920E-02 0. -1.
    10030    2    1    2    0    0  0.00000000000E+00  0.00000000000E+00  0.57779700790E+03  0.39805621330E+04  0.39384039295E+04 0.  0.
        3    1    3    3  502    0 -0.10249093081E+04 -0.16703001393E+04  0.48439789777E+03  0.20186587079E+04  0.10100000352E+00 0. -1.
       -3    1    3    3    0  502  0.10249093081E+04  0.16703001393E+04  0.93399110130E+02  0.19619034251E+04  0.10100000352E+00 0.  1.
</event>
<event>
 5   0  0.7731706E-08  0.3886032E+04  0.7818609E-02  0.8027940E-01
       -1   -1    0    0    0  501  0.00000000000E+00  0.00000000000E+00  0.15044853936E+04  0.15044853936E+04  0.50400001928E-02 0.  1.
        1   -1    0    0  501    0  0.00000000000E+00  0.00000000000E+00 -0.25093709113E+04  0.25093709113E+04  0.50400001928E-02 0. -1.
    10030    2    1    2    0    0  0.00000000000E+00  0.00000000000E+00 -0.10048855177E+04  0.40138563049E+04  0.38860323638E+04 0.  0.
        3    1    3    3  502    0 -0.19068583279E+03  0.14603683526E+04 -0.18115202813E+04  0.23346611214E+04  0.10100000352E+00 0. -1.
       -3    1    3    3    0  502  0.19068583279E+03 -0.14603683526E+04  0.80663476363E+03  0.16791951834E+04  0.10100000352E+00 0.  1.
</event>
<event>
 5   0  0.2395572E-07  0.3876326E+04  0.7818609E-02  0.8029971E-01
       -2   -1    0    0    0  501  0.00000000000E+00  0.00000000000E+00  0.15746149558E+04  0.15746149558E+04  0.25500000920E-02 0. -1.
        2   -1    0    0  501    0  0.00000000000E+00  0.00000000000E+00 -0.23856472926E+04  0.23856472926E+04  0.25500000920E-02 0.  1.
    10030    2    1    2    0    0  0.00000000000E+00  0.00000000000E+00 -0.81103233678E+03  0.39602622484E+04  0.38763260472E+04 0.  0.
        3    1    3    3  502    0  0.17535170172E+04 -0.66444589606E+03 -0.90619480750E+03  0.20826663961E+04  0.10100000352E+00 0.  1.
       -3    1    3    3    0  502 -0.17535170172E+04  0.66444589606E+03  0.95162470718E+02  0.18775958522E+04  0.10100000352E+00 0. -1.
</event>
<event>
 5   0  0.7675750E-08  0.3911263E+04  0.7818609E-02  0.8022691E-01
       -1   -1    0    0    0  501  0.00000000000E+00  0.00000000000E+00  0.17044215454E+04  0.17044215454E+04  0.50400001928E-02 0.  1.
        1   -1    0    0  501    0  0.00000000000E+00  0.00000000000E+00 -0.22438663868E+04  0.22438663868E+04  0.50400001928E-02 0. -1.
    10030    2    1    2    0    0  0.00000000000E+00  0.00000000000E+00 -0.53944484147E+03  0.39482879322E+04  0.39112628215E+04 0.  0.
        1    1    3    3  502    0  0.79104373455E+03 -0.17829321140E+04 -0.12733004882E+03  0.19546892475E+04  0.50400001928E-02 0.  1.
       -1    1    3    3    0  502 -0.79104373455E+03  0.17829321140E+04 -0.41211479265E+03  0.19935986847E+04  0.50400001928E-02 0. -1.
</event>
<event>
 5   0  0.2486268E-07  0.3880601E+04  0.7818609E-02  0.8029076E-01
        2   -1    0    0  501    0  0.00000000000E+00  0.00000000000E+00  0.28720375092E+04  0.28720375092E+04  0.25500000920E-02 0. -1.
       -2   -1    0    0    0  501  0.00000000000E+00  0.00000000000E+00 -0.13108344070E+04  0.13108344070E+04  0.25500000920E-02 0.  1.
    10030    2    1    2    0    0  0.00000000000E+00  0.00000000000E+00  0.15612031021E+04  0.41828719162E+04  0.38806007706E+04 0.  0.
        5    1    3    3  502    0 -0.33083289533E+02 -0.97184928117E+03  0.25904212307E+04  0.27669278581E+04  0.46999998093E+01 0. -1.
       -5    1    3    3    0  502  0.33083289533E+02  0.97184928117E+03 -0.10292181286E+04  0.14159440581E+04  0.46999998093E+01 0.  1.
</event>
<event>
 5   0  0.7731706E-08  0.3868871E+04  0.7818609E-02  0.8031535E-01
       -1   -1    0    0    0  501  0.00000000000E+00  0.00000000000E+00  0.24863638250E+04  0.24863638251E+04  0.50400001928E-02 0.  1.
        1   -1    0    0  501    0  0.00000000000E+00  0.00000000000E+00 -0.15050251776E+04  0.15050251776E+04  0.50400001928E-02 0. -1.
    10030    2    1    2    0    0  0.00000000000E+00  0.00000000000E+00  0.98133864743E+03  0.39913890027E+04  0.38688707176E+04 0.  0.
        3    1    3    3  502    0  0.57174790819E+03 -0.10400469893E+04 -0.10852674327E+04  0.16082284729E+04  0.10100000352E+00 0. -1.
       -3    1    3    3    0  502 -0.57174790819E+03  0.10400469893E+04  0.20666060801E+04  0.23831605298E+04  0.10100000352E+00 0.  1.
</event>
<event>
 5   0  0.2473224E-07  0.3815153E+04  0.7818609E-02  0.8042911E-01
        2   -1    0    0  501    0  0.00000000000E+00  0.00000000000E+00  0.30826808686E+04  0.30826808686E+04  0.25500000920E-02 0. -1.
       -2   -1    0    0    0  501  0.00000000000E+00  0.00000000000E+00 -0.11804165079E+04  0.11804165079E+04  0.25500000920E-02 0.  1.
    10030    2    1    2    0    0  0.00000000000E+00  0.00000000000E+00  0.19022643608E+04  0.42630973765E+04  0.38151526239E+04 0.  0.
        2    1    3    3  502    0 -0.15314515350E+04  0.31526438673E+03  0.21721889573E+04  0.26764043610E+04  0.25500000920E-02 0. -1.
       -2    1    3    3    0  502  0.15314515350E+04 -0.31526438673E+03 -0.26992459658E+03  0.15866930155E+04  0.25500000920E-02 0.  1.
</event>
<event>
 5   0  0.7675750E-08  0.3841615E+04  0.7818609E-02  0.8037283E-01
       -1   -1    0    0    0  501  0.00000000000E+00  0.00000000000E+00  0.14946433713E+04  0.14946433713E+04  0.50400001928E-02 0.  1.
        1   -1    0    0  501    0  0.00000000000E+00  0.00000000000E+00 -0.24684825468E+04  0.24684825468E+04  0.50400001928E-02 0. -1.
    10030    2    1    2    0    0  0.00000000000E+00  0.00000000000E+00 -0.97383917556E+03  0.39631259181E+04  0.38416148041E+04 0.  0.
        5    1    3    3  502    0 -0.10652033248E+04  0.31891878469E+03  0.11288622205E+04  0.15845249500E+04  0.46999998093E+01 0.  1.
       -5    1    3    3    0  502  0.10652033248E+04 -0.31891878469E+03 -0.21027013961E+04  0.23786009681E+04  0.46999998093E+01 0. -1.
</event>
<event>
 5   0  0.7675750E-08  0.3909834E+04  0.7818609E-02  0.8022987E-01
       -1   -1    0    0    0  501  0.00000000000E+00  0.00000000000E+00  0.24848277499E+04  0.24848277499E+04  0.50400001928E-02 0. -1.
        1   -1    0    0  501    0  0.00000000000E+00  0.00000000000E+00 -0.15380142918E+04  0.15380142918E+04  0.50400001928E-02 0.  1.
    10030    2    1    2    0    0  0.00000000000E+00  0.00000000000E+00  0.94681345807E+03  0.40228420417E+04  0.39098340589E+04 0.  0.
        2    1    3    3  502    0  0.95299627557E+03 -0.59863854785E+02  0.22285590272E+04  0.24245125118E+04  0.25500000920E-02 0. -1.
       -2    1    3    3    0  502 -0.95299627557E+03  0.59863854785E+02 -0.12817455691E+04  0.15983295299E+04  0.25500000920E-02 0.  1.
</event>
<event>
 5   0  0.7675750E-08  0.3977772E+04  0.7818609E-02  0.8009046E-01
       -3   -1    0    0    0  501  0.00000000000E+00  0.00000000000E+00  0.21096532070E+04  0.21096532094E+04  0.10100000352E+00 0. -1.
        3   -1    0    0  501    0  0.00000000000E+00  0.00000000000E+00 -0.18750317872E+04  0.18750317899E+04  0.10100000352E+00 0.  1.
    10030    2    1    2    0    0  0.00000000000E+00  0.00000000000E+00  0.23462141981E+03  0.39846849994E+04  0.39777716543E+04 0.  0.
        1    1    3    3  502    0  0.20982851919E+02 -0.43250263121E+03 -0.18272400145E+04  0.18778458075E+04  0.50400001928E-02 0.  1.
       -1    1    3    3    0  502 -0.20982851919E+02  0.43250263121E+03  0.20618614343E+04  0.21068391919E+04  0.50400001928E-02 0. -1.
</event>
<event>
 5   0  0.2486268E-07  0.3916953E+04  0.7818609E-02  0.8021513E-01
        2   -1    0    0  501    0  0.00000000000E+00  0.00000000000E+00  0.13624831749E+04  0.13624831749E+04  0.25500000920E-02 0.  1.
       -2   -1    0    0    0  501  0.00000000000E+00  0.00000000000E+00 -0.28151755927E+04  0.28151755927E+04  0.25500000920E-02 0. -1.
    10030    2    1    2    0    0  0.00000000000E+00  0.00000000000E+00 -0.14526924178E+04  0.41776587677E+04  0.39169525805E+04 0.  0.
        5    1    3    3  502    0 -0.38985362385E+03 -0.19111788417E+04 -0.53850811130E+03  0.20235126609E+04  0.46999998093E+01 0. -1.
       -5    1    3    3    0  502  0.38985362385E+03  0.19111788417E+04 -0.91418430651E+03  0.21541461067E+04  0.46999998093E+01 0.  1.
</event>
<event>
 5   0  0.7675750E-08  0.3846164E+04  0.7818609E-02  0.8036320E-01
       -3   -1    0    0    0  501  0.00000000000E+00  0.00000000000E+00  0.15304105232E+04  0.15304105266E+04  0.10100000352E+00 0. -1.
        3   -1    0    0  501    0  0.00000000000E+00  0.00000000000E+00 -0.24165046796E+04  0.24165046817E+04  0.10100000352E+00 0.  1.
    10030    2    1    2    0    0  0.00000000000E+00  0.00000000000E+00 -0.88609415641E+03  0.39469152083E+04  0.38461639080E+04 0.  0.
        4    1    3    3  502    0 -0.36282394147E+03 -0.18864989401E+04 -0.35286368928E+03  0.19532111662E+04  0.12699999809E+01 0.  1.
       -4    1    3    3    0  502  0.36282394147E+03  0.18864989401E+04 -0.53323046713E+03  0.19937040421E+04  0.12699999809E+01 0. -1.
</event>
<event>
 5   0  0.2446281E-07  0.3887844E+04  0.7818609E-02  0.8027562E-01
        2   -1    0    0  501    0  0.00000000000E+00  0.00000000000E+00  0.16278300205E+04  0.16278300205E+04  0.25500000920E-02 0.  1.
       -2   -1    0    0    0  501  0.00000000000E+00  0.00000000000E+00 -0.23213929993E+04  0.23213929993E+04  0.25500000920E-02 0. -1.
    10030    2    1    2    0    0  0.00000000000E+00  0.00000000000E+00 -0.69356297877E+03  0.39492230198E+04  0.38878442426E+04 0.  0.
        1    1    3    3  502    0  0.12425082626E+04  0.12933021023E+04  0.41497512039E+03  0.18408317307E+04  0.50400001928E-02 0.  1.
       -1    1    3    3    0  502 -0.12425082626E+04 -0.12933021023E+04 -0.11085380992E+04  0.21083912890E+04  0.50400001928E-02 0. -1.
</event>
<event>
 5   0  0.2486268E-07  0.3134081E+04  0.7818609E-02  0.8206447E-01
        2   -1    0    0  501    0  0.00000000000E+00  0.00000000000E+00  0.24593377953E+04  0.24593377953E+04  0.25500000920E-02 0.  1.
       -2   -1    0    0    0  501  0.00000000000E+00  0.00000000000E+00 -0.99848649498E+03  0.99848649499E+03  0.25500000920E-02 0. -1.
    10030    2    1    2    0    0  0.00000000000E+00  0.00000000000E+00  0.14608513003E+04  0.34578242903E+04  0.31340807745E+04 0.  0.
        5    1    3    3  502    0 -0.13548003831E+04  0.11614032910E+03 -0.12888737627E+03  0.13658721389E+04  0.46999998093E+01 0.  1.
       -5    1    3    3    0  502  0.13548003831E+04 -0.11614032910E+03  0.15897386766E+04  0.20919521514E+04  0.46999998093E+01 0. -1.
</event>
<event>
 5   0  0.2486268E-07  0.3900794E+04  0.7818609E-02  0.8024864E-01
       -2   -1    0    0    0  501  0.00000000000E+00  0.00000000000E+00  0.13718891740E+04  0.13718891740E+04  0.25500000920E-02 0. -1.
        2   -1    0    0  501    0  0.00000000000E+00  0.00000000000E+00 -0.27728538678E+04  0.27728538678E+04  0.25500000920E-02 0.  1.
    10030    2    1    2    0    0  0.00000000000E+00  0.00000000000E+00 -0.14009646938E+04  0.41447430418E+04  0.39007938691E+04 0.  0.
        5    1    3    3  502    0 -0.18360543675E+04 -0.31715574442E+03 -0.87937789522E+02  0.18653253206E+04  0.46999998093E+01 0.  1.
       -5    1    3    3    0  502  0.18360543675E+04  0.31715574442E+03 -0.13130269043E+04  0.22794177213E+04  0.46999998093E+01 0. -1.
</event>
<event>
 5   0  0.7675750E-08  0.3929702E+04  0.7818609E-02  0.8018880E-01
        1   -1    0    0  501    0  0.00000000000E+00  0.00000000000E+00  0.19865038728E+04  0.19865038728E+04  0.50400001928E-02 0.  1.
       -1   -1    0    0    0  501  0.00000000000E+00  0.00000000000E+00 -0.19434346319E+04  0.19434346319E+04  0.50400001928E-02 0. -1.
    10030    2    1    2    0    0  0.00000000000E+00  0.00000000000E+00  0.43069240905E+02  0.39299385047E+04  0.39297024940E+04 0.  0.
        5    1    3    3  502    0 -0.11424779633E+04  0.64654258596E+03 -0.14405193657E+04  0.19489462140E+04  0.46999998093E+01 0. -1.
       -5    1    3    3    0  502  0.11424779633E+04 -0.64654258596E+03  0.14835886066E+04  0.19809922907E+04  0.46999998093E+01 0.  1.
</event>
<event>
 5   0  0.7675750E-08  0.4113435E+04  0.7818609E-02  0.7982046E-01
        3   -1    0    0  501    0  0.00000000000E+00  0.00000000000E+00  0.18656097754E+04  0.18656097782E+04  0.10100000352E+00 0. -1.
       -3   -1    0    0    0  501  0.00000000000E+00  0.00000000000E+00 -0.22674017824E+04  0.22674017847E+04  0.10100000352E+00 0.  1.
    10030    2    1    2    0    0  0.00000000000E+00  0.00000000000E+00 -0.40179200699E+03  0.41330115629E+04  0.41134350319E+04 0.  0.
        4    1    3    3  502    0  0.16136293568E+04 -0.95882418606E+03 -0.10456958195E+04  0.21486332588E+04  0.12699999809E+01 0.  1.
       -4    1    3    3    0  502 -0.16136293568E+04  0.95882418606E+03  0.64390381250E+03  0.19843783041E+04  0.12699999809E+01 0. -1.
</event>
<event>
 5   0  0.2486268E-07  0.3754997E+04  0.7818609E-02  0.8055882E-01
        2   -1    0    0  501    0  0.00000000000E+00  0.00000000000E+00  0.22932075910E+04  0.22932075910E+04  0.25500000920E-02 0.  1.
       -2   -1    0    0    0  501  0.00000000000E+00  0.00000000000E+00 -0.15371485215E+04  0.15371485215E+04  0.25500000920E-02 0. -1.
    10030    2    1    2    0    0  0.00000000000E+00  0.00000000000E+00  0.75605906948E+03  0.38303561125E+04  0.37549970216E+04 0.  0.
        5    1    3    3  502    0 -0.33942924077E+03  0.16564602959E+04 -0.45437781200E+03  0.17508724132E+04  0.46999998093E+01 0. -1.
       -5    1    3    3    0  502  0.33942924077E+03 -0.16564602959E+04  0.12104368815E+04  0.20794836992E+04  0.46999998093E+01 0.  1.
</event>
<event>
 5   0  0.7675750E-08  0.4009672E+04  0.7818609E-02  0.8002598E-01
       -1   -1    0    0    0  501  0.00000000000E+00  0.00000000000E+00  0.15520890011E+04  0.15520890011E+04  0.50400001928E-02 0.  1.
        1   -1    0    0  501    0  0.00000000000E+00  0.00000000000E+00 -0.25896502967E+04  0.25896502967E+04  0.50400001928E-02 0. -1.
    10030    2    1    2    0    0  0.00000000000E+00  0.00000000000E+00 -0.10375612957E+04  0.41417392978E+04  0.40096721772E+04 0.  0.
        4    1    3    3  502    0 -0.12827262812E+04 -0.14255516290E+04  0.85096320270E+02  0.19195903615E+04  0.12699999809E+01 0.  1.
       -4    1    3    3    0  502  0.12827262812E+04  0.14255516290E+04 -0.11226576159E+04  0.22221489363E+04  0.12699999809E+01 0. -1.
</event>
<event>
 5   0  0.2446281E-07  0.3911950E+04  0.7818609E-02  0.8022549E-01
       -2   -1    0    0    0  501  0.00000000000E+00  0.00000000000E+00  0.20688364327E+04  0.20688364327E+04  0.25500000920E-02 0.  1.
        2   -1    0    0  501    0  0.00000000000E+00  0.00000000000E+00 -0.18492700644E+04  0.18492700645E+04  0.25500000920E-02 0. -1.
    10030    2    1    2    0    0  0.00000000000E+00  0.00000000000E+00  0.21956636828E+03  0.39181064972E+04  0.39119495310E+04 0.  0.
        1    1    3    3  502    0 -0.17926196390E+02  0.15917865729E+04 -0.10285492450E+04  0.18952623543E+04  0.50400001928E-02 0. -1.
       -1    1    3    3    0  502  0.17926196390E+02 -0.15917865729E+04  0.12481156133E+04  0.20228441429E+04  0.50400001928E-02 0.  1.
</event>
<event>
 5   0  0.7675750E-08  0.3774644E+04  0.7818609E-02  0.8051618E-01
       -1   -1    0    0    0  501  0.00000000000E+00  0.00000000000E+00  0.14911998444E+04  0.14911998444E+04  0.50400001928E-02 0. -1.
        1   -1    0    0  501    0  0.00000000000E+00  0.00000000000E+00 -0.23886703168E+04  0.23886703168E+04  0.50400001928E-02 0.  1.
    10030    2    1    2    0    0  0.00000000000E+00  0.00000000000E+00 -0.89747047236E+03  0.38798701612E+04  0.37746442507E+04 0.  0.
        5    1    3    3  502    0  0.12088074603E+04 -0.12253000604E+04  0.34704807192E+03  0.17558588122E+04  0.46999998093E+01 0. -1.
       -5    1    3    3    0  502 -0.12088074603E+04  0.12253000604E+04 -0.12445185443E+04  0.21240113491E+04  0.46999998093E+01 0.  1.
</event>
<event>
 5   0  0.7675750E-08  0.3905201E+04  0.7818609E-02  0.8023948E-01
        1   -1    0    0  501    0  0.00000000000E+00  0.00000000000E+00  0.21136631959E+04  0.21136631959E+04  0.50400001928E-02 0.  1.
       -1   -1    0    0    0  501  0.00000000000E+00  0.00000000000E+00 -0.18038105279E+04  0.18038105279E+04  0.50400001928E-02 0. -1.
    10030    2    1    2    0    0  0.00000000000E+00  0.00000000000E+00  0.30985266791E+03  0.39174737238E+04  0.39052005968E+04 0.  0.
        1    1    3    3  502    0 -0.16157297780E+03  0.80300190730E+03 -0.16231367985E+04  0.18181009204E+04  0.50400001928E-02 0. -1.
       -1    1    3    3    0  502  0.16157297780E+03 -0.80300190730E+03  0.19329894664E+04  0.20993728034E+04  0.50400001928E-02 0.  1.
</event>
<event>
 5   0  0.7675750E-08  0.3873379E+04  0.7818609E-02  0.8030589E-01
       -1   -1    0    0    0  501  0.00000000000E+00  0.00000000000E+00  0.16478106745E+04  0.16478106745E+04  0.50400001928E-02 0.  1.
        1   -1    0    0  501    0  0.00000000000E+00  0.00000000000E+00 -0.22762118677E+04  0.22762118677E+04  0.50400001928E-02 0. -1.
    10030    2    1    2    0    0  0.00000000000E+00  0.00000000000E+00 -0.62840119320E+03  0.39240225422E+04  0.38733789967E+04 0.  0.
        1    1    3    3  502    0 -0.95863873770E+03 -0.12136188291E+04  0.86676275227E+03  0.17728893255E+04  0.50400001928E-02 0.  1.
       -1    1    3    3    0  502  0.95863873770E+03  0.12136188291E+04 -0.14951639455E+04  0.21511332166E+04  0.50400001928E-02 0. -1.
</event>
<event>
 5   0  0.7675750E-08  0.3866989E+04  0.7818609E-02  0.8031930E-01
       -1   -1    0    0    0  501  0.00000000000E+00  0.00000000000E+00  0.16269525195E+04  0.16269525195E+04  0.50400001928E-02 0. -1.
        1   -1    0    0  501    0  0.00000000000E+00  0.00000000000E+00 -0.22977931149E+04  0.22977931149E+04  0.50400001928E-02 0.  1.
    10030    2    1    2    0    0  0.00000000000E+00  0.00000000000E+00 -0.67084059547E+03  0.39247456344E+04  0.38669886463E+04 0.  0.
        4    1    3    3  502    0 -0.13088950711E+04 -0.97037105808E+02 -0.17764063339E+04  0.22086746214E+04  0.12699999809E+01 0.  1.
       -4    1    3    3    0  502  0.13088950711E+04  0.97037105808E+02  0.11055657384E+04  0.17160710131E+04  0.12699999809E+01 0. -1.
</event>
<event>
 5   0  0.2384787E-07  0.3924330E+04  0.7818609E-02  0.8019988E-01
        2   -1    0    0  501    0  0.00000000000E+00  0.00000000000E+00  0.18581727030E+04  0.18581727030E+04  0.25500000920E-02 0. -1.
       -2   -1    0    0    0  501  0.00000000000E+00  0.00000000000E+00 -0.20719767282E+04  0.20719767282E+04  0.25500000920E-02 0.  1.
    10030    2    1    2    0    0  0.00000000000E+00  0.00000000000E+00 -0.21380402519E+03  0.39301494312E+04  0.39243295467E+04 0.  0.
        4    1    3    3  502    0  0.57373199201E+03  0.68848808019E+03  0.16412251943E+04  0.18699748626E+04  0.12699999809E+01 0. -1.
       -4    1    3    3    0  502 -0.57373199201E+03 -0.68848808019E+03 -0.18550292195E+04  0.20601745687E+04  0.12699999809E+01 0.  1.
</event>
<event>
 5   0  0.2446281E-07  0.3868458E+04  0.7818609E-02  0.8031621E-01
       -2   -1    0    0    0  501  0.00000000000E+00  0.00000000000E+00  0.15837740624E+04  0.15837740624E+04  0.25500000920E-02 0. -1.
        2   -1    0    0  501    0  0.00000000000E+00  0.00000000000E+00 -0.23622321260E+04  0.23622321260E+04  0.25500000920E-02 0.  1.
    10030    2    1    2    0    0  0.00000000000E+00  0.00000000000E+00 -0.77845806360E+03  0.39460061884E+04  0.38684580755E+04 0.  0.
        1    1    3    3  502    0  0.94587066024E+03 -0.38664558482E+03  0.12859701342E+04  0.16425240638E+04  0.50400001928E-02 0. -1.
       -1    1    3    3    0  502 -0.94587066024E+03  0.38664558482E+03 -0.20644281978E+04  0.23034821246E+04  0.50400001928E-02 0.  1.
</event>
<event>
 5   0  0.7675750E-08  0.3852529E+04  0.7818609E-02  0.8034975E-01
       -1   -1    0    0    0  501  0.00000000000E+00  0.00000000000E+00  0.26084925430E+04  0.26084925430E+04  0.50400001928E-02 0. -1.
        1   -1    0    0  501    0  0.00000000000E+00  0.00000000000E+00 -0.14224674498E+04  0.14224674498E+04  0.50400001928E-02 0.  1.
    10030    2    1    2    0    0  0.00000000000E+00  0.00000000000E+00  0.11860250932E+04  0.40309599929E+04  0.38525294214E+04 0.  0.
        1    1    3    3  502    0 -0.18556317662E+04  0.89260662344E+02  0.11256671522E+04  0.21722023974E+04  0.50400001928E-02 0. -1.
       -1    1    3    3    0  502  0.18556317662E+04 -0.89260662344E+02  0.60357941006E+02  0.18587575955E+04  0.50400001928E-02 0.  1.
</event>
<event>
 5   0  0.2486268E-07  0.3913721E+04  0.7818609E-02  0.8022182E-01
        2   -1    0    0  501    0  0.00000000000E+00  0.00000000000E+00  0.12528108196E+04  0.12528108196E+04  0.25500000920E-02 0.  1.
       -2   -1    0    0    0  501  0.00000000000E+00  0.00000000000E+00 -0.30565687533E+04  0.30565687533E+04  0.25500000920E-02 0. -1.
    10030    2    1    2    0    0  0.00000000000E+00  0.00000000000E+00 -0.18037579336E+04  0.43093795729E+04  0.39137206875E+04 0.  0.
        5    1    3    3  502    0  0.81662692754E+03 -0.17286049893E+04 -0.13616117398E+04  0.23471180983E+04  0.46999998093E+01 0.  1.
       -5    1    3    3    0  502 -0.81662692754E+03  0.17286049893E+04 -0.44214619385E+03  0.19622614745E+04  0.46999998093E+01 0. -1.
</event>
<event>
 5   0  0.2395572E-07  0.3913757E+04  0.7818609E-02  0.8022174E-01
        2   -1    0    0  501    0  0.00000000000E+00  0.00000000000E+00  0.21884259490E+04  0.21884259490E+04  0.25500000920E-02 0.  1.
       -2   -1    0    0    0  501  0.00000000000E+00  0.00000000000E+00 -0.17498297661E+04  0.17498297661E+04  0.25500000920E-02 0. -1.
    10030    2    1    2    0    0  0.00000000000E+00  0.00000000000E+00  0.43859618297E+03  0.39382557151E+04  0.39137566948E+04 0.  0.
        3    1    3    3  502    0 -0.61932990911E+03 -0.21286534047E+03  0.20748834876E+04  0.21757809372E+04  0.10100000352E+00 0.  1.
       -3    1    3    3    0  502  0.61932990911E+03  0.21286534047E+03 -0.16362873046E+04  0.17624747779E+04  0.10100000352E+00 0. -1.
</event>
<event>
 5   0  0.2384787E-07  0.3884776E+04  0.7818609E-02  0.8028203E-01
       -2   -1    0    0    0  501  0.00000000000E+00  0.00000000000E+00  0.23158947853E+04  0.23158947853E+04  0.25500000920E-02 0. -1.
        2   -1    0    0  501    0  0.00000000000E+00  0.00000000000E+00 -0.16291203787E+04  0.16291203787E+04  0.25500000920E-02 0.  1.
    10030    2    1    2    0    0  0.00000000000E+00  0.00000000000E+00  0.68677440662E+03  0.39450151641E+04  0.38847761273E+04 0.  0.
        4    1    3    3  502    0  0.25657964552E+03 -0.17587349391E+04 -0.45227234653E+03  0.18339938901E+04  0.12699999809E+01 0.  1.
       -4    1    3    3    0  502 -0.25657964552E+03  0.17587349391E+04  0.11390467532E+04  0.21110212740E+04  0.12699999809E+01 0. -1.
</event>
<event>
 5   0  0.2473224E-07  0.4017351E+04  0.7818609E-02  0.8001056E-01
        2   -1    0    0  501    0  0.00000000000E+00  0.00000000000E+00  0.30905309539E+04  0.30905309539E+04  0.25500000920E-02 0. -1.
       -2   -1    0    0    0  501  0.00000000000E+00  0.00000000000E+00 -0.13055286110E+04  0.13055286110E+04  0.25500000920E-02 0.  1.
    10030    2    1    2    0    0  0.00000000000E+00  0.00000000000E+00  0.17850023429E+04  0.43960595650E+04  0.40173506611E+04 0.  0.
        2    1    3    3  502    0  0.53462890981E+03  0.16836553495E+04  0.19388031964E+04  0.26228765204E+04  0.25500000920E-02 0. -1.
       -2    1    3    3    0  502 -0.53462890981E+03 -0.16836553495E+04 -0.15380085346E+03  0.17731830446E+04  0.25500000920E-02 0.  1.
</event>
<event>
 5   0  0.2473224E-07  0.3772763E+04  0.7818609E-02  0.8052025E-01
        2   -1    0    0  501    0  0.00000000000E+00  0.00000000000E+00  0.23506678037E+04  0.23506678037E+04  0.25500000920E-02 0.  1.
       -2   -1    0    0    0  501  0.00000000000E+00  0.00000000000E+00 -0.15137978629E+04  0.15137978629E+04  0.25500000920E-02 0. -1.
    10030    2    1    2    0    0  0.00000000000E+00  0.00000000000E+00  0.83686994077E+03  0.38644656666E+04  0.37727633891E+04 0.  0.
        2    1    3    3  502    0  0.12665745435E+04 -0.13924083467E+04  0.54564631702E+03  0.19597811055E+04  0.25500000920E-02 0.  1.
       -2    1    3    3    0  502 -0.12665745435E+04  0.13924083467E+04  0.29122362376E+03  0.19046845611E+04  0.25500000920E-02 0. -1.
</event>
<event>
 5   0  0.2473224E-07  0.3902212E+04  0.7818609E-02  0.8024569E-01
       -2   -1    0    0    0  501  0.00000000000E+00  0.00000000000E+00  0.30803327950E+04  0.30803327950E+04  0.25500000920E-02 0.  1.
        2   -1    0    0  501    0  0.00000000000E+00  0.00000000000E+00 -0.12358451632E+04  0.12358451632E+04  0.25500000920E-02 0. -1.
    10030    2    1    2    0    0  0.00000000000E+00  0.00000000000E+00  0.18444876318E+04  0.43161779582E+04  0.39022118783E+04 0.  0.
        2    1    3    3  502    0  0.88254891270E+03 -0.42969721426E+03 -0.94284050848E+03  0.13610585967E+04  0.25500000920E-02 0. -1.
       -2    1    3    3    0  502 -0.88254891270E+03  0.42969721426E+03  0.27873281403E+04  0.29551193615E+04  0.25500000920E-02 0.  1.
</event>
<event>
 5   0  0.2395572E-07  0.3577466E+04  0.7818609E-02  0.8095673E-01
        2   -1    0    0  501    0  0.00000000000E+00  0.00000000000E+00  0.14065494773E+04  0.14065494773E+04  0.25500000920E-02 0.  1.
       -2   -1    0    0    0  501  0.00000000000E+00  0.00000000000E+00 -0.22747622845E+04  0.22747622845E+04  0.25500000920E-02 0. -1.
    10030    2    1    2    0    0  0.00000000000E+00  0.00000000000E+00 -0.86821280712E+03  0.36813117618E+04  0.35774659760E+04 0.  0.
        3    1    3    3  502    0 -0.77974618557E+03  0.15755549946E+04 -0.94078454620E+02  0.17604625588E+04  0.10100000352E+00 0.  1.
       -3    1    3    3    0  502  0.77974618557E+03 -0.15755549946E+04 -0.77413435250E+03  0.19208492031E+04  0.10100000352E+00 0. -1.
</event>
<event>
 5   0  0.2384787E-07  0.3558851E+04  0.7818609E-02  0.8099983E-01
       -2   -1    0    0    0  501  0.00000000000E+00  0.00000000000E+00  0.20083474235E+04  0.20083474235E+04  0.25500000920E-02 0.  1.
        2   -1    0    0  501    0  0.00000000000E+00  0.00000000000E+00 -0.15765969336E+04  0.15765969336E+04  0.25500000920E-02 0. -1.
    10030    2    1    2    0    0  0.00000000000E+00  0.00000000000E+00  0.43175048991E+03  0.35849443572E+04  0.35588505951E+04 0.  0.
        4    1    3    3  502    0  0.17297039123E+03  0.29232691317E+03 -0.15436369127E+04  0.15805664527E+04  0.12699999809E+01 0. -1.
       -4    1    3    3    0  502 -0.17297039123E+03 -0.29232691317E+03  0.19753874026E+04  0.20043779044E+04  0.12699999809E+01 0.  1.
</event>
<event>
 5   0  0.2446281E-07  0.3464895E+04  0.7818609E-02  0.8122160E-01
       -2   -1    0    0    0  501  0.00000000000E+00  0.00000000000E+00  0.15371648508E+04  0.15371648508E+04  0.25500000920E-02 0. -1.
        2   -1    0    0  501    0  0.00000000000E+00  0.00000000000E+00 -0.19525393809E+04  0.19525393809E+04  0.25500000920E-02 0.  1.
    10030    2    1    2    0    0  0.00000000000E+00  0.00000000000E+00 -0.41537453010E+03  0.34897042316E+04  0.34648953266E+04 0.  0.
        1    1    3    3  502    0  0.70940302881E+03  0.15783643603E+03  0.13762172241E+04  0.15563222178E+04  0.50400001928E-02 0. -1.
       -1    1    3    3    0  502 -0.70940302881E+03 -0.15783643603E+03 -0.17915917542E+04  0.19333820138E+04  0.50400001928E-02 0.  1.
</event>
<event>
 5   0  0.7675750E-08  0.3877417E+04  0.7818609E-02  0.8029742E-01
        1   -1    0    0  501    0  0.00000000000E+00  0.00000000000E+00  0.22893107842E+04  0.22893107842E+04  0.50400001928E-02 0.  1.
       -1   -1    0    0    0  501  0.00000000000E+00  0.00000000000E+00 -0.16418000723E+04  0.16418000723E+04  0.50400001928E-02 0. -1.
    10030    2    1    2    0    0  0.00000000000E+00  0.00000000000E+00  0.64751071188E+03  0.39311108565E+04  0.38774169809E+04 0.  0.
        1    1    3    3  502    0  0.95054283563E+03 -0.78914607080E+03 -0.11910254144E+04  0.17160491663E+04  0.50400001928E-02 0. -1.
       -1    1    3    3    0  502 -0.95054283563E+03  0.78914607080E+03  0.18385361263E+04  0.22150616901E+04  0.50400001928E-02 0.  1.
</event>
<event>
 5   0  0.7731706E-08  0.3871844E+04  0.7818609E-02  0.8030911E-01
        1   -1    0    0  501    0  0.00000000000E+00  0.00000000000E+00  0.19497722406E+04  0.19497722406E+04  0.50400001928E-02 0.  1.
       -1   -1    0    0    0  501  0.00000000000E+00  0.00000000000E+00 -0.19221701389E+04  0.19221701389E+04  0.50400001928E-02 0. -1.
    10030    2    1    2    0    0  0.00000000000E+00  0.00000000000E+00  0.27602101661E+02  0.38719423795E+04  0.38718439941E+04 0.  0.
        3    1    3    3  502    0  0.19262616421E+04 -0.59003358576E+02  0.19773141167E+03  0.19372823830E+04  0.10100000352E+00 0.  1.
       -3    1    3    3    0  502 -0.19262616421E+04  0.59003358576E+02 -0.17012931001E+03  0.19346599966E+04  0.10100000352E+00 0. -1.
</event>
<event>
 5   0  0.7675750E-08  0.3822635E+04  0.7818609E-02  0.8041315E-01
        1   -1    0    0  501    0  0.00000000000E+00  0.00000000000E+00  0.11318034528E+04  0.11318034528E+04  0.50400001928E-02 0.  1.
       -1   -1    0    0    0  501  0.00000000000E+00  0.00000000000E+00 -0.32277111558E+04  0.32277111558E+04  0.50400001928E-02 0. -1.
    10030    2    1    2    0    0  0.00000000000E+00  0.00000000000E+00 -0.20959077030E+04  0.43595146086E+04  0.38226350235E+04 0.  0.
        1    1    3    3  502    0  0.15951093965E+04  0.47222996594E+03  0.25376011960E+02  0.16637364784E+04  0.50400001928E-02 0. -1.
       -1    1    3    3    0  502 -0.15951093965E+04 -0.47222996594E+03 -0.21212837149E+04  0.26957781301E+04  0.50400001928E-02 0.  1.
</event>
<event>
 5   0  0.2384787E-07  0.3897408E+04  0.7818609E-02  0.8025568E-01
        2   -1    0    0  501    0  0.00000000000E+00  0.00000000000E+00  0.16270864797E+04  0.16270864797E+04  0.25500000920E-02 0.  1.
       -2   -1    0    0    0  501  0.00000000000E+00  0.00000000000E+00 -0.23338942395E+04  0.23338942395E+04  0.25500000920E-02 0. -1.
    10030    2    1    2    0    0  0.00000000000E+00  0.00000000000E+00 -0.70680775981E+03  0.39609807192E+04  0.38974082476E+04 0.  0.
        4    1    3    3  502    0 -0.84191612279E+03 -0.63599328575E+03 -0.20184607885E+04  0.22776074695E+04  0.12699999809E+01 0. -1.
       -4    1    3    3    0  502  0.84191612279E+03  0.63599328575E+03  0.13116530287E+04  0.16833732498E+04  0.12699999809E+01 0.  1.
</event>
<event>
 5   0  0.2473224E-07  0.3916204E+04  0.7818609E-02  0.8021668E-01
        2   -1    0    0  501    0  0.00000000000E+00  0.00000000000E+00  0.16297437753E+04  0.16297437753E+04  0.25500000920E-02 0. -1.
       -2   -1    0    0    0  501  0.00000000000E+00  0.00000000000E+00 -0.23526172463E+04  0.23526172463E+04  0.25500000920E-02 0.  1.
    10030    2    1    2    0    0  0.00000000000E+00  0.00000000000E+00 -0.72287347104E+03  0.39823610216E+04  0.39162039338E+04 0.  0.
        2    1    3    3  502    0 -0.57672197766E+03 -0.15919208719E+04 -0.13615877465E+04  0.21727267415E+04  0.25500000920E-02 0.  1.
       -2    1    3    3    0  502  0.57672197766E+03  0.15919208719E+04  0.63871427543E+03  0.18096342801E+04  0.25500000920E-02 0. -1.
</event>
<event>
 5   0  0.2473224E-07  0.3932457E+04  0.7818609E-02  0.8018313E-01
       -2   -1    0    0    0  501  0.00000000000E+00  0.00000000000E+00  0.28576609442E+04  0.28576609442E+04  0.25500000920E-02 0. -1.
        2   -1    0    0  501    0  0.00000000000E+00  0.00000000000E+00 -0.13528734388E+04  0.13528734388E+04  0.25500000920E-02 0.  1.
    10030    2    1    2    0    0  0.00000000000E+00  0.00000000000E+00  0.15047875054E+04  0.42105343829E+04  0.39324565291E+04 0.  0.
        2    1    3    3  502    0  0.19409355933E+04  0.22262767457E+03  0.51475436877E+03  0.20203381200E+04  0.25500000920E-02 0.  1.
       -2    1    3    3    0  502 -0.19409355933E+04 -0.22262767457E+03  0.99003313663E+03  0.21901962630E+04  0.25500000920E-02 0. -1.
</event>
<event>
 5   0  0.2446281E-07  0.3871981E+04  0.7818609E-02  0.8030882E-01
        2   -1    0    0  501    0  0.00000000000E+00  0.00000000000E+00  0.12740553359E+04  0.12740553359E+04  0.25500000920E-02 0.  1.
       -2   -1    0    0    0  501  0.00000000000E+00  0.00000000000E+00 -0.29418342149E+04  0.29418342149E+04  0.25500000920E-02 0. -1.
    10030    2    1    2    0    0  0.00000000000E+00  0.00000000000E+00 -0.16677788790E+04  0.42158895508E+04  0.38719811874E+04 0.  0.
        1    1    3    3  502    0  0.10150053605E+04  0.11823049805E+04 -0.20848379551E+04  0.26028119885E+04  0.50400001928E-02 0. -1.
       -1    1    3    3    0  502 -0.10150053605E+04 -0.11823049805E+04  0.41705907609E+03  0.16130775622E+04  0.50400001928E-02 0.  1.
</event>
<event>
 5   0  0.2486268E-07  0.3822728E+04  0.7818609E-02  0.8041295E-01
       -2   -1    0    0    0  501  0.00000000000E+00  0.00000000000E+00  0.15961671311E+04  0.15961671311E+04  0.25500000920E-02 0.  1.
        2   -1    0    0  501    0  0.00000000000E+00  0.00000000000E+00 -0.22888031158E+04  0.22888031158E+04  0.25500000920E-02 0. -1.
    10030    2    1    2    0    0  0.00000000000E+00  0.00000000000E+00 -0.69263598469E+03  0.38849702468E+04  0.38227279803E+04 0.  0.
        5    1    3    3  502    0 -0.16161013382E+04  0.12262909298E+03  0.68332620137E+03  0.17589139312E+04  0.46999998093E+01 0.  1.
       -5    1    3    3    0  502  0.16161013382E+04 -0.12262909298E+03 -0.13759621861E+04  0.21260563156E+04  0.46999998093E+01 0. -1.
</event>
<event>
 5   0  0.7675750E-08  0.3912794E+04  0.7818609E-02  0.8022374E-01
       -1   -1    0    0    0  501  0.00000000000E+00  0.00000000000E+00  0.18625389433E+04  0.18625389433E+04  0.50400001928E-02 0. -1.
        1   -1    0    0  501    0  0.00000000000E+00  0.00000000000E+00 -0.20549844370E+04  0.20549844370E+04  0.50400001928E-02 0.  1.
    10030    2    1    2    0    0  0.00000000000E+00  0.00000000000E+00 -0.19244549373E+03  0.39175233803E+04  0.39127936525E+04 0.  0.
        2    1    3    3  502    0  0.92598584747E+03 -0.17157495789E+04  0.65967312146E+02  0.19507942212E+04  0.25500000920E-02 0.  1.
       -2    1    3    3    0  502 -0.92598584747E+03  0.17157495789E+04 -0.25841280588E+03  0.19667291591E+04  0.25500000920E-02 0. -1.
</event>
<event>
 5   0  0.7731706E-08  0.3916534E+04  0.7818609E-02  0.8021599E-01
       -1   -1    0    0    0  501  0.00000000000E+00  0.00000000000E+00  0.16445897864E+04  0.16445897864E+04  0.50400001928E-02 0. -1.
        1   -1    0    0  501    0  0.00000000000E+00  0.00000000000E+00 -0.23317726590E+04  0.23317726590E+04  0.50400001928E-02 0.  1.
    10030    2    1    2    0    0  0.00000000000E+00  0.00000000000E+00 -0.68718287268E+03  0.39763624454E+04  0.39165339264E+04 0.  0.
        3    1    3    3  502    0 -0.19013910889E+04  0.40578829219E+03 -0.10579726928E+03  0.19470863575E+04  0.10100000352E+00 0. -1.
       -3    1    3    3    0  502  0.19013910889E+04 -0.40578829219E+03 -0.58138560340E+03  0.20292760879E+04  0.10100000352E+00 0.  1.
</event>
<event>
 5   0  0.7675750E-08  0.3940717E+04  0.7818609E-02  0.8016614E-01
       -1   -1    0    0    0  501  0.00000000000E+00  0.00000000000E+00  0.18418106971E+04  0.18418106971E+04  0.50400001928E-02 0.  1.
        1   -1    0    0  501    0  0.00000000000E+00  0.00000000000E+00 -0.21078781584E+04  0.21078781584E+04  0.50400001928E-02 0. -1.
    10030    2    1    2    0    0  0.00000000000E+00  0.00000000000E+00 -0.26606746136E+03  0.39496888555E+04  0.39407169603E+04 0.  0.
        1    1    3    3  502    0  0.56887042119E+03  0.79124225555E+03 -0.18494262947E+04  0.20904677664E+04  0.50400001928E-02 0. -1.
       -1    1    3    3    0  502 -0.56887042119E+03 -0.79124225555E+03  0.15833588333E+04  0.18592210891E+04  0.50400001928E-02 0.  1.
</event>
<event>
 5   0  0.7675750E-08  0.3910623E+04  0.7818609E-02  0.8022823E-01
        1   -1    0    0  501    0  0.00000000000E+00  0.00000000000E+00  0.22338724718E+04  0.22338724718E+04  0.50400001928E-02 0.  1.
       -1   -1    0    0    0  501  0.00000000000E+00  0.00000000000E+00 -0.17114868123E+04  0.17114868123E+04  0.50400001928E-02 0. -1.
    10030    2    1    2    0    0  0.00000000000E+00  0.00000000000E+00  0.52238565947E+03  0.39453592842E+04  0.39106231094E+04 0.  0.
        2    1    3    3  502    0 -0.16423053970E+04 -0.78588217076E+03 -0.45820865498E+03  0.18774272222E+04  0.25500000920E-02 0. -1.
       -2    1    3    3    0  502  0.16423053970E+04  0.78588217076E+03  0.98059431445E+03  0.20679320619E+04  0.25500000920E-02 0.  1.
</event>
<event>
 5   0  0.2395572E-07  0.3818880E+04  0.7818609E-02  0.8042115E-01
       -2   -1    0    0    0  501  0.00000000000E+00  0.00000000000E+00  0.12100610082E+04  0.12100610082E+04  0.25500000920E-02 0. -1.
        2   -1    0    0  501    0  0.00000000000E+00  0.00000000000E+00 -0.30130394373E+04  0.30130394373E+04  0.25500000920E-02 0.  1.
    10030    2    1    2    0    0  0.00000000000E+00  0.00000000000E+00 -0.18029784291E+04  0.42231004456E+04  0.38188802230E+04 0.  0.
        3    1    3    3  502    0  0.71763309253E+03 -0.31075757611E+03 -0.28278221925E+04  0.29339641936E+04  0.10100000352E+00 0.  1.
       -3    1    3    3    0  502 -0.71763309253E+03  0.31075757611E+03  0.10248437634E+04  0.12891362520E+04  0.10100000352E+00 0. -1.
</event>
<event>
 5   0  0.7675750E-08  0.3779309E+04  0.7818609E-02  0.8050610E-01
        1   -1    0    0  501    0  0.00000000000E+00  0.00000000000E+00  0.14307480067E+04  0.14307480067E+04  0.50400001928E-02 0.  1.
       -1   -1    0    0    0  501  0.00000000000E+00  0.00000000000E+00 -0.24957534608E+04  0.24957534608E+04  0.50400001928E-02 0. -1.
    10030    2    1    2    0    0  0.00000000000E+00  0.00000000000E+00 -0.10650054541E+04  0.39265014674E+04  0.37793090845E+04 0.  0.
        2    1    3    3  502    0 -0.21565822497E+03 -0.14334709230E+04 -0.17919219155E+04  0.23048495631E+04  0.25500000920E-02 0. -1.
       -2    1    3    3    0  502  0.21565822497E+03  0.14334709230E+04  0.72691646134E+03  0.16216519044E+04  0.25500000920E-02 0.  1.
</event>
<event>
 5   0  0.2486268E-07  0.3902016E+04  0.7818609E-02  0.8024610E-01
        2   -1    0    0  501    0  0.00000000000E+00  0.00000000000E+00  0.23515260009E+04  0.23515260009E+04  0.25500000920E-02 0.  1.
       -2   -1    0    0    0  501  0.00000000000E+00  0.00000000000E+00 -0.16187069183E+04  0.16187069183E+04  0.25500000920E-02 0. -1.
    10030    2    1    2    0    0  0.00000000000E+00  0.00000000000E+00  0.73281908267E+03  0.39702329192E+04  0.39020155849E+04 0.  0.
        5    1    3    3  502    0 -0.45984190480E+03 -0.10699555424E+04  0.19590704180E+04  0.22790871929E+04  0.46999998093E+01 0.  1.
       -5    1    3    3    0  502  0.45984190480E+03  0.10699555424E+04 -0.12262513354E+04  0.16911457263E+04  0.46999998093E+01 0. -1.
</event>
<event>
 5   0  0.2384787E-07  0.3917242E+04  0.7818609E-02  0.8021453E-01
        2   -1    0    0  501    0  0.00000000000E+00  0.00000000000E+00  0.20229785670E+04  0.20229785670E+04  0.25500000920E-02 0.  1.
       -2   -1    0    0    0  501  0.00000000000E+00  0.00000000000E+00 -0.18963105120E+04  0.18963105120E+04  0.25500000920E-02 0. -1.
    10030    2    1    2    0    0  0.00000000000E+00  0.00000000000E+00  0.12666805505E+03  0.39192890790E+04  0.39172416428E+04 0.  0.
        4    1    3    3  502    0  0.40420434909E+03 -0.18342249568E+04 -0.49232239780E+03  0.19416862013E+04  0.12699999809E+01 0. -1.
       -4    1    3    3    0  502 -0.40420434909E+03  0.18342249568E+04  0.61899045285E+03  0.19776028776E+04  0.12699999809E+01 0.  1.
</event>
<event>
 5   0  0.7675750E-08  0.3671012E+04  0.7818609E-02  0.8074417E-01
       -1   -1    0    0    0  501  0.00000000000E+00  0.00000000000E+00  0.30267596218E+04  0.30267596218E+04  0.50400001928E-02 0.  1.
        1   -1    0    0  501    0  0.00000000000E+00  0.00000000000E+00 -0.11130984894E+04  0.11130984894E+04  0.50400001928E-02 0. -1.
    10030    2    1    2    0    0  0.00000000000E+00  0.00000000000E+00  0.19136611323E+04  0.41398581112E+04  0.36710116115E+04 0.  0.
        5    1    3    3  502    0 -0.25474644591E+03  0.63188027992E+03  0.28788803009E+04  0.29584019870E+04  0.46999998093E+01 0.  1.
       -5    1    3    3    0  502  0.25474644591E+03 -0.63188027992E+03 -0.96521916861E+03  0.11814561242E+04  0.46999998093E+01 0. -1.
</event>
<event>
 5   0  0.7731706E-08  0.3919627E+04  0.7818609E-02  0.8020959E-01
       -1   -1    0    0    0  501  0.00000000000E+00  0.00000000000E+00  0.20490739344E+04  0.20490739344E+04  0.50400001928E-02 0.  1.
        1   -1    0    0  501    0  0.00000000000E+00  0.00000000000E+00 -0.18744416074E+04  0.18744416075E+04  0.50400001928E-02 0. -1.
    10030    2    1    2    0    0  0.00000000000E+00  0.00000000000E+00  0.17463232699E+03  0.39235155419E+04  0.39196272473E+04 0.  0.
        3    1    3    3  502    0  0.10881291993E+04 -0.32341857456E+03  0.16864755981E+04  0.20329349921E+04  0.10100000352E+00 0.  1.
       -3    1    3    3    0  502 -0.10881291993E+04  0.32341857456E+03 -0.15118432711E+04  0.18905805498E+04  0.10100000352E+00 0. -1.
</event>
<event>
 5   0  0.7675750E-08  0.3891391E+04  0.7818609E-02  0.8026822E-01
       -1   -1    0    0    0  501  0.00000000000E+00  0.00000000000E+00  0.16416735741E+04  0.16416735741E+04  0.50400001928E-02 0.  1.
        1   -1    0    0  501    0  0.00000000000E+00  0.00000000000E+00 -0.23060189112E+04  0.23060189112E+04  0.50400001928E-02 0. -1.
    10030    2    1    2    0    0  0.00000000000E+00  0.00000000000E+00 -0.66434533714E+03  0.39476924853E+04  0.38913906553E+04 0.  0.
        1    1    3    3  502    0  0.12446720264E+04 -0.18620945473E+03  0.11731587992E+04  0.17205185214E+04  0.50400001928E-02 0.  1.
       -1    1    3    3    0  502 -0.12446720264E+04  0.18620945473E+03 -0.18375041364E+04  0.22271739639E+04  0.50400001928E-02 0. -1.
</event>
<event>
 5   0  0.7675750E-08  0.3898879E+04  0.7818609E-02  0.8025262E-01
        1   -1    0    0  501    0  0.00000000000E+00  0.00000000000E+00  0.15655317047E+04  0.15655317047E+04  0.50400001928E-02 0. -1.
       -1   -1    0    0    0  501  0.00000000000E+00  0.00000000000E+00 -0.24274912599E+04  0.24274912599E+04  0.50400001928E-02 0.  1.
    10030    2    1    2    0    0  0.00000000000E+00  0.00000000000E+00 -0.86195955522E+03  0.39930229646E+04  0.38988790852E+04 0.  0.
        5    1    3    3  502    0 -0.10861323645E+04 -0.49085475839E+03 -0.20108465226E+04  0.23375516538E+04  0.46999998093E+01 0.  1.
       -5    1    3    3    0  502  0.10861323645E+04  0.49085475839E+03  0.11488869673E+04  0.16554713108E+04  0.46999998093E+01 0. -1.
</event>
<event>
 5   0  0.2473224E-07  0.3884896E+04  0.7818609E-02  0.8028178E-01
       -2   -1    0    0    0  501  0.00000000000E+00  0.00000000000E+00  0.31091871443E+04  0.31091871443E+04  0.25500000920E-02 0.  1.
        2   -1    0    0  501    0  0.00000000000E+00  0.00000000000E+00 -0.12135338969E+04  0.12135338969E+04  0.25500000920E-02 0. -1.
    10030    2    1    2    0    0  0.00000000000E+00  0.00000000000E+00  0.18956532475E+04  0.43227210412E+04  0.38848958758E+04 0.  0.
        2    1    3    3  502    0  0.33233815109E+03 -0.17371738406E+04  0.54278213529E+02  0.17695105887E+04  0.25500000920E-02 0. -1.
       -2    1    3    3    0  502 -0.33233815109E+03  0.17371738406E+04  0.18413750339E+04  0.25532104525E+04  0.25500000920E-02 0.  1.
</event>
<event>
 5   0  0.7675750E-08  0.3180245E+04  0.7818609E-02  0.8194054E-01
        1   -1    0    0  501    0  0.00000000000E+00  0.00000000000E+00  0.28599210784E+04  0.28599210784E+04  0.50400001928E-02 0.  1.
       -1   -1    0    0    0  501  0.00000000000E+00  0.00000000000E+00 -0.88411179171E+03  0.88411179173E+03  0.50400001928E-02 0. -1.
    10030    2    1    2    0    0  0.00000000000E+00  0.00000000000E+00  0.19758092867E+04  0.37440328701E+04  0.31802452414E+04 0.  0.
        2    1    3    3  502    0  0.11805700374E+04  0.55876624784E+03 -0.79805807011E+02  0.13085619205E+04  0.25500000920E-02 0. -1.
       -2    1    3    3    0  502 -0.11805700374E+04 -0.55876624784E+03  0.20556150937E+04  0.24354709496E+04  0.25500000920E-02 0.  1.
</event>
<event>
 5   0  0.2486268E-07  0.3879913E+04  0.7818609E-02  0.8029220E-01
       -2   -1    0    0    0  501  0.00000000000E+00  0.00000000000E+00  0.13633571894E+04  0.13633571894E+04  0.25500000920E-02 0. -1.
        2   -1    0    0  501    0  0.00000000000E+00  0.00000000000E+00 -0.27604142920E+04  0.27604142920E+04  0.25500000920E-02 0.  1.
    10030    2    1    2    0    0  0.00000000000E+00  0.00000000000E+00 -0.13970571026E+04  0.41237714814E+04  0.38799127159E+04 0.  0.
        5    1    3    3  502    0 -0.11089012532E+04 -0.54904466123E+03  0.88946443301E+03  0.15239032440E+04  0.46999998093E+01 0. -1.
       -5    1    3    3    0  502  0.11089012532E+04  0.54904466123E+03 -0.22865215356E+04  0.25998682375E+04  0.46999998093E+01 0.  1.
</event>
<event>
 5   0  0.7731706E-08  0.3732578E+04  0.7818609E-02  0.8060780E-01
        1   -1    0    0  501    0  0.00000000000E+00  0.00000000000E+00  0.20084439383E+04  0.20084439383E+04  0.50400001928E-02 0. -1.
       -1   -1    0    0    0  501  0.00000000000E+00  0.00000000000E+00 -0.17341957386E+04  0.17341957386E+04  0.50400001928E-02 0.  1.
    10030    2    1    2    0    0  0.00000000000E+00  0.00000000000E+00  0.27424819967E+03  0.37426396769E+04  0.37325781541E+04 0.  0.
        3    1    3    3  502    0 -0.34816214605E+03  0.28572748135E+03  0.19531322877E+04  0.20043908843E+04  0.10100000352E+00 0. -1.
       -3    1    3    3    0  502  0.34816214605E+03 -0.28572748135E+03 -0.16788840881E+04  0.17382487926E+04  0.10100000352E+00 0.  1.
</event>
<event>
 5   0  0.2395572E-07  0.3863547E+04  0.7818609E-02  0.8032654E-01
       -2   -1    0    0    0  501  0.00000000000E+00  0.00000000000E+00  0.18919296455E+04  0.18919296455E+04  0.25500000920E-02 0. -1.
        2   -1    0    0  501    0  0.00000000000E+00  0.00000000000E+00 -0.19724561732E+04  0.19724561732E+04  0.25500000920E-02 0.  1.
    10030    2    1    2    0    0  0.00000000000E+00  0.00000000000E+00 -0.80526527680E+02  0.38643858188E+04  0.38635467170E+04 0.  0.
        3    1    3    3  502    0  0.61893822762E+03 -0.18145829906E+04 -0.27685710489E+03  0.19371230798E+04  0.10100000352E+00 0.  1.
       -3    1    3    3    0  502 -0.61893822762E+03  0.18145829906E+04  0.19633057720E+03  0.19272627390E+04  0.10100000352E+00 0. -1.
</event>
<event>
 5   0  0.2486268E-07  0.4106398E+04  0.7818609E-02  0.7983420E-01
       -2   -1    0    0    0  501  0.00000000000E+00  0.00000000000E+00  0.15428916870E+04  0.15428916870E+04  0.25500000920E-02 0.  1.
        2   -1    0    0  501    0  0.00000000000E+00  0.00000000000E+00 -0.27322894205E+04  0.27322894205E+04  0.25500000920E-02 0. -1.
    10030    2    1    2    0    0  0.00000000000E+00  0.00000000000E+00 -0.11893977335E+04  0.42751811075E+04  0.41063982434E+04 0.  0.
        5    1    3    3  502    0 -0.16960508009E+04 -0.52161992203E+03  0.48067923233E+03  0.18384097141E+04  0.46999998093E+01 0.  1.
       -5    1    3    3    0  502  0.16960508009E+04  0.52161992203E+03 -0.16700769658E+04  0.24367713935E+04  0.46999998093E+01 0. -1.
</event>
<event>
 5   0  0.2486268E-07  0.3900935E+04  0.7818609E-02  0.8024835E-01
       -2   -1    0    0    0  501  0.00000000000E+00  0.00000000000E+00  0.17193145904E+04  0.17193145904E+04  0.25500000920E-02 0. -1.
        2   -1    0    0  501    0  0.00000000000E+00  0.00000000000E+00 -0.22126979554E+04  0.22126979554E+04  0.25500000920E-02 0.  1.
    10030    2    1    2    0    0  0.00000000000E+00  0.00000000000E+00 -0.49338336507E+03  0.39320125458E+04  0.39009352104E+04 0.  0.
        5    1    3    3  502    0 -0.10663874804E+03 -0.27945970367E+03 -0.21894365067E+04  0.22097791418E+04  0.46999998093E+01 0.  1.
       -5    1    3    3    0  502  0.10663874804E+03  0.27945970367E+03  0.16960531417E+04  0.17222334040E+04  0.46999998093E+01 0. -1.
</event>
<event>
 5   0  0.2395572E-07  0.3906846E+04  0.7818609E-02  0.8023607E-01
        2   -1    0    0  501    0  0.00000000000E+00  0.00000000000E+00  0.14958548217E+04  0.14958548217E+04  0.25500000920E-02 0.  1.
       -2   -1    0    0    0  501  0.00000000000E+00  0.00000000000E+00 -0.25509573824E+04  0.25509573824E+04  0.25500000920E-02 0. -1.
    10030    2    1    2    0    0  0.00000000000E+00  0.00000000000E+00 -0.10551025607E+04  0.40468122042E+04  0.39068462476E+04 0.  0.
        3    1    3    3  502    0 -0.89628546705E+02  0.14321886291E+04 -0.19004266836E+04  0.23813481761E+04  0.10100000352E+00 0. -1.
       -3    1    3    3    0  502  0.89628546705E+02 -0.14321886291E+04  0.84532412289E+03  0.16654640281E+04  0.10100000352E+00 0.  1.
</event>
<event>
 5   0  0.7675750E-08  0.3890883E+04  0.7818609E-02  0.8026928E-01
       -1   -1    0    0    0  501  0.00000000000E+00  0.00000000000E+00  0.16669018568E+04  0.16669018568E+04  0.50400001928E-02 0. -1.
        1   -1    0    0  501    0  0.00000000000E+00  0.00000000000E+00 -0.22705246234E+04  0.22705246234E+04  0.50400001928E-02 0.  1.
    10030    2    1    2    0    0  0.00000000000E+00  0.00000000000E+00 -0.60362276659E+03  0.39374264802E+04  0.38908825274E+04 0.  0.
        1    1    3    3  502    0  0.16411900917E+04 -0.79501506834E+03 -0.98755145053E+03  0.20738398548E+04  0.50400001928E-02 0.  1.
       -1    1    3    3    0  502 -0.16411900917E+04  0.79501506834E+03  0.38392868394E+03  0.18635866254E+04  0.50400001928E-02 0. -1.
</event>
<event>
 5   0  0.7675750E-08  0.3861728E+04  0.7818609E-02  0.8033036E-01
       -1   -1    0    0    0  501  0.00000000000E+00  0.00000000000E+00  0.20697072412E+04  0.20697072412E+04  0.50400001928E-02 0.  1.
        1   -1    0    0  501    0  0.00000000000E+00  0.00000000000E+00 -0.18013352560E+04  0.18013352560E+04  0.50400001928E-02 0. -1.
    10030    2    1    2    0    0  0.00000000000E+00  0.00000000000E+00  0.26837198522E+03  0.38710424972E+04  0.38617284334E+04 0.  0.
        4    1    3    3  502    0  0.89479952598E+03 -0.13063306292E+04 -0.97349915112E+03  0.18587275525E+04  0.12699999809E+01 0. -1.
       -4    1    3    3    0  502 -0.89479952598E+03  0.13063306292E+04  0.12418711363E+04  0.20123149447E+04  0.12699999809E+01 0.  1.
</event>
<event>
 5   0  0.7675750E-08  0.3910732E+04  0.7818609E-02  0.8022801E-01
        1   -1    0    0  501    0  0.00000000000E+00  0.00000000000E+00  0.24481304506E+04  0.24481304506E+04  0.50400001928E-02 0. -1.
       -1   -1    0    0    0  501  0.00000000000E+00  0.00000000000E+00 -0.15617860257E+04  0.15617860257E+04  0.50400001928E-02 0.  1.
    10030    2    1    2    0    0  0.00000000000E+00  0.00000000000E+00  0.88634442496E+03  0.40099164763E+04  0.39107318634E+04 0.  0.
        5    1    3    3  502    0 -0.11578180530E+04 -0.13350249215E+04 -0.41507469144E+03  0.18152529505E+04  0.46999998093E+01 0.  1.
       -5    1    3    3    0  502  0.11578180530E+04  0.13350249215E+04  0.13014191164E+04  0.21946635258E+04  0.46999998093E+01 0. -1.
</event>
<event>
 5   0  0.2473224E-07  0.3913429E+04  0.7818609E-02  0.8022242E-01
       -2   -1    0    0    0  501  0.00000000000E+00  0.00000000000E+00  0.28950220081E+04  0.28950220081E+04  0.25500000920E-02 0. -1.
        2   -1    0    0  501    0  0.00000000000E+00  0.00000000000E+00 -0.13225227026E+04  0.13225227026E+04  0.25500000920E-02 0.  1.
    10030    2    1    2    0    0  0.00000000000E+00  0.00000000000E+00  0.15724993055E+04  0.42175447107E+04  0.39134293556E+04 0.  0.
        2    1    3    3  502    0  0.16692927474E+04 -0.10206720517E+04  0.76409446190E+03  0.21005118567E+04  0.25500000920E-02 0.  1.
       -2    1    3    3    0  502 -0.16692927474E+04  0.10206720517E+04  0.80840484359E+03  0.21170328540E+04  0.25500000920E-02 0. -1.
</event>
<event>
 5   0  0.7731706E-08  0.3903578E+04  0.7818609E-02  0.8024285E-01
       -1   -1    0    0    0  501  0.00000000000E+00  0.00000000000E+00  0.18881582537E+04  0.18881582537E+04  0.50400001928E-02 0.  1.
        1   -1    0    0  501    0  0.00000000000E+00  0.00000000000E+00 -0.20175640352E+04  0.20175640352E+04  0.50400001928E-02 0. -1.
    10030    2    1    2    0    0  0.00000000000E+00  0.00000000000E+00 -0.12940578148E+03  0.39057222889E+04  0.39035779411E+04 0.  0.
        3    1    3    3  502    0 -0.38443861792E+03  0.13085351117E+04 -0.14616872580E+04  0.19991465279E+04  0.10100000352E+00 0. -1.
       -3    1    3    3    0  502  0.38443861792E+03 -0.13085351117E+04  0.13322814765E+04  0.19065757610E+04  0.10100000352E+00 0.  1.
</event>
<event>
 5   0  0.7675750E-08  0.3561892E+04  0.7818609E-02  0.8099277E-01
       -1   -1    0    0    0  501  0.00000000000E+00  0.00000000000E+00  0.13016752694E+04  0.13016752694E+04  0.50400001928E-02 0.  1.
        1   -1    0    0  501    0  0.00000000000E+00  0.00000000000E+00 -0.24366816500E+04  0.24366816501E+04  0.50400001928E-02 0. -1.
    10030    2    1    2    0    0  0.00000000000E+00  0.00000000000E+00 -0.11350063807E+04  0.37383569195E+04  0.35618917689E+04 0.  0.
        4    1    3    3  502    0 -0.83638468035E+03  0.78825912029E+03  0.86036649121E+03  0.14356614804E+04  0.12699999809E+01 0.  1.
       -4    1    3    3    0  502  0.83638468035E+03 -0.78825912029E+03 -0.19953728719E+04  0.23026954390E+04  0.12699999809E+01 0. -1.
</event>
<event>
 5   0  0.2384787E-07  0.3862242E+04  0.7818609E-02  0.8032928E-01
       -2   -1    0    0    0  501  0.00000000000E+00  0.00000000000E+00  0.11009127622E+04  0.11009127622E+04  0.25500000920E-02 0.  1.
        2   -1    0    0  501    0  0.00000000000E+00  0.00000000000E+00 -0.33873962018E+04  0.33873962018E+04  0.25500000920E-02 0. -1.
    10030    2    1    2    0    0  0.00000000000E+00  0.00000000000E+00 -0.22864834395E+04  0.44883089640E+04  0.38622416855E+04 0.  0.
        4    1    3    3  502    0 -0.12366487011E+04 -0.14677531020E+04 -0.13914714905E+04  0.23706104066E+04  0.12699999809E+01 0. -1.
       -4    1    3    3    0  502  0.12366487011E+04  0.14677531020E+04 -0.89501194906E+03  0.21176985574E+04  0.12699999809E+01 0.  1.
</event>
<event>
 5   0  0.7675750E-08  0.3848663E+04  0.7818609E-02  0.8035792E-01
        1   -1    0    0  501    0  0.00000000000E+00  0.00000000000E+00  0.15804245913E+04  0.15804245913E+04  0.50400001928E-02 0.  1.
       -1   -1    0    0    0  501  0.00000000000E+00  0.00000000000E+00 -0.23430736295E+04  0.23430736295E+04  0.50400001928E-02 0. -1.
    10030    2    1    2    0    0  0.00000000000E+00  0.00000000000E+00 -0.76264903823E+03  0.39234982208E+04  0.38486627201E+04 0.  0.
        4    1    3    3  502    0  0.15581809971E+04  0.37567061371E+03 -0.14669219845E+04  0.21727673947E+04  0.12699999809E+01 0.  1.
       -4    1    3    3    0  502 -0.15581809971E+04 -0.37567061371E+03  0.70427294627E+03  0.17507308261E+04  0.12699999809E+01 0. -1.
</event>
<event>
 5   0  0.7675750E-08  0.3803753E+04  0.7818609E-02  0.8045350E-01
        1   -1    0    0  501    0  0.00000000000E+00  0.00000000000E+00  0.16922290000E+04  0.16922290000E+04  0.50400001928E-02 0.  1.
       -1   -1    0    0    0  501  0.00000000000E+00  0.00000000000E+00 -0.21374965229E+04  0.21374965229E+04  0.50400001928E-02 0. -1.
    10030    2    1    2    0    0  0.00000000000E+00  0.00000000000E+00 -0.44526752291E+03  0.38297255229E+04  0.38037526751E+04 0.  0.
        4    1    3    3  502    0  0.13069322760E+03 -0.96864930986E+03  0.14199995425E+04  0.17238800767E+04  0.12699999809E+01 0.  1.
       -4    1    3    3    0  502 -0.13069322760E+03  0.96864930986E+03 -0.18652670654E+04  0.21058454462E+04  0.12699999809E+01 0. -1.
</event>
<event>
 5   0  0.7675750E-08  0.4015101E+04  0.7818609E-02  0.8001507E-01
        1   -1    0    0  501    0  0.00000000000E+00  0.00000000000E+00  0.21787175715E+04  0.21787175715E+04  0.50400001928E-02 0. -1.
       -1   -1    0    0    0  501  0.00000000000E+00  0.00000000000E+00 -0.18498309620E+04  0.18498309620E+04  0.50400001928E-02 0.  1.
    10030    2    1    2    0    0  0.00000000000E+00  0.00000000000E+00  0.32888660948E+03  0.40285485336E+04  0.40151011053E+04 0.  0.
        1    1    3    3  502    0 -0.45644861194E+03  0.23880542757E+03  0.21112732649E+04  0.21732114868E+04  0.50400001928E-02 0. -1.
       -1    1    3    3    0  502  0.45644861194E+03 -0.23880542757E+03 -0.17823866554E+04  0.18553370467E+04  0.50400001928E-02 0.  1.
</event>
<event>
 5   0  0.2446281E-07  0.3927742E+04  0.7818609E-02  0.8019284E-01
        2   -1    0    0  501    0  0.00000000000E+00  0.00000000000E+00  0.20515739201E+04  0.20515739201E+04  0.25500000920E-02 0.  1.
       -2   -1    0    0    0  501  0.00000000000E+00  0.00000000000E+00 -0.18799173090E+04  0.18799173090E+04  0.25500000920E-02 0. -1.
    10030    2    1    2    0    0  0.00000000000E+00  0.00000000000E+00  0.17165661113E+03  0.39314912290E+04  0.39277420093E+04 0.  0.
        1    1    3    3  502    0 -0.11099677636E+04 -0.67544694815E+03 -0.13881710909E+04  0.19013879125E+04  0.50400001928E-02 0. -1.
       -1    1    3    3    0  502  0.11099677636E+04  0.67544694815E+03  0.15598277020E+04  0.20301033166E+04  0.50400001928E-02 0.  1.
</event>
<event>
 5   0  0.7731706E-08  0.3816150E+04  0.7818609E-02  0.8042698E-01
       -1   -1    0    0    0  501  0.00000000000E+00  0.00000000000E+00  0.21020067126E+04  0.21020067126E+04  0.50400001928E-02 0.  1.
        1   -1    0    0  501    0  0.00000000000E+00  0.00000000000E+00 -0.17320354792E+04  0.17320354792E+04  0.50400001928E-02 0. -1.
    10030    2    1    2    0    0  0.00000000000E+00  0.00000000000E+00  0.36997123336E+03  0.38340421918E+04  0.38161499990E+04 0.  0.
        3    1    3    3  502    0 -0.78013732323E+03  0.14274935843E+04 -0.81688485263E+03  0.18203442116E+04  0.10100000352E+00 0. -1.
       -3    1    3    3    0  502  0.78013732323E+03 -0.14274935843E+04  0.11868560860E+04  0.20136979801E+04  0.10100000352E+00 0.  1.
</event>
<event>
 5   0  0.2473224E-07  0.3900788E+04  0.7818609E-02  0.8024865E-01
       -2   -1    0    0    0  501  0.00000000000E+00  0.00000000000E+00  0.17788336652E+04  0.17788336652E+04  0.25500000920E-02 0.  1.
        2   -1    0    0  501    0  0.00000000000E+00  0.00000000000E+00 -0.21385006687E+04  0.21385006687E+04  0.25500000920E-02 0. -1.
    10030    2    1    2    0    0  0.00000000000E+00  0.00000000000E+00 -0.35966700355E+03  0.39173343339E+04  0.39007881165E+04 0.  0.
        2    1    3    3  502    0  0.18526791129E+04  0.60960389097E+03 -0.17940351139E+03  0.19586276877E+04  0.25500000920E-02 0. -1.
       -2    1    3    3    0  502 -0.18526791129E+04 -0.60960389097E+03 -0.18026349216E+03  0.19587066462E+04  0.25500000920E-02 0.  1.
</event>
<event>
 5   0  0.2395572E-07  0.3872417E+04  0.7818609E-02  0.8030791E-01
       -2   -1    0    0    0  501  0.00000000000E+00  0.00000000000E+00  0.20677595811E+04  0.20677595811E+04  0.25500000920E-02 0. -1.
        2   -1    0    0  501    0  0.00000000000E+00  0.00000000000E+00 -0.18130264713E+04  0.18130264713E+04  0.25500000920E-02 0.  1.
    10030    2    1    2    0    0  0.00000000000E+00  0.00000000000E+00  0.25473310983E+03  0.38807860524E+04  0.38724167425E+04 0.  0.
        3    1    3    3  502    0 -0.81255213914E+03  0.14589284281E+04  0.11093770634E+04  0.20048517692E+04  0.10100000352E+00 0. -1.
       -3    1    3    3    0  502  0.81255213914E+03 -0.14589284281E+04 -0.85464395362E+03  0.18759342832E+04  0.10100000352E+00 0.  1.
</event>
<event>
 5   0  0.7675750E-08  0.3908958E+04  0.7818609E-02  0.8023169E-01
        1   -1    0    0  501    0  0.00000000000E+00  0.00000000000E+00  0.19551555200E+04  0.19551555200E+04  0.50400001928E-02 0. -1.
       -1   -1    0    0    0  501  0.00000000000E+00  0.00000000000E+00 -0.19538029029E+04  0.19538029029E+04  0.50400001928E-02 0.  1.
    10030    2    1    2    0    0  0.00000000000E+00  0.00000000000E+00  0.13526170721E+01  0.39089584230E+04  0.39089581889E+04 0.  0.
        5    1    3    3  502    0 -0.33917201299E+03 -0.27461394434E+03  0.19058052812E+04  0.19551384434E+04  0.46999998093E+01 0. -1.
       -5    1    3    3    0  502  0.33917201299E+03  0.27461394434E+03 -0.19044526641E+04  0.19538199796E+04  0.46999998093E+01 0.  1.
</event>
<event>
 5   0  0.2384787E-07  0.3780580E+04  0.7818609E-02  0.8050335E-01
        2   -1    0    0  501    0  0.00000000000E+00  0.00000000000E+00  0.21953573203E+04  0.21953573203E+04  0.25500000920E-02 0.  1.
       -2   -1    0    0    0  501  0.00000000000E+00  0.00000000000E+00 -0.16276148778E+04  0.16276148778E+04  0.25500000920E-02 0. -1.
    10030    2    1    2    0    0  0.00000000000E+00  0.00000000000E+00  0.56774244250E+03  0.38229721981E+04  0.37805799749E+04 0.  0.
        4    1    3    3  502    0  0.10029028934E+04  0.16002399323E+04  0.20164168762E+03  0.18992743450E+04  0.12699999809E+01 0. -1.
       -4    1    3    3    0  502 -0.10029028934E+04 -0.16002399323E+04  0.36610075488E+03  0.19236978531E+04  0.12699999809E+01 0.  1.
</event>
<event>
 5   0  0.2384787E-07  0.3900661E+04  0.7818609E-02  0.8024892E-01
       -2   -1    0    0    0  501  0.00000000000E+00  0.00000000000E+00  0.15552130053E+04  0.15552130053E+04  0.25500000920E-02 0. -1.
        2   -1    0    0  501    0  0.00000000000E+00  0.00000000000E+00 -0.24458321122E+04  0.24458321122E+04  0.25500000920E-02 0.  1.
    10030    2    1    2    0    0  0.00000000000E+00  0.00000000000E+00 -0.89061910691E+03  0.40010451175E+04  0.39006614360E+04 0.  0.
        4    1    3    3  502    0  0.95033205546E+02  0.14145505164E+04  0.92848776598E+03  0.16947199232E+04  0.12699999809E+01 0. -1.
       -4    1    3    3    0  502 -0.95033205546E+02 -0.14145505164E+04 -0.18191068729E+04  0.23063251942E+04  0.12699999809E+01 0.  1.
</event>
<event>
 5   0  0.2473224E-07  0.3895237E+04  0.7818609E-02  0.8026020E-01
       -2   -1    0    0    0  501  0.00000000000E+00  0.00000000000E+00  0.17080584894E+04  0.17080584894E+04  0.25500000920E-02 0.  1.
        2   -1    0    0  501    0  0.00000000000E+00  0.00000000000E+00 -0.22207777979E+04  0.22207777979E+04  0.25500000920E-02 0. -1.
    10030    2    1    2    0    0  0.00000000000E+00  0.00000000000E+00 -0.51271930850E+03  0.39288362873E+04  0.38952372820E+04 0.  0.
        2    1    3    3  502    0  0.16932277128E+04 -0.95776481457E+03 -0.35143215232E+03  0.19768252540E+04  0.25500000920E-02 0. -1.
       -2    1    3    3    0  502 -0.16932277128E+04  0.95776481457E+03 -0.16128715618E+03  0.19520110333E+04  0.25500000920E-02 0.  1.
</event>
<event>
 5   0  0.7675750E-08  0.3864303E+04  0.7818609E-02  0.8032495E-01
        1   -1    0    0  501    0  0.00000000000E+00  0.00000000000E+00  0.21587870721E+04  0.21587870721E+04  0.50400001928E-02 0. -1.
       -1   -1    0    0    0  501  0.00000000000E+00  0.00000000000E+00 -0.17293088989E+04  0.17293088989E+04  0.50400001928E-02 0.  1.
    10030    2    1    2    0    0  0.00000000000E+00  0.00000000000E+00  0.42947817322E+03  0.38880959710E+04  0.38643031427E+04 0.  0.
        5    1    3    3  502    0  0.10083335770E+04 -0.30024125592E+03 -0.14158272303E+04  0.17639360108E+04  0.46999998093E+01 0.  1.
       -5    1    3    3    0  502 -0.10083335770E+04  0.30024125592E+03  0.18453054035E+04  0.21241599602E+04  0.46999998093E+01 0. -1.
</event>
<event>
 5   0  0.2395572E-07  0.3138412E+04  0.7818609E-02  0.8205274E-01
        2   -1    0    0  501    0  0.00000000000E+00  0.00000000000E+00  0.24277185665E+04  0.24277185665E+04  0.25500000920E-02 0. -1.
       -2   -1    0    0    0  501  0.00000000000E+00  0.00000000000E+00 -0.10142887036E+04  0.10142887036E+04  0.25500000920E-02 0.  1.
    10030    2    1    2    0    0  0.00000000000E+00  0.00000000000E+00  0.14134298629E+04  0.34420072702E+04  0.31384120301E+04 0.  0.
        3    1    3    3  502    0 -0.96148041592E+03 -0.81873463164E+03 -0.31486119545E+03  0.13015024279E+04  0.10100000352E+00 0.  1.
       -3    1    3    3    0  502  0.96148041592E+03  0.81873463164E+03  0.17282910583E+04  0.21405048423E+04  0.10100000352E+00 0. -1.
</event>
<event>
 5   0  0.7675750E-08  0.3904452E+04  0.7818609E-02  0.8024104E-01
       -1   -1    0    0    0  501  0.00000000000E+00  0.00000000000E+00  0.27040886400E+04  0.27040886400E+04  0.50400001928E-02 0. -1.
        1   -1    0    0  501    0  0.00000000000E+00  0.00000000000E+00 -0.14094165200E+04  0.14094165200E+04  0.50400001928E-02 0.  1.
    10030    2    1    2    0    0  0.00000000000E+00  0.00000000000E+00  0.12946721200E+04  0.41135051601E+04  0.39044524333E+04 0.  0.
        5    1    3    3  502    0 -0.30039120688E+03  0.15836784167E+04 -0.51294482654E+03  0.16915692980E+04  0.46999998093E+01 0.  1.
       -5    1    3    3    0  502  0.30039120688E+03 -0.15836784167E+04  0.18076169465E+04  0.24219358621E+04  0.46999998093E+01 0. -1.
</event>
<event>
 5   0  0.2384787E-07  0.3899626E+04  0.7818609E-02  0.8025107E-01
       -2   -1    0    0    0  501  0.00000000000E+00  0.00000000000E+00  0.17947534087E+04  0.17947534087E+04  0.25500000920E-02 0.  1.
        2   -1    0    0  501    0  0.00000000000E+00  0.00000000000E+00 -0.21182689131E+04  0.21182689131E+04  0.25500000920E-02 0. -1.
    10030    2    1    2    0    0  0.00000000000E+00  0.00000000000E+00 -0.32351550441E+03  0.39130223218E+04  0.38996258037E+04 0.  0.
        4    1    3    3  502    0 -0.84042151837E+03 -0.12593924171E+03 -0.19226651805E+04  0.21020970554E+04  0.12699999809E+01 0. -1.
       -4    1    3    3    0  502  0.84042151837E+03  0.12593924171E+03  0.15991496761E+04  0.18109252664E+04  0.12699999809E+01 0.  1.
</event>
<event>
 5   0  0.7675750E-08  0.3907035E+04  0.7818609E-02  0.8023568E-01
        1   -1    0    0  501    0  0.00000000000E+00  0.00000000000E+00  0.16590542388E+04  0.16590542388E+04  0.50400001928E-02 0. -1.
       -1   -1    0    0    0  501  0.00000000000E+00  0.00000000000E+00 -0.23002441531E+04  0.23002441531E+04  0.50400001928E-02 0.  1.
    10030    2    1    2    0    0  0.00000000000E+00  0.00000000000E+00 -0.64118991427E+03  0.39592983919E+04  0.39070345852E+04 0.  0.
        4    1    3    3  502    0  0.14765076655E+04 -0.16974807588E+03 -0.16053629428E+04  0.21877113810E+04  0.12699999809E+01 0.  1.
       -4    1    3    3    0  502 -0.14765076655E+04  0.16974807588E+03  0.96417302850E+03  0.17715870109E+04  0.12699999809E+01 0. -1.
</event>
<event>
 5   0  0.7731706E-08  0.3904627E+04  0.7818609E-02  0.8024068E-01
        1   -1    0    0  501    0  0.00000000000E+00  0.00000000000E+00  0.27329545339E+04  0.27329545339E+04  0.50400001928E-02 0.  1.
       -1   -1    0    0    0  501  0.00000000000E+00  0.00000000000E+00 -0.13946543858E+04  0.13946543858E+04  0.50400001928E-02 0. -1.
    10030    2    1    2    0    0  0.00000000000E+00  0.00000000000E+00  0.13383001481E+04  0.41276089198E+04  0.39046265005E+04 0.  0.
        3    1    3    3  502    0 -0.56295806152E+03  0.14743407184E+04 -0.54579899543E+03  0.16698799018E+04  0.10100000352E+00 0. -1.
       -3    1    3    3    0  502  0.56295806152E+03 -0.14743407184E+04  0.18840991435E+04  0.24577290179E+04  0.10100000352E+00 0.  1.
</event>
<event>
 5   0  0.2473224E-07  0.3877436E+04  0.7818609E-02  0.8029739E-01
       -2   -1    0    0    0  501  0.00000000000E+00  0.00000000000E+00  0.28728738564E+04  0.28728738564E+04  0.25500000920E-02 0. -1.
        2   -1    0    0  501    0  0.00000000000E+00  0.00000000000E+00 -0.13083159166E+04  0.13083159166E+04  0.25500000920E-02 0.  1.
    10030    2    1    2    0    0  0.00000000000E+00  0.00000000000E+00  0.15645579398E+04  0.41811897730E+04  0.38774355405E+04 0.  0.
        2    1    3    3  502    0 -0.10763567803E+04  0.13253980331E+04  0.17725926842E+04  0.24611600291E+04  0.25500000920E-02 0. -1.
       -2    1    3    3    0  502  0.10763567803E+04 -0.13253980331E+04 -0.20803474438E+03  0.17200297439E+04  0.25500000920E-02 0.  1.
</event>
<event>
 5   0  0.7731706E-08  0.3932608E+04  0.7818609E-02  0.8018281E-01
        1   -1    0    0  501    0  0.00000000000E+00  0.00000000000E+00  0.24032108444E+04  0.24032108444E+04  0.50400001928E-02 0. -1.
       -1   -1    0    0    0  501  0.00000000000E+00  0.00000000000E+00 -0.16088276663E+04  0.16088276663E+04  0.50400001928E-02 0.  1.
    10030    2    1    2    0    0  0.00000000000E+00  0.00000000000E+00  0.79438317810E+03  0.40120385107E+04  0.39326083427E+04 0.  0.
        3    1    3    3  502    0  0.13606397767E+04  0.97734654850E+03 -0.65306985188E+03  0.17980676070E+04  0.10100000352E+00 0.  1.
       -3    1    3    3    0  502 -0.13606397767E+04 -0.97734654850E+03  0.14474530300E+04  0.22139709036E+04  0.10100000352E+00 0. -1.
</event>
<event>
 5   0  0.2384787E-07  0.3861307E+04  0.7818609E-02  0.8033125E-01
       -2   -1    0    0    0  501  0.00000000000E+00  0.00000000000E+00  0.15617937739E+04  0.15617937739E+04  0.25500000920E-02 0. -1.
        2   -1    0    0  501    0  0.00000000000E+00  0.00000000000E+00 -0.23866293158E+04  0.23866293158E+04  0.25500000920E-02 0.  1.
    10030    2    1    2    0    0  0.00000000000E+00  0.00000000000E+00 -0.82483554193E+03  0.39484230897E+04  0.38613069321E+04 0.  0.
        4    1    3    3  502    0 -0.12220034309E+04 -0.99128163394E+03  0.73152149776E+03  0.17352397464E+04  0.12699999809E+01 0. -1.
       -4    1    3    3    0  502  0.12220034309E+04  0.99128163394E+03 -0.15563570397E+04  0.22131833433E+04  0.12699999809E+01 0.  1.
</event>
<event>
 5   0  0.2446281E-07  0.3921750E+04  0.7818609E-02  0.8020521E-01
        2   -1    0    0  501    0  0.00000000000E+00  0.00000000000E+00  0.23778977965E+04  0.23778977966E+04  0.25500000920E-02 0.  1.
       -2   -1    0    0    0  501  0.00000000000E+00  0.00000000000E+00 -0.16169872733E+04  0.16169872733E+04  0.25500000920E-02 0. -1.
    10030    2    1    2    0    0  0.00000000000E+00  0.00000000000E+00  0.76091052329E+03  0.39948850698E+04  0.39217498513E+04 0.  0.
        1    1    3    3  502    0  0.40118911191E+03 -0.28113594524E+03 -0.15536471469E+04  0.16290517427E+04  0.50400001928E-02 0. -1.
       -1    1    3    3    0  502 -0.40118911191E+03  0.28113594524E+03  0.23145576702E+04  0.23658333271E+04  0.50400001928E-02 0.  1.
</event>
<event>
 5   0  0.2446281E-07  0.3925585E+04  0.7818609E-02  0.8019729E-01
       -2   -1    0    0    0  501  0.00000000000E+00  0.00000000000E+00  0.19613217578E+04  0.19613217578E+04  0.25500000920E-02 0. -1.
        2   -1    0    0  501    0  0.00000000000E+00  0.00000000000E+00 -0.19642644378E+04  0.19642644378E+04  0.25500000920E-02 0.  1.
    10030    2    1    2    0    0  0.00000000000E+00  0.00000000000E+00 -0.29426799313E+01  0.39255861956E+04  0.39255850926E+04 0.  0.
        1    1    3    3  502    0 -0.73274625519E+03  0.19458402548E+03  0.18089916959E+04  0.19614359468E+04  0.50400001928E-02 0. -1.
       -1    1    3    3    0  502  0.73274625519E+03 -0.19458402548E+03 -0.18119343758E+04  0.19641502488E+04  0.50400001928E-02 0.  1.
</event>
<event>
 5   0  0.2395572E-07  0.3893794E+04  0.7818609E-02  0.8026321E-01
       -2   -1    0    0    0  501  0.00000000000E+00  0.00000000000E+00  0.17594149083E+04  0.17594149083E+04  0.25500000920E-02 0.  1.
        2   -1    0    0  501    0  0.00000000000E+00  0.00000000000E+00 -0.21543568888E+04  0.21543568888E+04  0.25500000920E-02 0. -1.
    10030    2    1    2    0    0  0.00000000000E+00  0.00000000000E+00 -0.39494198049E+03  0.39137717971E+04  0.38937938456E+04 0.  0.
        3    1    3    3  502    0  0.73516319882E+03 -0.19754051963E+03 -0.19985688778E+04  0.21386361905E+04  0.10100000352E+00 0. -1.
       -3    1    3    3    0  502 -0.73516319882E+03  0.19754051963E+03  0.16036268973E+04  0.17751356066E+04  0.10100000352E+00 0.  1.
</event>
<event>
 5   0  0.2486268E-07  0.3904373E+04  0.7818609E-02  0.8024120E-01
        2   -1    0    0  501    0  0.00000000000E+00  0.00000000000E+00  0.13055506822E+04  0.13055506822E+04  0.25500000920E-02 0.  1.
       -2   -1    0    0    0  501  0.00000000000E+00  0.00000000000E+00 -0.29190996288E+04  0.29190996288E+04  0.25500000920E-02 0. -1.
    10030    2    1    2    0    0  0.00000000000E+00  0.00000000000E+00 -0.16135489466E+04  0.42246503110E+04  0.39043731952E+04 0.  0.
        5    1    3    3  502    0  0.76668664384E+03 -0.10273316695E+04  0.78634451509E+03  0.15038545659E+04  0.46999998093E+01 0.  1.
       -5    1    3    3    0  502 -0.76668664384E+03  0.10273316695E+04 -0.23998934617E+04  0.27207957451E+04  0.46999998093E+01 0. -1.
</event>
<event>
 5   0  0.7731706E-08  0.3557549E+04  0.7818609E-02  0.8100285E-01
        1   -1    0    0  501    0  0.00000000000E+00  0.00000000000E+00  0.30948974948E+04  0.30948974948E+04  0.50400001928E-02 0.  1.
       -1   -1    0    0    0  501  0.00000000000E+00  0.00000000000E+00 -0.10223406078E+04  0.10223406078E+04  0.50400001928E-02 0. -1.
    10030    2    1    2    0    0  0.00000000000E+00  0.00000000000E+00  0.20725568870E+04  0.41172381026E+04  0.35575493734E+04 0.  0.
        3    1    3    3  502    0  0.21197900434E+03 -0.13701811506E+04 -0.25335048897E+03  0.14094388827E+04  0.10100000352E+00 0. -1.
       -3    1    3    3    0  502 -0.21197900434E+03  0.13701811506E+04  0.23259073760E+04  0.27077992199E+04  0.10100000352E+00 0.  1.
</event>
<event>
 5   0  0.7675750E-08  0.3533602E+04  0.7818609E-02  0.8105873E-01
        1   -1    0    0  501    0  0.00000000000E+00  0.00000000000E+00  0.24769103503E+04  0.24769103503E+04  0.50400001928E-02 0.  1.
       -1   -1    0    0    0  501  0.00000000000E+00  0.00000000000E+00 -0.12602741249E+04  0.12602741249E+04  0.50400001928E-02 0. -1.
    10030    2    1    2    0    0  0.00000000000E+00  0.00000000000E+00  0.12166362253E+04  0.37371844752E+04  0.35336021419E+04 0.  0.
        4    1    3    3  502    0  0.13096668130E+03 -0.17568634701E+04  0.74967035866E+03  0.19146093032E+04  0.12699999809E+01 0.  1.
       -4    1    3    3    0  502 -0.13096668130E+03  0.17568634701E+04  0.46696586667E+03  0.18225751720E+04  0.12699999809E+01 0. -1.
</event>
<event>
 5   0  0.2384787E-07  0.3896795E+04  0.7818609E-02  0.8025696E-01
       -2   -1    0    0    0  501  0.00000000000E+00  0.00000000000E+00  0.14265979884E+04  0.14265979884E+04  0.25500000920E-02 0. -1.
        2   -1    0    0  501    0  0.00000000000E+00  0.00000000000E+00 -0.26610531633E+04  0.26610531633E+04  0.25500000920E-02 0.  1.
    10030    2    1    2    0    0  0.00000000000E+00  0.00000000000E+00 -0.12344551749E+04  0.40876511518E+04  0.38967951395E+04 0.  0.
        4    1    3    3  502    0  0.73823854116E+02  0.18831161330E+03 -0.26500100087E+04  0.26577181724E+04  0.12699999809E+01 0.  1.
       -4    1    3    3    0  502 -0.73823854116E+02 -0.18831161330E+03  0.14155548337E+04  0.14299329793E+04  0.12699999809E+01 0. -1.
</event>
<event>
 5   0  0.7731706E-08  0.3930002E+04  0.7818609E-02  0.8018818E-01
       -1   -1    0    0    0  501  0.00000000000E+00  0.00000000000E+00  0.27598706893E+04  0.27598706893E+04  0.50400001928E-02 0.  1.
        1   -1    0    0  501    0  0.00000000000E+00  0.00000000000E+00 -0.13990614408E+04  0.13990614408E+04  0.50400001928E-02 0. -1.
    10030    2    1    2    0    0  0.00000000000E+00  0.00000000000E+00  0.13608092485E+04  0.41589321301E+04  0.39300018642E+04 0.  0.
        3    1    3    3  502    0  0.42845262653E+02 -0.18072234429E+04 -0.13474917987E+03  0.18127464359E+04  0.10100000352E+00 0. -1.
       -3    1    3    3    0  502 -0.42845262653E+02  0.18072234429E+04  0.14955584283E+04  0.23461856942E+04  0.10100000352E+00 0.  1.
</event>
<event>
 5   0  0.7675750E-08  0.3854051E+04  0.7818609E-02  0.8034654E-01
       -1   -1    0    0    0  501  0.00000000000E+00  0.00000000000E+00  0.16546297458E+04  0.16546297458E+04  0.50400001928E-02 0. -1.
        1   -1    0    0  501    0  0.00000000000E+00  0.00000000000E+00 -0.22442642493E+04  0.22442642493E+04  0.50400001928E-02 0.  1.
    10030    2    1    2    0    0  0.00000000000E+00  0.00000000000E+00 -0.58963450345E+03  0.38988939951E+04  0.38540505364E+04 0.  0.
        2    1    3    3  502    0 -0.10585702718E+04 -0.13562705484E+04  0.58325988564E+03  0.18166543190E+04  0.25500000920E-02 0. -1.
       -2    1    3    3    0  502  0.10585702718E+04  0.13562705484E+04 -0.11728943891E+04  0.20822396761E+04  0.25500000920E-02 0.  1.
</event>
<event>
 5   0  0.7675750E-08  0.3775975E+04  0.7818609E-02  0.8051330E-01
       -1   -1    0    0    0  501  0.00000000000E+00  0.00000000000E+00  0.19887830228E+04  0.19887830228E+04  0.50400001928E-02 0. -1.
        1   -1    0    0  501    0  0.00000000000E+00  0.00000000000E+00 -0.17923009090E+04  0.17923009090E+04  0.50400001928E-02 0.  1.
    10030    2    1    2    0    0  0.00000000000E+00  0.00000000000E+00  0.19648211371E+03  0.37810839318E+04  0.37759754340E+04 0.  0.
        5    1    3    3  502    0  0.14989371782E+04  0.66366414380E+03  0.10361045482E+04  0.19392775678E+04  0.46999998093E+01 0. -1.
       -5    1    3    3    0  502 -0.14989371782E+04 -0.66366414380E+03 -0.83962243449E+03  0.18418063640E+04  0.46999998093E+01 0.  1.
</event>
<event>
 5   0  0.7731706E-08  0.3868341E+04  0.7818609E-02  0.8031646E-01
       -1   -1    0    0    0  501  0.00000000000E+00  0.00000000000E+00  0.13834918375E+04  0.13834918375E+04  0.50400001928E-02 0. -1.
        1   -1    0    0  501    0  0.00000000000E+00  0.00000000000E+00 -0.27040390084E+04  0.27040390084E+04  0.50400001928E-02 0.  1.
    10030    2    1    2    0    0  0.00000000000E+00  0.00000000000E+00 -0.13205471709E+04  0.40875308460E+04  0.38683411931E+04 0.  0.
        3    1    3    3  502    0  0.10861776222E+04 -0.75501572716E+03  0.83077608288E+03  0.15620561722E+04  0.10100000352E+00 0. -1.
       -3    1    3    3    0  502 -0.10861776222E+04  0.75501572716E+03 -0.21513232538E+04  0.25254746737E+04  0.10100000352E+00 0.  1.
</event>
<event>
 5   0  0.7675750E-08  0.3344109E+04  0.7818609E-02  0.8151762E-01
        1   -1    0    0  501    0  0.00000000000E+00  0.00000000000E+00  0.17670705058E+04  0.17670705058E+04  0.50400001928E-02 0. -1.
       -1   -1    0    0    0  501  0.00000000000E+00  0.00000000000E+00 -0.15821476430E+04  0.15821476431E+04  0.50400001928E-02 0.  1.
    10030    2    1    2    0    0  0.00000000000E+00  0.00000000000E+00  0.18492286278E+03  0.33492181489E+04  0.33441091106E+04 0.  0.
        5    1    3    3  502    0 -0.94463803663E+03 -0.44244887012E+01 -0.12892780764E+04  0.15983180674E+04  0.46999998093E+01 0.  1.
       -5    1    3    3    0  502  0.94463803663E+03  0.44244887012E+01  0.14742009392E+04  0.17509000815E+04  0.46999998093E+01 0. -1.
</event>
<event>
 5   0  0.7675750E-08  0.3965770E+04  0.7818609E-02  0.8011488E-01
       -1   -1    0    0    0  501  0.00000000000E+00  0.00000000000E+00  0.17169035094E+04  0.17169035094E+04  0.50400001928E-02 0. -1.
        1   -1    0    0  501    0  0.00000000000E+00  0.00000000000E+00 -0.22900716430E+04  0.22900716430E+04  0.50400001928E-02 0.  1.
    10030    2    1    2    0    0  0.00000000000E+00  0.00000000000E+00 -0.57316813364E+03  0.40069751524E+04  0.39657695549E+04 0.  0.
        2    1    3    3  502    0 -0.87570003947E+03  0.83210628949E+03  0.13021982741E+04  0.17762240234E+04  0.25500000920E-02 0. -1.
       -2    1    3    3    0  502  0.87570003947E+03 -0.83210628949E+03 -0.18753664078E+04  0.22307511290E+04  0.25500000920E-02 0.  1.
</event>
<event>
 5   0  0.7675750E-08  0.3929105E+04  0.7818609E-02  0.8019003E-01
       -1   -1    0    0    0  501  0.00000000000E+00  0.00000000000E+00  0.22427903387E+04  0.22427903387E+04  0.50400001928E-02 0. -1.
        1   -1    0    0  501    0  0.00000000000E+00  0.00000000000E+00 -0.17208324397E+04  0.17208324397E+04  0.50400001928E-02 0.  1.
    10030    2    1    2    0    0  0.00000000000E+00  0.00000000000E+00  0.52195789904E+03  0.39636227784E+04  0.39291049211E+04 0.  0.
        2    1    3    3  502    0  0.12523249211E+04  0.13682117248E+04  0.91408094322E+03  0.20678164819E+04  0.25500000920E-02 0. -1.
       -2    1    3    3    0  502 -0.12523249211E+04 -0.13682117248E+04 -0.39212304418E+03  0.18958062965E+04  0.25500000920E-02 0.  1.
</event>
<event>
 5   0  0.2486268E-07  0.3896652E+04  0.7818609E-02  0.8025726E-01
       -2   -1    0    0    0  501  0.00000000000E+00  0.00000000000E+00  0.19611169576E+04  0.19611169576E+04  0.25500000920E-02 0.  1.
        2   -1    0    0  501    0  0.00000000000E+00  0.00000000000E+00 -0.19356186285E+04  0.19356186285E+04  0.25500000920E-02 0. -1.
    10030    2    1    2    0    0  0.00000000000E+00  0.00000000000E+00  0.25498329116E+02  0.38967355862E+04  0.38966521610E+04 0.  0.
        5    1    3    3  502    0  0.81098841756E+03  0.17679074008E+04 -0.10018524410E+03  0.19476288056E+04  0.46999998093E+01 0. -1.
       -5    1    3    3    0  502 -0.81098841756E+03 -0.17679074008E+04  0.12568357322E+03  0.19491067805E+04  0.46999998093E+01 0.  1.
</event>
<event>
 5   0  0.7731706E-08  0.3633711E+04  0.7818609E-02  0.8082813E-01
       -1   -1    0    0    0  501  0.00000000000E+00  0.00000000000E+00  0.23803039138E+04  0.23803039138E+04  0.50400001928E-02 0.  1.
        1   -1    0    0  501    0  0.00000000000E+00  0.00000000000E+00 -0.13867821923E+04  0.13867821923E+04  0.50400001928E-02 0. -1.
    10030    2    1    2    0    0  0.00000000000E+00  0.00000000000E+00  0.99352172154E+03  0.37670861061E+04  0.36337105443E+04 0.  0.
        3    1    3    3  502    0 -0.10118280408E+04  0.29933291315E+03 -0.10365700438E+04  0.14791462548E+04  0.10100000352E+00 0. -1.
       -3    1    3    3    0  502  0.10118280408E+04 -0.29933291315E+03  0.20300917654E+04  0.22879398513E+04  0.10100000352E+00 0.  1.
</event>
<event>
 5   0  0.2486268E-07  0.4232226E+04  0.7818609E-02  0.7959270E-01
       -2   -1    0    0    0  501  0.00000000000E+00  0.00000000000E+00  0.25249156427E+04  0.25249156427E+04  0.25500000920E-02 0.  1.
        2   -1    0    0  501    0  0.00000000000E+00  0.00000000000E+00 -0.17734986337E+04  0.17734986337E+04  0.25500000920E-02 0. -1.
    10030    2    1    2    0    0  0.00000000000E+00  0.00000000000E+00  0.75141700905E+03  0.42984142764E+04  0.42322261010E+04 0.  0.
        5    1    3    3  502    0  0.12467288731E+03 -0.15569028270E+04 -0.10743533321E+04  0.18957180471E+04  0.46999998093E+01 0. -1.
       -5    1    3    3    0  502 -0.12467288731E+03  0.15569028270E+04  0.18257703412E+04  0.24026962293E+04  0.46999998093E+01 0.  1.
</event>
<event>
 5   0  0.7731706E-08  0.3909303E+04  0.7818609E-02  0.8023097E-01
       -1   -1    0    0    0  501  0.00000000000E+00  0.00000000000E+00  0.15020991897E+04  0.15020991898E+04  0.50400001928E-02 0.  1.
        1   -1    0    0  501    0  0.00000000000E+00  0.00000000000E+00 -0.25435488079E+04  0.25435488079E+04  0.50400001928E-02 0. -1.
    10030    2    1    2    0    0  0.00000000000E+00  0.00000000000E+00 -0.10414496181E+04  0.40456479977E+04  0.39093030599E+04 0.  0.
        3    1    3    3  502    0 -0.54711604535E+03  0.23427708305E+03 -0.24474982542E+04  0.25188230254E+04  0.10100000352E+00 0. -1.
       -3    1    3    3    0  502  0.54711604535E+03 -0.23427708305E+03  0.14060486361E+04  0.15268249723E+04  0.10100000352E+00 0.  1.
</event>
<event>
 5   0  0.2384787E-07  0.3924486E+04  0.7818609E-02  0.8019956E-01
       -2   -1    0    0    0  501  0.00000000000E+00  0.00000000000E+00  0.18793508990E+04  0.18793508990E+04  0.25500000920E-02 0.  1.
        2   -1    0    0  501    0  0.00000000000E+00  0.00000000000E+00 -0.20487912295E+04  0.20487912295E+04  0.25500000920E-02 0. -1.
    10030    2    1    2    0    0  0.00000000000E+00  0.00000000000E+00 -0.16944033050E+03  0.39281421285E+04  0.39244860244E+04 0.  0.
        4    1    3    3  502    0  0.15643650170E+04 -0.10422984910E+04 -0.64806949588E+03  0.19883711261E+04  0.12699999809E+01 0. -1.
       -4    1    3    3    0  502 -0.15643650170E+04  0.10422984910E+04  0.47862916538E+03  0.19397710024E+04  0.12699999809E+01 0.  1.
</event>
<event>
 5   0  0.7675750E-08  0.3831198E+04  0.7818609E-02  0.8039493E-01
        1   -1    0    0  501    0  0.00000000000E+00  0.00000000000E+00  0.15371628713E+04  0.15371628713E+04  0.50400001928E-02 0. -1.
       -1   -1    0    0    0  501  0.00000000000E+00  0.00000000000E+00 -0.23872031846E+04  0.23872031846E+04  0.50400001928E-02 0.  1.
    10030    2    1    2    0    0  0.00000000000E+00  0.00000000000E+00 -0.85004031331E+03  0.39243660558E+04  0.38311982990E+04 0.  0.
        4    1    3    3  502    0 -0.96245376624E+03  0.74883900054E+03 -0.19382544466E+04  0.22899582996E+04  0.12699999809E+01 0.  1.
       -4    1    3    3    0  502  0.96245376624E+03 -0.74883900054E+03  0.10882141333E+04  0.16344077563E+04  0.12699999809E+01 0. -1.
</event>
<event>
 5   0  0.2384787E-07  0.3897108E+04  0.7818609E-02  0.8025631E-01
        2   -1    0    0  501    0  0.00000000000E+00  0.00000000000E+00  0.24028857660E+04  0.24028857660E+04  0.25500000920E-02 0. -1.
       -2   -1    0    0    0  501  0.00000000000E+00  0.00000000000E+00 -0.15801259306E+04  0.15801259306E+04  0.25500000920E-02 0.  1.
    10030    2    1    2    0    0  0.00000000000E+00  0.00000000000E+00  0.82275983535E+03  0.39830116966E+04  0.38971077005E+04 0.  0.
        4    1    3    3  502    0  0.13506110574E+04 -0.13587018233E+04  0.77508885672E+03  0.20666362094E+04  0.12699999809E+01 0. -1.
       -4    1    3    3    0  502 -0.13506110574E+04  0.13587018233E+04  0.47670978627E+02  0.19163754873E+04  0.12699999809E+01 0.  1.
</event>
<event>
 5   0  0.2473224E-07  0.3903729E+04  0.7818609E-02  0.8024254E-01
        2   -1    0    0  501    0  0.00000000000E+00  0.00000000000E+00  0.21449452775E+04  0.21449452775E+04  0.25500000920E-02 0.  1.
       -2   -1    0    0    0  501  0.00000000000E+00  0.00000000000E+00 -0.17761642524E+04  0.17761642524E+04  0.25500000920E-02 0. -1.
    10030    2    1    2    0    0  0.00000000000E+00  0.00000000000E+00  0.36878102516E+03  0.39211095299E+04  0.39037290507E+04 0.  0.
        2    1    3    3  502    0  0.27548199570E+03  0.15381207393E+03  0.21191613244E+04  0.21425202923E+04  0.25500000920E-02 0.  1.
       -2    1    3    3    0  502 -0.27548199570E+03 -0.15381207393E+03 -0.17503802993E+04  0.17785892376E+04  0.25500000920E-02 0. -1.
</event>
<event>
 5   0  0.7675750E-08  0.3879943E+04  0.7818609E-02  0.8029214E-01
       -1   -1    0    0    0  501  0.00000000000E+00  0.00000000000E+00  0.19677972422E+04  0.19677972422E+04  0.50400001928E-02 0.  1.
        1   -1    0    0  501    0  0.00000000000E+00  0.00000000000E+00 -0.19125387558E+04  0.19125387558E+04  0.50400001928E-02 0. -1.
    10030    2    1    2    0    0  0.00000000000E+00  0.00000000000E+00  0.55258486373E+02  0.38803359980E+04  0.38799425199E+04 0.  0.
        1    1    3    3  502    0  0.16682961304E+04  0.24428426367E+03 -0.93194797693E+03  0.19265030007E+04  0.50400001928E-02 0. -1.
       -1    1    3    3    0  502 -0.16682961304E+04 -0.24428426367E+03  0.98720646330E+03  0.19538329973E+04  0.50400001928E-02 0.  1.
</event>
<event>
 5   0  0.7675750E-08  0.3901804E+04  0.7818609E-02  0.8024654E-01
       -1   -1    0    0    0  501  0.00000000000E+00  0.00000000000E+00  0.14949273886E+04  0.14949273886E+04  0.50400001928E-02 0. -1.
        1   -1    0    0  501    0  0.00000000000E+00  0.00000000000E+00 -0.25459552026E+04  0.25459552026E+04  0.50400001928E-02 0.  1.
    10030    2    1    2    0    0  0.00000000000E+00  0.00000000000E+00 -0.10510278140E+04  0.40408825912E+04  0.39018037687E+04 0.  0.
        1    1    3    3  502    0  0.59261333689E+03  0.40631808964E+03  0.13528993622E+04  0.15318686762E+04  0.50400001928E-02 0. -1.
       -1    1    3    3    0  502 -0.59261333689E+03 -0.40631808964E+03 -0.24039271762E+04  0.25090139149E+04  0.50400001928E-02 0.  1.
</event>
<event>
 5   0  0.2486268E-07  0.3895693E+04  0.7818609E-02  0.8025926E-01
       -2   -1    0    0    0  501  0.00000000000E+00  0.00000000000E+00  0.14779920798E+04  0.14779920799E+04  0.25500000920E-02 0. -1.
        2   -1    0    0  501    0  0.00000000000E+00  0.00000000000E+00 -0.25670675176E+04  0.25670675176E+04  0.25500000920E-02 0.  1.
    10030    2    1    2    0    0  0.00000000000E+00  0.00000000000E+00 -0.10890754378E+04  0.40450595975E+04  0.38956927289E+04 0.  0.
        5    1    3    3  502    0  0.67783988743E+02  0.17538769902E+03 -0.25576160361E+04  0.25645228391E+04  0.46999998093E+01 0.  1.
       -5    1    3    3    0  502 -0.67783988743E+02 -0.17538769902E+03  0.14685405983E+04  0.14805367584E+04  0.46999998093E+01 0. -1.
</event>
<event>
 5   0  0.2395572E-07  0.3840503E+04  0.7818609E-02  0.8037518E-01
       -2   -1    0    0    0  501  0.00000000000E+00  0.00000000000E+00  0.21745991627E+04  0.21745991627E+04  0.25500000920E-02 0.  1.
        2   -1    0    0  501    0  0.00000000000E+00  0.00000000000E+00 -0.16956531988E+04  0.16956531988E+04  0.25500000920E-02 0. -1.
    10030    2    1    2    0    0  0.00000000000E+00  0.00000000000E+00  0.47894596392E+03  0.38702523615E+04  0.38405031057E+04 0.  0.
        3    1    3    3  502    0  0.35237668197E+03 -0.15812559725E+04  0.12783934382E+04  0.20636931869E+04  0.10100000352E+00 0.  1.
       -3    1    3    3    0  502 -0.35237668197E+03  0.15812559725E+04 -0.79944747433E+03  0.18065591745E+04  0.10100000352E+00 0. -1.
</event>
<event>
 5   0  0.2395572E-07  0.3655781E+04  0.7818609E-02  0.8077833E-01
        2   -1    0    0  501    0  0.00000000000E+00  0.00000000000E+00  0.28634493951E+04  0.28634493951E+04  0.25500000920E-02 0.  1.
       -2   -1    0    0    0  501  0.00000000000E+00  0.00000000000E+00 -0.11668385757E+04  0.11668385757E+04  0.25500000920E-02 0. -1.
    10030    2    1    2    0    0  0.00000000000E+00  0.00000000000E+00  0.16966108194E+04  0.40302879708E+04  0.36557807450E+04 0.  0.
        3    1    3    3  502    0 -0.95058155669E+03  0.73904856184E+03 -0.66785768966E+03  0.13768921441E+04  0.10100000352E+00 0. -1.
       -3    1    3    3    0  502  0.95058155669E+03 -0.73904856184E+03  0.23644685090E+04  0.26533958267E+04  0.10100000352E+00 0.  1.
</event>
<event>
 5   0  0.7675750E-08  0.3883488E+04  0.7818609E-02  0.8028472E-01
        1   -1    0    0  501    0  0.00000000000E+00  0.00000000000E+00  0.28767422182E+04  0.28767422182E+04  0.50400001928E-02 0. -1.
       -1   -1    0    0    0  501  0.00000000000E+00  0.00000000000E+00 -0.13106387843E+04  0.13106387843E+04  0.50400001928E-02 0.  1.
    10030    2    1    2    0    0  0.00000000000E+00  0.00000000000E+00  0.15661034340E+04  0.41873810025E+04  0.38834880835E+04 0.  0.
        2    1    3    3  502    0  0.25913466800E+03 -0.26270609107E+03 -0.12724847779E+04  0.13249085917E+04  0.25500000920E-02 0.  1.
       -2    1    3    3    0  502 -0.25913466800E+03  0.26270609107E+03  0.28385882118E+04  0.28624724108E+04  0.25500000920E-02 0. -1.
</event>
<event>
 5   0  0.2384787E-07  0.3889892E+04  0.7818609E-02  0.8027135E-01
       -2   -1    0    0    0  501  0.00000000000E+00  0.00000000000E+00  0.25404602209E+04  0.25404602209E+04  0.25500000920E-02 0. -1.
        2   -1    0    0  501    0  0.00000000000E+00  0.00000000000E+00 -0.14890277663E+04  0.14890277663E+04  0.25500000920E-02 0.  1.
    10030    2    1    2    0    0  0.00000000000E+00  0.00000000000E+00  0.10514324546E+04  0.40294879873E+04  0.38898924449E+04 0.  0.
        4    1    3    3  502    0  0.12822816954E+04  0.36491528453E+03 -0.94122692640E+03  0.16319679075E+04  0.12699999809E+01 0.  1.
       -4    1    3    3    0  502 -0.12822816954E+04 -0.36491528453E+03  0.19926593810E+04  0.23975200798E+04  0.12699999809E+01 0. -1.
</event>
<event>
 5   0  0.7731706E-08  0.3135211E+04  0.7818609E-02  0.8206141E-01
       -1   -1    0    0    0  501  0.00000000000E+00  0.00000000000E+00  0.11121607848E+04  0.11121607848E+04  0.50400001928E-02 0. -1.
        1   -1    0    0  501    0  0.00000000000E+00  0.00000000000E+00 -0.22095603674E+04  0.22095603674E+04  0.50400001928E-02 0.  1.
    10030    2    1    2    0    0  0.00000000000E+00  0.00000000000E+00 -0.10973995827E+04  0.33217211522E+04  0.31352106100E+04 0.  0.
        3    1    3    3  502    0 -0.87645865477E+03 -0.56355669766E+03  0.69212895310E+03  0.12509270254E+04  0.10100000352E+00 0. -1.
       -3    1    3    3    0  502  0.87645865477E+03  0.56355669766E+03 -0.17895285358E+04  0.20707941268E+04  0.10100000352E+00 0.  1.
</event>
<event>
 5   0  0.2395572E-07  0.3865013E+04  0.7818609E-02  0.8032345E-01
       -2   -1    0    0    0  501  0.00000000000E+00  0.00000000000E+00  0.16872115922E+04  0.16872115922E+04  0.25500000920E-02 0.  1.
        2   -1    0    0  501    0  0.00000000000E+00  0.00000000000E+00 -0.22134636159E+04  0.22134636159E+04  0.25500000920E-02 0. -1.
    10030    2    1    2    0    0  0.00000000000E+00  0.00000000000E+00 -0.52625202370E+03  0.39006752080E+04  0.38650130512E+04 0.  0.
        3    1    3    3  502    0 -0.13999484521E+04  0.14555888160E+03 -0.15995567817E+04  0.21306395671E+04  0.10100000352E+00 0. -1.
       -3    1    3    3    0  502  0.13999484521E+04 -0.14555888160E+03  0.10733047580E+04  0.17700356410E+04  0.10100000352E+00 0.  1.
</event>
<event>
 5   0  0.7675750E-08  0.3893766E+04  0.7818609E-02  0.8026327E-01
       -1   -1    0    0    0  501  0.00000000000E+00  0.00000000000E+00  0.33880103785E+04  0.33880103785E+04  0.50400001928E-02 0.  1.
        1   -1    0    0  501    0  0.00000000000E+00  0.00000000000E+00 -0.11187552067E+04  0.11187552067E+04  0.50400001928E-02 0. -1.
    10030    2    1    2    0    0  0.00000000000E+00  0.00000000000E+00  0.22692551718E+04  0.45067655852E+04  0.38937664292E+04 0.  0.
        1    1    3    3  502    0 -0.73047614447E+03 -0.99111346343E+03 -0.61092747316E+03  0.13744575921E+04  0.50400001928E-02 0. -1.
       -1    1    3    3    0  502  0.73047614447E+03  0.99111346343E+03  0.28801826450E+04  0.31323079931E+04  0.50400001928E-02 0.  1.
</event>
<event>
 5   0  0.2486268E-07  0.3922877E+04  0.7818609E-02  0.8020288E-01
       -2   -1    0    0    0  501  0.00000000000E+00  0.00000000000E+00  0.26064731437E+04  0.26064731437E+04  0.25500000920E-02 0. -1.
        2   -1    0    0  501    0  0.00000000000E+00  0.00000000000E+00 -0.14760334399E+04  0.14760334399E+04  0.25500000920E-02 0.  1.
    10030    2    1    2    0    0  0.00000000000E+00  0.00000000000E+00  0.11304397039E+04  0.40825065836E+04  0.39228772707E+04 0.  0.
        5    1    3    3  502    0  0.17430462064E+04  0.83989691331E+03  0.23028107899E+03  0.19485092681E+04  0.46999998093E+01 0. -1.
       -5    1    3    3    0  502 -0.17430462064E+04 -0.83989691331E+03  0.90015862488E+03  0.21339973155E+04  0.46999998093E+01 0.  1.
</event>
<event>
 5   0  0.7675750E-08  0.3946698E+04  0.7818609E-02  0.8015386E-01
        1   -1    0    0  501    0  0.00000000000E+00  0.00000000000E+00  0.20642615144E+04  0.20642615144E+04  0.50400001928E-02 0. -1.
       -1   -1    0    0    0  501  0.00000000000E+00  0.00000000000E+00 -0.18864407026E+04  0.18864407027E+04  0.50400001928E-02 0.  1.
    10030    2    1    2    0    0  0.00000000000E+00  0.00000000000E+00  0.17782081171E+03  0.39507022170E+04  0.39466983374E+04 0.  0.
        4    1    3    3  502    0 -0.25083901738E+03  0.18061154517E+04  0.84408418247E+03  0.20093414238E+04  0.12699999809E+01 0. -1.
       -4    1    3    3    0  502  0.25083901738E+03 -0.18061154517E+04 -0.66626337076E+03  0.19413607932E+04  0.12699999809E+01 0.  1.
</event>
<event>
 5   0  0.2473224E-07  0.3884529E+04  0.7818609E-02  0.8028255E-01
       -2   -1    0    0    0  501  0.00000000000E+00  0.00000000000E+00  0.15576248181E+04  0.15576248181E+04  0.25500000920E-02 0.  1.
        2   -1    0    0  501    0  0.00000000000E+00  0.00000000000E+00 -0.24218866193E+04  0.24218866193E+04  0.25500000920E-02 0. -1.
    10030    2    1    2    0    0  0.00000000000E+00  0.00000000000E+00 -0.86426180121E+03  0.39795114374E+04  0.38845286483E+04 0.  0.
        2    1    3    3  502    0  0.11238627595E+03 -0.17098466991E+03 -0.24108145432E+04  0.24194820095E+04  0.25500000920E-02 0. -1.
       -2    1    3    3    0  502 -0.11238627595E+03  0.17098466991E+03  0.15465527420E+04  0.15600294280E+04  0.25500000920E-02 0.  1.
</event>
<event>
 5   0  0.2395572E-07  0.3896144E+04  0.7818609E-02  0.8025832E-01
       -2   -1    0    0    0  501  0.00000000000E+00  0.00000000000E+00  0.14796354502E+04  0.14796354502E+04  0.25500000920E-02 0. -1.
        2   -1    0    0  501    0  0.00000000000E+00  0.00000000000E+00 -0.25648105356E+04  0.25648105356E+04  0.25500000920E-02 0.  1.
    10030    2    1    2    0    0  0.00000000000E+00  0.00000000000E+00 -0.10851750854E+04  0.40444459859E+04  0.38961440382E+04 0.  0.
        3    1    3    3  502    0 -0.92756416792E+03 -0.15953472830E+04  0.10524771014E+03  0.18484007492E+04  0.10100000352E+00 0. -1.
       -3    1    3    3    0  502  0.92756416792E+03  0.15953472830E+04 -0.11904227956E+04  0.21960452367E+04  0.10100000352E+00 0.  1.
</event>
<event>
 5   0  0.7675750E-08  0.3865644E+04  0.7818609E-02  0.8032213E-01
       -1   -1    0    0    0  501  0.00000000000E+00  0.00000000000E+00  0.10384618360E+04  0.10384618360E+04  0.50400001928E-02 0.  1.
        1   -1    0    0  501    0  0.00000000000E+00  0.00000000000E+00 -0.35974365962E+04  0.35974365962E+04  0.50400001928E-02 0. -1.
    10030    2    1    2    0    0  0.00000000000E+00  0.00000000000E+00 -0.25589747601E+04  0.46358984322E+04  0.38656438598E+04 0.  0.
        5    1    3    3  502    0 -0.14095589538E+04 -0.11400110228E+04 -0.47563036563E+03  0.18742272837E+04  0.46999998093E+01 0.  1.
       -5    1    3    3    0  502  0.14095589538E+04  0.11400110228E+04 -0.20833443945E+04  0.27616711485E+04  0.46999998093E+01 0. -1.
</event>
<event>
 5   0  0.7675750E-08  0.3892652E+04  0.7818609E-02  0.8026559E-01
        4   -1    0    0  501    0  0.00000000000E+00  0.00000000000E+00  0.19080179621E+04  0.19080183848E+04  0.12699999809E+01 0. -1.
       -4   -1    0    0    0  501  0.00000000000E+00  0.00000000000E+00 -0.19854021241E+04  0.19854025302E+04  0.12699999809E+01 0.  1.
    10030    2    1    2    0    0  0.00000000000E+00  0.00000000000E+00 -0.77384161907E+02  0.38934209151E+04  0.38926518099E+04 0.  0.
        1    1    3    3  502    0 -0.87275338724E+03 -0.10129727891E+04  0.13759325059E+04  0.19185939141E+04  0.50400001928E-02 0. -1.
       -1    1    3    3    0  502  0.87275338724E+03  0.10129727891E+04 -0.14533166679E+04  0.19748270009E+04  0.50400001928E-02 0.  1.
</event>
<event>
 5   0  0.2384787E-07  0.3883969E+04  0.7818609E-02  0.8028372E-01
       -2   -1    0    0    0  501  0.00000000000E+00  0.00000000000E+00  0.26057422575E+04  0.26057422575E+04  0.25500000920E-02 0.  1.
        2   -1    0    0  501    0  0.00000000000E+00  0.00000000000E+00 -0.14473053371E+04  0.14473053371E+04  0.25500000920E-02 0. -1.
    10030    2    1    2    0    0  0.00000000000E+00  0.00000000000E+00  0.11584369204E+04  0.40530475945E+04  0.38839694521E+04 0.  0.
        4    1    3    3  502    0 -0.62923118405E+03  0.12353481721E+04  0.19983019515E+04  0.24321244400E+04  0.12699999809E+01 0.  1.
       -4    1    3    3    0  502  0.62923118405E+03 -0.12353481721E+04 -0.83986503114E+03  0.16209231545E+04  0.12699999809E+01 0. -1.
</event>
<event>
 5   0  0.2473224E-07  0.3879663E+04  0.7818609E-02  0.8029272E-01
       -2   -1    0    0    0  501  0.00000000000E+00  0.00000000000E+00  0.17735625227E+04  0.17735625227E+04  0.25500000920E-02 0. -1.
        2   -1    0    0  501    0  0.00000000000E+00  0.00000000000E+00 -0.21216874625E+04  0.21216874625E+04  0.25500000920E-02 0.  1.
    10030    2    1    2    0    0  0.00000000000E+00  0.00000000000E+00 -0.34812493980E+03  0.38952499851E+04  0.38796625463E+04 0.  0.
        2    1    3    3  502    0 -0.24406223091E+03  0.12299425357E+04 -0.16600834525E+04  0.20804331479E+04  0.25500000920E-02 0.  1.
       -2    1    3    3    0  502  0.24406223091E+03 -0.12299425357E+04  0.13119585127E+04  0.18148168372E+04  0.25500000920E-02 0. -1.
</event>
<event>
 5   0  0.7675750E-08  0.3789030E+04  0.7818609E-02  0.8048513E-01
       -1   -1    0    0    0  501  0.00000000000E+00  0.00000000000E+00  0.13013366272E+04  0.13013366272E+04  0.50400001928E-02 0.  1.
        1   -1    0    0  501    0  0.00000000000E+00  0.00000000000E+00 -0.27580778914E+04  0.27580778914E+04  0.50400001928E-02 0. -1.
    10030    2    1    2    0    0  0.00000000000E+00  0.00000000000E+00 -0.14567412642E+04  0.40594145186E+04  0.37890303671E+04 0.  0.
        2    1    3    3  502    0  0.15680864404E+03  0.15718616819E+04 -0.18488765055E+04  0.24318064130E+04  0.25500000920E-02 0. -1.
       -2    1    3    3    0  502 -0.15680864404E+03 -0.15718616819E+04  0.39213524127E+03  0.16276081056E+04  0.25500000920E-02 0.  1.
</event>
<event>
 5   0  0.2473224E-07  0.3903687E+04  0.7818609E-02  0.8024263E-01
        2   -1    0    0  501    0  0.00000000000E+00  0.00000000000E+00  0.12317401868E+04  0.12317401868E+04  0.25500000920E-02 0. -1.
       -2   -1    0    0    0  501  0.00000000000E+00  0.00000000000E+00 -0.30929354949E+04  0.30929354949E+04  0.25500000920E-02 0.  1.
    10030    2    1    2    0    0  0.00000000000E+00  0.00000000000E+00 -0.18611953081E+04  0.43246756817E+04  0.39036869466E+04 0.  0.
        2    1    3    3  502    0  0.18702849634E+04  0.85899195833E+02 -0.31942474804E+03  0.18993095287E+04  0.25500000920E-02 0. -1.
       -2    1    3    3    0  502 -0.18702849634E+04 -0.85899195833E+02 -0.15417705600E+04  0.24253661530E+04  0.25500000920E-02 0.  1.
</event>
<event>
 5   0  0.2486268E-07  0.3881728E+04  0.7818609E-02  0.8028840E-01
       -2   -1    0    0    0  501  0.00000000000E+00  0.00000000000E+00  0.19860351698E+04  0.19860351698E+04  0.25500000920E-02 0.  1.
        2   -1    0    0  501    0  0.00000000000E+00  0.00000000000E+00 -0.18967206317E+04  0.18967206317E+04  0.25500000920E-02 0. -1.
    10030    2    1    2    0    0  0.00000000000E+00  0.00000000000E+00  0.89314538183E+02  0.38827558015E+04  0.38817284201E+04 0.  0.
        5    1    3    3  502    0 -0.12604227080E+03  0.19100242816E+04  0.36544821769E+03  0.19487570142E+04  0.46999998093E+01 0.  1.
       -5    1    3    3    0  502  0.12604227080E+03 -0.19100242816E+04 -0.27613367951E+03  0.19339987873E+04  0.46999998093E+01 0. -1.
</event>
<event>
 5   0  0.2384787E-07  0.3829563E+04  0.7818609E-02  0.8039840E-01
       -2   -1    0    0    0  501  0.00000000000E+00  0.00000000000E+00  0.15102769353E+04  0.15102769353E+04  0.25500000920E-02 0. -1.
        2   -1    0    0  501    0  0.00000000000E+00  0.00000000000E+00 -0.24276263140E+04  0.24276263140E+04  0.25500000920E-02 0.  1.
    10030    2    1    2    0    0  0.00000000000E+00  0.00000000000E+00 -0.91734937872E+03  0.39379032494E+04  0.38295629148E+04 0.  0.
        4    1    3    3  502    0  0.87119768514E+02  0.48227589561E+03  0.14446926013E+04  0.15255550527E+04  0.12699999809E+01 0. -1.
       -4    1    3    3    0  502 -0.87119768514E+02 -0.48227589561E+03 -0.23620419801E+04  0.24123481967E+04  0.12699999809E+01 0.  1.
</event>
<event>
 5   0  0.2473224E-07  0.3931131E+04  0.7818609E-02  0.8018586E-01
        2   -1    0    0  501    0  0.00000000000E+00  0.00000000000E+00  0.19168246033E+04  0.19168246033E+04  0.25500000920E-02 0. -1.
       -2   -1    0    0    0  501  0.00000000000E+00  0.00000000000E+00 -0.20155454911E+04  0.20155454911E+04  0.25500000920E-02 0.  1.
    10030    2    1    2    0    0  0.00000000000E+00  0.00000000000E+00 -0.98720887807E+02  0.39323700943E+04  0.39311307209E+04 0.  0.
        2    1    3    3  502    0 -0.11484584805E+03 -0.19294608968E+04 -0.40645795607E+03  0.19751498655E+04  0.25500000920E-02 0. -1.
       -2    1    3    3    0  502  0.11484584805E+03  0.19294608968E+04  0.30773706827E+03  0.19572202288E+04  0.25500000920E-02 0.  1.
</event>
<event>
 5   0  0.2486268E-07  0.3677571E+04  0.7818609E-02  0.8072951E-01
        2   -1    0    0  501    0  0.00000000000E+00  0.00000000000E+00  0.25302505183E+04  0.25302505183E+04  0.25500000920E-02 0.  1.
       -2   -1    0    0    0  501  0.00000000000E+00  0.00000000000E+00 -0.13362838126E+04  0.13362838126E+04  0.25500000920E-02 0. -1.
    10030    2    1    2    0    0  0.00000000000E+00  0.00000000000E+00  0.11939667057E+04  0.38665343309E+04  0.36775713776E+04 0.  0.
        5    1    3    3  502    0 -0.13063933098E+04  0.12353763780E+04  0.10018577099E+04  0.20582903673E+04  0.46999998093E+01 0.  1.
       -5    1    3    3    0  502  0.13063933098E+04 -0.12353763780E+04  0.19210899585E+03  0.18082439635E+04  0.46999998093E+01 0. -1.
</event>
<event>
 5   0  0.7675750E-08  0.3901964E+04  0.7818609E-02  0.8024621E-01
       -1   -1    0    0    0  501  0.00000000000E+00  0.00000000000E+00  0.19172666077E+04  0.19172666077E+04  0.50400001928E-02 0.  1.
        1   -1    0    0  501    0  0.00000000000E+00  0.00000000000E+00 -0.19852906021E+04  0.19852906021E+04  0.50400001928E-02 0. -1.
    10030    2    1    2    0    0  0.00000000000E+00  0.00000000000E+00 -0.68023994414E+02  0.39025572097E+04  0.39019643145E+04 0.  0.
        1    1    3    3  502    0 -0.12967250411E+04  0.81068597882E+03 -0.12456513115E+04  0.19723982302E+04  0.50400001928E-02 0. -1.
       -1    1    3    3    0  502  0.12967250411E+04 -0.81068597882E+03  0.11776273171E+04  0.19301589796E+04  0.50400001928E-02 0.  1.
</event>
<event>
 5   0  0.2395572E-07  0.3553507E+04  0.7818609E-02  0.8101225E-01
       -2   -1    0    0    0  501  0.00000000000E+00  0.00000000000E+00  0.22253998411E+04  0.22253998411E+04  0.25500000920E-02 0.  1.
        2   -1    0    0  501    0  0.00000000000E+00  0.00000000000E+00 -0.14185550974E+04  0.14185550974E+04  0.25500000920E-02 0. -1.
    10030    2    1    2    0    0  0.00000000000E+00  0.00000000000E+00  0.80684474362E+03  0.36439549385E+04  0.35535065996E+04 0.  0.
        3    1    3    3  502    0  0.24885972740E+03  0.25821347811E+03 -0.13810569225E+04  0.14268579458E+04  0.10100000352E+00 0. -1.
       -3    1    3    3    0  502 -0.24885972740E+03 -0.25821347811E+03  0.21879016661E+04  0.22170969927E+04  0.10100000352E+00 0.  1.
</event>
<event>
 5   0  0.7675750E-08  0.3915816E+04  0.7818609E-02  0.8021748E-01
       -1   -1    0    0    0  501  0.00000000000E+00  0.00000000000E+00  0.26491121550E+04  0.26491121550E+04  0.50400001928E-02 0.  1.
        1   -1    0    0  501    0  0.00000000000E+00  0.00000000000E+00 -0.14470521311E+04  0.14470521311E+04  0.50400001928E-02 0. -1.
    10030    2    1    2    0    0  0.00000000000E+00  0.00000000000E+00  0.12020600239E+04  0.40961642861E+04  0.39158158228E+04 0.  0.
        1    1    3    3  502    0 -0.15112747476E+04  0.12953880429E+03 -0.69399955072E+03  0.16680428775E+04  0.50400001928E-02 0. -1.
       -1    1    3    3    0  502  0.15112747476E+04 -0.12953880429E+03  0.18960595746E+04  0.24281214087E+04  0.50400001928E-02 0.  1.
</event>
<event>
 5   0  0.2473224E-07  0.3951794E+04  0.7818609E-02  0.8014342E-01
        2   -1    0    0  501    0  0.00000000000E+00  0.00000000000E+00  0.28559618764E+04  0.28559618764E+04  0.25500000920E-02 0. -1.
       -2   -1    0    0    0  501  0.00000000000E+00  0.00000000000E+00 -0.13670243377E+04  0.13670243377E+04  0.25500000920E-02 0.  1.
    10030    2    1    2    0    0  0.00000000000E+00  0.00000000000E+00  0.14889375387E+04  0.42229862141E+04  0.39517942217E+04 0.  0.
        2    1    3    3  502    0  0.49449824582E+03 -0.89125387563E+03 -0.10644162123E+04  0.14737176999E+04  0.25500000920E-02 0.  1.
       -2    1    3    3    0  502 -0.49449824582E+03  0.89125387563E+03  0.25533537509E+04  0.27492685142E+04  0.25500000920E-02 0. -1.
</event>
<event>
 5   0  0.2486268E-07  0.3718493E+04  0.7818609E-02  0.8063876E-01
        2   -1    0    0  501    0  0.00000000000E+00  0.00000000000E+00  0.13795074494E+04  0.13795074494E+04  0.25500000920E-02 0.  1.
       -2   -1    0    0    0  501  0.00000000000E+00  0.00000000000E+00 -0.25058196225E+04  0.25058196225E+04  0.25500000920E-02 0. -1.
    10030    2    1    2    0    0  0.00000000000E+00  0.00000000000E+00 -0.11263121731E+04  0.38853270719E+04  0.37184926172E+04 0.  0.
        5    1    3    3  502    0 -0.11430615917E+03 -0.54748938829E+03 -0.24158320109E+04  0.24797332363E+04  0.46999998093E+01 0. -1.
       -5    1    3    3    0  502  0.11430615917E+03  0.54748938829E+03  0.12895198379E+04  0.14055938356E+04  0.46999998093E+01 0.  1.
</event>
<event>
 5   0  0.7731706E-08  0.3885261E+04  0.7818609E-02  0.8028102E-01
       -1   -1    0    0    0  501  0.00000000000E+00  0.00000000000E+00  0.14540584863E+04  0.14540584864E+04  0.50400001928E-02 0. -1.
        1   -1    0    0  501    0  0.00000000000E+00  0.00000000000E+00 -0.25953652843E+04  0.25953652843E+04  0.50400001928E-02 0.  1.
    10030    2    1    2    0    0  0.00000000000E+00  0.00000000000E+00 -0.11413067979E+04  0.40494237706E+04  0.38852608236E+04 0.  0.
        3    1    3    3  502    0 -0.34121375946E+02 -0.11997324368E+04  0.10213994331E+04  0.15760009519E+04  0.10100000352E+00 0. -1.
       -3    1    3    3    0  502  0.34121375946E+02  0.11997324368E+04 -0.21627062311E+04  0.24734228187E+04  0.10100000352E+00 0.  1.
</event>
<event>
 5   0  0.7675750E-08  0.3989677E+04  0.7818609E-02  0.8006632E-01
       -1   -1    0    0    0  501  0.00000000000E+00  0.00000000000E+00  0.28485340307E+04  0.28485340307E+04  0.50400001928E-02 0.  1.
        1   -1    0    0  501    0  0.00000000000E+00  0.00000000000E+00 -0.13969925423E+04  0.13969925423E+04  0.50400001928E-02 0. -1.
    10030    2    1    2    0    0  0.00000000000E+00  0.00000000000E+00  0.14515414883E+04  0.42455265730E+04  0.39896770784E+04 0.  0.
        1    1    3    3  502    0  0.47494690890E+03  0.89767219477E+03  0.25528478864E+04  0.27474392198E+04  0.50400001928E-02 0.  1.
       -1    1    3    3    0  502 -0.47494690890E+03 -0.89767219477E+03 -0.11013063980E+04  0.14980873532E+04  0.50400001928E-02 0. -1.
</event>
<event>
 5   0  0.7675750E-08  0.3869954E+04  0.7818609E-02  0.8031307E-01
        1   -1    0    0  501    0  0.00000000000E+00  0.00000000000E+00  0.24327333594E+04  0.24327333594E+04  0.50400001928E-02 0. -1.
       -1   -1    0    0    0  501  0.00000000000E+00  0.00000000000E+00 -0.15390657503E+04  0.15390657503E+04  0.50400001928E-02 0.  1.
    10030    2    1    2    0    0  0.00000000000E+00  0.00000000000E+00  0.89366760906E+03  0.39717991097E+04  0.38699543114E+04 0.  0.
        5    1    3    3  502    0  0.92540938398E+03 -0.35240587088E+03  0.21529730662E+04  0.23697863912E+04  0.46999998093E+01 0. -1.
       -5    1    3    3    0  502 -0.92540938398E+03  0.35240587088E+03 -0.12593054572E+04  0.16020127185E+04  0.46999998093E+01 0.  1.
</event>
<event>
 5   0  0.7731706E-08  0.3874974E+04  0.7818609E-02  0.8030254E-01
       -1   -1    0    0    0  501  0.00000000000E+00  0.00000000000E+00  0.18211665859E+04  0.18211665859E+04  0.50400001928E-02 0.  1.
        1   -1    0    0  501    0  0.00000000000E+00  0.00000000000E+00 -0.20612364869E+04  0.20612364869E+04  0.50400001928E-02 0. -1.
    10030    2    1    2    0    0  0.00000000000E+00  0.00000000000E+00 -0.24006990107E+03  0.38824030728E+04  0.38749735564E+04 0.  0.
        3    1    3    3  502    0 -0.11896106941E+04  0.14254029592E+04 -0.67508972913E+03  0.19755235641E+04  0.10100000352E+00 0.  1.
       -3    1    3    3    0  502  0.11896106941E+04 -0.14254029592E+04  0.43501982807E+03  0.19068795087E+04  0.10100000352E+00 0. -1.
</event>
<event>
 5   0  0.2486268E-07  0.3882883E+04  0.7818609E-02  0.8028599E-01
       -2   -1    0    0    0  501  0.00000000000E+00  0.00000000000E+00  0.20410737287E+04  0.20410737287E+04  0.25500000920E-02 0. -1.
        2   -1    0    0  501    0  0.00000000000E+00  0.00000000000E+00 -0.18466728408E+04  0.18466728408E+04  0.25500000920E-02 0.  1.
    10030    2    1    2    0    0  0.00000000000E+00  0.00000000000E+00  0.19440088788E+03  0.38877465695E+04  0.38828831663E+04 0.  0.
        5    1    3    3  502    0  0.72319485523E+03  0.17734215545E+04 -0.22122071989E+03  0.19279511160E+04  0.46999998093E+01 0.  1.
       -5    1    3    3    0  502 -0.72319485523E+03 -0.17734215545E+04  0.41562160778E+03  0.19597954535E+04  0.46999998093E+01 0. -1.
</event>
<event>
 5   0  0.2486268E-07  0.4047829E+04  0.7818609E-02  0.7994967E-01
       -2   -1    0    0    0  501  0.00000000000E+00  0.00000000000E+00  0.19105559423E+04  0.19105559424E+04  0.25500000920E-02 0. -1.
        2   -1    0    0  501    0  0.00000000000E+00  0.00000000000E+00 -0.21439986088E+04  0.21439986088E+04  0.25500000920E-02 0.  1.
    10030    2    1    2    0    0  0.00000000000E+00  0.00000000000E+00 -0.23344266650E+03  0.40545545512E+04  0.40478286933E+04 0.  0.
        5    1    3    3  502    0 -0.88697751978E+03  0.11058083183E+04  0.13302085856E+04  0.19439696831E+04  0.46999998093E+01 0. -1.
       -5    1    3    3    0  502  0.88697751978E+03 -0.11058083183E+04 -0.15636512521E+04  0.21105848681E+04  0.46999998093E+01 0.  1.
</event>
<event>
 5   0  0.7675750E-08  0.3904513E+04  0.7818609E-02  0.8024091E-01
        1   -1    0    0  501    0  0.00000000000E+00  0.00000000000E+00  0.22867678612E+04  0.22867678612E+04  0.50400001928E-02 0. -1.
       -1   -1    0    0    0  501  0.00000000000E+00  0.00000000000E+00 -0.16666781198E+04  0.16666781198E+04  0.50400001928E-02 0.  1.
    10030    2    1    2    0    0  0.00000000000E+00  0.00000000000E+00  0.62008974145E+03  0.39534459810E+04  0.39045132651E+04 0.  0.
        1    1    3    3  502    0 -0.54579451047E+02  0.15281458070E+04  0.15389677881E+04  0.21694769823E+04  0.50400001928E-02 0. -1.
       -1    1    3    3    0  502  0.54579451047E+02 -0.15281458070E+04 -0.91887804661E+03  0.17839689987E+04  0.50400001928E-02 0.  1.
</event>
<event>
 5   0  0.7675750E-08  0.3946276E+04  0.7818609E-02  0.8015473E-01
       -3   -1    0    0    0  501  0.00000000000E+00  0.00000000000E+00  0.21712725861E+04  0.21712725885E+04  0.10100000352E+00 0. -1.
        3   -1    0    0  501    0  0.00000000000E+00  0.00000000000E+00 -0.17930838608E+04  0.17930838636E+04  0.10100000352E+00 0.  1.
    10030    2    1    2    0    0  0.00000000000E+00  0.00000000000E+00  0.37818872534E+03  0.39643564521E+04  0.39462761392E+04 0.  0.
        1    1    3    3  502    0  0.12329353340E+04 -0.33867605509E+03  0.16987913078E+04  0.21261991712E+04  0.50400001928E-02 0. -1.
       -1    1    3    3    0  502 -0.12329353340E+04  0.33867605509E+03 -0.13206025825E+04  0.18381572808E+04  0.50400001928E-02 0.  1.
</event>
<event>
 5   0  0.2395572E-07  0.3918680E+04  0.7818609E-02  0.8021155E-01
        2   -1    0    0  501    0  0.00000000000E+00  0.00000000000E+00  0.25267714947E+04  0.25267714947E+04  0.25500000920E-02 0.  1.
       -2   -1    0    0    0  501  0.00000000000E+00  0.00000000000E+00 -0.15193357300E+04  0.15193357300E+04  0.25500000920E-02 0. -1.
    10030    2    1    2    0    0  0.00000000000E+00  0.00000000000E+00  0.10074357647E+04  0.40461072247E+04  0.39186804991E+04 0.  0.
        3    1    3    3  502    0  0.15557188291E+04  0.56385332630E+03 -0.57960069720E+03  0.17533193169E+04  0.10100000352E+00 0. -1.
       -3    1    3    3    0  502 -0.15557188291E+04 -0.56385332630E+03  0.15870364619E+04  0.22927879078E+04  0.10100000352E+00 0.  1.
</event>
<event>
 5   0  0.2486268E-07  0.3903316E+04  0.7818609E-02  0.8024340E-01
        2   -1    0    0  501    0  0.00000000000E+00  0.00000000000E+00  0.26826349878E+04  0.26826349878E+04  0.25500000920E-02 0.  1.
       -2   -1    0    0    0  501  0.00000000000E+00  0.00000000000E+00 -0.14198607207E+04  0.14198607207E+04  0.25500000920E-02 0. -1.
    10030    2    1    2    0    0  0.00000000000E+00  0.00000000000E+00  0.12627742672E+04  0.41024957085E+04  0.39033155379E+04 0.  0.
        5    1    3    3  502    0  0.17364120204E+04  0.12977966635E+03 -0.29505524770E+03  0.17660829980E+04  0.46999998093E+01 0.  1.
       -5    1    3    3    0  502 -0.17364120204E+04 -0.12977966635E+03  0.15578295149E+04  0.23364127105E+04  0.46999998093E+01 0. -1.
</event>
<event>
 5   0  0.2384787E-07  0.3957965E+04  0.7818609E-02  0.8013080E-01
       -2   -1    0    0    0  501  0.00000000000E+00  0.00000000000E+00  0.20753624155E+04  0.20753624155E+04  0.25500000920E-02 0.  1.
        2   -1    0    0  501    0  0.00000000000E+00  0.00000000000E+00 -0.18870782711E+04  0.18870782711E+04  0.25500000920E-02 0. -1.
    10030    2    1    2    0    0  0.00000000000E+00  0.00000000000E+00  0.18828414440E+03  0.39624406866E+04  0.39579647896E+04 0.  0.
        4    1    3    3  502    0  0.33277117958E+03 -0.13417872175E+04 -0.13235243060E+04  0.19138567858E+04  0.12699999809E+01 0. -1.
       -4    1    3    3    0  502 -0.33277117958E+03  0.13417872175E+04  0.15118084504E+04  0.20485839008E+04  0.12699999809E+01 0.  1.
</event>
<event>
 5   0  0.7731706E-08  0.3942439E+04  0.7818609E-02  0.8016260E-01
       -1   -1    0    0    0  501  0.00000000000E+00  0.00000000000E+00  0.12658444807E+04  0.12658444808E+04  0.50400001928E-02 0. -1.
        1   -1    0    0  501    0  0.00000000000E+00  0.00000000000E+00 -0.30696555784E+04  0.30696555784E+04  0.50400001928E-02 0.  1.
    10030    2    1    2    0    0  0.00000000000E+00  0.00000000000E+00 -0.18038110977E+04  0.43355000592E+04  0.39424391291E+04 0.  0.
        3    1    3    3  502    0 -0.38962427477E+02 -0.77148576252E+03 -0.28962768606E+04  0.29975203112E+04  0.10100000352E+00 0.  1.
       -3    1    3    3    0  502  0.38962427477E+02  0.77148576252E+03  0.10924657630E+04  0.13379797480E+04  0.10100000352E+00 0. -1.
</event>
<event>
 5   0  0.7675750E-08  0.3895735E+04  0.7818609E-02  0.8025917E-01
        1   -1    0    0  501    0  0.00000000000E+00  0.00000000000E+00  0.17356396214E+04  0.17356396214E+04  0.50400001928E-02 0. -1.
       -1   -1    0    0    0  501  0.00000000000E+00  0.00000000000E+00 -0.21860459291E+04  0.21860459291E+04  0.50400001928E-02 0.  1.
    10030    2    1    2    0    0  0.00000000000E+00  0.00000000000E+00 -0.45040630773E+03  0.39216855505E+04  0.38957350673E+04 0.  0.
        4    1    3    3  502    0  0.49537384088E+03  0.78886157661E+02 -0.21199118742E+04  0.21784504207E+04  0.12699999809E+01 0.  1.
       -4    1    3    3    0  502 -0.49537384088E+03 -0.78886157661E+02  0.16695055665E+04  0.17432351298E+04  0.12699999809E+01 0. -1.
</event>
<event>
 5   0  0.7675750E-08  0.3652614E+04  0.7818609E-02  0.8078545E-01
       -1   -1    0    0    0  501  0.00000000000E+00  0.00000000000E+00  0.12608524762E+04  0.12608524762E+04  0.50400001928E-02 0. -1.
        1   -1    0    0  501    0  0.00000000000E+00  0.00000000000E+00 -0.26453510312E+04  0.26453510312E+04  0.50400001928E-02 0.  1.
    10030    2    1    2    0    0  0.00000000000E+00  0.00000000000E+00 -0.13844985550E+04  0.39062035075E+04  0.36526140766E+04 0.  0.
        4    1    3    3  502    0 -0.10152601060E+04  0.10060097097E+04  0.52360351617E+03  0.15221599370E+04  0.12699999809E+01 0. -1.
       -4    1    3    3    0  502  0.10152601060E+04 -0.10060097097E+04 -0.19081020712E+04  0.23840435705E+04  0.12699999809E+01 0.  1.
</event>
<event>
 5   0  0.7675750E-08  0.3872790E+04  0.7818609E-02  0.8030712E-01
        1   -1    0    0  501    0  0.00000000000E+00  0.00000000000E+00  0.16388633280E+04  0.16388633280E+04  0.50400001928E-02 0.  1.
       -1   -1    0    0    0  501  0.00000000000E+00  0.00000000000E+00 -0.22879427142E+04  0.22879427142E+04  0.50400001928E-02 0. -1.
    10030    2    1    2    0    0  0.00000000000E+00  0.00000000000E+00 -0.64907938622E+03  0.39268060422E+04  0.38727899043E+04 0.  0.
        4    1    3    3  502    0  0.75012405674E+03  0.45952231018E+03 -0.20736439645E+04  0.22525203125E+04  0.12699999809E+01 0. -1.
       -4    1    3    3    0  502 -0.75012405674E+03 -0.45952231018E+03  0.14245645782E+04  0.16742857296E+04  0.12699999809E+01 0.  1.
</event>
<event>
 5   0  0.7675750E-08  0.3915151E+04  0.7818609E-02  0.8021886E-01
        1   -1    0    0  501    0  0.00000000000E+00  0.00000000000E+00  0.29319063003E+04  0.29319063003E+04  0.50400001928E-02 0.  1.
       -1   -1    0    0    0  501  0.00000000000E+00  0.00000000000E+00 -0.13070339939E+04  0.13070339939E+04  0.50400001928E-02 0. -1.
    10030    2    1    2    0    0  0.00000000000E+00  0.00000000000E+00  0.16248723064E+04  0.42389402942E+04  0.39151506747E+04 0.  0.
        1    1    3    3  502    0  0.81765528284E+03 -0.93550515924E+03 -0.82540602001E+03  0.14916518235E+04  0.50400001928E-02 0. -1.
       -1    1    3    3    0  502 -0.81765528284E+03  0.93550515924E+03  0.24502783264E+04  0.27472884707E+04  0.50400001928E-02 0.  1.
</event>
<event>
 5   0  0.7675750E-08  0.3893958E+04  0.7818609E-02  0.8026287E-01
        1   -1    0    0  501    0  0.00000000000E+00  0.00000000000E+00  0.22805266173E+04  0.22805266173E+04  0.50400001928E-02 0.  1.
       -1   -1    0    0    0  501  0.00000000000E+00  0.00000000000E+00 -0.16622155931E+04  0.16622155931E+04  0.50400001928E-02 0. -1.
    10030    2    1    2    0    0  0.00000000000E+00  0.00000000000E+00  0.61831102422E+03  0.39427422104E+04  0.38939578343E+04 0.  0.
        5    1    3    3  502    0  0.89339229998E+03  0.50261716675E+03 -0.13668558197E+04  0.17085346762E+04  0.46999998093E+01 0. -1.
       -5    1    3    3    0  502 -0.89339229998E+03 -0.50261716675E+03  0.19851668439E+04  0.22342075342E+04  0.46999998093E+01 0.  1.
</event>
<event>
 5   0  0.2384787E-07  0.3734344E+04  0.7818609E-02  0.8060393E-01
        2   -1    0    0  501    0  0.00000000000E+00  0.00000000000E+00  0.18862108302E+04  0.18862108302E+04  0.25500000920E-02 0.  1.
       -2   -1    0    0    0  501  0.00000000000E+00  0.00000000000E+00 -0.18483253777E+04  0.18483253777E+04  0.25500000920E-02 0. -1.
    10030    2    1    2    0    0  0.00000000000E+00  0.00000000000E+00  0.37885452535E+02  0.37345362079E+04  0.37343440362E+04 0.  0.
        4    1    3    3  502    0  0.13909569117E+04  0.82729046657E+03 -0.91231896479E+03  0.18578208075E+04  0.12699999809E+01 0. -1.
       -4    1    3    3    0  502 -0.13909569117E+04 -0.82729046657E+03  0.95020441733E+03  0.18767154004E+04  0.12699999809E+01 0.  1.
</event>
<event>
 5   0  0.7675750E-08  0.3939163E+04  0.7818609E-02  0.8016933E-01
        3   -1    0    0  501    0  0.00000000000E+00  0.00000000000E+00  0.20326377450E+04  0.20326377475E+04  0.10100000352E+00 0.  1.
       -3   -1    0    0    0  501  0.00000000000E+00  0.00000000000E+00 -0.19084809780E+04  0.19084809806E+04  0.10100000352E+00 0. -1.
    10030    2    1    2    0    0  0.00000000000E+00  0.00000000000E+00  0.12415676706E+03  0.39411187282E+04  0.39391625921E+04 0.  0.
        4    1    3    3  502    0  0.99701923476E+03  0.16456764170E+04  0.48294229414E+03  0.19838178082E+04  0.12699999809E+01 0.  1.
       -4    1    3    3    0  502 -0.99701923476E+03 -0.16456764170E+04 -0.35878552709E+03  0.19573009199E+04  0.12699999809E+01 0. -1.
</event>
<event>
 5   0  0.2384787E-07  0.3932568E+04  0.7818609E-02  0.8018290E-01
       -2   -1    0    0    0  501  0.00000000000E+00  0.00000000000E+00  0.17488602558E+04  0.17488602558E+04  0.25500000920E-02 0.  1.
        2   -1    0    0  501    0  0.00000000000E+00  0.00000000000E+00 -0.22107386710E+04  0.22107386710E+04  0.25500000920E-02 0. -1.
    10030    2    1    2    0    0  0.00000000000E+00  0.00000000000E+00 -0.46187841521E+03  0.39595989267E+04  0.39325681164E+04 0.  0.
        4    1    3    3  502    0  0.68057900016E+02  0.16155995816E+04 -0.13573231921E+04  0.21111896519E+04  0.12699999809E+01 0. -1.
       -4    1    3    3    0  502 -0.68057900016E+02 -0.16155995816E+04  0.89544477687E+03  0.18484092748E+04  0.12699999809E+01 0.  1.
</event>
<event>
 5   0  0.7675750E-08  0.3940571E+04  0.7818609E-02  0.8016644E-01
       -1   -1    0    0    0  501  0.00000000000E+00  0.00000000000E+00  0.15720957956E+04  0.15720957957E+04  0.50400001928E-02 0.  1.
        1   -1    0    0  501    0  0.00000000000E+00  0.00000000000E+00 -0.24693314513E+04  0.24693314513E+04  0.50400001928E-02 0. -1.
    10030    2    1    2    0    0  0.00000000000E+00  0.00000000000E+00 -0.89723565562E+03  0.40414272469E+04  0.39405713254E+04 0.  0.
        1    1    3    3  502    0  0.62982980459E+03 -0.13592139453E+04 -0.17611690950E+04  0.23121126082E+04  0.50400001928E-02 0. -1.
       -1    1    3    3    0  502 -0.62982980459E+03  0.13592139453E+04  0.86393343938E+03  0.17293146387E+04  0.50400001928E-02 0.  1.
</event>
<event>
 5   0  0.2446281E-07  0.3847191E+04  0.7818609E-02  0.8036103E-01
        2   -1    0    0  501    0  0.00000000000E+00  0.00000000000E+00  0.13449891027E+04  0.13449891027E+04  0.25500000920E-02 0. -1.
       -2   -1    0    0    0  501  0.00000000000E+00  0.00000000000E+00 -0.27511148425E+04  0.27511148425E+04  0.25500000920E-02 0.  1.
    10030    2    1    2    0    0  0.00000000000E+00  0.00000000000E+00 -0.14061257398E+04  0.40961039452E+04  0.38471909146E+04 0.  0.
        1    1    3    3  502    0 -0.80876859054E+03 -0.82468168742E+03 -0.23407683060E+04  0.26102495630E+04  0.50400001928E-02 0.  1.
       -1    1    3    3    0  502  0.80876859054E+03  0.82468168742E+03  0.93464256616E+03  0.14858543822E+04  0.50400001928E-02 0. -1.
</event>
<event>
 5   0  0.7731706E-08  0.3524800E+04  0.7818609E-02  0.8107938E-01
       -1   -1    0    0    0  501  0.00000000000E+00  0.00000000000E+00  0.13272272903E+04  0.13272272904E+04  0.50400001928E-02 0. -1.
        1   -1    0    0  501    0  0.00000000000E+00  0.00000000000E+00 -0.23402576545E+04  0.23402576545E+04  0.50400001928E-02 0.  1.
    10030    2    1    2    0    0  0.00000000000E+00  0.00000000000E+00 -0.10130303642E+04  0.36674849449E+04  0.35248000372E+04 0.  0.
        3    1    3    3  502    0  0.14544106798E+04 -0.86699884324E+03 -0.10152413047E+04  0.19742624792E+04  0.10100000352E+00 0. -1.
       -3    1    3    3    0  502 -0.14544106798E+04  0.86699884324E+03  0.22109405387E+01  0.16932224657E+04  0.10100000352E+00 0.  1.
</event>
<event>
 5   0  0.2473224E-07  0.3937037E+04  0.7818609E-02  0.8017370E-01
       -2   -1    0    0    0  501  0.00000000000E+00  0.00000000000E+00  0.17659091499E+04  0.17659091499E+04  0.25500000920E-02 0.  1.
        2   -1    0    0  501    0  0.00000000000E+00  0.00000000000E+00 -0.21943739849E+04  0.21943739849E+04  0.25500000920E-02 0. -1.
    10030    2    1    2    0    0  0.00000000000E+00  0.00000000000E+00 -0.42846483495E+03  0.39602831348E+04  0.39370370068E+04 0.  0.
        2    1    3    3  502    0 -0.17832951862E+04 -0.59846492928E+03  0.36950696226E+03  0.19169865382E+04  0.25500000920E-02 0. -1.
       -2    1    3    3    0  502  0.17832951862E+04  0.59846492928E+03 -0.79797179721E+03  0.20432965966E+04  0.25500000920E-02 0.  1.
</event>
<event>
 5   0  0.7675750E-08  0.3940574E+04  0.7818609E-02  0.8016643E-01
        1   -1    0    0  501    0  0.00000000000E+00  0.00000000000E+00  0.25673304543E+04  0.25673304543E+04  0.50400001928E-02 0. -1.
       -1   -1    0    0    0  501  0.00000000000E+00  0.00000000000E+00 -0.15120888153E+04  0.15120888153E+04  0.50400001928E-02 0.  1.
    10030    2    1    2    0    0  0.00000000000E+00  0.00000000000E+00  0.10552416390E+04  0.40794192696E+04  0.39405744074E+04 0.  0.
        1    1    3    3  502    0 -0.88997560436E+03  0.15660693919E+04  0.13541257256E+04  0.22535053577E+04  0.50400001928E-02 0. -1.
       -1    1    3    3    0  502  0.88997560436E+03 -0.15660693919E+04 -0.29888408652E+03  0.18259139119E+04  0.50400001928E-02 0.  1.
</event>
<event>
 5   0  0.7675750E-08  0.3827006E+04  0.7818609E-02  0.8040384E-01
       -1   -1    0    0    0  501  0.00000000000E+00  0.00000000000E+00  0.22882334651E+04  0.22882334651E+04  0.50400001928E-02 0.  1.
        1   -1    0    0  501    0  0.00000000000E+00  0.00000000000E+00 -0.16001395772E+04  0.16001395772E+04  0.50400001928E-02 0. -1.
    10030    2    1    2    0    0  0.00000000000E+00  0.00000000000E+00  0.68809388790E+03  0.38883730423E+04  0.38270055810E+04 0.  0.
        5    1    3    3  502    0 -0.94304430474E+03 -0.14180912354E+03  0.20295722903E+04  0.22424602917E+04  0.46999998093E+01 0.  1.
       -5    1    3    3    0  502  0.94304430474E+03  0.14180912354E+03 -0.13414784024E+04  0.16459127505E+04  0.46999998093E+01 0. -1.
</event>
<event>
 5   0  0.7675750E-08  0.3910311E+04  0.7818609E-02  0.8022888E-01
       -1   -1    0    0    0  501  0.00000000000E+00  0.00000000000E+00  0.23575434656E+04  0.23575434656E+04  0.50400001928E-02 0.  1.
        1   -1    0    0  501    0  0.00000000000E+00  0.00000000000E+00 -0.16214472318E+04  0.16214472318E+04  0.50400001928E-02 0. -1.
    10030    2    1    2    0    0  0.00000000000E+00  0.00000000000E+00  0.73609623379E+03  0.39789906973E+04  0.39103106404E+04 0.  0.
        1    1    3    3  502    0 -0.10771125484E+04  0.71736943186E+03  0.18593405958E+04  0.22653780689E+04  0.50400001928E-02 0.  1.
       -1    1    3    3    0  502  0.10771125484E+04 -0.71736943186E+03 -0.11232443620E+04  0.17136126285E+04  0.50400001928E-02 0. -1.
</event>
<event>
 5   0  0.2486268E-07  0.3885435E+04  0.7818609E-02  0.8028065E-01
        2   -1    0    0  501    0  0.00000000000E+00  0.00000000000E+00  0.22936532113E+04  0.22936532113E+04  0.25500000920E-02 0. -1.
       -2   -1    0    0    0  501  0.00000000000E+00  0.00000000000E+00 -0.16454759019E+04  0.16454759019E+04  0.25500000920E-02 0.  1.
    10030    2    1    2    0    0  0.00000000000E+00  0.00000000000E+00  0.64817730942E+03  0.39391291133E+04  0.38854348980E+04 0.  0.
        5    1    3    3  502    0 -0.14339516136E+04 -0.10676846374E+04  0.10948322989E+04  0.20963891737E+04  0.46999998093E+01 0. -1.
       -5    1    3    3    0  502  0.14339516136E+04  0.10676846374E+04 -0.44665498945E+03  0.18427399395E+04  0.46999998093E+01 0.  1.
</event>
<event>
 5   0  0.2395572E-07  0.3939384E+04  0.7818609E-02  0.8016888E-01
       -2   -1    0    0    0  501  0.00000000000E+00  0.00000000000E+00  0.13291222020E+04  0.13291222020E+04  0.25500000920E-02 0.  1.
        2   -1    0    0  501    0  0.00000000000E+00  0.00000000000E+00 -0.29189836723E+04  0.29189836723E+04  0.25500000920E-02 0. -1.
    10030    2    1    2    0    0  0.00000000000E+00  0.00000000000E+00 -0.15898614703E+04  0.42481058743E+04  0.39393837113E+04 0.  0.
        3    1    3    3  502    0  0.56400532801E+03 -0.18750523630E+03 -0.28199745328E+04  0.28819293190E+04  0.10100000352E+00 0. -1.
       -3    1    3    3    0  502 -0.56400532801E+03  0.18750523630E+03  0.12301130625E+04  0.13661765554E+04  0.10100000352E+00 0.  1.
</event>
<event>
 5   0  0.2446281E-07  0.3854822E+04  0.7818609E-02  0.8034492E-01
       -2   -1    0    0    0  501  0.00000000000E+00  0.00000000000E+00  0.23193320404E+04  0.23193320404E+04  0.25500000920E-02 0. -1.
        2   -1    0    0  501    0  0.00000000000E+00  0.00000000000E+00 -0.16017167385E+04  0.16017167386E+04  0.25500000920E-02 0.  1.
    10030    2    1    2    0    0  0.00000000000E+00  0.00000000000E+00  0.71761530189E+03  0.39210487790E+04  0.38548218903E+04 0.  0.
        1    1    3    3  502    0 -0.70447651505E+02  0.67217073755E+03 -0.14772341792E+04  0.16244990589E+04  0.50400001928E-02 0.  1.
       -1    1    3    3    0  502  0.70447651505E+02 -0.67217073755E+03  0.21948494811E+04  0.22965497201E+04  0.50400001928E-02 0. -1.
</event>
<event>
 5   0  0.7675750E-08  0.3907038E+04  0.7818609E-02  0.8023567E-01
       -1   -1    0    0    0  501  0.00000000000E+00  0.00000000000E+00  0.17133800269E+04  0.17133800269E+04  0.50400001928E-02 0.  1.
        1   -1    0    0  501    0  0.00000000000E+00  0.00000000000E+00 -0.22273149038E+04  0.22273149038E+04  0.50400001928E-02 0. -1.
    10030    2    1    2    0    0  0.00000000000E+00  0.00000000000E+00 -0.51393487695E+03  0.39406949307E+04  0.39070381978E+04 0.  0.
        2    1    3    3  502    0 -0.10561394928E+04  0.68237905628E+03 -0.17648931920E+04  0.21670071028E+04  0.25500000920E-02 0. -1.
       -2    1    3    3    0  502  0.10561394928E+04 -0.68237905628E+03  0.12509583150E+04  0.17736878278E+04  0.25500000920E-02 0.  1.
</event>
<event>
 5   0  0.7675750E-08  0.3926474E+04  0.7818609E-02  0.8019546E-01
       -1   -1    0    0    0  501  0.00000000000E+00  0.00000000000E+00  0.15630010716E+04  0.15630010716E+04  0.50400001928E-02 0. -1.
        1   -1    0    0  501    0  0.00000000000E+00  0.00000000000E+00 -0.24659608094E+04  0.24659608094E+04  0.50400001928E-02 0.  1.
    10030    2    1    2    0    0  0.00000000000E+00  0.00000000000E+00 -0.90295973784E+03  0.40289618810E+04  0.39264739335E+04 0.  0.
        1    1    3    3  502    0  0.18252246705E+04 -0.47014839193E+02  0.28891061769E+03  0.18485466826E+04  0.50400001928E-02 0. -1.
       -1    1    3    3    0  502 -0.18252246705E+04  0.47014839193E+02 -0.11918703555E+04  0.21804151984E+04  0.50400001928E-02 0.  1.
</event>
<event>
 5   0  0.2486268E-07  0.3907921E+04  0.7818609E-02  0.8023384E-01
       -2   -1    0    0    0  501  0.00000000000E+00  0.00000000000E+00  0.16359376812E+04  0.16359376812E+04  0.25500000920E-02 0. -1.
        2   -1    0    0  501    0  0.00000000000E+00  0.00000000000E+00 -0.23338061925E+04  0.23338061925E+04  0.25500000920E-02 0.  1.
    10030    2    1    2    0    0  0.00000000000E+00  0.00000000000E+00 -0.69786851127E+03  0.39697438738E+04  0.39079209260E+04 0.  0.
        5    1    3    3  502    0 -0.18260647452E+04 -0.18746157295E+02  0.35709750612E+03  0.18607537695E+04  0.46999998093E+01 0. -1.
       -5    1    3    3    0  502  0.18260647452E+04  0.18746157295E+02 -0.10549660174E+04  0.21089901042E+04  0.46999998093E+01 0.  1.
</event>
<event>
 5   0  0.7675750E-08  0.3891510E+04  0.7818609E-02  0.8026797E-01
       -1   -1    0    0    0  501  0.00000000000E+00  0.00000000000E+00  0.15287381509E+04  0.15287381509E+04  0.50400001928E-02 0. -1.
        1   -1    0    0  501    0  0.00000000000E+00  0.00000000000E+00 -0.24765277467E+04  0.24765277467E+04  0.50400001928E-02 0.  1.
    10030    2    1    2    0    0  0.00000000000E+00  0.00000000000E+00 -0.94778959571E+03  0.40052658976E+04  0.38915099631E+04 0.  0.
        5    1    3    3  502    0  0.18633171673E+04  0.38197423047E+03 -0.89586124305E+03  0.21024853473E+04  0.46999998093E+01 0.  1.
       -5    1    3    3    0  502 -0.18633171673E+04 -0.38197423047E+03 -0.51928352664E+02  0.19027805503E+04  0.46999998093E+01 0. -1.
</event>
<event>
 5   0  0.7675750E-08  0.3904236E+04  0.7818609E-02  0.8024149E-01
        1   -1    0    0  501    0  0.00000000000E+00  0.00000000000E+00  0.18044259532E+04  0.18044259532E+04  0.50400001928E-02 0. -1.
       -1   -1    0    0    0  501  0.00000000000E+00  0.00000000000E+00 -0.21118986866E+04  0.21118986866E+04  0.50400001928E-02 0.  1.
    10030    2    1    2    0    0  0.00000000000E+00  0.00000000000E+00 -0.30747273347E+03  0.39163246398E+04  0.39042360588E+04 0.  0.
        4    1    3    3  502    0 -0.39463666782E+03 -0.11561845090E+04  0.13735621115E+04  0.18382533029E+04  0.12699999809E+01 0. -1.
       -4    1    3    3    0  502  0.39463666782E+03  0.11561845090E+04 -0.16810348450E+04  0.20780713369E+04  0.12699999809E+01 0.  1.
</event>
<event>
 5   0  0.2395572E-07  0.3921402E+04  0.7818609E-02  0.8020593E-01
        2   -1    0    0  501    0  0.00000000000E+00  0.00000000000E+00  0.21872198426E+04  0.21872198426E+04  0.25500000920E-02 0. -1.
       -2   -1    0    0    0  501  0.00000000000E+00  0.00000000000E+00 -0.17576417250E+04  0.17576417250E+04  0.25500000920E-02 0.  1.
    10030    2    1    2    0    0  0.00000000000E+00  0.00000000000E+00  0.42957811766E+03  0.39448615676E+04  0.39214022273E+04 0.  0.
        3    1    3    3  502    0  0.16962607865E+04 -0.98296418007E+03  0.18581376441E+03  0.19692755014E+04  0.10100000352E+00 0.  1.
       -3    1    3    3    0  502 -0.16962607865E+04  0.98296418007E+03  0.24376435325E+03  0.19755860662E+04  0.10100000352E+00 0. -1.
</event>
<event>
 5   0  0.2486268E-07  0.3919634E+04  0.7818609E-02  0.8020958E-01
       -2   -1    0    0    0  501  0.00000000000E+00  0.00000000000E+00  0.19968751064E+04  0.19968751064E+04  0.25500000920E-02 0.  1.
        2   -1    0    0  501    0  0.00000000000E+00  0.00000000000E+00 -0.19234469135E+04  0.19234469135E+04  0.25500000920E-02 0. -1.
    10030    2    1    2    0    0  0.00000000000E+00  0.00000000000E+00  0.73428192915E+02  0.39203220198E+04  0.39196342992E+04 0.  0.
        5    1    3    3  502    0 -0.16590848498E+04 -0.46355886874E+03 -0.89801491390E+03  0.19426534017E+04  0.46999998093E+01 0. -1.
       -5    1    3    3    0  502  0.16590848498E+04  0.46355886874E+03  0.97144310682E+03  0.19776686182E+04  0.46999998093E+01 0.  1.
</event>
<event>
 5   0  0.2384787E-07  0.3895232E+04  0.7818609E-02  0.8026022E-01
       -2   -1    0    0    0  501  0.00000000000E+00  0.00000000000E+00  0.24787087603E+04  0.24787087603E+04  0.25500000920E-02 0. -1.
        2   -1    0    0  501    0  0.00000000000E+00  0.00000000000E+00 -0.15303161319E+04  0.15303161319E+04  0.25500000920E-02 0.  1.
    10030    2    1    2    0    0  0.00000000000E+00  0.00000000000E+00  0.94839262839E+03  0.40090248923E+04  0.38952319583E+04 0.  0.
        4    1    3    3  502    0 -0.79305552176E+01  0.13438313816E+04 -0.97668822090E+03  0.16612847948E+04  0.12699999809E+01 0.  1.
       -4    1    3    3    0  502  0.79305552176E+01 -0.13438313816E+04  0.19250808493E+04  0.23477400974E+04  0.12699999809E+01 0. -1.
</event>
<event>
 5   0  0.2446281E-07  0.3907442E+04  0.7818609E-02  0.8023483E-01
        2   -1    0    0  501    0  0.00000000000E+00  0.00000000000E+00  0.16683970225E+04  0.16683970225E+04  0.25500000920E-02 0. -1.
       -2   -1    0    0    0  501  0.00000000000E+00  0.00000000000E+00 -0.22878407131E+04  0.22878407131E+04  0.25500000920E-02 0.  1.
    10030    2    1    2    0    0  0.00000000000E+00  0.00000000000E+00 -0.61944369055E+03  0.39562377356E+04  0.39074424545E+04 0.  0.
        1    1    3    3  502    0  0.18776196182E+04 -0.99027763368E+01  0.23690261129E+03  0.18925317284E+04  0.50400001928E-02 0. -1.
       -1    1    3    3    0  502 -0.18776196182E+04  0.99027763368E+01 -0.85634630184E+03  0.20637060072E+04  0.50400001928E-02 0.  1.
</event>
<event>
 5   0  0.2446281E-07  0.3849501E+04  0.7818609E-02  0.8035615E-01
        2   -1    0    0  501    0  0.00000000000E+00  0.00000000000E+00  0.29974872357E+04  0.29974872357E+04  0.25500000920E-02 0. -1.
       -2   -1    0    0    0  501  0.00000000000E+00  0.00000000000E+00 -0.12359233637E+04  0.12359233637E+04  0.25500000920E-02 0.  1.
    10030    2    1    2    0    0  0.00000000000E+00  0.00000000000E+00  0.17615638721E+04  0.42334105994E+04  0.38495010103E+04 0.  0.
        1    1    3    3  502    0  0.84175452597E+03 -0.38830909445E+01  0.27843307419E+04  0.29087907179E+04  0.50400001928E-02 0. -1.
       -1    1    3    3    0  502 -0.84175452597E+03  0.38830909445E+01 -0.10227668699E+04  0.13246198815E+04  0.50400001928E-02 0.  1.
</event>
<event>
 5   0  0.7675750E-08  0.3823472E+04  0.7818609E-02  0.8041137E-01
        1   -1    0    0  501    0  0.00000000000E+00  0.00000000000E+00  0.11912331157E+04  0.11912331157E+04  0.50400001928E-02 0. -1.
       -1   -1    0    0    0  501  0.00000000000E+00  0.00000000000E+00 -0.30680255428E+04  0.30680255428E+04  0.50400001928E-02 0.  1.
    10030    2    1    2    0    0  0.00000000000E+00  0.00000000000E+00 -0.18767924271E+04  0.42592586586E+04  0.38234715255E+04 0.  0.
        2    1    3    3  502    0  0.48541977091E+02  0.19106035687E+04 -0.98785611055E+03  0.21514232534E+04  0.25500000920E-02 0. -1.
       -2    1    3    3    0  502 -0.48541977091E+02 -0.19106035687E+04 -0.88893631655E+03  0.21078354051E+04  0.25500000920E-02 0.  1.
</event>
<event>
 5   0  0.2446281E-07  0.3881962E+04  0.7818609E-02  0.8028791E-01
        2   -1    0    0  501    0  0.00000000000E+00  0.00000000000E+00  0.16514513145E+04  0.16514513145E+04  0.25500000920E-02 0.  1.
       -2   -1    0    0    0  501  0.00000000000E+00  0.00000000000E+00 -0.22812703187E+04  0.22812703187E+04  0.25500000920E-02 0. -1.
    10030    2    1    2    0    0  0.00000000000E+00  0.00000000000E+00 -0.62981900414E+03  0.39327216332E+04  0.38819618064E+04 0.  0.
        1    1    3    3  502    0  0.16027075875E+04 -0.56464081183E+03 -0.12652135051E+04  0.21185504645E+04  0.50400001928E-02 0. -1.
       -1    1    3    3    0  502 -0.16027075875E+04  0.56464081183E+03  0.63539450094E+03  0.18141711687E+04  0.50400001928E-02 0.  1.
</event>
<event>
 5   0  0.7675750E-08  0.3671080E+04  0.7818609E-02  0.8074401E-01
        1   -1    0    0  501    0  0.00000000000E+00  0.00000000000E+00  0.22821862176E+04  0.22821862176E+04  0.50400001928E-02 0.  1.
       -1   -1    0    0    0  501  0.00000000000E+00  0.00000000000E+00 -0.14763069068E+04  0.14763069068E+04  0.50400001928E-02 0. -1.
    10030    2    1    2    0    0  0.00000000000E+00  0.00000000000E+00  0.80587931081E+03  0.37584931244E+04  0.36710801002E+04 0.  0.
        5    1    3    3  502    0  0.14732567251E+04 -0.68115722485E+03 -0.47463122229E+03  0.16910817337E+04  0.46999998093E+01 0. -1.
       -5    1    3    3    0  502 -0.14732567251E+04  0.68115722485E+03  0.12805105331E+04  0.20674113907E+04  0.46999998093E+01 0.  1.
</event>
<event>
 5   0  0.7675750E-08  0.4026786E+04  0.7818609E-02  0.7999165E-01
       -1   -1    0    0    0  501  0.00000000000E+00  0.00000000000E+00  0.32266536124E+04  0.32266536124E+04  0.50400001928E-02 0. -1.
        1   -1    0    0  501    0  0.00000000000E+00  0.00000000000E+00 -0.12563330240E+04  0.12563330240E+04  0.50400001928E-02 0.  1.
    10030    2    1    2    0    0  0.00000000000E+00  0.00000000000E+00  0.19703205884E+04  0.44829866364E+04  0.40267860585E+04 0.  0.
        5    1    3    3  502    0 -0.14006891570E+03  0.23411440105E+03  0.32059746629E+04  0.32175649928E+04  0.46999998093E+01 0. -1.
       -5    1    3    3    0  502  0.14006891570E+03 -0.23411440105E+03 -0.12356540746E+04  0.12654216435E+04  0.46999998093E+01 0.  1.
</event>
<event>
 5   0  0.2384787E-07  0.3872930E+04  0.7818609E-02  0.8030683E-01
        2   -1    0    0  501    0  0.00000000000E+00  0.00000000000E+00  0.32543708891E+04  0.32543708891E+04  0.25500000920E-02 0. -1.
       -2   -1    0    0    0  501  0.00000000000E+00  0.00000000000E+00 -0.11522649970E+04  0.11522649970E+04  0.25500000920E-02 0.  1.
    10030    2    1    2    0    0  0.00000000000E+00  0.00000000000E+00  0.21021058921E+04  0.44066358860E+04  0.38729304990E+04 0.  0.
        4    1    3    3  502    0  0.11634459044E+04 -0.10831472916E+04 -0.20727888748E+03  0.16030535168E+04  0.12699999809E+01 0.  1.
       -4    1    3    3    0  502 -0.11634459044E+04  0.10831472916E+04  0.23093847796E+04  0.28035823692E+04  0.12699999809E+01 0. -1.
</event>
<event>
 5   0  0.7675750E-08  0.3753657E+04  0.7818609E-02  0.8056174E-01
        1   -1    0    0  501    0  0.00000000000E+00  0.00000000000E+00  0.20561266319E+04  0.20561266319E+04  0.50400001928E-02 0.  1.
       -1   -1    0    0    0  501  0.00000000000E+00  0.00000000000E+00 -0.17131657284E+04  0.17131657284E+04  0.50400001928E-02 0. -1.
    10030    2    1    2    0    0  0.00000000000E+00  0.00000000000E+00  0.34296090353E+03  0.37692923603E+04  0.37536572454E+04 0.  0.
        1    1    3    3  502    0 -0.97691800817E+02 -0.35698603956E+03  0.20191181269E+04  0.20527592969E+04  0.50400001928E-02 0.  1.
       -1    1    3    3    0  502  0.97691800817E+02  0.35698603956E+03 -0.16761572234E+04  0.17165330635E+04  0.50400001928E-02 0. -1.
</event>
<event>
 5   0  0.2395572E-07  0.3861587E+04  0.7818609E-02  0.8033066E-01
       -2   -1    0    0    0  501  0.00000000000E+00  0.00000000000E+00  0.26837808619E+04  0.26837808619E+04  0.25500000920E-02 0. -1.
        2   -1    0    0  501    0  0.00000000000E+00  0.00000000000E+00 -0.13890717837E+04  0.13890717837E+04  0.25500000920E-02 0.  1.
    10030    2    1    2    0    0  0.00000000000E+00  0.00000000000E+00  0.12947090782E+04  0.40728526456E+04  0.38615873778E+04 0.  0.
        3    1    3    3  502    0 -0.16158264859E+04 -0.14525788996E+03 -0.45680543675E+03  0.16854276325E+04  0.10100000352E+00 0.  1.
       -3    1    3    3    0  502  0.16158264859E+04  0.14525788996E+03  0.17515145149E+04  0.23874250131E+04  0.10100000352E+00 0. -1.
</event>
<event>
 5   0  0.2395572E-07  0.3790392E+04  0.7818609E-02  0.8048220E-01
       -2   -1    0    0    0  501  0.00000000000E+00  0.00000000000E+00  0.26094126279E+04  0.26094126279E+04  0.25500000920E-02 0.  1.
        2   -1    0    0  501    0  0.00000000000E+00  0.00000000000E+00 -0.13764659401E+04  0.13764659401E+04  0.25500000920E-02 0. -1.
    10030    2    1    2    0    0  0.00000000000E+00  0.00000000000E+00  0.12329466878E+04  0.39858785680E+04  0.37903918562E+04 0.  0.
        3    1    3    3  502    0  0.78235103450E+03  0.28785973314E+03  0.24062611714E+04  0.25465720493E+04  0.10100000352E+00 0.  1.
       -3    1    3    3    0  502 -0.78235103450E+03 -0.28785973314E+03 -0.11733144836E+04  0.14393065187E+04  0.10100000352E+00 0. -1.
</event>
<event>
 5   0  0.2395572E-07  0.3833659E+04  0.7818609E-02  0.8038970E-01
       -2   -1    0    0    0  501  0.00000000000E+00  0.00000000000E+00  0.20683496484E+04  0.20683496484E+04  0.25500000920E-02 0.  1.
        2   -1    0    0  501    0  0.00000000000E+00  0.00000000000E+00 -0.17764094228E+04  0.17764094228E+04  0.25500000920E-02 0. -1.
    10030    2    1    2    0    0  0.00000000000E+00  0.00000000000E+00  0.29194022554E+03  0.38447590712E+04  0.38336592468E+04 0.  0.
        3    1    3    3  502    0  0.17953699840E+04  0.63967630911E+03  0.35075887724E+03  0.19379295550E+04  0.10100000352E+00 0. -1.
       -3    1    3    3    0  502 -0.17953699840E+04 -0.63967630911E+03 -0.58818651699E+02  0.19068295162E+04  0.10100000352E+00 0.  1.
</event>
<event>
 5   0  0.7675750E-08  0.3833634E+04  0.7818609E-02  0.8038975E-01
        1   -1    0    0  501    0  0.00000000000E+00  0.00000000000E+00  0.20213871298E+04  0.20213871298E+04  0.50400001928E-02 0. -1.
       -1   -1    0    0    0  501  0.00000000000E+00  0.00000000000E+00 -0.18176563656E+04  0.18176563656E+04  0.50400001928E-02 0.  1.
    10030    2    1    2    0    0  0.00000000000E+00  0.00000000000E+00  0.20373076419E+03  0.38390434955E+04  0.38336338813E+04 0.  0.
        2    1    3    3  502    0 -0.78597325050E+02 -0.62054600692E+03 -0.17125777503E+04  0.18232326887E+04  0.25500000920E-02 0.  1.
       -2    1    3    3    0  502  0.78597325050E+02  0.62054600692E+03  0.19163085145E+04  0.20158108068E+04  0.25500000920E-02 0. -1.
</event>
<event>
 5   0  0.2486268E-07  0.3869152E+04  0.7818609E-02  0.8031476E-01
       -2   -1    0    0    0  501  0.00000000000E+00  0.00000000000E+00  0.13560570064E+04  0.13560570064E+04  0.25500000920E-02 0.  1.
        2   -1    0    0  501    0  0.00000000000E+00  0.00000000000E+00 -0.27599022742E+04  0.27599022742E+04  0.25500000920E-02 0. -1.
    10030    2    1    2    0    0  0.00000000000E+00  0.00000000000E+00 -0.14038452678E+04  0.41159592806E+04  0.38691522668E+04 0.  0.
        5    1    3    3  502    0 -0.16087159237E+04  0.10175930148E+04 -0.10690456404E+04  0.21831956252E+04  0.46999998093E+01 0.  1.
       -5    1    3    3    0  502  0.16087159237E+04 -0.10175930148E+04 -0.33479962744E+03  0.19327636553E+04  0.46999998093E+01 0. -1.
</event>
<event>
 5   0  0.2486268E-07  0.3888016E+04  0.7818609E-02  0.8027526E-01
       -2   -1    0    0    0  501  0.00000000000E+00  0.00000000000E+00  0.15503017201E+04  0.15503017201E+04  0.25500000920E-02 0.  1.
        2   -1    0    0  501    0  0.00000000000E+00  0.00000000000E+00 -0.24376977346E+04  0.24376977346E+04  0.25500000920E-02 0. -1.
    10030    2    1    2    0    0  0.00000000000E+00  0.00000000000E+00 -0.88739601444E+03  0.39879994547E+04  0.38880159419E+04 0.  0.
        5    1    3    3  502    0 -0.27587949533E+03  0.18459841979E+04  0.11376485396E+03  0.18699549960E+04  0.46999998093E+01 0.  1.
       -5    1    3    3    0  502  0.27587949533E+03 -0.18459841979E+04 -0.10011608684E+04  0.21180444588E+04  0.46999998093E+01 0. -1.
</event>
<event>
 5   0  0.2384787E-07  0.3868558E+04  0.7818609E-02  0.8031601E-01
        2   -1    0    0  501    0  0.00000000000E+00  0.00000000000E+00  0.18426802069E+04  0.18426802069E+04  0.25500000920E-02 0. -1.
       -2   -1    0    0    0  501  0.00000000000E+00  0.00000000000E+00 -0.20304307673E+04  0.20304307673E+04  0.25500000920E-02 0.  1.
    10030    2    1    2    0    0  0.00000000000E+00  0.00000000000E+00 -0.18775056045E+03  0.38731109742E+04  0.38685576570E+04 0.  0.
        4    1    3    3  502    0  0.10569287395E+04 -0.12303301353E+04 -0.11489763792E+04  0.19877019231E+04  0.12699999809E+01 0.  1.
       -4    1    3    3    0  502 -0.10569287395E+04  0.12303301353E+04  0.96122581879E+03  0.18854090511E+04  0.12699999809E+01 0. -1.
</event>
<event>
 5   0  0.2384787E-07  0.3469943E+04  0.7818609E-02  0.8120950E-01
        2   -1    0    0  501    0  0.00000000000E+00  0.00000000000E+00  0.18343577452E+04  0.18343577452E+04  0.25500000920E-02 0.  1.
       -2   -1    0    0    0  501  0.00000000000E+00  0.00000000000E+00 -0.16409696769E+04  0.16409696769E+04  0.25500000920E-02 0. -1.
    10030    2    1    2    0    0  0.00000000000E+00  0.00000000000E+00  0.19338806831E+03  0.34753274220E+04  0.34699426141E+04 0.  0.
        4    1    3    3  502    0 -0.10496816798E+04  0.83731084581E+03  0.11971268711E+04  0.17988983962E+04  0.12699999809E+01 0.  1.
       -4    1    3    3    0  502  0.10496816798E+04 -0.83731084581E+03 -0.10037388028E+04  0.16764290258E+04  0.12699999809E+01 0. -1.
</event>
<event>
 5   0  0.7675750E-08  0.3868793E+04  0.7818609E-02  0.8031551E-01
       -1   -1    0    0    0  501  0.00000000000E+00  0.00000000000E+00  0.16402076006E+04  0.16402076007E+04  0.50400001928E-02 0.  1.
        1   -1    0    0  501    0  0.00000000000E+00  0.00000000000E+00 -0.22813509911E+04  0.22813509911E+04  0.50400001928E-02 0. -1.
    10030    2    1    2    0    0  0.00000000000E+00  0.00000000000E+00 -0.64114339043E+03  0.39215585917E+04  0.38687926982E+04 0.  0.
        4    1    3    3  502    0  0.10396567930E+04 -0.28721893913E+03  0.13071021205E+04  0.16946676761E+04  0.12699999809E+01 0.  1.
       -4    1    3    3    0  502 -0.10396567930E+04  0.28721893913E+03 -0.19482455110E+04  0.22268909156E+04  0.12699999809E+01 0. -1.
</event>
<event>
 5   0  0.2395572E-07  0.3894653E+04  0.7818609E-02  0.8026142E-01
       -2   -1    0    0    0  501  0.00000000000E+00  0.00000000000E+00  0.20454363187E+04  0.20454363187E+04  0.25500000920E-02 0. -1.
        2   -1    0    0  501    0  0.00000000000E+00  0.00000000000E+00 -0.18539222871E+04  0.18539222871E+04  0.25500000920E-02 0.  1.
    10030    2    1    2    0    0  0.00000000000E+00  0.00000000000E+00  0.19151403160E+03  0.38993586059E+04  0.38946527333E+04 0.  0.
        3    1    3    3  502    0  0.11541607890E+04 -0.15091302811E+04 -0.33198119069E+03  0.19286712663E+04  0.10100000352E+00 0.  1.
       -3    1    3    3    0  502 -0.11541607890E+04  0.15091302811E+04  0.52349522229E+03  0.19706873396E+04  0.10100000352E+00 0. -1.
</event>
<event>
 5   0  0.7675750E-08  0.3881341E+04  0.7818609E-02  0.8028921E-01
        1   -1    0    0  501    0  0.00000000000E+00  0.00000000000E+00  0.21816808537E+04  0.21816808537E+04  0.50400001928E-02 0. -1.
       -1   -1    0    0    0  501  0.00000000000E+00  0.00000000000E+00 -0.17262845826E+04  0.17262845826E+04  0.50400001928E-02 0.  1.
    10030    2    1    2    0    0  0.00000000000E+00  0.00000000000E+00  0.45539627116E+03  0.39079654363E+04  0.38813410166E+04 0.  0.
        4    1    3    3  502    0 -0.26168571334E+03 -0.18884334192E+04  0.59287074096E+03  0.19965363808E+04  0.12699999809E+01 0.  1.
       -4    1    3    3    0  502  0.26168571334E+03  0.18884334192E+04 -0.13747446980E+03  0.19114290555E+04  0.12699999809E+01 0. -1.
</event>
<event>
 5   0  0.2446281E-07  0.3931457E+04  0.7818609E-02  0.8018518E-01
       -2   -1    0    0    0  501  0.00000000000E+00  0.00000000000E+00  0.16020644250E+04  0.16020644250E+04  0.25500000920E-02 0. -1.
        2   -1    0    0  501    0  0.00000000000E+00  0.00000000000E+00 -0.24119427379E+04  0.24119427379E+04  0.25500000920E-02 0.  1.
    10030    2    1    2    0    0  0.00000000000E+00  0.00000000000E+00 -0.80987831288E+03  0.40140071628E+04  0.39314565522E+04 0.  0.
        1    1    3    3  502    0  0.14584120612E+03  0.16406544779E+04  0.69046830963E+03  0.17859908342E+04  0.50400001928E-02 0. -1.
       -1    1    3    3    0  502 -0.14584120612E+03 -0.16406544779E+04 -0.15003466225E+04  0.22280163287E+04  0.50400001928E-02 0.  1.
</event>
<event>
 5   0  0.2473224E-07  0.4205129E+04  0.7818609E-02  0.7964397E-01
       -2   -1    0    0    0  501  0.00000000000E+00  0.00000000000E+00  0.26306999697E+04  0.26306999697E+04  0.25500000920E-02 0. -1.
        2   -1    0    0  501    0  0.00000000000E+00  0.00000000000E+00 -0.16804568232E+04  0.16804568232E+04  0.25500000920E-02 0.  1.
    10030    2    1    2    0    0  0.00000000000E+00  0.00000000000E+00  0.95024314647E+03  0.43111567929E+04  0.42051291128E+04 0.  0.
        2    1    3    3  502    0 -0.11633882733E+04  0.28484095985E+03  0.22467466743E+04  0.25460709467E+04  0.25500000920E-02 0. -1.
       -2    1    3    3    0  502  0.11633882733E+04 -0.28484095985E+03 -0.12965035278E+04  0.17650858463E+04  0.25500000920E-02 0.  1.
</event>
<event>
 5   0  0.7675750E-08  0.3883037E+04  0.7818609E-02  0.8028566E-01
        1   -1    0    0  501    0  0.00000000000E+00  0.00000000000E+00  0.13304556510E+04  0.13304556510E+04  0.50400001928E-02 0. -1.
       -1   -1    0    0    0  501  0.00000000000E+00  0.00000000000E+00 -0.28332360417E+04  0.28332360417E+04  0.50400001928E-02 0.  1.
    10030    2    1    2    0    0  0.00000000000E+00  0.00000000000E+00 -0.15027803907E+04  0.41636916927E+04  0.38830374205E+04 0.  0.
        1    1    3    3  502    0 -0.87651094303E+03  0.17793192128E+03  0.10964027771E+04  0.14149311826E+04  0.50400001928E-02 0. -1.
       -1    1    3    3    0  502  0.87651094303E+03 -0.17793192128E+03 -0.25991831678E+04  0.27487605100E+04  0.50400001928E-02 0.  1.
</event>
<event>
 5   0  0.7675750E-08  0.3815314E+04  0.7818609E-02  0.8042876E-01
        1   -1    0    0  501    0  0.00000000000E+00  0.00000000000E+00  0.18811171080E+04  0.18811171080E+04  0.50400001928E-02 0. -1.
       -1   -1    0    0    0  501  0.00000000000E+00  0.00000000000E+00 -0.19345714464E+04  0.19345714464E+04  0.50400001928E-02 0.  1.
    10030    2    1    2    0    0  0.00000000000E+00  0.00000000000E+00 -0.53454338386E+02  0.38156885544E+04  0.38153141126E+04 0.  0.
        2    1    3    3  502    0 -0.11991982136E+04 -0.32944123110E+03  0.14199788539E+04  0.18875772370E+04  0.25500000920E-02 0. -1.
       -2    1    3    3    0  502  0.11991982136E+04  0.32944123110E+03 -0.14734331923E+04  0.19281113174E+04  0.25500000920E-02 0.  1.
</event>
<event>
 5   0  0.2384787E-07  0.3887510E+04  0.7818609E-02  0.8027632E-01
       -2   -1    0    0    0  501  0.00000000000E+00  0.00000000000E+00  0.20020054818E+04  0.20020054818E+04  0.25500000920E-02 0.  1.
        2   -1    0    0  501    0  0.00000000000E+00  0.00000000000E+00 -0.18871998479E+04  0.18871998479E+04  0.25500000920E-02 0. -1.
    10030    2    1    2    0    0  0.00000000000E+00  0.00000000000E+00  0.11480563388E+03  0.38892053297E+04  0.38875104839E+04 0.  0.
        4    1    3    3  502    0  0.14294992683E+04  0.10959949885E+04  0.78813871087E+03  0.19661732918E+04  0.12699999809E+01 0.  1.
       -4    1    3    3    0  502 -0.14294992683E+04 -0.10959949885E+04 -0.67333307699E+03  0.19230320378E+04  0.12699999809E+01 0. -1.
</event>
<event>
 5   0  0.2384787E-07  0.3881920E+04  0.7818609E-02  0.8028800E-01
       -2   -1    0    0    0  501  0.00000000000E+00  0.00000000000E+00  0.21013117508E+04  0.21013117508E+04  0.25500000920E-02 0. -1.
        2   -1    0    0  501    0  0.00000000000E+00  0.00000000000E+00 -0.17928444209E+04  0.17928444209E+04  0.25500000920E-02 0.  1.
    10030    2    1    2    0    0  0.00000000000E+00  0.00000000000E+00  0.30846732997E+03  0.38941561717E+04  0.38819196535E+04 0.  0.
        4    1    3    3  502    0 -0.11204104207E+03 -0.16388639075E+04 -0.88289923895E+03  0.18649238004E+04  0.12699999809E+01 0.  1.
       -4    1    3    3    0  502  0.11204104207E+03  0.16388639075E+04  0.11913665689E+04  0.20292323713E+04  0.12699999809E+01 0. -1.
</event>
<event>
 5   0  0.7675750E-08  0.3725351E+04  0.7818609E-02  0.8062367E-01
       -1   -1    0    0    0  501  0.00000000000E+00  0.00000000000E+00  0.12845474870E+04  0.12845474870E+04  0.50400001928E-02 0. -1.
        1   -1    0    0  501    0  0.00000000000E+00  0.00000000000E+00 -0.27009976494E+04  0.27009976494E+04  0.50400001928E-02 0.  1.
    10030    2    1    2    0    0  0.00000000000E+00  0.00000000000E+00 -0.14164501624E+04  0.39855451365E+04  0.37253508522E+04 0.  0.
        4    1    3    3  502    0 -0.92222470074E+03 -0.15676154746E+04 -0.11383523014E+04  0.21456384247E+04  0.12699999809E+01 0.  1.
       -4    1    3    3    0  502  0.92222470074E+03  0.15676154746E+04 -0.27809786107E+03  0.18399067117E+04  0.12699999809E+01 0. -1.
</event>
<event>
 5   0  0.7675750E-08  0.3898063E+04  0.7818609E-02  0.8025432E-01
       -1   -1    0    0    0  501  0.00000000000E+00  0.00000000000E+00  0.15370770807E+04  0.15370770807E+04  0.50400001928E-02 0.  1.
        1   -1    0    0  501    0  0.00000000000E+00  0.00000000000E+00 -0.24713941686E+04  0.24713941686E+04  0.50400001928E-02 0. -1.
    10030    2    1    2    0    0  0.00000000000E+00  0.00000000000E+00 -0.93431708792E+03  0.40084712493E+04  0.38980627671E+04 0.  0.
        2    1    3    3  502    0 -0.12865743577E+04  0.32874099997E+03 -0.19342345072E+04  0.23461899650E+04  0.25500000920E-02 0. -1.
       -2    1    3    3    0  502  0.12865743577E+04 -0.32874099997E+03  0.99991741928E+03  0.16622812844E+04  0.25500000920E-02 0.  1.
</event>
<event>
 5   0  0.2486268E-07  0.3910089E+04  0.7818609E-02  0.8022934E-01
        2   -1    0    0  501    0  0.00000000000E+00  0.00000000000E+00  0.26637144436E+04  0.26637144436E+04  0.25500000920E-02 0. -1.
       -2   -1    0    0    0  501  0.00000000000E+00  0.00000000000E+00 -0.14349133905E+04  0.14349133905E+04  0.25500000920E-02 0.  1.
    10030    2    1    2    0    0  0.00000000000E+00  0.00000000000E+00  0.12288010531E+04  0.40986278341E+04  0.39100892693E+04 0.  0.
        5    1    3    3  502    0  0.11564903568E+04 -0.14259268500E+04 -0.89890057586E+02  0.18381620275E+04  0.46999998093E+01 0.  1.
       -5    1    3    3    0  502 -0.11564903568E+04  0.14259268500E+04  0.13186911107E+04  0.22604658065E+04  0.46999998093E+01 0. -1.
</event>
<event>
 5   0  0.2486268E-07  0.3861005E+04  0.7818609E-02  0.8033189E-01
       -2   -1    0    0    0  501  0.00000000000E+00  0.00000000000E+00  0.18161207998E+04  0.18161207998E+04  0.25500000920E-02 0.  1.
        2   -1    0    0  501    0  0.00000000000E+00  0.00000000000E+00 -0.20520876027E+04  0.20520876027E+04  0.25500000920E-02 0. -1.
    10030    2    1    2    0    0  0.00000000000E+00  0.00000000000E+00 -0.23596680290E+03  0.38682084025E+04  0.38610045213E+04 0.  0.
        5    1    3    3  502    0  0.25598497647E+03  0.10213118011E+04  0.15031242571E+04  0.18352140817E+04  0.46999998093E+01 0.  1.
       -5    1    3    3    0  502 -0.25598497647E+03 -0.10213118011E+04 -0.17390910600E+04  0.20329943208E+04  0.46999998093E+01 0. -1.
</event>
<event>
 5   0  0.7675750E-08  0.3443123E+04  0.7818609E-02  0.8127403E-01
       -1   -1    0    0    0  501  0.00000000000E+00  0.00000000000E+00  0.13322438140E+04  0.13322438140E+04  0.50400001928E-02 0. -1.
        1   -1    0    0  501    0  0.00000000000E+00  0.00000000000E+00 -0.22246481536E+04  0.22246481536E+04  0.50400001928E-02 0.  1.
    10030    2    1    2    0    0  0.00000000000E+00  0.00000000000E+00 -0.89240433964E+03  0.35568919676E+04  0.34431228505E+04 0.  0.
        5    1    3    3  502    0  0.11963624622E+04 -0.19597377249E+03  0.81650480966E+03  0.14616398512E+04  0.46999998093E+01 0. -1.
       -5    1    3    3    0  502 -0.11963624622E+04  0.19597377249E+03 -0.17089091493E+04  0.20952521164E+04  0.46999998093E+01 0.  1.
</event>
<event>
 5   0  0.2473224E-07  0.3861286E+04  0.7818609E-02  0.8033129E-01
        2   -1    0    0  501    0  0.00000000000E+00  0.00000000000E+00  0.29116598458E+04  0.29116598458E+04  0.25500000920E-02 0.  1.
       -2   -1    0    0    0  501  0.00000000000E+00  0.00000000000E+00 -0.12801574830E+04  0.12801574830E+04  0.25500000920E-02 0. -1.
    10030    2    1    2    0    0  0.00000000000E+00  0.00000000000E+00  0.16315023628E+04  0.41918173288E+04  0.38612863865E+04 0.  0.
        2    1    3    3  502    0 -0.19121098061E+04 -0.22713978212E+03  0.66366333416E+03  0.20367143669E+04  0.25500000920E-02 0. -1.
       -2    1    3    3    0  502  0.19121098061E+04  0.22713978212E+03  0.96783902860E+03  0.21551029619E+04  0.25500000920E-02 0.  1.
</event>
<event>
 5   0  0.7675750E-08  0.3827221E+04  0.7818609E-02  0.8040338E-01
        1   -1    0    0  501    0  0.00000000000E+00  0.00000000000E+00  0.13226789219E+04  0.13226789219E+04  0.50400001928E-02 0. -1.
       -1   -1    0    0    0  501  0.00000000000E+00  0.00000000000E+00 -0.27685520081E+04  0.27685520081E+04  0.50400001928E-02 0.  1.
    10030    2    1    2    0    0  0.00000000000E+00  0.00000000000E+00 -0.14458730862E+04  0.40912309301E+04  0.38272211253E+04 0.  0.
        4    1    3    3  502    0 -0.61543358659E+03  0.13561951713E+04 -0.20074420743E+04  0.24995697904E+04  0.12699999809E+01 0.  1.
       -4    1    3    3    0  502  0.61543358659E+03 -0.13561951713E+04  0.56156898812E+03  0.15916611397E+04  0.12699999809E+01 0. -1.
</event>
<event>
 5   0  0.2395572E-07  0.3888624E+04  0.7818609E-02  0.8027399E-01
       -2   -1    0    0    0  501  0.00000000000E+00  0.00000000000E+00  0.14758964972E+04  0.14758964972E+04  0.25500000920E-02 0. -1.
        2   -1    0    0  501    0  0.00000000000E+00  0.00000000000E+00 -0.25613913287E+04  0.25613913287E+04  0.25500000920E-02 0.  1.
    10030    2    1    2    0    0  0.00000000000E+00  0.00000000000E+00 -0.10854948315E+04  0.40372878260E+04  0.38886236589E+04 0.  0.
        3    1    3    3  502    0  0.15459988586E+04  0.41590192357E+03 -0.16882227948E+04  0.23266248292E+04  0.10100000352E+00 0.  1.
       -3    1    3    3    0  502 -0.15459988586E+04 -0.41590192357E+03  0.60272796325E+03  0.17106629968E+04  0.10100000352E+00 0. -1.
</event>
<event>
 5   0  0.2486268E-07  0.3926640E+04  0.7818609E-02  0.8019511E-01
        2   -1    0    0  501    0  0.00000000000E+00  0.00000000000E+00  0.27693116250E+04  0.27693116250E+04  0.25500000920E-02 0.  1.
       -2   -1    0    0    0  501  0.00000000000E+00  0.00000000000E+00 -0.13919074421E+04  0.13919074421E+04  0.25500000920E-02 0. -1.
    10030    2    1    2    0    0  0.00000000000E+00  0.00000000000E+00  0.13774041828E+04  0.41612190671E+04  0.39266400194E+04 0.  0.
        5    1    3    3  502    0  0.33742562018E+03  0.16568510255E+03  0.27308127055E+04  0.27565681063E+04  0.46999998093E+01 0.  1.
       -5    1    3    3    0  502 -0.33742562018E+03 -0.16568510255E+03 -0.13534085227E+04  0.14046509608E+04  0.46999998093E+01 0. -1.
</event>
<event>
 5   0  0.2473224E-07  0.3911908E+04  0.7818609E-02  0.8022557E-01
        2   -1    0    0  501    0  0.00000000000E+00  0.00000000000E+00  0.20121008643E+04  0.20121008643E+04  0.25500000920E-02 0.  1.
       -2   -1    0    0    0  501  0.00000000000E+00  0.00000000000E+00 -0.19013737755E+04  0.19013737755E+04  0.25500000920E-02 0. -1.
    10030    2    1    2    0    0  0.00000000000E+00  0.00000000000E+00  0.11072708888E+03  0.39134746398E+04  0.39119078809E+04 0.  0.
        2    1    3    3  502    0 -0.18566149537E+04  0.42135773570E+03 -0.39336307880E+03  0.19440411363E+04  0.25500000920E-02 0. -1.
       -2    1    3    3    0  502  0.18566149537E+04 -0.42135773570E+03  0.50409016768E+03  0.19694335035E+04  0.25500000920E-02 0.  1.
</event>
<event>
 5   0  0.7731706E-08  0.3918943E+04  0.7818609E-02  0.8021101E-01
       -1   -1    0    0    0  501  0.00000000000E+00  0.00000000000E+00  0.21740062335E+04  0.21740062335E+04  0.50400001928E-02 0. -1.
        1   -1    0    0  501    0  0.00000000000E+00  0.00000000000E+00 -0.17661070766E+04  0.17661070766E+04  0.50400001928E-02 0.  1.
    10030    2    1    2    0    0  0.00000000000E+00  0.00000000000E+00  0.40789915693E+03  0.39401133101E+04  0.39189426092E+04 0.  0.
        3    1    3    3  502    0  0.11594467882E+04 -0.81237468390E+03 -0.11580858570E+04  0.18290523077E+04  0.10100000352E+00 0.  1.
       -3    1    3    3    0  502 -0.11594467882E+04  0.81237468390E+03  0.15659850139E+04  0.21110610024E+04  0.10100000352E+00 0. -1.
</event>
<event>
 5   0  0.2473224E-07  0.3894643E+04  0.7818609E-02  0.8026144E-01
       -2   -1    0    0    0  501  0.00000000000E+00  0.00000000000E+00  0.19752967967E+04  0.19752967967E+04  0.25500000920E-02 0.  1.
        2   -1    0    0  501    0  0.00000000000E+00  0.00000000000E+00 -0.19197427499E+04  0.19197427499E+04  0.25500000920E-02 0. -1.
    10030    2    1    2    0    0  0.00000000000E+00  0.00000000000E+00  0.55554046790E+02  0.38950395466E+04  0.38946433492E+04 0.  0.
        2    1    3    3  502    0  0.10016569907E+04  0.13084051804E+04  0.10655823807E+04  0.19623217507E+04  0.25500000920E-02 0.  1.
       -2    1    3    3    0  502 -0.10016569907E+04 -0.13084051804E+04 -0.10100283339E+04  0.19327177959E+04  0.25500000920E-02 0. -1.
</event>
<event>
 5   0  0.7675750E-08  0.3887475E+04  0.7818609E-02  0.8027639E-01
        1   -1    0    0  501    0  0.00000000000E+00  0.00000000000E+00  0.14949747813E+04  0.14949747814E+04  0.50400001928E-02 0. -1.
       -1   -1    0    0    0  501  0.00000000000E+00  0.00000000000E+00 -0.25272104118E+04  0.25272104118E+04  0.50400001928E-02 0.  1.
    10030    2    1    2    0    0  0.00000000000E+00  0.00000000000E+00 -0.10322356305E+04  0.40221851932E+04  0.38874751873E+04 0.  0.
        5    1    3    3  502    0 -0.13560697462E+04  0.13792610427E+04 -0.31761669518E+03  0.19601501564E+04  0.46999998093E+01 0.  1.
       -5    1    3    3    0  502  0.13560697462E+04 -0.13792610427E+04 -0.71461893532E+03  0.20620350368E+04  0.46999998093E+01 0. -1.
</event>
<event>
 5   0  0.7675750E-08  0.3757738E+04  0.7818609E-02  0.8055286E-01
        1   -1    0    0  501    0  0.00000000000E+00  0.00000000000E+00  0.26866776616E+04  0.26866776616E+04  0.50400001928E-02 0.  1.
       -1   -1    0    0    0  501  0.00000000000E+00  0.00000000000E+00 -0.13139455104E+04  0.13139455104E+04  0.50400001928E-02 0. -1.
    10030    2    1    2    0    0  0.00000000000E+00  0.00000000000E+00  0.13727321513E+04  0.40006231720E+04  0.37577376445E+04 0.  0.
        4    1    3    3  502    0 -0.18510818984E+04 -0.31882571015E+03  0.73388762523E+03  0.20166176354E+04  0.12699999809E+01 0. -1.
       -4    1    3    3    0  502  0.18510818984E+04  0.31882571015E+03  0.63884452605E+03  0.19840055366E+04  0.12699999809E+01 0.  1.
</event>
<event>
 5   0  0.2395572E-07  0.3870272E+04  0.7818609E-02  0.8031241E-01
        2   -1    0    0  501    0  0.00000000000E+00  0.00000000000E+00  0.29971014831E+04  0.29971014831E+04  0.25500000920E-02 0. -1.
       -2   -1    0    0    0  501  0.00000000000E+00  0.00000000000E+00 -0.12494576772E+04  0.12494576772E+04  0.25500000920E-02 0.  1.
    10030    2    1    2    0    0  0.00000000000E+00  0.00000000000E+00  0.17476438059E+04  0.42465591602E+04  0.38702720614E+04 0.  0.
        3    1    3    3  502    0  0.10141820239E+04 -0.72639964439E+02 -0.93274150800E+03  0.13798001569E+04  0.10100000352E+00 0.  1.
       -3    1    3    3    0  502 -0.10141820239E+04  0.72639964439E+02  0.26803853139E+04  0.28667590033E+04  0.10100000352E+00 0. -1.
</event>
<event>
 5   0  0.7731706E-08  0.3877429E+04  0.7818609E-02  0.8029740E-01
        1   -1    0    0  501    0  0.00000000000E+00  0.00000000000E+00  0.21586687816E+04  0.21586687816E+04  0.50400001928E-02 0. -1.
       -1   -1    0    0    0  501  0.00000000000E+00  0.00000000000E+00 -0.17411721116E+04  0.17411721116E+04  0.50400001928E-02 0.  1.
    10030    2    1    2    0    0  0.00000000000E+00  0.00000000000E+00  0.41749667003E+03  0.38998408933E+04  0.38774289837E+04 0.  0.
        3    1    3    3  502    0  0.17457429676E+04  0.84245966037E+03  0.17308804036E+03  0.19461028411E+04  0.10100000352E+00 0.  1.
       -3    1    3    3    0  502 -0.17457429676E+04 -0.84245966037E+03  0.24440862967E+03  0.19537380522E+04  0.10100000352E+00 0. -1.
</event>
<event>
 5   0  0.7675750E-08  0.3909035E+04  0.7818609E-02  0.8023153E-01
        1   -1    0    0  501    0  0.00000000000E+00  0.00000000000E+00  0.22633219674E+04  0.22633219674E+04  0.50400001928E-02 0. -1.
       -1   -1    0    0    0  501  0.00000000000E+00  0.00000000000E+00 -0.16878461926E+04  0.16878461926E+04  0.50400001928E-02 0.  1.
    10030    2    1    2    0    0  0.00000000000E+00  0.00000000000E+00  0.57547577483E+03  0.39511681601E+04  0.39090353620E+04 0.  0.
        2    1    3    3  502    0  0.95109877840E+03  0.14768923975E+04  0.11539102201E+04  0.21017394787E+04  0.25500000920E-02 0. -1.
       -2    1    3    3    0  502 -0.95109877840E+03 -0.14768923975E+04 -0.57843444524E+03  0.18494286814E+04  0.25500000920E-02 0.  1.
</event>
<event>
 5   0  0.7675750E-08  0.3772306E+04  0.7818609E-02  0.8052124E-01
        1   -1    0    0  501    0  0.00000000000E+00  0.00000000000E+00  0.15869280604E+04  0.15869280605E+04  0.50400001928E-02 0. -1.
       -1   -1    0    0    0  501  0.00000000000E+00  0.00000000000E+00 -0.22417981586E+04  0.22417981586E+04  0.50400001928E-02 0.  1.
    10030    2    1    2    0    0  0.00000000000E+00  0.00000000000E+00 -0.65487009814E+03  0.38287262190E+04  0.37723056100E+04 0.  0.
        2    1    3    3  502    0  0.13813461828E+04 -0.12593076789E+03 -0.16246736081E+04  0.21362444073E+04  0.25500000920E-02 0.  1.
       -2    1    3    3    0  502 -0.13813461828E+04  0.12593076789E+03  0.96980350993E+03  0.16924818117E+04  0.25500000920E-02 0. -1.
</event>
<event>
 5   0  0.2384787E-07  0.3945748E+04  0.7818609E-02  0.8015581E-01
        2   -1    0    0  501    0  0.00000000000E+00  0.00000000000E+00  0.27080830082E+04  0.27080830082E+04  0.25500000920E-02 0. -1.
       -2   -1    0    0    0  501  0.00000000000E+00  0.00000000000E+00 -0.14372648164E+04  0.14372648164E+04  0.25500000920E-02 0.  1.
    10030    2    1    2    0    0  0.00000000000E+00  0.00000000000E+00  0.12708181919E+04  0.41453478246E+04  0.39457483080E+04 0.  0.
        4    1    3    3  502    0  0.15072743216E+04 -0.33932563901E+03 -0.65352462148E+03  0.16775320604E+04  0.12699999809E+01 0. -1.
       -4    1    3    3    0  502 -0.15072743216E+04  0.33932563901E+03  0.19243428133E+04  0.24678157642E+04  0.12699999809E+01 0.  1.
</event>
<event>
 5   0  0.7675750E-08  0.3940039E+04  0.7818609E-02  0.8016753E-01
        1   -1    0    0  501    0  0.00000000000E+00  0.00000000000E+00  0.31018768870E+04  0.31018768870E+04  0.50400001928E-02 0.  1.
       -1   -1    0    0    0  501  0.00000000000E+00  0.00000000000E+00 -0.12511708000E+04  0.12511708000E+04  0.50400001928E-02 0. -1.
    10030    2    1    2    0    0  0.00000000000E+00  0.00000000000E+00  0.18507060870E+04  0.43530476870E+04  0.39400394851E+04 0.  0.
        1    1    3    3  502    0  0.14860886461E+04 -0.79288931418E+03  0.20541370014E+04  0.26564283821E+04  0.50400001928E-02 0.  1.
       -1    1    3    3    0  502 -0.14860886461E+04  0.79288931418E+03 -0.20343091435E+03  0.16966193049E+04  0.50400001928E-02 0. -1.
</event>
<event>
 5   0  0.7675750E-08  0.3873320E+04  0.7818609E-02  0.8030601E-01
       -1   -1    0    0    0  501  0.00000000000E+00  0.00000000000E+00  0.14620057149E+04  0.14620057149E+04  0.50400001928E-02 0. -1.
        1   -1    0    0  501    0  0.00000000000E+00  0.00000000000E+00 -0.25654154814E+04  0.25654154815E+04  0.50400001928E-02 0.  1.
    10030    2    1    2    0    0  0.00000000000E+00  0.00000000000E+00 -0.11034097665E+04  0.40274211964E+04  0.38733200720E+04 0.  0.
        1    1    3    3  502    0  0.10204952744E+04 -0.22384549971E+03  0.11438577312E+04  0.15491700753E+04  0.50400001928E-02 0. -1.
       -1    1    3    3    0  502 -0.10204952744E+04  0.22384549971E+03 -0.22472674978E+04  0.24782511211E+04  0.50400001928E-02 0.  1.
</event>
<event>
 5   0  0.2486268E-07  0.3880055E+04  0.7818609E-02  0.8029190E-01
       -2   -1    0    0    0  501  0.00000000000E+00  0.00000000000E+00  0.15507397517E+04  0.15507397517E+04  0.25500000920E-02 0. -1.
        2   -1    0    0  501    0  0.00000000000E+00  0.00000000000E+00 -0.24270399947E+04  0.24270399947E+04  0.25500000920E-02 0.  1.
    10030    2    1    2    0    0  0.00000000000E+00  0.00000000000E+00 -0.87630024306E+03  0.39777797464E+04  0.38800553598E+04 0.  0.
        5    1    3    3  502    0  0.54693007927E+03  0.12451814730E+04  0.98019652840E+03  0.16764297590E+04  0.46999998093E+01 0. -1.
       -5    1    3    3    0  502 -0.54693007927E+03 -0.12451814730E+04 -0.18564967715E+04  0.23013499875E+04  0.46999998093E+01 0.  1.
</event>
<event>
 5   0  0.2446281E-07  0.3815428E+04  0.7818609E-02  0.8042852E-01
        2   -1    0    0  501    0  0.00000000000E+00  0.00000000000E+00  0.18125218492E+04  0.18125218492E+04  0.25500000920E-02 0.  1.
       -2   -1    0    0    0  501  0.00000000000E+00  0.00000000000E+00 -0.20079055850E+04  0.20079055850E+04  0.25500000920E-02 0. -1.
    10030    2    1    2    0    0  0.00000000000E+00  0.00000000000E+00 -0.19538373579E+03  0.38204274341E+04  0.38154280199E+04 0.  0.
        1    1    3    3  502    0 -0.15883126249E+04  0.65968252290E+03 -0.92427624318E+03  0.19524867731E+04  0.50400001928E-02 0. -1.
       -1    1    3    3    0  502  0.15883126249E+04 -0.65968252290E+03  0.72889250739E+03  0.18679406610E+04  0.50400001928E-02 0.  1.
</event>
<event>
 5   0  0.2446281E-07  0.3905377E+04  0.7818609E-02  0.8023912E-01
       -2   -1    0    0    0  501  0.00000000000E+00  0.00000000000E+00  0.12830127993E+04  0.12830127993E+04  0.25500000920E-02 0. -1.
        2   -1    0    0  501    0  0.00000000000E+00  0.00000000000E+00 -0.29719045848E+04  0.29719045848E+04  0.25500000920E-02 0.  1.
    10030    2    1    2    0    0  0.00000000000E+00  0.00000000000E+00 -0.16888917855E+04  0.42549173841E+04  0.39053766121E+04 0.  0.
        1    1    3    3  502    0  0.18158917730E+04 -0.30487197548E+03 -0.13620077621E+03  0.18463370505E+04  0.50400001928E-02 0.  1.
       -1    1    3    3    0  502 -0.18158917730E+04  0.30487197548E+03 -0.15526910093E+04  0.24085803336E+04  0.50400001928E-02 0. -1.
</event>
<event>
 5   0  0.7731706E-08  0.3911871E+04  0.7818609E-02  0.8022565E-01
       -1   -1    0    0    0  501  0.00000000000E+00  0.00000000000E+00  0.24508933282E+04  0.24508933282E+04  0.50400001928E-02 0. -1.
        1   -1    0    0  501    0  0.00000000000E+00  0.00000000000E+00 -0.15609342617E+04  0.15609342617E+04  0.50400001928E-02 0.  1.
    10030    2    1    2    0    0  0.00000000000E+00  0.00000000000E+00  0.88995906649E+03  0.40118275900E+04  0.39118708403E+04 0.  0.
        3    1    3    3  502    0  0.92284384697E+02 -0.15331480355E+04  0.16869668335E+04  0.22814285906E+04  0.10100000352E+00 0. -1.
       -3    1    3    3    0  502 -0.92284384697E+02  0.15331480355E+04 -0.79700776700E+03  0.17303989994E+04  0.10100000352E+00 0.  1.
</event>
<event>
 5   0  0.2486268E-07  0.3886438E+04  0.7818609E-02  0.8027856E-01
        2   -1    0    0  501    0  0.00000000000E+00  0.00000000000E+00  0.18608709477E+04  0.18608709477E+04  0.25500000920E-02 0. -1.
       -2   -1    0    0    0  501  0.00000000000E+00  0.00000000000E+00 -0.20292112537E+04  0.20292112537E+04  0.25500000920E-02 0.  1.
    10030    2    1    2    0    0  0.00000000000E+00  0.00000000000E+00 -0.16834030600E+03  0.38900822014E+04  0.38864380961E+04 0.  0.
        5    1    3    3  502    0 -0.88114874506E+03 -0.16912415380E+04  0.28948555215E+03  0.19288714383E+04  0.46999998093E+01 0. -1.
       -5    1    3    3    0  502  0.88114874506E+03  0.16912415380E+04 -0.45782585815E+03  0.19612107630E+04  0.46999998093E+01 0.  1.
</event>
<event>
 5   0  0.2473224E-07  0.3859815E+04  0.7818609E-02  0.8033439E-01
        2   -1    0    0  501    0  0.00000000000E+00  0.00000000000E+00  0.25252356963E+04  0.25252356963E+04  0.25500000920E-02 0.  1.
       -2   -1    0    0    0  501  0.00000000000E+00  0.00000000000E+00 -0.14749289608E+04  0.14749289608E+04  0.25500000920E-02 0. -1.
    10030    2    1    2    0    0  0.00000000000E+00  0.00000000000E+00  0.10503067355E+04  0.40001646572E+04  0.38598151569E+04 0.  0.
        2    1    3    3  502    0  0.10218875484E+04 -0.15495120675E+04 -0.22553212074E+02  0.18562732709E+04  0.25500000920E-02 0. -1.
       -2    1    3    3    0  502 -0.10218875484E+04  0.15495120675E+04  0.10728599475E+04  0.21438913862E+04  0.25500000920E-02 0.  1.
</event>
<event>
 5   0  0.7675750E-08  0.3907182E+04  0.7818609E-02  0.8023537E-01
        3   -1    0    0  501    0  0.00000000000E+00  0.00000000000E+00  0.17858821027E+04  0.17858821056E+04  0.10100000352E+00 0.  1.
       -3   -1    0    0    0  501  0.00000000000E+00  0.00000000000E+00 -0.21370486806E+04  0.21370486830E+04  0.10100000352E+00 0. -1.
    10030    2    1    2    0    0  0.00000000000E+00  0.00000000000E+00 -0.35116657792E+03  0.39229307886E+04  0.39071815938E+04 0.  0.
        2    1    3    3  502    0 -0.12041657164E+04  0.98426585941E+03  0.10114353835E+04  0.18552077753E+04  0.25500000920E-02 0.  1.
       -2    1    3    3    0  502  0.12041657164E+04 -0.98426585941E+03 -0.13626019614E+04  0.20677230133E+04  0.25500000920E-02 0. -1.
</event>
<event>
 5   0  0.2446281E-07  0.3772982E+04  0.7818609E-02  0.8051978E-01
       -2   -1    0    0    0  501  0.00000000000E+00  0.00000000000E+00  0.26094738201E+04  0.26094738201E+04  0.25500000920E-02 0. -1.
        2   -1    0    0  501    0  0.00000000000E+00  0.00000000000E+00 -0.13638185124E+04  0.13638185124E+04  0.25500000920E-02 0.  1.
    10030    2    1    2    0    0  0.00000000000E+00  0.00000000000E+00  0.12456553077E+04  0.39732923325E+04  0.37729822176E+04 0.  0.
        1    1    3    3  502    0 -0.14562981977E+04  0.11986984979E+04  0.65878995055E+03  0.19979206012E+04  0.50400001928E-02 0. -1.
       -1    1    3    3    0  502  0.14562981977E+04 -0.11986984979E+04  0.58686535713E+03  0.19753717313E+04  0.50400001928E-02 0.  1.
</event>
<event>
 5   0  0.2384787E-07  0.3462656E+04  0.7818609E-02  0.8122698E-01
       -2   -1    0    0    0  501  0.00000000000E+00  0.00000000000E+00  0.10246115406E+04  0.10246115406E+04  0.25500000920E-02 0. -1.
        2   -1    0    0  501    0  0.00000000000E+00  0.00000000000E+00 -0.29254950580E+04  0.29254950580E+04  0.25500000920E-02 0.  1.
    10030    2    1    2    0    0  0.00000000000E+00  0.00000000000E+00 -0.19008835174E+04  0.39501065987E+04  0.34626556274E+04 0.  0.
        4    1    3    3  502    0 -0.14388028354E+04 -0.24792729518E+02  0.14774249681E+03  0.14465813966E+04  0.12699999809E+01 0. -1.
       -4    1    3    3    0  502  0.14388028354E+04  0.24792729518E+02 -0.20486260142E+04  0.25035252021E+04  0.12699999809E+01 0.  1.
</event>
<event>
 5   0  0.2446281E-07  0.3438881E+04  0.7818609E-02  0.8128429E-01
       -2   -1    0    0    0  501  0.00000000000E+00  0.00000000000E+00  0.16495166350E+04  0.16495166350E+04  0.25500000920E-02 0. -1.
        2   -1    0    0  501    0  0.00000000000E+00  0.00000000000E+00 -0.17923288017E+04  0.17923288017E+04  0.25500000920E-02 0.  1.
    10030    2    1    2    0    0  0.00000000000E+00  0.00000000000E+00 -0.14281216674E+03  0.34418454367E+04  0.34388813145E+04 0.  0.
        1    1    3    3  502    0 -0.66783061641E+03 -0.15075776547E+04  0.41654676327E+03  0.17006761371E+04  0.50400001928E-02 0. -1.
       -1    1    3    3    0  502  0.66783061641E+03  0.15075776547E+04 -0.55935893001E+03  0.17411692996E+04  0.50400001928E-02 0.  1.
</event>
<event>
 5   0  0.2473224E-07  0.3910859E+04  0.7818609E-02  0.8022775E-01
        2   -1    0    0  501    0  0.00000000000E+00  0.00000000000E+00  0.30814563447E+04  0.30814563447E+04  0.25500000920E-02 0. -1.
       -2   -1    0    0    0  501  0.00000000000E+00  0.00000000000E+00 -0.12408757487E+04  0.12408757487E+04  0.25500000920E-02 0.  1.
    10030    2    1    2    0    0  0.00000000000E+00  0.00000000000E+00  0.18405805960E+04  0.43223320935E+04  0.39108589588E+04 0.  0.
        2    1    3    3  502    0 -0.68703587293E+03 -0.22097158900E+03  0.29288785129E+04  0.30164840588E+04  0.25500000920E-02 0. -1.
       -2    1    3    3    0  502  0.68703587293E+03  0.22097158900E+03 -0.10882979169E+04  0.13058480347E+04  0.25500000920E-02 0.  1.
</event>
<event>
 5   0  0.7675750E-08  0.3886831E+04  0.7818609E-02  0.8027774E-01
       -1   -1    0    0    0  501  0.00000000000E+00  0.00000000000E+00  0.18279448188E+04  0.18279448188E+04  0.50400001928E-02 0. -1.
        1   -1    0    0  501    0  0.00000000000E+00  0.00000000000E+00 -0.20661800491E+04  0.20661800491E+04  0.50400001928E-02 0.  1.
    10030    2    1    2    0    0  0.00000000000E+00  0.00000000000E+00 -0.23823523031E+03  0.38941248679E+04  0.38868306448E+04 0.  0.
        2    1    3    3  502    0 -0.18723482735E+04 -0.15221957818E+02 -0.64061664334E+03  0.19789667630E+04  0.25500000920E-02 0.  1.
       -2    1    3    3    0  502  0.18723482735E+04  0.15221957818E+02  0.40238141304E+03  0.19151581049E+04  0.25500000920E-02 0. -1.
</event>
<event>
 5   0  0.7675750E-08  0.3919084E+04  0.7818609E-02  0.8021072E-01
        1   -1    0    0  501    0  0.00000000000E+00  0.00000000000E+00  0.23212412641E+04  0.23212412641E+04  0.50400001928E-02 0.  1.
       -1   -1    0    0    0  501  0.00000000000E+00  0.00000000000E+00 -0.16542032338E+04  0.16542032338E+04  0.50400001928E-02 0. -1.
    10030    2    1    2    0    0  0.00000000000E+00  0.00000000000E+00  0.66703803033E+03  0.39754444979E+04  0.39190839775E+04 0.  0.
        2    1    3    3  502    0  0.73730458388E+03  0.17192446536E+03  0.21668927866E+04  0.22953432031E+04  0.25500000920E-02 0.  1.
       -2    1    3    3    0  502 -0.73730458388E+03 -0.17192446536E+03 -0.14998547563E+04  0.16801012949E+04  0.25500000920E-02 0. -1.
</event>
<event>
 5   0  0.2446281E-07  0.3594666E+04  0.7818609E-02  0.8091715E-01
       -2   -1    0    0    0  501  0.00000000000E+00  0.00000000000E+00  0.14780920057E+04  0.14780920057E+04  0.25500000920E-02 0.  1.
        2   -1    0    0  501    0  0.00000000000E+00  0.00000000000E+00 -0.21855242663E+04  0.21855242663E+04  0.25500000920E-02 0. -1.
    10030    2    1    2    0    0  0.00000000000E+00  0.00000000000E+00 -0.70743226055E+03  0.36636162720E+04  0.35946660186E+04 0.  0.
        1    1    3    3  502    0  0.19290352556E+03 -0.27210213584E+03  0.14462730056E+04  0.14842361501E+04  0.50400001928E-02 0.  1.
       -1    1    3    3    0  502 -0.19290352556E+03  0.27210213584E+03 -0.21537052661E+04  0.21793801219E+04  0.50400001928E-02 0. -1.
</event>
<event>
 5   0  0.7731706E-08  0.3936220E+04  0.7818609E-02  0.8017538E-01
       -1   -1    0    0    0  501  0.00000000000E+00  0.00000000000E+00  0.18592579432E+04  0.18592579432E+04  0.50400001928E-02 0.  1.
        1   -1    0    0  501    0  0.00000000000E+00  0.00000000000E+00 -0.20833346147E+04  0.20833346147E+04  0.50400001928E-02 0. -1.
    10030    2    1    2    0    0  0.00000000000E+00  0.00000000000E+00 -0.22407667150E+03  0.39425925579E+04  0.39362197250E+04 0.  0.
        3    1    3    3  502    0  0.67897254920E+03  0.29374720906E+03  0.17146921519E+04  0.18674743188E+04  0.10100000352E+00 0.  1.
       -3    1    3    3    0  502 -0.67897254920E+03 -0.29374720906E+03 -0.19387688234E+04  0.20751182391E+04  0.10100000352E+00 0. -1.
</event>
<event>
 5   0  0.7675750E-08  0.3934227E+04  0.7818609E-02  0.8017948E-01
       -1   -1    0    0    0  501  0.00000000000E+00  0.00000000000E+00  0.28294399436E+04  0.28294399436E+04  0.50400001928E-02 0. -1.
        1   -1    0    0  501    0  0.00000000000E+00  0.00000000000E+00 -0.13675978580E+04  0.13675978580E+04  0.50400001928E-02 0.  1.
    10030    2    1    2    0    0  0.00000000000E+00  0.00000000000E+00  0.14618420857E+04  0.41970378016E+04  0.39342272462E+04 0.  0.
        5    1    3    3  502    0 -0.41891344626E+03 -0.10657358006E+04  0.24372134463E+04  0.26928261631E+04  0.46999998093E+01 0. -1.
       -5    1    3    3    0  502  0.41891344626E+03  0.10657358006E+04 -0.97537136060E+03  0.15042116385E+04  0.46999998093E+01 0.  1.
</event>
<event>
 5   0  0.2446281E-07  0.3962855E+04  0.7818609E-02  0.8012082E-01
        2   -1    0    0  501    0  0.00000000000E+00  0.00000000000E+00  0.25527727233E+04  0.25527727233E+04  0.25500000920E-02 0. -1.
       -2   -1    0    0    0  501  0.00000000000E+00  0.00000000000E+00 -0.15379567667E+04  0.15379567667E+04  0.25500000920E-02 0.  1.
    10030    2    1    2    0    0  0.00000000000E+00  0.00000000000E+00  0.10148159565E+04  0.40907294900E+04  0.39628545689E+04 0.  0.
        1    1    3    3  502    0  0.70444688595E+02  0.19398618233E+04  0.97053397540E+02  0.19435652060E+04  0.50400001928E-02 0. -1.
       -1    1    3    3    0  502 -0.70444688595E+02 -0.19398618233E+04  0.91776255900E+03  0.21471642840E+04  0.50400001928E-02 0.  1.
</event>
<event>
 5   0  0.7675750E-08  0.3861565E+04  0.7818609E-02  0.8033071E-01
        1   -1    0    0  501    0  0.00000000000E+00  0.00000000000E+00  0.21576861405E+04  0.21576861405E+04  0.50400001928E-02 0.  1.
       -1   -1    0    0    0  501  0.00000000000E+00  0.00000000000E+00 -0.17277398944E+04  0.17277398944E+04  0.50400001928E-02 0. -1.
    10030    2    1    2    0    0  0.00000000000E+00  0.00000000000E+00  0.42994624603E+03  0.38854260349E+04  0.38615646697E+04 0.  0.
        4    1    3    3  502    0 -0.16151576960E+04 -0.10458478101E+04  0.37528998390E+03  0.19604530624E+04  0.12699999809E+01 0.  1.
       -4    1    3    3    0  502  0.16151576960E+04  0.10458478101E+04  0.54656262127E+02  0.19249729725E+04  0.12699999809E+01 0. -1.
</event>
<event>
 5   0  0.2473224E-07  0.3923345E+04  0.7818609E-02  0.8020191E-01
       -2   -1    0    0    0  501  0.00000000000E+00  0.00000000000E+00  0.15107534357E+04  0.15107534357E+04  0.25500000920E-02 0. -1.
        2   -1    0    0  501    0  0.00000000000E+00  0.00000000000E+00 -0.25471786227E+04  0.25471786227E+04  0.25500000920E-02 0.  1.
    10030    2    1    2    0    0  0.00000000000E+00  0.00000000000E+00 -0.10364251869E+04  0.40579320584E+04  0.39233449278E+04 0.  0.
        2    1    3    3  502    0  0.11572436696E+04 -0.69688216627E+02  0.11185029363E+04  0.16109370493E+04  0.25500000920E-02 0. -1.
       -2    1    3    3    0  502 -0.11572436696E+04  0.69688216627E+02 -0.21549281232E+04  0.24469950091E+04  0.25500000920E-02 0.  1.
</event>
<event>
 5   0  0.7675750E-08  0.3915683E+04  0.7818609E-02  0.8021775E-01
        1   -1    0    0  501    0  0.00000000000E+00  0.00000000000E+00  0.23956908094E+04  0.23956908094E+04  0.50400001928E-02 0.  1.
       -1   -1    0    0    0  501  0.00000000000E+00  0.00000000000E+00 -0.16000157303E+04  0.16000157303E+04  0.50400001928E-02 0. -1.
    10030    2    1    2    0    0  0.00000000000E+00  0.00000000000E+00  0.79567507908E+03  0.39957065397E+04  0.39156828166E+04 0.  0.
        1    1    3    3  502    0 -0.21714335040E+03  0.79532867813E+03 -0.14142477860E+04  0.16370081677E+04  0.50400001928E-02 0. -1.
       -1    1    3    3    0  502  0.21714335040E+03 -0.79532867813E+03  0.22099228650E+04  0.23586983721E+04  0.50400001928E-02 0.  1.
</event>
<event>
 5   0  0.7675750E-08  0.3914849E+04  0.7818609E-02  0.8021948E-01
       -1   -1    0    0    0  501  0.00000000000E+00  0.00000000000E+00  0.17098308687E+04  0.17098308687E+04  0.50400001928E-02 0. -1.
        1   -1    0    0  501    0  0.00000000000E+00  0.00000000000E+00 -0.22408715955E+04  0.22408715955E+04  0.50400001928E-02 0.  1.
    10030    2    1    2    0    0  0.00000000000E+00  0.00000000000E+00 -0.53104072686E+03  0.39507024642E+04  0.39148493850E+04 0.  0.
        1    1    3    3  502    0 -0.19042671985E+04 -0.40430758498E+03 -0.59164802494E+02  0.19476135809E+04  0.50400001928E-02 0.  1.
       -1    1    3    3    0  502  0.19042671985E+04  0.40430758498E+03 -0.47187592437E+03  0.20030888833E+04  0.50400001928E-02 0. -1.
</event>
<event>
 5   0  0.2486268E-07  0.3906164E+04  0.7818609E-02  0.8023748E-01
       -2   -1    0    0    0  501  0.00000000000E+00  0.00000000000E+00  0.19183631026E+04  0.19183631026E+04  0.25500000920E-02 0. -1.
        2   -1    0    0  501    0  0.00000000000E+00  0.00000000000E+00 -0.19884295865E+04  0.19884295865E+04  0.25500000920E-02 0.  1.
    10030    2    1    2    0    0  0.00000000000E+00  0.00000000000E+00 -0.70066483856E+02  0.39067926891E+04  0.39061643339E+04 0.  0.
        5    1    3    3  502    0 -0.25658288286E+03 -0.11749225778E+03 -0.19679249490E+04  0.19880618455E+04  0.46999998093E+01 0.  1.
       -5    1    3    3    0  502  0.25658288286E+03  0.11749225778E+03  0.18978584652E+04  0.19187308436E+04  0.46999998093E+01 0. -1.
</event>
<event>
 5   0  0.7731706E-08  0.3895090E+04  0.7818609E-02  0.8026051E-01
        1   -1    0    0  501    0  0.00000000000E+00  0.00000000000E+00  0.24355987372E+04  0.24355987372E+04  0.50400001928E-02 0.  1.
       -1   -1    0    0    0  501  0.00000000000E+00  0.00000000000E+00 -0.15572888235E+04  0.15572888235E+04  0.50400001928E-02 0. -1.
    10030    2    1    2    0    0  0.00000000000E+00  0.00000000000E+00  0.87830991370E+03  0.39928875607E+04  0.38950895712E+04 0.  0.
        3    1    3    3  502    0 -0.79984182563E+02 -0.96181069841E+03 -0.12949004492E+04  0.16150060286E+04  0.10100000352E+00 0. -1.
       -3    1    3    3    0  502  0.79984182563E+02  0.96181069841E+03  0.21732103629E+04  0.23778815321E+04  0.10100000352E+00 0.  1.
</event>
<event>
 5   0  0.7675750E-08  0.3910267E+04  0.7818609E-02  0.8022897E-01
       -1   -1    0    0    0  501  0.00000000000E+00  0.00000000000E+00  0.22512954910E+04  0.22512954910E+04  0.50400001928E-02 0. -1.
        1   -1    0    0  501    0  0.00000000000E+00  0.00000000000E+00 -0.16979322134E+04  0.16979322135E+04  0.50400001928E-02 0.  1.
    10030    2    1    2    0    0  0.00000000000E+00  0.00000000000E+00  0.55336327756E+03  0.39492277045E+04  0.39102670682E+04 0.  0.
        5    1    3    3  502    0 -0.18607597411E+03 -0.18619551327E+04  0.84891663200E+03  0.20547950560E+04  0.46999998093E+01 0. -1.
       -5    1    3    3    0  502  0.18607597411E+03  0.18619551327E+04 -0.29555335444E+03  0.18944326484E+04  0.46999998093E+01 0.  1.
</event>
<event>
 5   0  0.2473224E-07  0.3927543E+04  0.7818609E-02  0.8019325E-01
       -2   -1    0    0    0  501  0.00000000000E+00  0.00000000000E+00  0.20599772559E+04  0.20599772559E+04  0.25500000920E-02 0. -1.
        2   -1    0    0  501    0  0.00000000000E+00  0.00000000000E+00 -0.18720588640E+04  0.18720588640E+04  0.25500000920E-02 0.  1.
    10030    2    1    2    0    0  0.00000000000E+00  0.00000000000E+00  0.18791839192E+03  0.39320361199E+04  0.39275430903E+04 0.  0.
        2    1    3    3  502    0  0.13672265373E+04  0.73883917778E+03 -0.11079169439E+04  0.19085784473E+04  0.25500000920E-02 0.  1.
       -2    1    3    3    0  502 -0.13672265373E+04 -0.73883917778E+03  0.12958353359E+04  0.20234576726E+04  0.25500000920E-02 0. -1.
</event>
<event>
 5   0  0.2384787E-07  0.3708318E+04  0.7818609E-02  0.8066121E-01
        2   -1    0    0  501    0  0.00000000000E+00  0.00000000000E+00  0.28852071965E+04  0.28852071965E+04  0.25500000920E-02 0. -1.
       -2   -1    0    0    0  501  0.00000000000E+00  0.00000000000E+00 -0.11915628702E+04  0.11915628702E+04  0.25500000920E-02 0.  1.
    10030    2    1    2    0    0  0.00000000000E+00  0.00000000000E+00  0.16936443263E+04  0.40767700667E+04  0.37083180922E+04 0.  0.
        4    1    3    3  502    0 -0.62189586646E+03  0.67812456250E+03  0.26165146778E+04  0.27735821717E+04  0.12699999809E+01 0. -1.
       -4    1    3    3    0  502  0.62189586646E+03 -0.67812456250E+03 -0.92287035156E+03  0.13031878950E+04  0.12699999809E+01 0.  1.
</event>
<event>
 5   0  0.7731706E-08  0.3863828E+04  0.7818609E-02  0.8032595E-01
        1   -1    0    0  501    0  0.00000000000E+00  0.00000000000E+00  0.16479313881E+04  0.16479313881E+04  0.50400001928E-02 0.  1.
       -1   -1    0    0    0  501  0.00000000000E+00  0.00000000000E+00 -0.22648339795E+04  0.22648339795E+04  0.50400001928E-02 0. -1.
    10030    2    1    2    0    0  0.00000000000E+00  0.00000000000E+00 -0.61690259139E+03  0.39127653675E+04  0.38638276377E+04 0.  0.
        3    1    3    3  502    0  0.16925212843E+03 -0.15071077220E+04 -0.15203844438E+04  0.21474610208E+04  0.10100000352E+00 0. -1.
       -3    1    3    3    0  502 -0.16925212843E+03  0.15071077220E+04  0.90348185241E+03  0.17653043467E+04  0.10100000352E+00 0.  1.
</event>
<event>
 5   0  0.2473224E-07  0.3545192E+04  0.7818609E-02  0.8103163E-01
       -2   -1    0    0    0  501  0.00000000000E+00  0.00000000000E+00  0.25012476465E+04  0.25012476465E+04  0.25500000920E-02 0. -1.
        2   -1    0    0  501    0  0.00000000000E+00  0.00000000000E+00 -0.12562114428E+04  0.12562114428E+04  0.25500000920E-02 0.  1.
    10030    2    1    2    0    0  0.00000000000E+00  0.00000000000E+00  0.12450362037E+04  0.37574590892E+04  0.35451916251E+04 0.  0.
        2    1    3    3  502    0  0.11658593532E+04 -0.43513381405E+03 -0.71541433799E+03  0.14354048706E+04  0.25500000920E-02 0.  1.
       -2    1    3    3    0  502 -0.11658593532E+04  0.43513381405E+03  0.19604505417E+04  0.23220542186E+04  0.25500000920E-02 0. -1.
</event>
<event>
 5   0  0.2384787E-07  0.3899287E+04  0.7818609E-02  0.8025177E-01
        2   -1    0    0  501    0  0.00000000000E+00  0.00000000000E+00  0.18454233154E+04  0.18454233154E+04  0.25500000920E-02 0. -1.
       -2   -1    0    0    0  501  0.00000000000E+00  0.00000000000E+00 -0.20597497950E+04  0.20597497950E+04  0.25500000920E-02 0.  1.
    10030    2    1    2    0    0  0.00000000000E+00  0.00000000000E+00 -0.21432647958E+03  0.39051731104E+04  0.38992872660E+04 0.  0.
        4    1    3    3  502    0  0.13406410711E+04  0.88361710822E+03  0.10004043576E+04  0.18918002450E+04  0.12699999809E+01 0. -1.
       -4    1    3    3    0  502 -0.13406410711E+04 -0.88361710822E+03 -0.12147308372E+04  0.20133728654E+04  0.12699999809E+01 0.  1.
</event>
<event>
 5   0  0.2395572E-07  0.3979894E+04  0.7818609E-02  0.8008615E-01
       -2   -1    0    0    0  501  0.00000000000E+00  0.00000000000E+00  0.16032942697E+04  0.16032942697E+04  0.25500000920E-02 0. -1.
        2   -1    0    0  501    0  0.00000000000E+00  0.00000000000E+00 -0.24698456242E+04  0.24698456242E+04  0.25500000920E-02 0.  1.
    10030    2    1    2    0    0  0.00000000000E+00  0.00000000000E+00 -0.86655135453E+03  0.40731398939E+04  0.39798941375E+04 0.  0.
        3    1    3    3  502    0 -0.10431015762E+04  0.72527956606E+03  0.11342082993E+04  0.17030912552E+04  0.10100000352E+00 0. -1.
       -3    1    3    3    0  502  0.10431015762E+04 -0.72527956606E+03 -0.20007596539E+04  0.23700486387E+04  0.10100000352E+00 0.  1.
</event>
<event>
 5   0  0.7675750E-08  0.3942075E+04  0.7818609E-02  0.8016335E-01
        1   -1    0    0  501    0  0.00000000000E+00  0.00000000000E+00  0.13559784076E+04  0.13559784076E+04  0.50400001928E-02 0.  1.
       -1   -1    0    0    0  501  0.00000000000E+00  0.00000000000E+00 -0.28650821623E+04  0.28650821623E+04  0.50400001928E-02 0. -1.
    10030    2    1    2    0    0  0.00000000000E+00  0.00000000000E+00 -0.15091037546E+04  0.42210605699E+04  0.39420753662E+04 0.  0.
        5    1    3    3  502    0  0.15582755942E+04  0.58499600733E+03  0.37587228655E+03  0.17063836678E+04  0.46999998093E+01 0.  1.
       -5    1    3    3    0  502 -0.15582755942E+04 -0.58499600733E+03 -0.18849760412E+04  0.25146769021E+04  0.46999998093E+01 0. -1.
</event>
<event>
 5   0  0.2473224E-07  0.3917886E+04  0.7818609E-02  0.8021320E-01
        2   -1    0    0  501    0  0.00000000000E+00  0.00000000000E+00  0.19507076038E+04  0.19507076038E+04  0.25500000920E-02 0.  1.
       -2   -1    0    0    0  501  0.00000000000E+00  0.00000000000E+00 -0.19672130647E+04  0.19672130647E+04  0.25500000920E-02 0. -1.
    10030    2    1    2    0    0  0.00000000000E+00  0.00000000000E+00 -0.16505460820E+02  0.39179206685E+04  0.39178859011E+04 0.  0.
        2    1    3    3  502    0  0.16036593391E+04 -0.99332967687E+03  0.51998520189E+03  0.19567349675E+04  0.25500000920E-02 0.  1.
       -2    1    3    3    0  502 -0.16036593391E+04  0.99332967687E+03 -0.53649066271E+03  0.19611857010E+04  0.25500000920E-02 0. -1.
</event>
<event>
 5   0  0.7675750E-08  0.3880606E+04  0.7818609E-02  0.8029075E-01
        1   -1    0    0  501    0  0.00000000000E+00  0.00000000000E+00  0.16437047490E+04  0.16437047491E+04  0.50400001928E-02 0. -1.
       -1   -1    0    0    0  501  0.00000000000E+00  0.00000000000E+00 -0.22904211267E+04  0.22904211267E+04  0.50400001928E-02 0.  1.
    10030    2    1    2    0    0  0.00000000000E+00  0.00000000000E+00 -0.64671637763E+03  0.39341258757E+04  0.38806061811E+04 0.  0.
        4    1    3    3  502    0 -0.82731159297E+03 -0.88308629388E+03  0.12142961665E+04  0.17142936351E+04  0.12699999809E+01 0. -1.
       -4    1    3    3    0  502  0.82731159297E+03  0.88308629388E+03 -0.18610125441E+04  0.22198322407E+04  0.12699999809E+01 0.  1.
</event>
<event>
 5   0  0.2473224E-07  0.3904042E+04  0.7818609E-02  0.8024189E-01
        2   -1    0    0  501    0  0.00000000000E+00  0.00000000000E+00  0.22646761303E+04  0.22646761303E+04  0.25500000920E-02 0.  1.
       -2   -1    0    0    0  501  0.00000000000E+00  0.00000000000E+00 -0.16825304895E+04  0.16825304895E+04  0.25500000920E-02 0. -1.
    10030    2    1    2    0    0  0.00000000000E+00  0.00000000000E+00  0.58214564081E+03  0.39472066198E+04  0.39040423349E+04 0.  0.
        2    1    3    3  502    0 -0.42891539695E+03  0.18764609848E+04 -0.37033867089E+02  0.19252131707E+04  0.25500000920E-02 0. -1.
       -2    1    3    3    0  502  0.42891539695E+03 -0.18764609848E+04  0.61917950790E+03  0.20219934491E+04  0.25500000920E-02 0.  1.
</event>
<event>
 5   0  0.7675750E-08  0.3841684E+04  0.7818609E-02  0.8037268E-01
       -1   -1    0    0    0  501  0.00000000000E+00  0.00000000000E+00  0.28806392865E+04  0.28806392865E+04  0.50400001928E-02 0. -1.
        1   -1    0    0  501    0  0.00000000000E+00  0.00000000000E+00 -0.12808385038E+04  0.12808385038E+04  0.50400001928E-02 0.  1.
    10030    2    1    2    0    0  0.00000000000E+00  0.00000000000E+00  0.15998007827E+04  0.41614777903E+04  0.38416838567E+04 0.  0.
        5    1    3    3  502    0  0.32792838255E+03  0.52786049304E+03 -0.11689332976E+04  0.13238583264E+04  0.46999998093E+01 0.  1.
       -5    1    3    3    0  502 -0.32792838255E+03 -0.52786049304E+03  0.27687340803E+04  0.28376194639E+04  0.46999998093E+01 0. -1.
</event>
<event>
 5   0  0.7675750E-08  0.3180158E+04  0.7818609E-02  0.8194077E-01
        1   -1    0    0  501    0  0.00000000000E+00  0.00000000000E+00  0.15950339281E+04  0.15950339281E+04  0.50400001928E-02 0. -1.
       -1   -1    0    0    0  501  0.00000000000E+00  0.00000000000E+00 -0.15851395600E+04  0.15851395600E+04  0.50400001928E-02 0.  1.
    10030    2    1    2    0    0  0.00000000000E+00  0.00000000000E+00  0.98943680713E+01  0.31801734882E+04  0.31801580961E+04 0.  0.
        5    1    3    3  502    0 -0.74180552939E+03 -0.70590081560E+03 -0.12115116966E+04  0.15863020160E+04  0.46999998093E+01 0.  1.
       -5    1    3    3    0  502  0.74180552939E+03  0.70590081560E+03  0.12214060647E+04  0.15938714722E+04  0.46999998093E+01 0. -1.
</event>
<event>
 5   0  0.7731706E-08  0.3949473E+04  0.7818609E-02  0.8014818E-01
       -1   -1    0    0    0  501  0.00000000000E+00  0.00000000000E+00  0.11193561016E+04  0.11193561016E+04  0.50400001928E-02 0.  1.
        1   -1    0    0  501    0  0.00000000000E+00  0.00000000000E+00 -0.34837740283E+04  0.34837740283E+04  0.50400001928E-02 0. -1.
    10030    2    1    2    0    0  0.00000000000E+00  0.00000000000E+00 -0.23644179267E+04  0.46031301299E+04  0.39494727319E+04 0.  0.
        3    1    3    3  502    0  0.67140274584E+03  0.63034800013E+03 -0.32181641732E+04  0.33473423644E+04  0.10100000352E+00 0. -1.
       -3    1    3    3    0  502 -0.67140274584E+03 -0.63034800013E+03  0.85374624648E+03  0.12557877655E+04  0.10100000352E+00 0.  1.
</event>
<event>
 5   0  0.7675750E-08  0.3894848E+04  0.7818609E-02  0.8026102E-01
        1   -1    0    0  501    0  0.00000000000E+00  0.00000000000E+00  0.24604410147E+04  0.24604410147E+04  0.50400001928E-02 0.  1.
       -1   -1    0    0    0  501  0.00000000000E+00  0.00000000000E+00 -0.15413740875E+04  0.15413740875E+04  0.50400001928E-02 0. -1.
    10030    2    1    2    0    0  0.00000000000E+00  0.00000000000E+00  0.91906692723E+03  0.40018151022E+04  0.38948478912E+04 0.  0.
        2    1    3    3  502    0 -0.10567648474E+04  0.56110251875E+02  0.21392276796E+04  0.23866703518E+04  0.25500000920E-02 0.  1.
       -2    1    3    3    0  502  0.10567648474E+04 -0.56110251875E+02 -0.12201607524E+04  0.16151447504E+04  0.25500000920E-02 0. -1.
</event>
<event>
 5   0  0.2486268E-07  0.3916157E+04  0.7818609E-02  0.8021677E-01
       -2   -1    0    0    0  501  0.00000000000E+00  0.00000000000E+00  0.16923079192E+04  0.16923079192E+04  0.25500000920E-02 0.  1.
        2   -1    0    0  501    0  0.00000000000E+00  0.00000000000E+00 -0.22655876992E+04  0.22655876992E+04  0.25500000920E-02 0. -1.
    10030    2    1    2    0    0  0.00000000000E+00  0.00000000000E+00 -0.57327978004E+03  0.39578956184E+04  0.39161573028E+04 0.  0.
        5    1    3    3  502    0  0.13902583940E+04 -0.31208328805E+03 -0.16440237388E+04  0.21755575204E+04  0.46999998093E+01 0. -1.
       -5    1    3    3    0  502 -0.13902583940E+04  0.31208328805E+03  0.10707439587E+04  0.17823380981E+04  0.46999998093E+01 0.  1.
</event>
<event>
 5   0  0.7675750E-08  0.3972865E+04  0.7818609E-02  0.8010043E-01
       -1   -1    0    0    0  501  0.00000000000E+00  0.00000000000E+00  0.20697523266E+04  0.20697523267E+04  0.50400001928E-02 0.  1.
        1   -1    0    0  501    0  0.00000000000E+00  0.00000000000E+00 -0.19064664555E+04  0.19064664555E+04  0.50400001928E-02 0. -1.
    10030    2    1    2    0    0  0.00000000000E+00  0.00000000000E+00  0.16328587111E+03  0.39762187822E+04  0.39728646501E+04 0.  0.
        4    1    3    3  502    0 -0.13697228904E+04  0.78686832933E+03 -0.11237862919E+04  0.19386076981E+04  0.12699999809E+01 0. -1.
       -4    1    3    3    0  502  0.13697228904E+04 -0.78686832933E+03  0.12870721631E+04  0.20376110841E+04  0.12699999809E+01 0.  1.
</event>
<event>
 5   0  0.7675750E-08  0.3577062E+04  0.7818609E-02  0.8095766E-01
       -1   -1    0    0    0  501  0.00000000000E+00  0.00000000000E+00  0.13187821952E+04  0.13187821952E+04  0.50400001928E-02 0. -1.
        1   -1    0    0  501    0  0.00000000000E+00  0.00000000000E+00 -0.24256043035E+04  0.24256043035E+04  0.50400001928E-02 0.  1.
    10030    2    1    2    0    0  0.00000000000E+00  0.00000000000E+00 -0.11068221083E+04  0.37443864987E+04  0.35770623523E+04 0.  0.
        5    1    3    3  502    0 -0.12232664762E+04  0.24141503467E+03 -0.18956385920E+04  0.22689490634E+04  0.46999998093E+01 0.  1.
       -5    1    3    3    0  502  0.12232664762E+04 -0.24141503467E+03  0.78881648361E+03  0.14754374354E+04  0.46999998093E+01 0. -1.
</event>
<event>
 5   0  0.2473224E-07  0.3914192E+04  0.7818609E-02  0.8022084E-01
       -2   -1    0    0    0  501  0.00000000000E+00  0.00000000000E+00  0.20642135909E+04  0.20642135909E+04  0.25500000920E-02 0.  1.
        2   -1    0    0  501    0  0.00000000000E+00  0.00000000000E+00 -0.18555368013E+04  0.18555368013E+04  0.25500000920E-02 0. -1.
    10030    2    1    2    0    0  0.00000000000E+00  0.00000000000E+00  0.20867678963E+03  0.39197503922E+04  0.39141917601E+04 0.  0.
        2    1    3    3  502    0  0.17167196000E+04  0.49171833297E+03 -0.69761793449E+03  0.19171812346E+04  0.25500000920E-02 0. -1.
       -2    1    3    3    0  502 -0.17167196000E+04 -0.49171833297E+03  0.90629472413E+03  0.20025691576E+04  0.25500000920E-02 0.  1.
</event>
<event>
 5   0  0.7675750E-08  0.3835593E+04  0.7818609E-02  0.8038560E-01
       -1   -1    0    0    0  501  0.00000000000E+00  0.00000000000E+00  0.17146850959E+04  0.17146850959E+04  0.50400001928E-02 0. -1.
        1   -1    0    0  501    0  0.00000000000E+00  0.00000000000E+00 -0.21449671068E+04  0.21449671068E+04  0.50400001928E-02 0.  1.
    10030    2    1    2    0    0  0.00000000000E+00  0.00000000000E+00 -0.43028201086E+03  0.38596522027E+04  0.38355928508E+04 0.  0.
        2    1    3    3  502    0 -0.82022484261E+03 -0.29961708524E+03 -0.19333066835E+04  0.21213707650E+04  0.25500000920E-02 0.  1.
       -2    1    3    3    0  502  0.82022484261E+03  0.29961708524E+03  0.15030246726E+04  0.17382814377E+04  0.25500000920E-02 0. -1.
</event>
<event>
 5   0  0.2486268E-07  0.3933897E+04  0.7818609E-02  0.8018016E-01
        2   -1    0    0  501    0  0.00000000000E+00  0.00000000000E+00  0.18956729201E+04  0.18956729201E+04  0.25500000920E-02 0. -1.
       -2   -1    0    0    0  501  0.00000000000E+00  0.00000000000E+00 -0.20409040951E+04  0.20409040951E+04  0.25500000920E-02 0.  1.
    10030    2    1    2    0    0  0.00000000000E+00  0.00000000000E+00 -0.14523117501E+03  0.39365770153E+04  0.39338971139E+04 0.  0.
        5    1    3    3  502    0  0.90408442305E+03  0.10073590921E+04 -0.15007260398E+04  0.20209754380E+04  0.46999998093E+01 0.  1.
       -5    1    3    3    0  502 -0.90408442305E+03 -0.10073590921E+04  0.13554948648E+04  0.19156015773E+04  0.46999998093E+01 0. -1.
</event>
<event>
 5   0  0.7675750E-08  0.3858450E+04  0.7818609E-02  0.8033727E-01
        1   -1    0    0  501    0  0.00000000000E+00  0.00000000000E+00  0.11593034772E+04  0.11593034772E+04  0.50400001928E-02 0.  1.
       -1   -1    0    0    0  501  0.00000000000E+00  0.00000000000E+00 -0.32104701135E+04  0.32104701135E+04  0.50400001928E-02 0. -1.
    10030    2    1    2    0    0  0.00000000000E+00  0.00000000000E+00 -0.20511666363E+04  0.43697735907E+04  0.38584500339E+04 0.  0.
        1    1    3    3  502    0  0.15744668691E+04 -0.10717036858E+04 -0.67759449257E+03  0.20215412458E+04  0.50400001928E-02 0.  1.
       -1    1    3    3    0  502 -0.15744668691E+04  0.10717036858E+04 -0.13735721437E+04  0.23482323450E+04  0.50400001928E-02 0. -1.
</event>
<event>
 5   0  0.2395572E-07  0.3937031E+04  0.7818609E-02  0.8017371E-01
        2   -1    0    0  501    0  0.00000000000E+00  0.00000000000E+00  0.19969375523E+04  0.19969375523E+04  0.25500000920E-02 0. -1.
       -2   -1    0    0    0  501  0.00000000000E+00  0.00000000000E+00 -0.19404984152E+04  0.19404984152E+04  0.25500000920E-02 0.  1.
    10030    2    1    2    0    0  0.00000000000E+00  0.00000000000E+00  0.56439137141E+02  0.39374359675E+04  0.39370314479E+04 0.  0.
        3    1    3    3  502    0  0.15289430868E+04  0.52731350122E+03  0.11505325608E+04  0.19848051982E+04  0.10100000352E+00 0. -1.
       -3    1    3    3    0  502 -0.15289430868E+04 -0.52731350122E+03 -0.10940934236E+04  0.19526307693E+04  0.10100000352E+00 0.  1.
</event>
<event>
 5   0  0.2486268E-07  0.3829739E+04  0.7818609E-02  0.8039803E-01
        2   -1    0    0  501    0  0.00000000000E+00  0.00000000000E+00  0.25288737827E+04  0.25288737827E+04  0.25500000920E-02 0. -1.
       -2   -1    0    0    0  501  0.00000000000E+00  0.00000000000E+00 -0.14499440412E+04  0.14499440412E+04  0.25500000920E-02 0.  1.
    10030    2    1    2    0    0  0.00000000000E+00  0.00000000000E+00  0.10789297415E+04  0.39788178239E+04  0.38297391411E+04 0.  0.
        5    1    3    3  502    0  0.57127742207E+03  0.12997315796E+04  0.18744120876E+04  0.23514044391E+04  0.46999998093E+01 0. -1.
       -5    1    3    3    0  502 -0.57127742207E+03 -0.12997315796E+04 -0.79548234608E+03  0.16274133848E+04  0.46999998093E+01 0.  1.
</event>
<event>
 5   0  0.7675750E-08  0.3887812E+04  0.7818609E-02  0.8027569E-01
        1   -1    0    0  501    0  0.00000000000E+00  0.00000000000E+00  0.31210464106E+04  0.31210464106E+04  0.50400001928E-02 0.  1.
       -1   -1    0    0    0  501  0.00000000000E+00  0.00000000000E+00 -0.12107384567E+04  0.12107384567E+04  0.50400001928E-02 0. -1.
    10030    2    1    2    0    0  0.00000000000E+00  0.00000000000E+00  0.19103079539E+04  0.43317848673E+04  0.38878121943E+04 0.  0.
        1    1    3    3  502    0  0.15297441498E+04  0.11582318431E+04  0.60786648065E+03  0.20127393832E+04  0.50400001928E-02 0. -1.
       -1    1    3    3    0  502 -0.15297441498E+04 -0.11582318431E+04  0.13024414732E+04  0.23190454841E+04  0.50400001928E-02 0.  1.
</event>
<event>
 5   0  0.2473224E-07  0.3859963E+04  0.7818609E-02  0.8033408E-01
       -2   -1    0    0    0  501  0.00000000000E+00  0.00000000000E+00  0.15832714569E+04  0.15832714569E+04  0.25500000920E-02 0. -1.
        2   -1    0    0  501    0  0.00000000000E+00  0.00000000000E+00 -0.23526147277E+04  0.23526147277E+04  0.25500000920E-02 0.  1.
    10030    2    1    2    0    0  0.00000000000E+00  0.00000000000E+00 -0.76934327079E+03  0.39358861846E+04  0.38599625632E+04 0.  0.
        2    1    3    3  502    0 -0.18200945076E+04 -0.63205312110E+03 -0.27024770832E+03  0.19455767752E+04  0.25500000920E-02 0.  1.
       -2    1    3    3    0  502  0.18200945076E+04  0.63205312110E+03 -0.49909556247E+03  0.19903094093E+04  0.25500000920E-02 0. -1.
</event>
<event>
 5   0  0.2486268E-07  0.3889604E+04  0.7818609E-02  0.8027195E-01
       -2   -1    0    0    0  501  0.00000000000E+00  0.00000000000E+00  0.21623069852E+04  0.21623069852E+04  0.25500000920E-02 0.  1.
        2   -1    0    0  501    0  0.00000000000E+00  0.00000000000E+00 -0.17491756070E+04  0.17491756070E+04  0.25500000920E-02 0. -1.
    10030    2    1    2    0    0  0.00000000000E+00  0.00000000000E+00  0.41313137820E+03  0.39114825922E+04  0.38896039045E+04 0.  0.
        5    1    3    3  502    0  0.98895391959E+03 -0.15760216636E+04 -0.36262014818E+03  0.18956238026E+04  0.46999998093E+01 0. -1.
       -5    1    3    3    0  502 -0.98895391959E+03  0.15760216636E+04  0.77575152639E+03  0.20158587896E+04  0.46999998093E+01 0.  1.
</event>
<event>
 5   0  0.7675750E-08  0.3878720E+04  0.7818609E-02  0.8029470E-01
       -1   -1    0    0    0  501  0.00000000000E+00  0.00000000000E+00  0.24694766644E+04  0.24694766644E+04  0.50400001928E-02 0. -1.
        1   -1    0    0  501    0  0.00000000000E+00  0.00000000000E+00 -0.15230425006E+04  0.15230425006E+04  0.50400001928E-02 0.  1.
    10030    2    1    2    0    0  0.00000000000E+00  0.00000000000E+00  0.94643416377E+03  0.39925191650E+04  0.38787203633E+04 0.  0.
        2    1    3    3  502    0  0.32575210038E+03  0.44518325281E+03 -0.14405832717E+04  0.15425896156E+04  0.25500000920E-02 0.  1.
       -2    1    3    3    0  502 -0.32575210038E+03 -0.44518325281E+03  0.23870174355E+04  0.24499295493E+04  0.25500000920E-02 0. -1.
</event>
<event>
 5   0  0.2486268E-07  0.3183196E+04  0.7818609E-02  0.8193269E-01
        2   -1    0    0  501    0  0.00000000000E+00  0.00000000000E+00  0.22549887032E+04  0.22549887032E+04  0.25500000920E-02 0.  1.
       -2   -1    0    0    0  501  0.00000000000E+00  0.00000000000E+00 -0.11233686774E+04  0.11233686775E+04  0.25500000920E-02 0. -1.
    10030    2    1    2    0    0  0.00000000000E+00  0.00000000000E+00  0.11316200257E+04  0.33783573806E+04  0.31831956755E+04 0.  0.
        5    1    3    3  502    0 -0.82387913147E+03 -0.13091611572E+04  0.96359860940E+03  0.18224225989E+04  0.46999998093E+01 0.  1.
       -5    1    3    3    0  502  0.82387913147E+03  0.13091611572E+04  0.16802141634E+03  0.15559347818E+04  0.46999998093E+01 0. -1.
</event>
<event>
 5   0  0.7675750E-08  0.3912223E+04  0.7818609E-02  0.8022492E-01
       -1   -1    0    0    0  501  0.00000000000E+00  0.00000000000E+00  0.31877524313E+04  0.31877524313E+04  0.50400001928E-02 0. -1.
        1   -1    0    0  501    0  0.00000000000E+00  0.00000000000E+00 -0.12003355067E+04  0.12003355067E+04  0.50400001928E-02 0.  1.
    10030    2    1    2    0    0  0.00000000000E+00  0.00000000000E+00  0.19874169246E+04  0.43880879380E+04  0.39122231173E+04 0.  0.
        4    1    3    3  502    0  0.27767614905E+03  0.59863909392E+03 -0.10717148328E+04  0.12585893311E+04  0.12699999809E+01 0.  1.
       -4    1    3    3    0  502 -0.27767614905E+03 -0.59863909392E+03  0.30591317574E+04  0.31294986069E+04  0.12699999809E+01 0. -1.
</event>
<event>
 5   0  0.7675750E-08  0.3906643E+04  0.7818609E-02  0.8023649E-01
        1   -1    0    0  501    0  0.00000000000E+00  0.00000000000E+00  0.14919412928E+04  0.14919412928E+04  0.50400001928E-02 0. -1.
       -1   -1    0    0    0  501  0.00000000000E+00  0.00000000000E+00 -0.25573827291E+04  0.25573827291E+04  0.50400001928E-02 0.  1.
    10030    2    1    2    0    0  0.00000000000E+00  0.00000000000E+00 -0.10654414363E+04  0.40493240219E+04  0.39066430064E+04 0.  0.
        5    1    3    3  502    0 -0.11857752103E+04 -0.92603650967E+03  0.75850379342E+03  0.16849203427E+04  0.46999998093E+01 0. -1.
       -5    1    3    3    0  502  0.11857752103E+04  0.92603650967E+03 -0.18239452298E+04  0.23644036791E+04  0.46999998093E+01 0.  1.
</event>
<event>
 5   0  0.7675750E-08  0.3908587E+04  0.7818609E-02  0.8023246E-01
       -1   -1    0    0    0  501  0.00000000000E+00  0.00000000000E+00  0.24660057880E+04  0.24660057880E+04  0.50400001928E-02 0.  1.
        1   -1    0    0  501    0  0.00000000000E+00  0.00000000000E+00 -0.15487648921E+04  0.15487648921E+04  0.50400001928E-02 0. -1.
    10030    2    1    2    0    0  0.00000000000E+00  0.00000000000E+00  0.91724089590E+03  0.40147706801E+04  0.39085870533E+04 0.  0.
        5    1    3    3  502    0  0.55242639215E+03 -0.18678053596E+04  0.62222498824E+03  0.20447635086E+04  0.46999998093E+01 0.  1.
       -5    1    3    3    0  502 -0.55242639215E+03  0.18678053596E+04  0.29501590767E+03  0.19700071715E+04  0.46999998093E+01 0. -1.
</event>
<event>
 5   0  0.2395572E-07  0.3875207E+04  0.7818609E-02  0.8030206E-01
       -2   -1    0    0    0  501  0.00000000000E+00  0.00000000000E+00  0.28558796863E+04  0.28558796863E+04  0.25500000920E-02 0. -1.
        2   -1    0    0  501    0  0.00000000000E+00  0.00000000000E+00 -0.13145885345E+04  0.13145885345E+04  0.25500000920E-02 0.  1.
    10030    2    1    2    0    0  0.00000000000E+00  0.00000000000E+00  0.15412911517E+04  0.41704682208E+04  0.38752066740E+04 0.  0.
        3    1    3    3  502    0  0.82522728603E+03  0.10344186823E+04 -0.75256965184E+03  0.15222953639E+04  0.10100000352E+00 0.  1.
       -3    1    3    3    0  502 -0.82522728603E+03 -0.10344186823E+04  0.22938608036E+04  0.26481728569E+04  0.10100000352E+00 0. -1.
</event>
<event>
 5   0  0.7675750E-08  0.3782162E+04  0.7818609E-02  0.8049994E-01
        1   -1    0    0  501    0  0.00000000000E+00  0.00000000000E+00  0.13993253400E+04  0.13993253400E+04  0.50400001928E-02 0.  1.
       -1   -1    0    0    0  501  0.00000000000E+00  0.00000000000E+00 -0.25556510663E+04  0.25556510663E+04  0.50400001928E-02 0. -1.
    10030    2    1    2    0    0  0.00000000000E+00  0.00000000000E+00 -0.11563257263E+04  0.39549764063E+04  0.37821619729E+04 0.  0.
        5    1    3    3  502    0  0.10887844727E+04  0.85598117968E+03  0.76830911554E+03  0.15838170333E+04  0.46999998093E+01 0.  1.
       -5    1    3    3    0  502 -0.10887844727E+04 -0.85598117968E+03 -0.19246348418E+04  0.23711593730E+04  0.46999998093E+01 0. -1.
</event>
<event>
 5   0  0.7675750E-08  0.3876354E+04  0.7818609E-02  0.8029965E-01
        1   -1    0    0  501    0  0.00000000000E+00  0.00000000000E+00  0.21559511970E+04  0.21559511970E+04  0.50400001928E-02 0.  1.
       -1   -1    0    0    0  501  0.00000000000E+00  0.00000000000E+00 -0.17424001386E+04  0.17424001386E+04  0.50400001928E-02 0. -1.
    10030    2    1    2    0    0  0.00000000000E+00  0.00000000000E+00  0.41355105839E+03  0.38983513357E+04  0.38763537839E+04 0.  0.
        5    1    3    3  502    0 -0.71295508046E+02 -0.14303673248E+04 -0.11065733301E+04  0.18098509215E+04  0.46999998093E+01 0. -1.
       -5    1    3    3    0  502  0.71295508046E+02  0.14303673248E+04  0.15201243885E+04  0.20885004141E+04  0.46999998093E+01 0.  1.
</event>
<event>
 5   0  0.2395572E-07  0.3882828E+04  0.7818609E-02  0.8028610E-01
        2   -1    0    0  501    0  0.00000000000E+00  0.00000000000E+00  0.15458043927E+04  0.15458043927E+04  0.25500000920E-02 0.  1.
       -2   -1    0    0    0  501  0.00000000000E+00  0.00000000000E+00 -0.24382702141E+04  0.24382702141E+04  0.25500000920E-02 0. -1.
    10030    2    1    2    0    0  0.00000000000E+00  0.00000000000E+00 -0.89246582148E+03  0.39840746068E+04  0.38828282514E+04 0.  0.
        3    1    3    3  502    0 -0.50136216976E+03  0.92732648449E+03 -0.21190160518E+04  0.23667546286E+04  0.10100000352E+00 0. -1.
       -3    1    3    3    0  502  0.50136216976E+03 -0.92732648449E+03  0.12265502303E+04  0.16173199782E+04  0.10100000352E+00 0.  1.
</event>
<event>
 5   0  0.2446281E-07  0.3883411E+04  0.7818609E-02  0.8028488E-01
        2   -1    0    0  501    0  0.00000000000E+00  0.00000000000E+00  0.15017804073E+04  0.15017804073E+04  0.25500000920E-02 0.  1.
       -2   -1    0    0    0  501  0.00000000000E+00  0.00000000000E+00 -0.25105001966E+04  0.25105001966E+04  0.25500000920E-02 0. -1.
    10030    2    1    2    0    0  0.00000000000E+00  0.00000000000E+00 -0.10087197893E+04  0.40122806039E+04  0.38834108759E+04 0.  0.
        1    1    3    3  502    0 -0.11772033968E+03  0.46944675013E+03 -0.24471816537E+04  0.24945814029E+04  0.50400001928E-02 0. -1.
       -1    1    3    3    0  502  0.11772033968E+03 -0.46944675013E+03  0.14384618643E+04  0.15176992010E+04  0.50400001928E-02 0.  1.
</event>
<event>
 5   0  0.2384787E-07  0.3868939E+04  0.7818609E-02  0.8031521E-01
        2   -1    0    0  501    0  0.00000000000E+00  0.00000000000E+00  0.29751726383E+04  0.29751726383E+04  0.25500000920E-02 0.  1.
       -2   -1    0    0    0  501  0.00000000000E+00  0.00000000000E+00 -0.12577997529E+04  0.12577997529E+04  0.25500000920E-02 0. -1.
    10030    2    1    2    0    0  0.00000000000E+00  0.00000000000E+00  0.17173728854E+04  0.42329723912E+04  0.38689385672E+04 0.  0.
        4    1    3    3  502    0 -0.24463496266E+02  0.46663881117E+03 -0.11951243541E+04  0.12832279912E+04  0.12699999809E+01 0. -1.
       -4    1    3    3    0  502  0.24463496266E+02 -0.46663881117E+03  0.29124972394E+04  0.29497444000E+04  0.12699999809E+01 0.  1.
</event>
<event>
 5   0  0.7675750E-08  0.3987355E+04  0.7818609E-02  0.8007102E-01
        1   -1    0    0  501    0  0.00000000000E+00  0.00000000000E+00  0.34066320501E+04  0.34066320501E+04  0.50400001928E-02 0.  1.
       -1   -1    0    0    0  501  0.00000000000E+00  0.00000000000E+00 -0.11667680450E+04  0.11667680450E+04  0.50400001928E-02 0. -1.
    10030    2    1    2    0    0  0.00000000000E+00  0.00000000000E+00  0.22398640051E+04  0.45734000951E+04  0.39873547206E+04 0.  0.
        2    1    3    3  502    0  0.20676982582E+03  0.13734596071E+04  0.27603901105E+04  0.30901292231E+04  0.25500000920E-02 0.  1.
       -2    1    3    3    0  502 -0.20676982582E+03 -0.13734596071E+04 -0.52052610546E+03  0.14832708719E+04  0.25500000920E-02 0. -1.
</event>
<event>
 5   0  0.2486268E-07  0.3867366E+04  0.7818609E-02  0.8031851E-01
        2   -1    0    0  501    0  0.00000000000E+00  0.00000000000E+00  0.22649669057E+04  0.22649669057E+04  0.25500000920E-02 0.  1.
       -2   -1    0    0    0  501  0.00000000000E+00  0.00000000000E+00 -0.16508540527E+04  0.16508540527E+04  0.25500000920E-02 0. -1.
    10030    2    1    2    0    0  0.00000000000E+00  0.00000000000E+00  0.61411285298E+03  0.39158209584E+04  0.38673659229E+04 0.  0.
        5    1    3    3  502    0  0.87033641498E+03  0.14482159284E+04 -0.64509411415E+03  0.18085860103E+04  0.46999998093E+01 0.  1.
       -5    1    3    3    0  502 -0.87033641498E+03 -0.14482159284E+04  0.12592069671E+04  0.21072349481E+04  0.46999998093E+01 0. -1.
</event>
<event>
 5   0  0.7675750E-08  0.3969202E+04  0.7818609E-02  0.8010788E-01
       -1   -1    0    0    0  501  0.00000000000E+00  0.00000000000E+00  0.25055441396E+04  0.25055441396E+04  0.50400001928E-02 0.  1.
        1   -1    0    0  501    0  0.00000000000E+00  0.00000000000E+00 -0.15719707179E+04  0.15719707179E+04  0.50400001928E-02 0. -1.
    10030    2    1    2    0    0  0.00000000000E+00  0.00000000000E+00  0.93357342168E+03  0.40775148575E+04  0.39692024488E+04 0.  0.
        4    1    3    3  502    0 -0.38943265826E+03 -0.18137966863E+03 -0.15236313151E+04  0.15830383371E+04  0.12699999809E+01 0. -1.
       -4    1    3    3    0  502  0.38943265826E+03  0.18137966863E+03  0.24572047368E+04  0.24944765204E+04  0.12699999809E+01 0.  1.
</event>
<event>
 5   0  0.2446281E-07  0.3940143E+04  0.7818609E-02  0.8016732E-01
        2   -1    0    0  501    0  0.00000000000E+00  0.00000000000E+00  0.21785500589E+04  0.21785500589E+04  0.25500000920E-02 0.  1.
       -2   -1    0    0    0  501  0.00000000000E+00  0.00000000000E+00 -0.17815436692E+04  0.17815436692E+04  0.25500000920E-02 0. -1.
    10030    2    1    2    0    0  0.00000000000E+00  0.00000000000E+00  0.39700638974E+03  0.39600937281E+04  0.39401431779E+04 0.  0.
        1    1    3    3  502    0  0.18934235246E+04  0.28654165617E+03 -0.26646579639E+03  0.19334329016E+04  0.50400001928E-02 0.  1.
       -1    1    3    3    0  502 -0.18934235246E+04 -0.28654165617E+03  0.66347218613E+03  0.20266608266E+04  0.50400001928E-02 0. -1.
</event>
<event>
 5   0  0.2486268E-07  0.3913709E+04  0.7818609E-02  0.8022184E-01
        2   -1    0    0  501    0  0.00000000000E+00  0.00000000000E+00  0.18532974065E+04  0.18532974065E+04  0.25500000920E-02 0.  1.
       -2   -1    0    0    0  501  0.00000000000E+00  0.00000000000E+00 -0.20661983241E+04  0.20661983241E+04  0.25500000920E-02 0. -1.
    10030    2    1    2    0    0  0.00000000000E+00  0.00000000000E+00 -0.21290091759E+03  0.39194957307E+04  0.39137092358E+04 0.  0.
        5    1    3    3  502    0 -0.16425028485E+04 -0.97637098940E+03 -0.52914319740E+03  0.19827078781E+04  0.46999998093E+01 0. -1.
       -5    1    3    3    0  502  0.16425028485E+04  0.97637098940E+03  0.31624227982E+03  0.19367878526E+04  0.46999998093E+01 0.  1.
</event>
<event>
 5   0  0.2473224E-07  0.3881039E+04  0.7818609E-02  0.8028984E-01
       -2   -1    0    0    0  501  0.00000000000E+00  0.00000000000E+00  0.17218487801E+04  0.17218487801E+04  0.25500000920E-02 0. -1.
        2   -1    0    0  501    0  0.00000000000E+00  0.00000000000E+00 -0.21869607812E+04  0.21869607812E+04  0.25500000920E-02 0.  1.
    10030    2    1    2    0    0  0.00000000000E+00  0.00000000000E+00 -0.46511200109E+03  0.39088095613E+04  0.38810389090E+04 0.  0.
        2    1    3    3  502    0  0.19179019254E+04 -0.18531639072E+02 -0.52949531798E+03  0.19897377990E+04  0.25500000920E-02 0.  1.
       -2    1    3    3    0  502 -0.19179019254E+04  0.18531639072E+02  0.64383316890E+02  0.19190717622E+04  0.25500000920E-02 0. -1.
</event>
<event>
 5   0  0.7675750E-08  0.3846356E+04  0.7818609E-02  0.8036280E-01
        1   -1    0    0  501    0  0.00000000000E+00  0.00000000000E+00  0.15719828325E+04  0.15719828326E+04  0.50400001928E-02 0. -1.
       -1   -1    0    0    0  501  0.00000000000E+00  0.00000000000E+00 -0.23528333765E+04  0.23528333765E+04  0.50400001928E-02 0.  1.
    10030    2    1    2    0    0  0.00000000000E+00  0.00000000000E+00 -0.78085054399E+03  0.39248162091E+04  0.38463560292E+04 0.  0.
        1    1    3    3  502    0 -0.42851317734E+03  0.17549728413E+04 -0.10634711210E+04  0.20963120097E+04  0.50400001928E-02 0.  1.
       -1    1    3    3    0  502  0.42851317734E+03 -0.17549728413E+04  0.28262057700E+03  0.18285041994E+04  0.50400001928E-02 0. -1.
</event>
<event>
 5   0  0.7675750E-08  0.3902299E+04  0.7818609E-02  0.8024551E-01
        1   -1    0    0  501    0  0.00000000000E+00  0.00000000000E+00  0.13540056541E+04  0.13540056541E+04  0.50400001928E-02 0.  1.
       -1   -1    0    0    0  501  0.00000000000E+00  0.00000000000E+00 -0.28116461181E+04  0.28116461181E+04  0.50400001928E-02 0. -1.
    10030    2    1    2    0    0  0.00000000000E+00  0.00000000000E+00 -0.14576404640E+04  0.41656517723E+04  0.39022991896E+04 0.  0.
        4    1    3    3  502    0 -0.11847613243E+04 -0.15468205256E+04 -0.83908696158E+03  0.21214103036E+04  0.12699999809E+01 0.  1.
       -4    1    3    3    0  502  0.11847613243E+04  0.15468205256E+04 -0.61855350240E+03  0.20442414687E+04  0.12699999809E+01 0. -1.
</event>
<event>
 5   0  0.2473224E-07  0.3910207E+04  0.7818609E-02  0.8022910E-01
       -2   -1    0    0    0  501  0.00000000000E+00  0.00000000000E+00  0.23173049108E+04  0.23173049108E+04  0.25500000920E-02 0. -1.
        2   -1    0    0  501    0  0.00000000000E+00  0.00000000000E+00 -0.16495149111E+04  0.16495149111E+04  0.25500000920E-02 0.  1.
    10030    2    1    2    0    0  0.00000000000E+00  0.00000000000E+00  0.66778999967E+03  0.39668198218E+04  0.39102066461E+04 0.  0.
        2    1    3    3  502    0 -0.10229425646E+03  0.10378454449E+04  0.20115739809E+04  0.22658369675E+04  0.25500000920E-02 0. -1.
       -2    1    3    3    0  502  0.10229425646E+03 -0.10378454449E+04 -0.13437839813E+04  0.17009828543E+04  0.25500000920E-02 0.  1.
</event>
<event>
 5   0  0.2486268E-07  0.3878726E+04  0.7818609E-02  0.8029468E-01
        2   -1    0    0  501    0  0.00000000000E+00  0.00000000000E+00  0.28011497650E+04  0.28011497650E+04  0.25500000920E-02 0.  1.
       -2   -1    0    0    0  501  0.00000000000E+00  0.00000000000E+00 -0.13427092439E+04  0.13427092439E+04  0.25500000920E-02 0. -1.
    10030    2    1    2    0    0  0.00000000000E+00  0.00000000000E+00  0.14584405212E+04  0.41438590089E+04  0.38787264317E+04 0.  0.
        5    1    3    3  502    0  0.12318468927E+04 -0.10231490235E+04 -0.43955629633E+03  0.16605759601E+04  0.46999998093E+01 0. -1.
       -5    1    3    3    0  502 -0.12318468927E+04  0.10231490235E+04  0.18979968175E+04  0.24832830489E+04  0.46999998093E+01 0.  1.
</event>
<event>
 5   0  0.7675750E-08  0.3528981E+04  0.7818609E-02  0.8106956E-01
       -1   -1    0    0    0  501  0.00000000000E+00  0.00000000000E+00  0.37724945173E+04  0.37724945173E+04  0.50400001928E-02 0. -1.
        1   -1    0    0  501    0  0.00000000000E+00  0.00000000000E+00 -0.82529677321E+03  0.82529677322E+03  0.50400001928E-02 0.  1.
    10030    2    1    2    0    0  0.00000000000E+00  0.00000000000E+00  0.29471977441E+04  0.45977912905E+04  0.35289814690E+04 0.  0.
        1    1    3    3  502    0 -0.44998037812E+03 -0.12334212799E+04 -0.62246379409E+02  0.13144143206E+04  0.50400001928E-02 0.  1.
       -1    1    3    3    0  502  0.44998037812E+03  0.12334212799E+04  0.30094441235E+04  0.32833769700E+04  0.50400001928E-02 0. -1.
</event>
<event>
 5   0  0.7675750E-08  0.3931978E+04  0.7818609E-02  0.8018411E-01
        1   -1    0    0  501    0  0.00000000000E+00  0.00000000000E+00  0.29882856941E+04  0.29882856941E+04  0.50400001928E-02 0. -1.
       -1   -1    0    0    0  501  0.00000000000E+00  0.00000000000E+00 -0.12934212004E+04  0.12934212004E+04  0.50400001928E-02 0.  1.
    10030    2    1    2    0    0  0.00000000000E+00  0.00000000000E+00  0.16948644938E+04  0.42817068945E+04  0.39319776549E+04 0.  0.
        2    1    3    3  502    0  0.33596440102E+03  0.19357623042E+04  0.92492574891E+03  0.21715283599E+04  0.25500000920E-02 0.  1.
       -2    1    3    3    0  502 -0.33596440102E+03 -0.19357623042E+04  0.76993874486E+03  0.21101785346E+04  0.25500000920E-02 0. -1.
</event>
<event>
 5   0  0.2384787E-07  0.3892701E+04  0.7818609E-02  0.8026549E-01
        2   -1    0    0  501    0  0.00000000000E+00  0.00000000000E+00  0.33272721613E+04  0.33272721613E+04  0.25500000920E-02 0. -1.
       -2   -1    0    0    0  501  0.00000000000E+00  0.00000000000E+00 -0.11385543640E+04  0.11385543640E+04  0.25500000920E-02 0.  1.
    10030    2    1    2    0    0  0.00000000000E+00  0.00000000000E+00  0.21887177973E+04  0.44658265253E+04  0.38927009849E+04 0.  0.
        4    1    3    3  502    0  0.50318470160E+03  0.10352346024E+04 -0.70623552704E+03  0.13504353959E+04  0.12699999809E+01 0.  1.
       -4    1    3    3    0  502 -0.50318470160E+03 -0.10352346024E+04  0.28949533243E+04  0.31153911294E+04  0.12699999809E+01 0. -1.
</event>
<event>
 5   0  0.2384787E-07  0.3931374E+04  0.7818609E-02  0.8018536E-01
        2   -1    0    0  501    0  0.00000000000E+00  0.00000000000E+00  0.27225881448E+04  0.27225881448E+04  0.25500000920E-02 0.  1.
       -2   -1    0    0    0  501  0.00000000000E+00  0.00000000000E+00 -0.14192102091E+04  0.14192102091E+04  0.25500000920E-02 0. -1.
    10030    2    1    2    0    0  0.00000000000E+00  0.00000000000E+00  0.13033779357E+04  0.41417983539E+04  0.39313737499E+04 0.  0.
        4    1    3    3  502    0 -0.14211520491E+04 -0.70343287650E+03  0.18755163651E+04  0.24560240648E+04  0.12699999809E+01 0.  1.
       -4    1    3    3    0  502  0.14211520491E+04  0.70343287650E+03 -0.57213842946E+03  0.16857742891E+04  0.12699999809E+01 0. -1.
</event>
<event>
 5   0  0.2384787E-07  0.3951087E+04  0.7818609E-02  0.8014487E-01
        2   -1    0    0  501    0  0.00000000000E+00  0.00000000000E+00  0.14778495179E+04  0.14778495179E+04  0.25500000920E-02 0.  1.
       -2   -1    0    0    0  501  0.00000000000E+00  0.00000000000E+00 -0.26408452074E+04  0.26408452074E+04  0.25500000920E-02 0. -1.
    10030    2    1    2    0    0  0.00000000000E+00  0.00000000000E+00 -0.11629956895E+04  0.41186947253E+04  0.39510868463E+04 0.  0.
        4    1    3    3  502    0  0.11876394415E+04 -0.79849391776E+03  0.83814376239E+03  0.16584832104E+04  0.12699999809E+01 0.  1.
       -4    1    3    3    0  502 -0.11876394415E+04  0.79849391776E+03 -0.20011394518E+04  0.24602115150E+04  0.12699999809E+01 0. -1.
</event>
<event>
 5   0  0.2395572E-07  0.3846051E+04  0.7818609E-02  0.8036344E-01
        2   -1    0    0  501    0  0.00000000000E+00  0.00000000000E+00  0.23216933383E+04  0.23216933383E+04  0.25500000920E-02 0.  1.
       -2   -1    0    0    0  501  0.00000000000E+00  0.00000000000E+00 -0.15928147771E+04  0.15928147771E+04  0.25500000920E-02 0. -1.
    10030    2    1    2    0    0  0.00000000000E+00  0.00000000000E+00  0.72887856123E+03  0.39145081154E+04  0.38460511994E+04 0.  0.
        3    1    3    3  502    0  0.12151052804E+04  0.11319006516E+04  0.13514146803E+04  0.21410281586E+04  0.10100000352E+00 0.  1.
       -3    1    3    3    0  502 -0.12151052804E+04 -0.11319006516E+04 -0.62253611906E+03  0.17734799568E+04  0.10100000352E+00 0. -1.
</event>
<event>
 5   0  0.7675750E-08  0.3883081E+04  0.7818609E-02  0.8028557E-01
        1   -1    0    0  501    0  0.00000000000E+00  0.00000000000E+00  0.13074566439E+04  0.13074566440E+04  0.50400001928E-02 0. -1.
       -1   -1    0    0    0  501  0.00000000000E+00  0.00000000000E+00 -0.28831388455E+04  0.28831388455E+04  0.50400001928E-02 0.  1.
    10030    2    1    2    0    0  0.00000000000E+00  0.00000000000E+00 -0.15756822015E+04  0.41905954895E+04  0.38830807558E+04 0.  0.
        2    1    3    3  502    0 -0.13562827191E+04 -0.11631401730E+04  0.32048528452E+02  0.17870156642E+04  0.25500000920E-02 0. -1.
       -2    1    3    3    0  502  0.13562827191E+04  0.11631401730E+04 -0.16077307300E+04  0.24035798252E+04  0.25500000920E-02 0.  1.
</event>
<event>
 5   0  0.7675750E-08  0.3898186E+04  0.7818609E-02  0.8025407E-01
        1   -1    0    0  501    0  0.00000000000E+00  0.00000000000E+00  0.21318632158E+04  0.21318632158E+04  0.50400001928E-02 0.  1.
       -1   -1    0    0    0  501  0.00000000000E+00  0.00000000000E+00 -0.17819921143E+04  0.17819921143E+04  0.50400001928E-02 0. -1.
    10030    2    1    2    0    0  0.00000000000E+00  0.00000000000E+00  0.34987110147E+03  0.39138553301E+04  0.38981859572E+04 0.  0.
        1    1    3    3  502    0 -0.29608346751E+02 -0.16354223482E+04  0.12391398050E+04  0.20520600303E+04  0.50400001928E-02 0.  1.
       -1    1    3    3    0  502  0.29608346751E+02  0.16354223482E+04 -0.88926870354E+03  0.18617952998E+04  0.50400001928E-02 0. -1.
</event>
<event>
 5   0  0.7675750E-08  0.3953851E+04  0.7818609E-02  0.8013921E-01
       -3   -1    0    0    0  501  0.00000000000E+00  0.00000000000E+00  0.15480285188E+04  0.15480285221E+04  0.10100000352E+00 0. -1.
        3   -1    0    0  501    0  0.00000000000E+00  0.00000000000E+00 -0.25246529616E+04  0.25246529636E+04  0.10100000352E+00 0.  1.
    10030    2    1    2    0    0  0.00000000000E+00  0.00000000000E+00 -0.97662444286E+03  0.40726814857E+04  0.39538511836E+04 0.  0.
        3    1    3    3  502    0  0.34190190193E+03  0.16095545465E+04 -0.16169961086E+04  0.23069978704E+04  0.10100000352E+00 0.  1.
       -3    1    3    3    0  502 -0.34190190193E+03 -0.16095545465E+04  0.64037166579E+03  0.17656836153E+04  0.10100000352E+00 0. -1.
</event>
<event>
 5   0  0.2446281E-07  0.3918225E+04  0.7818609E-02  0.8021249E-01
        2   -1    0    0  501    0  0.00000000000E+00  0.00000000000E+00  0.28756289743E+04  0.28756289743E+04  0.25500000920E-02 0.  1.
       -2   -1    0    0    0  501  0.00000000000E+00  0.00000000000E+00 -0.13347069416E+04  0.13347069416E+04  0.25500000920E-02 0. -1.
    10030    2    1    2    0    0  0.00000000000E+00  0.00000000000E+00  0.15409220327E+04  0.42103359160E+04  0.39182250847E+04 0.  0.
        1    1    3    3  502    0  0.14353508475E+03 -0.12402253868E+04  0.23927711719E+04  0.26989100043E+04  0.50400001928E-02 0.  1.
       -1    1    3    3    0  502 -0.14353508475E+03  0.12402253868E+04 -0.85184913916E+03  0.15114259117E+04  0.50400001928E-02 0. -1.
</event>
<event>
 5   0  0.2486268E-07  0.3890994E+04  0.7818609E-02  0.8026905E-01
       -2   -1    0    0    0  501  0.00000000000E+00  0.00000000000E+00  0.14227127209E+04  0.14227127209E+04  0.25500000920E-02 0.  1.
        2   -1    0    0  501    0  0.00000000000E+00  0.00000000000E+00 -0.26603818901E+04  0.26603818901E+04  0.25500000920E-02 0. -1.
    10030    2    1    2    0    0  0.00000000000E+00  0.00000000000E+00 -0.12376691692E+04  0.40830946111E+04  0.38909942984E+04 0.  0.
        5    1    3    3  502    0 -0.11227175934E+04 -0.81288925970E+03  0.81372077233E+03  0.16073105887E+04  0.46999998093E+01 0.  1.
       -5    1    3    3    0  502  0.11227175934E+04  0.81288925970E+03 -0.20513899415E+04  0.24757840224E+04  0.46999998093E+01 0. -1.
</event>
<event>
 5   0  0.2384787E-07  0.3914985E+04  0.7818609E-02  0.8021920E-01
       -2   -1    0    0    0  501  0.00000000000E+00  0.00000000000E+00  0.16348191884E+04  0.16348191884E+04  0.25500000920E-02 0.  1.
        2   -1    0    0  501    0  0.00000000000E+00  0.00000000000E+00 -0.23438540161E+04  0.23438540161E+04  0.25500000920E-02 0. -1.
    10030    2    1    2    0    0  0.00000000000E+00  0.00000000000E+00 -0.70903482770E+03  0.39786732045E+04  0.39149853233E+04 0.  0.
        4    1    3    3  502    0 -0.11525985451E+04 -0.93344619438E+03 -0.16527852860E+04  0.22206994435E+04  0.12699999809E+01 0.  1.
       -4    1    3    3    0  502  0.11525985451E+04  0.93344619438E+03  0.94375045828E+03  0.17579737610E+04  0.12699999809E+01 0. -1.
</event>
<event>
 5   0  0.7675750E-08  0.3403796E+04  0.7818609E-02  0.8136975E-01
        3   -1    0    0  501    0  0.00000000000E+00  0.00000000000E+00  0.13628114051E+04  0.13628114088E+04  0.10100000352E+00 0.  1.
       -3   -1    0    0    0  501  0.00000000000E+00  0.00000000000E+00 -0.21253545495E+04  0.21253545519E+04  0.10100000352E+00 0. -1.
    10030    2    1    2    0    0  0.00000000000E+00  0.00000000000E+00 -0.76254314446E+03  0.34881659608E+04  0.34037963692E+04 0.  0.
        4    1    3    3  502    0 -0.81772410715E+03  0.30943622853E+03  0.11150690331E+04  0.14169700267E+04  0.12699999809E+01 0.  1.
       -4    1    3    3    0  502  0.81772410715E+03 -0.30943622853E+03 -0.18776121776E+04  0.20711959341E+04  0.12699999809E+01 0. -1.
</event>
<event>
 5   0  0.7731706E-08  0.3935294E+04  0.7818609E-02  0.8017728E-01
        1   -1    0    0  501    0  0.00000000000E+00  0.00000000000E+00  0.24517028447E+04  0.24517028447E+04  0.50400001928E-02 0. -1.
       -1   -1    0    0    0  501  0.00000000000E+00  0.00000000000E+00 -0.15791616988E+04  0.15791616988E+04  0.50400001928E-02 0.  1.
    10030    2    1    2    0    0  0.00000000000E+00  0.00000000000E+00  0.87254114585E+03  0.40308645435E+04  0.39352942605E+04 0.  0.
        3    1    3    3  502    0  0.73868195912E+03 -0.14552088967E+04 -0.68967549748E+03  0.17717043410E+04  0.10100000352E+00 0.  1.
       -3    1    3    3    0  502 -0.73868195912E+03  0.14552088967E+04  0.15622166433E+04  0.22591602025E+04  0.10100000352E+00 0. -1.
</event>
<event>
 5   0  0.7675750E-08  0.3671908E+04  0.7818609E-02  0.8074216E-01
        1   -1    0    0  501    0  0.00000000000E+00  0.00000000000E+00  0.12841977705E+04  0.12841977705E+04  0.50400001928E-02 0. -1.
       -1   -1    0    0    0  501  0.00000000000E+00  0.00000000000E+00 -0.26247727077E+04  0.26247727077E+04  0.50400001928E-02 0.  1.
    10030    2    1    2    0    0  0.00000000000E+00  0.00000000000E+00 -0.13405749371E+04  0.39089704782E+04  0.36719080922E+04 0.  0.
        2    1    3    3  502    0  0.53728454008E+03  0.56528671009E+03 -0.24396711114E+04  0.25612924225E+04  0.25500000920E-02 0.  1.
       -2    1    3    3    0  502 -0.53728454008E+03 -0.56528671009E+03  0.10990961743E+04  0.13476780557E+04  0.25500000920E-02 0. -1.
</event>
<event>
 5   0  0.7675750E-08  0.3854025E+04  0.7818609E-02  0.8034660E-01
       -1   -1    0    0    0  501  0.00000000000E+00  0.00000000000E+00  0.20368257140E+04  0.20368257140E+04  0.50400001928E-02 0.  1.
        1   -1    0    0  501    0  0.00000000000E+00  0.00000000000E+00 -0.18231195894E+04  0.18231195894E+04  0.50400001928E-02 0. -1.
    10030    2    1    2    0    0  0.00000000000E+00  0.00000000000E+00  0.21370612458E+03  0.38599453034E+04  0.38540248362E+04 0.  0.
        2    1    3    3  502    0  0.50481210891E+02  0.15206883169E+04  0.12911820003E+04  0.19955431009E+04  0.25500000920E-02 0. -1.
       -2    1    3    3    0  502 -0.50481210891E+02 -0.15206883169E+04 -0.10774758757E+04  0.18644022025E+04  0.25500000920E-02 0.  1.
</event>
<event>
 5   0  0.7675750E-08  0.3899198E+04  0.7818609E-02  0.8025196E-01
       -1   -1    0    0    0  501  0.00000000000E+00  0.00000000000E+00  0.15945205468E+04  0.15945205468E+04  0.50400001928E-02 0. -1.
        1   -1    0    0  501    0  0.00000000000E+00  0.00000000000E+00 -0.23837487951E+04  0.23837487951E+04  0.50400001928E-02 0.  1.
    10030    2    1    2    0    0  0.00000000000E+00  0.00000000000E+00 -0.78922824829E+03  0.39782693419E+04  0.38991980879E+04 0.  0.
        5    1    3    3  502    0  0.15639757911E+04  0.96595003802E+03  0.26804468991E+03  0.18576732212E+04  0.46999998093E+01 0.  1.
       -5    1    3    3    0  502 -0.15639757911E+04 -0.96595003802E+03 -0.10572729382E+04  0.21205961206E+04  0.46999998093E+01 0. -1.
</event>
<event>
 5   0  0.2446281E-07  0.3942607E+04  0.7818609E-02  0.8016226E-01
        2   -1    0    0  501    0  0.00000000000E+00  0.00000000000E+00  0.18077216581E+04  0.18077216582E+04  0.25500000920E-02 0. -1.
       -2   -1    0    0    0  501  0.00000000000E+00  0.00000000000E+00 -0.21496877155E+04  0.21496877155E+04  0.25500000920E-02 0.  1.
    10030    2    1    2    0    0  0.00000000000E+00  0.00000000000E+00 -0.34196605736E+03  0.39574093737E+04  0.39426067730E+04 0.  0.
        1    1    3    3  502    0 -0.91695453187E+03 -0.11679418337E+04 -0.14724402026E+04  0.20911656775E+04  0.50400001928E-02 0.  1.
       -1    1    3    3    0  502  0.91695453187E+03  0.11679418337E+04  0.11304741452E+04  0.18662436962E+04  0.50400001928E-02 0. -1.
</event>
<event>
 5   0  0.7675750E-08  0.3911512E+04  0.7818609E-02  0.8022639E-01
        1   -1    0    0  501    0  0.00000000000E+00  0.00000000000E+00  0.27850346963E+04  0.27850346963E+04  0.50400001928E-02 0.  1.
       -1   -1    0    0    0  501  0.00000000000E+00  0.00000000000E+00 -0.13734052055E+04  0.13734052055E+04  0.50400001928E-02 0. -1.
    10030    2    1    2    0    0  0.00000000000E+00  0.00000000000E+00  0.14116294909E+04  0.41584399018E+04  0.39115118046E+04 0.  0.
        4    1    3    3  502    0  0.70696809455E+03 -0.19428065217E+03 -0.12217726864E+04  0.14248785803E+04  0.12699999809E+01 0. -1.
       -4    1    3    3    0  502 -0.70696809455E+03  0.19428065217E+03  0.26334021772E+04  0.27335613215E+04  0.12699999809E+01 0.  1.
</event>
<event>
 5   0  0.7675750E-08  0.3991860E+04  0.7818609E-02  0.8006191E-01
       -1   -1    0    0    0  501  0.00000000000E+00  0.00000000000E+00  0.19589339802E+04  0.19589339802E+04  0.50400001928E-02 0. -1.
        1   -1    0    0  501    0  0.00000000000E+00  0.00000000000E+00 -0.20336249336E+04  0.20336249336E+04  0.50400001928E-02 0.  1.
    10030    2    1    2    0    0  0.00000000000E+00  0.00000000000E+00 -0.74690953397E+02  0.39925589138E+04  0.39918602107E+04 0.  0.
        1    1    3    3  502    0  0.54538911479E+03  0.12947800892E+04 -0.14552791320E+04  0.20228055067E+04  0.50400001928E-02 0.  1.
       -1    1    3    3    0  502 -0.54538911479E+03 -0.12947800892E+04  0.13805881786E+04  0.19697534071E+04  0.50400001928E-02 0. -1.
</event>
<event>
 5   0  0.2384787E-07  0.3886605E+04  0.7818609E-02  0.8027821E-01
       -2   -1    0    0    0  501  0.00000000000E+00  0.00000000000E+00  0.17931619201E+04  0.17931619201E+04  0.25500000920E-02 0. -1.
        2   -1    0    0  501    0  0.00000000000E+00  0.00000000000E+00 -0.21060146884E+04  0.21060146884E+04  0.25500000920E-02 0.  1.
    10030    2    1    2    0    0  0.00000000000E+00  0.00000000000E+00 -0.31285276836E+03  0.38991766085E+04  0.38866053787E+04 0.  0.
        4    1    3    3  502    0 -0.12363997758E+04 -0.57747606463E+03 -0.15444696482E+04  0.20609587861E+04  0.12699999809E+01 0.  1.
       -4    1    3    3    0  502  0.12363997758E+04  0.57747606463E+03  0.12316168798E+04  0.18382178224E+04  0.12699999809E+01 0. -1.
</event>
<event>
 5   0  0.7675750E-08  0.3942333E+04  0.7818609E-02  0.8016282E-01
        1   -1    0    0  501    0  0.00000000000E+00  0.00000000000E+00  0.25887826523E+04  0.25887826524E+04  0.50400001928E-02 0.  1.
       -1   -1    0    0    0  501  0.00000000000E+00  0.00000000000E+00 -0.15008972547E+04  0.15008972548E+04  0.50400001928E-02 0. -1.
    10030    2    1    2    0    0  0.00000000000E+00  0.00000000000E+00  0.10878853976E+04  0.40896799071E+04  0.39423326983E+04 0.  0.
        5    1    3    3  502    0  0.10048278453E+04 -0.13254349492E+04  0.16413164281E+04  0.23367495609E+04  0.46999998093E+01 0.  1.
       -5    1    3    3    0  502 -0.10048278453E+04  0.13254349492E+04 -0.55343103046E+03  0.17529303462E+04  0.46999998093E+01 0. -1.
</event>
<event>
 5   0  0.7675750E-08  0.3920938E+04  0.7818609E-02  0.8020689E-01
       -3   -1    0    0    0  501  0.00000000000E+00  0.00000000000E+00  0.13605842612E+04  0.13605842650E+04  0.10100000352E+00 0.  1.
        3   -1    0    0  501    0  0.00000000000E+00  0.00000000000E+00 -0.28248438513E+04  0.28248438531E+04  0.10100000352E+00 0. -1.
    10030    2    1    2    0    0  0.00000000000E+00  0.00000000000E+00 -0.14642595901E+04  0.41854281181E+04  0.39209376920E+04 0.  0.
        1    1    3    3  502    0 -0.15224956259E+04 -0.12273163245E+04 -0.87980878032E+03  0.21443791132E+04  0.50400001928E-02 0. -1.
       -1    1    3    3    0  502  0.15224956259E+04  0.12273163245E+04 -0.58445080979E+03  0.20410490049E+04  0.50400001928E-02 0.  1.
</event>
<event>
 5   0  0.7675750E-08  0.3656680E+04  0.7818609E-02  0.8077630E-01
       -1   -1    0    0    0  501  0.00000000000E+00  0.00000000000E+00  0.15704046231E+04  0.15704046231E+04  0.50400001928E-02 0. -1.
        1   -1    0    0  501    0  0.00000000000E+00  0.00000000000E+00 -0.21286403579E+04  0.21286403579E+04  0.50400001928E-02 0.  1.
    10030    2    1    2    0    0  0.00000000000E+00  0.00000000000E+00 -0.55823573481E+03  0.36990449810E+04  0.36566797284E+04 0.  0.
        4    1    3    3  502    0  0.14205887952E+04 -0.47753460878E+03 -0.13384916657E+04  0.20093962725E+04  0.12699999809E+01 0.  1.
       -4    1    3    3    0  502 -0.14205887952E+04  0.47753460878E+03  0.78025593093E+03  0.16896487086E+04  0.12699999809E+01 0. -1.
</event>
<event>
 5   0  0.2446281E-07  0.3913454E+04  0.7818609E-02  0.8022237E-01
        2   -1    0    0  501    0  0.00000000000E+00  0.00000000000E+00  0.23700572002E+04  0.23700572002E+04  0.25500000920E-02 0.  1.
       -2   -1    0    0    0  501  0.00000000000E+00  0.00000000000E+00 -0.16154803291E+04  0.16154803291E+04  0.25500000920E-02 0. -1.
    10030    2    1    2    0    0  0.00000000000E+00  0.00000000000E+00  0.75457687104E+03  0.39855375293E+04  0.39134541192E+04 0.  0.
        1    1    3    3  502    0 -0.17816352249E+04  0.80735708643E+03  0.32406449030E+03  0.19826919412E+04  0.50400001928E-02 0.  1.
       -1    1    3    3    0  502  0.17816352249E+04 -0.80735708643E+03  0.43051238074E+03  0.20028455881E+04  0.50400001928E-02 0. -1.
</event>
<event>
 5   0  0.7675750E-08  0.3872975E+04  0.7818609E-02  0.8030674E-01
        1   -1    0    0  501    0  0.00000000000E+00  0.00000000000E+00  0.23161240564E+04  0.23161240564E+04  0.50400001928E-02 0. -1.
       -1   -1    0    0    0  501  0.00000000000E+00  0.00000000000E+00 -0.16190769294E+04  0.16190769294E+04  0.50400001928E-02 0.  1.
    10030    2    1    2    0    0  0.00000000000E+00  0.00000000000E+00  0.69704712703E+03  0.39352009858E+04  0.38729745805E+04 0.  0.
        4    1    3    3  502    0  0.13499104656E+04 -0.49202147873E+03  0.16677046919E+04  0.22012687144E+04  0.12699999809E+01 0. -1.
       -4    1    3    3    0  502 -0.13499104656E+04  0.49202147873E+03 -0.97065756491E+03  0.17339322714E+04  0.12699999809E+01 0.  1.
</event>
<event>
 5   0  0.2446281E-07  0.3913288E+04  0.7818609E-02  0.8022271E-01
       -2   -1    0    0    0  501  0.00000000000E+00  0.00000000000E+00  0.14804040072E+04  0.14804040072E+04  0.25500000920E-02 0.  1.
        2   -1    0    0  501    0  0.00000000000E+00  0.00000000000E+00 -0.25860881521E+04  0.25860881521E+04  0.25500000920E-02 0. -1.
    10030    2    1    2    0    0  0.00000000000E+00  0.00000000000E+00 -0.11056841448E+04  0.40664921593E+04  0.39132877550E+04 0.  0.
        1    1    3    3  502    0 -0.19236749565E+04 -0.35758047323E+03 -0.54439165023E+03  0.20309483996E+04  0.50400001928E-02 0.  1.
       -1    1    3    3    0  502  0.19236749565E+04  0.35758047323E+03 -0.56129249462E+03  0.20355437597E+04  0.50400001928E-02 0. -1.
</event>
<event>
 5   0  0.2395572E-07  0.3887151E+04  0.7818609E-02  0.8027707E-01
        2   -1    0    0  501    0  0.00000000000E+00  0.00000000000E+00  0.24060824979E+04  0.24060824980E+04  0.25500000920E-02 0.  1.
       -2   -1    0    0    0  501  0.00000000000E+00  0.00000000000E+00 -0.15699737035E+04  0.15699737035E+04  0.25500000920E-02 0. -1.
    10030    2    1    2    0    0  0.00000000000E+00  0.00000000000E+00  0.83610879448E+03  0.39760562014E+04  0.38871512706E+04 0.  0.
        3    1    3    3  502    0 -0.17763767266E+04 -0.37764279859E+03 -0.29013759065E+03  0.18391052688E+04  0.10100000352E+00 0. -1.
       -3    1    3    3    0  502  0.17763767266E+04  0.37764279859E+03  0.11262463851E+04  0.21369509326E+04  0.10100000352E+00 0.  1.
</event>
<event>
 5   0  0.2395572E-07  0.3918503E+04  0.7818609E-02  0.8021192E-01
        2   -1    0    0  501    0  0.00000000000E+00  0.00000000000E+00  0.22144385901E+04  0.22144385902E+04  0.25500000920E-02 0. -1.
       -2   -1    0    0    0  501  0.00000000000E+00  0.00000000000E+00 -0.17334720221E+04  0.17334720221E+04  0.25500000920E-02 0.  1.
    10030    2    1    2    0    0  0.00000000000E+00  0.00000000000E+00  0.48096656809E+03  0.39479106122E+04  0.39185034595E+04 0.  0.
        3    1    3    3  502    0 -0.61608689865E+03  0.51197391293E+02 -0.16326310818E+04  0.17457572853E+04  0.10100000352E+00 0.  1.
       -3    1    3    3    0  502  0.61608689865E+03 -0.51197391293E+02  0.21135976499E+04  0.22021533270E+04  0.10100000352E+00 0. -1.
</event>
<event>
 5   0  0.7675750E-08  0.3835669E+04  0.7818609E-02  0.8038544E-01
        1   -1    0    0  501    0  0.00000000000E+00  0.00000000000E+00  0.24862100917E+04  0.24862100918E+04  0.50400001928E-02 0.  1.
       -1   -1    0    0    0  501  0.00000000000E+00  0.00000000000E+00 -0.14793957132E+04  0.14793957133E+04  0.50400001928E-02 0. -1.
    10030    2    1    2    0    0  0.00000000000E+00  0.00000000000E+00  0.10068143785E+04  0.39656058050E+04  0.38356686781E+04 0.  0.
        1    1    3    3  502    0 -0.15078008119E+04 -0.11831085077E+04  0.57562712908E+03  0.20011385812E+04  0.50400001928E-02 0.  1.
       -1    1    3    3    0  502  0.15078008119E+04  0.11831085077E+04  0.43118724942E+03  0.19644672238E+04  0.50400001928E-02 0. -1.
</event>
<event>
 5   0  0.7675750E-08  0.3894011E+04  0.7818609E-02  0.8026276E-01
       -1   -1    0    0    0  501  0.00000000000E+00  0.00000000000E+00  0.16411702736E+04  0.16411702736E+04  0.50400001928E-02 0. -1.
        1   -1    0    0  501    0  0.00000000000E+00  0.00000000000E+00 -0.23098334073E+04  0.23098334073E+04  0.50400001928E-02 0.  1.
    10030    2    1    2    0    0  0.00000000000E+00  0.00000000000E+00 -0.66866313374E+03  0.39510036809E+04  0.38940107473E+04 0.  0.
        5    1    3    3  502    0 -0.63101121703E+03  0.15011038909E+04 -0.14173431676E+04  0.21587894274E+04  0.46999998093E+01 0. -1.
       -5    1    3    3    0  502  0.63101121703E+03 -0.15011038909E+04  0.74868003387E+03  0.17922142535E+04  0.46999998093E+01 0.  1.
</event>
<event>
 5   0  0.2395572E-07  0.3903789E+04  0.7818609E-02  0.8024242E-01
        2   -1    0    0  501    0  0.00000000000E+00  0.00000000000E+00  0.21849252876E+04  0.21849252876E+04  0.25500000920E-02 0.  1.
       -2   -1    0    0    0  501  0.00000000000E+00  0.00000000000E+00 -0.17437177326E+04  0.17437177326E+04  0.25500000920E-02 0. -1.
    10030    2    1    2    0    0  0.00000000000E+00  0.00000000000E+00  0.44120755495E+03  0.39286430202E+04  0.39037894249E+04 0.  0.
        3    1    3    3  502    0  0.14921980271E+04  0.12534694560E+04  0.33108581576E+03  0.19767292320E+04  0.10100000352E+00 0. -1.
       -3    1    3    3    0  502 -0.14921980271E+04 -0.12534694560E+04  0.11012173919E+03  0.19519137882E+04  0.10100000352E+00 0.  1.
</event>
<event>
 5   0  0.7675750E-08  0.3917982E+04  0.7818609E-02  0.8021300E-01
        1   -1    0    0  501    0  0.00000000000E+00  0.00000000000E+00  0.22069726565E+04  0.22069726565E+04  0.50400001928E-02 0. -1.
       -1   -1    0    0    0  501  0.00000000000E+00  0.00000000000E+00 -0.17388733380E+04  0.17388733380E+04  0.50400001928E-02 0.  1.
    10030    2    1    2    0    0  0.00000000000E+00  0.00000000000E+00  0.46809931852E+03  0.39458459946E+04  0.39179820879E+04 0.  0.
        5    1    3    3  502    0 -0.78467689561E+03  0.16288682952E+04  0.99353086856E+03  0.20630209476E+04  0.46999998093E+01 0. -1.
       -5    1    3    3    0  502  0.78467689561E+03 -0.16288682952E+04 -0.52543155004E+03  0.18828250469E+04  0.46999998093E+01 0.  1.
</event>
<event>
 5   0  0.2473224E-07  0.3909799E+04  0.7818609E-02  0.8022994E-01
        2   -1    0    0  501    0  0.00000000000E+00  0.00000000000E+00  0.31356966386E+04  0.31356966386E+04  0.25500000920E-02 0.  1.
       -2   -1    0    0    0  501  0.00000000000E+00  0.00000000000E+00 -0.12187505709E+04  0.12187505709E+04  0.25500000920E-02 0. -1.
    10030    2    1    2    0    0  0.00000000000E+00  0.00000000000E+00  0.19169460677E+04  0.43544472094E+04  0.39097990068E+04 0.  0.
        2    1    3    3  502    0 -0.94011312935E+01 -0.93211091561E+03  0.28722406908E+04  0.30197161665E+04  0.25500000920E-02 0.  1.
       -2    1    3    3    0  502  0.94011312935E+01  0.93211091561E+03 -0.95529462305E+03  0.13347310430E+04  0.25500000920E-02 0. -1.
</event>
<event>
 5   0  0.7731706E-08  0.3926039E+04  0.7818609E-02  0.8019635E-01
       -1   -1    0    0    0  501  0.00000000000E+00  0.00000000000E+00  0.17544817318E+04  0.17544817318E+04  0.50400001928E-02 0.  1.
        1   -1    0    0  501    0  0.00000000000E+00  0.00000000000E+00 -0.21963443758E+04  0.21963443758E+04  0.50400001928E-02 0. -1.
    10030    2    1    2    0    0  0.00000000000E+00  0.00000000000E+00 -0.44186264399E+03  0.39508261076E+04  0.39260392683E+04 0.  0.
        3    1    3    3  502    0 -0.85567487710E+03  0.73034132945E+03  0.13979102413E+04  0.17943608906E+04  0.10100000352E+00 0.  1.
       -3    1    3    3    0  502  0.85567487710E+03 -0.73034132945E+03 -0.18397728853E+04  0.21564652170E+04  0.10100000352E+00 0. -1.
</event>
<event>
 5   0  0.7731706E-08  0.3929712E+04  0.7818609E-02  0.8018878E-01
        1   -1    0    0  501    0  0.00000000000E+00  0.00000000000E+00  0.30561478338E+04  0.30561478338E+04  0.50400001928E-02 0. -1.
       -1   -1    0    0    0  501  0.00000000000E+00  0.00000000000E+00 -0.12632435766E+04  0.12632435767E+04  0.50400001928E-02 0.  1.
    10030    2    1    2    0    0  0.00000000000E+00  0.00000000000E+00  0.17929042571E+04  0.43193914104E+04  0.39297120100E+04 0.  0.
        3    1    3    3  502    0  0.78475583288E+03  0.14284736580E+04 -0.30976542828E+03  0.16590157744E+04  0.10100000352E+00 0.  1.
       -3    1    3    3    0  502 -0.78475583288E+03 -0.14284736580E+04  0.21026696854E+04  0.26603756361E+04  0.10100000352E+00 0. -1.
</event>
<event>
 5   0  0.7675750E-08  0.3922549E+04  0.7818609E-02  0.8020356E-01
       -1   -1    0    0    0  501  0.00000000000E+00  0.00000000000E+00  0.11670461595E+04  0.11670461596E+04  0.50400001928E-02 0. -1.
        1   -1    0    0  501    0  0.00000000000E+00  0.00000000000E+00 -0.32960121443E+04  0.32960121443E+04  0.50400001928E-02 0.  1.
    10030    2    1    2    0    0  0.00000000000E+00  0.00000000000E+00 -0.21289659847E+04  0.44630583038E+04  0.39225493317E+04 0.  0.
        4    1    3    3  502    0 -0.40732487558E+03 -0.51327168399E+03 -0.31677847746E+04  0.32348451844E+04  0.12699999809E+01 0.  1.
       -4    1    3    3    0  502  0.40732487558E+03  0.51327168399E+03  0.10388187898E+04  0.12282131195E+04  0.12699999809E+01 0. -1.
</event>
<event>
 5   0  0.2384787E-07  0.3897107E+04  0.7818609E-02  0.8025631E-01
       -2   -1    0    0    0  501  0.00000000000E+00  0.00000000000E+00  0.14448196991E+04  0.14448196991E+04  0.25500000920E-02 0.  1.
        2   -1    0    0  501    0  0.00000000000E+00  0.00000000000E+00 -0.26279129514E+04  0.26279129514E+04  0.25500000920E-02 0. -1.
    10030    2    1    2    0    0  0.00000000000E+00  0.00000000000E+00 -0.11830932523E+04  0.40727326505E+04  0.38971068241E+04 0.  0.
        4    1    3    3  502    0 -0.14172199886E+04 -0.51953714868E+03 -0.18793234766E+04  0.24104542492E+04  0.12699999809E+01 0. -1.
       -4    1    3    3    0  502  0.14172199886E+04  0.51953714868E+03  0.69623022431E+03  0.16622784012E+04  0.12699999809E+01 0.  1.
</event>
<event>
 5   0  0.7675750E-08  0.3770307E+04  0.7818609E-02  0.8052557E-01
       -1   -1    0    0    0  501  0.00000000000E+00  0.00000000000E+00  0.14535760187E+04  0.14535760187E+04  0.50400001928E-02 0. -1.
        1   -1    0    0  501    0  0.00000000000E+00  0.00000000000E+00 -0.24448696841E+04  0.24448696842E+04  0.50400001928E-02 0.  1.
    10030    2    1    2    0    0  0.00000000000E+00  0.00000000000E+00 -0.99129366541E+03  0.38984457029E+04  0.37703071184E+04 0.  0.
        5    1    3    3  502    0  0.16659948131E+04  0.88066887972E+03 -0.44226410542E+03  0.19356487341E+04  0.46999998093E+01 0. -1.
       -5    1    3    3    0  502 -0.16659948131E+04 -0.88066887972E+03 -0.54902956000E+03  0.19627969688E+04  0.46999998093E+01 0.  1.
</event>
<event>
 5   0  0.7675750E-08  0.3890458E+04  0.7818609E-02  0.8027017E-01
       -1   -1    0    0    0  501  0.00000000000E+00  0.00000000000E+00  0.21466615259E+04  0.21466615259E+04  0.50400001928E-02 0. -1.
        1   -1    0    0  501    0  0.00000000000E+00  0.00000000000E+00 -0.17626978309E+04  0.17626978309E+04  0.50400001928E-02 0.  1.
    10030    2    1    2    0    0  0.00000000000E+00  0.00000000000E+00  0.38396369501E+03  0.39093593567E+04  0.38904578729E+04 0.  0.
        5    1    3    3  502    0  0.11426619931E+04  0.15140846109E+04 -0.24111666179E+03  0.19121422474E+04  0.46999998093E+01 0. -1.
       -5    1    3    3    0  502 -0.11426619931E+04 -0.15140846109E+04  0.62508035680E+03  0.19972171094E+04  0.46999998093E+01 0.  1.
</event>
<event>
 5   0  0.7675750E-08  0.3854897E+04  0.7818609E-02  0.8034476E-01
       -1   -1    0    0    0  501  0.00000000000E+00  0.00000000000E+00  0.15451662724E+04  0.15451662724E+04  0.50400001928E-02 0. -1.
        1   -1    0    0  501    0  0.00000000000E+00  0.00000000000E+00 -0.24043089185E+04  0.24043089185E+04  0.50400001928E-02 0.  1.
    10030    2    1    2    0    0  0.00000000000E+00  0.00000000000E+00 -0.85914264613E+03  0.39494751909E+04  0.38548966520E+04 0.  0.
        4    1    3    3  502    0 -0.14128267716E+04 -0.95464710267E+03  0.49115697244E+03  0.17744484669E+04  0.12699999809E+01 0. -1.
       -4    1    3    3    0  502  0.14128267716E+04  0.95464710267E+03 -0.13502996186E+04  0.21750267240E+04  0.12699999809E+01 0.  1.
</event>
<event>
 5   0  0.2473224E-07  0.3936176E+04  0.7818609E-02  0.8017547E-01
        2   -1    0    0  501    0  0.00000000000E+00  0.00000000000E+00  0.13383730053E+04  0.13383730053E+04  0.25500000920E-02 0.  1.
       -2   -1    0    0    0  501  0.00000000000E+00  0.00000000000E+00 -0.28940892896E+04  0.28940892896E+04  0.25500000920E-02 0. -1.
    10030    2    1    2    0    0  0.00000000000E+00  0.00000000000E+00 -0.15557162843E+04  0.42324622950E+04  0.39361763072E+04 0.  0.
        2    1    3    3  502    0 -0.11752972542E+03  0.11544078118E+03  0.13309460027E+04  0.13411029313E+04  0.25500000920E-02 0.  1.
       -2    1    3    3    0  502  0.11752972542E+03 -0.11544078118E+03 -0.28866622870E+04  0.28913593636E+04  0.25500000920E-02 0. -1.
</event>
<event>
 5   0  0.2384787E-07  0.4019300E+04  0.7818609E-02  0.8000664E-01
        2   -1    0    0  501    0  0.00000000000E+00  0.00000000000E+00  0.16421787513E+04  0.16421787513E+04  0.25500000920E-02 0. -1.
       -2   -1    0    0    0  501  0.00000000000E+00  0.00000000000E+00 -0.24593504866E+04  0.24593504866E+04  0.25500000920E-02 0.  1.
    10030    2    1    2    0    0  0.00000000000E+00  0.00000000000E+00 -0.81717173525E+03  0.41015292379E+04  0.40192999944E+04 0.  0.
        4    1    3    3  502    0 -0.39172859215E+03 -0.48971819691E+03  0.15397730097E+04  0.16625816481E+04  0.12699999809E+01 0. -1.
       -4    1    3    3    0  502  0.39172859215E+03  0.48971819691E+03 -0.23569447450E+04  0.24389475898E+04  0.12699999809E+01 0.  1.
</event>
<event>
 5   0  0.2384787E-07  0.3776530E+04  0.7818609E-02  0.8051210E-01
        2   -1    0    0  501    0  0.00000000000E+00  0.00000000000E+00  0.18866552056E+04  0.18866552056E+04  0.25500000920E-02 0. -1.
       -2   -1    0    0    0  501  0.00000000000E+00  0.00000000000E+00 -0.18898763256E+04  0.18898763256E+04  0.25500000920E-02 0.  1.
    10030    2    1    2    0    0  0.00000000000E+00  0.00000000000E+00 -0.32211199691E+01  0.37765315312E+04  0.37765301575E+04 0.  0.
        4    1    3    3  502    0  0.42328682281E+03 -0.55306229178E+03  0.17535236237E+04  0.18867687576E+04  0.12699999809E+01 0. -1.
       -4    1    3    3    0  502 -0.42328682281E+03  0.55306229178E+03 -0.17567447437E+04  0.18897627736E+04  0.12699999809E+01 0.  1.
</event>
<event>
 5   0  0.7675750E-08  0.3868949E+04  0.7818609E-02  0.8031518E-01
       -1   -1    0    0    0  501  0.00000000000E+00  0.00000000000E+00  0.18616327077E+04  0.18616327077E+04  0.50400001928E-02 0. -1.
        1   -1    0    0  501    0  0.00000000000E+00  0.00000000000E+00 -0.20101661976E+04  0.20101661976E+04  0.50400001928E-02 0.  1.
    10030    2    1    2    0    0  0.00000000000E+00  0.00000000000E+00 -0.14853348994E+03  0.38717989053E+04  0.38689487675E+04 0.  0.
        4    1    3    3  502    0  0.11728210771E+04 -0.10399322082E+04 -0.12087778806E+04  0.19794226062E+04  0.12699999809E+01 0.  1.
       -4    1    3    3    0  502 -0.11728210771E+04  0.10399322082E+04  0.10602443907E+04  0.18923762991E+04  0.12699999809E+01 0. -1.
</event>
<event>
 5   0  0.2473224E-07  0.3908173E+04  0.7818609E-02  0.8023332E-01
       -2   -1    0    0    0  501  0.00000000000E+00  0.00000000000E+00  0.19780548114E+04  0.19780548114E+04  0.25500000920E-02 0. -1.
        2   -1    0    0  501    0  0.00000000000E+00  0.00000000000E+00 -0.19304084899E+04  0.19304084899E+04  0.25500000920E-02 0.  1.
    10030    2    1    2    0    0  0.00000000000E+00  0.00000000000E+00  0.47646321496E+02  0.39084633013E+04  0.39081728731E+04 0.  0.
        2    1    3    3  502    0  0.23864346738E+03  0.18090374230E+04  0.72307945371E+03  0.19627559702E+04  0.25500000920E-02 0. -1.
       -2    1    3    3    0  502 -0.23864346738E+03 -0.18090374230E+04 -0.67543313221E+03  0.19457073311E+04  0.25500000920E-02 0.  1.
</event>
<event>
 5   0  0.2384787E-07  0.3863420E+04  0.7818609E-02  0.8032680E-01
       -2   -1    0    0    0  501  0.00000000000E+00  0.00000000000E+00  0.14092998759E+04  0.14092998759E+04  0.25500000920E-02 0. -1.
        2   -1    0    0  501    0  0.00000000000E+00  0.00000000000E+00 -0.26477715660E+04  0.26477715660E+04  0.25500000920E-02 0.  1.
    10030    2    1    2    0    0  0.00000000000E+00  0.00000000000E+00 -0.12384716901E+04  0.40570714418E+04  0.38634203184E+04 0.  0.
        4    1    3    3  502    0 -0.19208671318E+04  0.19004224653E+03 -0.69821142352E+03  0.20526440019E+04  0.12699999809E+01 0. -1.
       -4    1    3    3    0  502  0.19208671318E+04 -0.19004224653E+03 -0.54026026658E+03  0.20044274400E+04  0.12699999809E+01 0.  1.
</event>
<event>
 5   0  0.2486268E-07  0.3905291E+04  0.7818609E-02  0.8023930E-01
       -2   -1    0    0    0  501  0.00000000000E+00  0.00000000000E+00  0.13802022202E+04  0.13802022202E+04  0.25500000920E-02 0. -1.
        2   -1    0    0  501    0  0.00000000000E+00  0.00000000000E+00 -0.27625119800E+04  0.27625119800E+04  0.25500000920E-02 0.  1.
    10030    2    1    2    0    0  0.00000000000E+00  0.00000000000E+00 -0.13823097598E+04  0.41427142002E+04  0.39052913684E+04 0.  0.
        5    1    3    3  502    0  0.48943931814E+03  0.56766522003E+03 -0.26038272282E+04  0.27095632438E+04  0.46999998093E+01 0.  1.
       -5    1    3    3    0  502 -0.48943931814E+03 -0.56766522003E+03  0.12215174683E+04  0.14331509563E+04  0.46999998093E+01 0. -1.
</event>
<event>
 5   0  0.7675750E-08  0.3632985E+04  0.7818609E-02  0.8082978E-01
       -1   -1    0    0    0  501  0.00000000000E+00  0.00000000000E+00  0.18336077643E+04  0.18336077643E+04  0.50400001928E-02 0. -1.
        1   -1    0    0  501    0  0.00000000000E+00  0.00000000000E+00 -0.17995367015E+04  0.17995367015E+04  0.50400001928E-02 0.  1.
    10030    2    1    2    0    0  0.00000000000E+00  0.00000000000E+00  0.34071062803E+02  0.36331444658E+04  0.36329847058E+04 0.  0.
        2    1    3    3  502    0  0.83011983107E+03 -0.15585546200E+04 -0.40895624058E+03  0.18125773484E+04  0.25500000920E-02 0.  1.
       -2    1    3    3    0  502 -0.83011983107E+03  0.15585546200E+04  0.44302730339E+03  0.18205671174E+04  0.25500000920E-02 0. -1.
</event>
<event>
 5   0  0.2395572E-07  0.3910494E+04  0.7818609E-02  0.8022850E-01
        2   -1    0    0  501    0  0.00000000000E+00  0.00000000000E+00  0.21624784799E+04  0.21624784799E+04  0.25500000920E-02 0. -1.
       -2   -1    0    0    0  501  0.00000000000E+00  0.00000000000E+00 -0.17678742462E+04  0.17678742462E+04  0.25500000920E-02 0.  1.
    10030    2    1    2    0    0  0.00000000000E+00  0.00000000000E+00  0.39460423362E+03  0.39303527261E+04  0.39104935814E+04 0.  0.
        3    1    3    3  502    0 -0.11077079727E+04 -0.15760475211E+04 -0.13913241990E+03  0.19313986078E+04  0.10100000352E+00 0.  1.
       -3    1    3    3    0  502  0.11077079727E+04  0.15760475211E+04  0.53373665352E+03  0.19989541183E+04  0.10100000352E+00 0. -1.
</event>
<event>
 5   0  0.7675750E-08  0.3914395E+04  0.7818609E-02  0.8022042E-01
       -3   -1    0    0    0  501  0.00000000000E+00  0.00000000000E+00  0.17107302640E+04  0.17107302670E+04  0.10100000352E+00 0. -1.
        3   -1    0    0  501    0  0.00000000000E+00  0.00000000000E+00 -0.22391737080E+04  0.22391737103E+04  0.10100000352E+00 0.  1.
    10030    2    1    2    0    0  0.00000000000E+00  0.00000000000E+00 -0.52844344399E+03  0.39499039772E+04  0.39143950945E+04 0.  0.
        5    1    3    3  502    0  0.34373044139E+03 -0.20317421325E+03 -0.21976324046E+04  0.22336160487E+04  0.46999998093E+01 0.  1.
       -5    1    3    3    0  502 -0.34373044139E+03  0.20317421325E+03  0.16691889606E+04  0.17162879285E+04  0.46999998093E+01 0. -1.
</event>
<event>
 5   0  0.7675750E-08  0.3893906E+04  0.7818609E-02  0.8026298E-01
        1   -1    0    0  501    0  0.00000000000E+00  0.00000000000E+00  0.12806561289E+04  0.12806561289E+04  0.50400001928E-02 0. -1.
       -1   -1    0    0    0  501  0.00000000000E+00  0.00000000000E+00 -0.29599094252E+04  0.29599094252E+04  0.50400001928E-02 0.  1.
    10030    2    1    2    0    0  0.00000000000E+00  0.00000000000E+00 -0.16792532963E+04  0.42405655540E+04  0.38939060832E+04 0.  0.
        2    1    3    3  502    0 -0.88720523896E+03  0.16708069128E+04 -0.13409304402E+04  0.23187978181E+04  0.25500000920E-02 0.  1.
       -2    1    3    3    0  502  0.88720523896E+03 -0.16708069128E+04 -0.33832285608E+03  0.19217677359E+04  0.25500000920E-02 0. -1.
</event>
<event>
 5   0  0.2446281E-07  0.3897834E+04  0.7818609E-02  0.8025480E-01
        2   -1    0    0  501    0  0.00000000000E+00  0.00000000000E+00  0.19675832155E+04  0.19675832155E+04  0.25500000920E-02 0. -1.
       -2   -1    0    0    0  501  0.00000000000E+00  0.00000000000E+00 -0.19304282303E+04  0.19304282303E+04  0.25500000920E-02 0.  1.
    10030    2    1    2    0    0  0.00000000000E+00  0.00000000000E+00  0.37154985164E+02  0.38980114458E+04  0.38978343652E+04 0.  0.
        1    1    3    3  502    0  0.18738661322E+03  0.18732671076E+04  0.52261902633E+03  0.19538101356E+04  0.50400001928E-02 0. -1.
       -1    1    3    3    0  502 -0.18738661322E+03 -0.18732671076E+04 -0.48546404117E+03  0.19442013102E+04  0.50400001928E-02 0.  1.
</event>
<event>
 5   0  0.7675750E-08  0.3917079E+04  0.7818609E-02  0.8021486E-01
       -1   -1    0    0    0  501  0.00000000000E+00  0.00000000000E+00  0.16977366432E+04  0.16977366432E+04  0.50400001928E-02 0.  1.
        1   -1    0    0  501    0  0.00000000000E+00  0.00000000000E+00 -0.22594064539E+04  0.22594064539E+04  0.50400001928E-02 0. -1.
    10030    2    1    2    0    0  0.00000000000E+00  0.00000000000E+00 -0.56166981072E+03  0.39571430971E+04  0.39170790795E+04 0.  0.
        4    1    3    3  502    0  0.83742978211E+03 -0.13140508341E+04 -0.14795024093E+04  0.21487082693E+04  0.12699999809E+01 0. -1.
       -4    1    3    3    0  502 -0.83742978211E+03  0.13140508341E+04  0.91783259857E+03  0.18084348278E+04  0.12699999809E+01 0.  1.
</event>
<event>
 5   0  0.2395572E-07  0.3896815E+04  0.7818609E-02  0.8025692E-01
        2   -1    0    0  501    0  0.00000000000E+00  0.00000000000E+00  0.32250547479E+04  0.32250547479E+04  0.25500000920E-02 0. -1.
       -2   -1    0    0    0  501  0.00000000000E+00  0.00000000000E+00 -0.11771246511E+04  0.11771246511E+04  0.25500000920E-02 0.  1.
    10030    2    1    2    0    0  0.00000000000E+00  0.00000000000E+00  0.20479300969E+04  0.44021793990E+04  0.38968148249E+04 0.  0.
        3    1    3    3  502    0 -0.16796152582E+04  0.70122747351E+03  0.18094539643E+04  0.25665056096E+04  0.10100000352E+00 0. -1.
       -3    1    3    3    0  502  0.16796152582E+04 -0.70122747351E+03  0.23847613254E+03  0.18356737894E+04  0.10100000352E+00 0.  1.
</event>
<event>
 5   0  0.7675750E-08  0.3807499E+04  0.7818609E-02  0.8044547E-01
        1   -1    0    0  501    0  0.00000000000E+00  0.00000000000E+00  0.15631255853E+04  0.15631255853E+04  0.50400001928E-02 0.  1.
       -1   -1    0    0    0  501  0.00000000000E+00  0.00000000000E+00 -0.23185999320E+04  0.23185999320E+04  0.50400001928E-02 0. -1.
    10030    2    1    2    0    0  0.00000000000E+00  0.00000000000E+00 -0.75547434670E+03  0.38817255173E+04  0.38074993767E+04 0.  0.
        5    1    3    3  502    0 -0.10188129290E+04  0.19762262783E+03 -0.20048476506E+04  0.22575364182E+04  0.46999998093E+01 0. -1.
       -5    1    3    3    0  502  0.10188129290E+04 -0.19762262783E+03  0.12493733039E+04  0.16241890991E+04  0.46999998093E+01 0.  1.
</event>
<event>
 5   0  0.7731706E-08  0.3825320E+04  0.7818609E-02  0.8040743E-01
        1   -1    0    0  501    0  0.00000000000E+00  0.00000000000E+00  0.21320074989E+04  0.21320074989E+04  0.50400001928E-02 0.  1.
       -1   -1    0    0    0  501  0.00000000000E+00  0.00000000000E+00 -0.17158799466E+04  0.17158799466E+04  0.50400001928E-02 0. -1.
    10030    2    1    2    0    0  0.00000000000E+00  0.00000000000E+00  0.41612755225E+03  0.38478874455E+04  0.38253203335E+04 0.  0.
        3    1    3    3  502    0  0.12054572402E+04  0.58429217438E+03 -0.11651802766E+04  0.17754350425E+04  0.10100000352E+00 0. -1.
       -3    1    3    3    0  502 -0.12054572402E+04 -0.58429217438E+03  0.15813078289E+04  0.20724524030E+04  0.10100000352E+00 0.  1.
</event>
<event>
 5   0  0.2473224E-07  0.3900672E+04  0.7818609E-02  0.8024889E-01
        2   -1    0    0  501    0  0.00000000000E+00  0.00000000000E+00  0.14000166781E+04  0.14000166781E+04  0.25500000920E-02 0. -1.
       -2   -1    0    0    0  501  0.00000000000E+00  0.00000000000E+00 -0.27169751959E+04  0.27169751959E+04  0.25500000920E-02 0.  1.
    10030    2    1    2    0    0  0.00000000000E+00  0.00000000000E+00 -0.13169585178E+04  0.41169918740E+04  0.39006720387E+04 0.  0.
        2    1    3    3  502    0 -0.47834079608E+03 -0.16251804104E+04  0.36143818659E+03  0.17322409896E+04  0.25500000920E-02 0. -1.
       -2    1    3    3    0  502  0.47834079608E+03  0.16251804104E+04 -0.16783967044E+04  0.23847508844E+04  0.25500000920E-02 0.  1.
</event>
<event>
 5   0  0.2486268E-07  0.3916606E+04  0.7818609E-02  0.8021584E-01
        2   -1    0    0  501    0  0.00000000000E+00  0.00000000000E+00  0.29615325265E+04  0.29615325265E+04  0.25500000920E-02 0. -1.
       -2   -1    0    0    0  501  0.00000000000E+00  0.00000000000E+00 -0.12949208256E+04  0.12949208257E+04  0.25500000920E-02 0.  1.
    10030    2    1    2    0    0  0.00000000000E+00  0.00000000000E+00  0.16666117008E+04  0.42564533521E+04  0.39166057470E+04 0.  0.
        5    1    3    3  502    0 -0.27074815918E+03 -0.95866254572E+03 -0.99898791410E+03  0.14107931758E+04  0.46999998093E+01 0.  1.
       -5    1    3    3    0  502  0.27074815918E+03  0.95866254572E+03  0.26655996149E+04  0.28456601764E+04  0.46999998093E+01 0. -1.
</event>
<event>
 5   0  0.7675750E-08  0.3291760E+04  0.7818609E-02  0.8164995E-01
       -1   -1    0    0    0  501  0.00000000000E+00  0.00000000000E+00  0.16890506752E+04  0.16890506752E+04  0.50400001928E-02 0.  1.
        1   -1    0    0  501    0  0.00000000000E+00  0.00000000000E+00 -0.16038129764E+04  0.16038129764E+04  0.50400001928E-02 0. -1.
    10030    2    1    2    0    0  0.00000000000E+00  0.00000000000E+00  0.85237698832E+02  0.32928636516E+04  0.32917602529E+04 0.  0.
        4    1    3    3  502    0 -0.18162403461E+03  0.15185175701E+04 -0.56589162022E+03  0.16306801769E+04  0.12699999809E+01 0. -1.
       -4    1    3    3    0  502  0.18162403461E+03 -0.15185175701E+04  0.65112931906E+03  0.16621834747E+04  0.12699999809E+01 0.  1.
</event>
<event>
 5   0  0.2384787E-07  0.3887048E+04  0.7818609E-02  0.8027728E-01
        2   -1    0    0  501    0  0.00000000000E+00  0.00000000000E+00  0.15182254693E+04  0.15182254693E+04  0.25500000920E-02 0.  1.
       -2   -1    0    0    0  501  0.00000000000E+00  0.00000000000E+00 -0.24879609717E+04  0.24879609717E+04  0.25500000920E-02 0. -1.
    10030    2    1    2    0    0  0.00000000000E+00  0.00000000000E+00 -0.96973550239E+03  0.40061864410E+04  0.38870480902E+04 0.  0.
        4    1    3    3  502    0  0.65537149018E+03 -0.41197558218E+03 -0.23222160797E+04  0.24478408454E+04  0.12699999809E+01 0. -1.
       -4    1    3    3    0  502 -0.65537149018E+03  0.41197558218E+03  0.13524805773E+04  0.15583455956E+04  0.12699999809E+01 0.  1.
</event>
<event>
 5   0  0.7675750E-08  0.3285550E+04  0.7818609E-02  0.8166582E-01
        1   -1    0    0  501    0  0.00000000000E+00  0.00000000000E+00  0.11639963958E+04  0.11639963959E+04  0.50400001928E-02 0.  1.
       -1   -1    0    0    0  501  0.00000000000E+00  0.00000000000E+00 -0.23184857583E+04  0.23184857583E+04  0.50400001928E-02 0. -1.
    10030    2    1    2    0    0  0.00000000000E+00  0.00000000000E+00 -0.11544893625E+04  0.34824821542E+04  0.32855496140E+04 0.  0.
        5    1    3    3  502    0 -0.18966825003E+03  0.71064667705E+02 -0.23051932191E+04  0.23140791040E+04  0.46999998093E+01 0. -1.
       -5    1    3    3    0  502  0.18966825003E+03 -0.71064667705E+02  0.11507038566E+04  0.11684030502E+04  0.46999998093E+01 0.  1.
</event>
<event>
 5   0  0.2473224E-07  0.3923755E+04  0.7818609E-02  0.8020107E-01
       -2   -1    0    0    0  501  0.00000000000E+00  0.00000000000E+00  0.17658991873E+04  0.17658991873E+04  0.25500000920E-02 0. -1.
        2   -1    0    0  501    0  0.00000000000E+00  0.00000000000E+00 -0.21796052995E+04  0.21796052995E+04  0.25500000920E-02 0.  1.
    10030    2    1    2    0    0  0.00000000000E+00  0.00000000000E+00 -0.41370611225E+03  0.39455044868E+04  0.39237549501E+04 0.  0.
        2    1    3    3  502    0  0.50372649166E+03  0.18760755369E+04  0.69558688372E+02  0.19437690732E+04  0.25500000920E-02 0.  1.
       -2    1    3    3    0  502 -0.50372649166E+03 -0.18760755369E+04 -0.48326480062E+03  0.20017354137E+04  0.25500000920E-02 0. -1.
</event>
<event>
 5   0  0.2395572E-07  0.3790801E+04  0.7818609E-02  0.8048132E-01
       -2   -1    0    0    0  501  0.00000000000E+00  0.00000000000E+00  0.15951784339E+04  0.15951784339E+04  0.25500000920E-02 0.  1.
        2   -1    0    0  501    0  0.00000000000E+00  0.00000000000E+00 -0.22521262773E+04  0.22521262773E+04  0.25500000920E-02 0. -1.
    10030    2    1    2    0    0  0.00000000000E+00  0.00000000000E+00 -0.65694784339E+03  0.38473047113E+04  0.37908011122E+04 0.  0.
        3    1    3    3  502    0 -0.69954591463E+03  0.11431160738E+03  0.14555992770E+04  0.16190123210E+04  0.10100000352E+00 0.  1.
       -3    1    3    3    0  502  0.69954591463E+03 -0.11431160738E+03 -0.21125471204E+04  0.22282923902E+04  0.10100000352E+00 0. -1.
</event>
<event>
 5   0  0.7675750E-08  0.3963692E+04  0.7818609E-02  0.8011911E-01
        1   -1    0    0  501    0  0.00000000000E+00  0.00000000000E+00  0.14447438816E+04  0.14447438816E+04  0.50400001928E-02 0.  1.
       -1   -1    0    0    0  501  0.00000000000E+00  0.00000000000E+00 -0.27186232605E+04  0.27186232605E+04  0.50400001928E-02 0. -1.
    10030    2    1    2    0    0  0.00000000000E+00  0.00000000000E+00 -0.12738793789E+04  0.41633671421E+04  0.39636923806E+04 0.  0.
        2    1    3    3  502    0 -0.10670600568E+04 -0.66873161168E+02 -0.23897226321E+04  0.26179884344E+04  0.25500000920E-02 0. -1.
       -2    1    3    3    0  502  0.10670600568E+04  0.66873161168E+02  0.11158432532E+04  0.15453787077E+04  0.25500000920E-02 0.  1.
</event>
<event>
 5   0  0.7675750E-08  0.3880064E+04  0.7818609E-02  0.8029188E-01
       -1   -1    0    0    0  501  0.00000000000E+00  0.00000000000E+00  0.14698278737E+04  0.14698278737E+04  0.50400001928E-02 0. -1.
        1   -1    0    0  501    0  0.00000000000E+00  0.00000000000E+00 -0.25606557618E+04  0.25606557618E+04  0.50400001928E-02 0.  1.
    10030    2    1    2    0    0  0.00000000000E+00  0.00000000000E+00 -0.10908278881E+04  0.40304836355E+04  0.38800635116E+04 0.  0.
        5    1    3    3  502    0 -0.73091744387E+03  0.27070925460E+03 -0.23908500978E+04  0.25146988071E+04  0.46999998093E+01 0.  1.
       -5    1    3    3    0  502  0.73091744387E+03 -0.27070925460E+03  0.13000222097E+04  0.15157848284E+04  0.46999998093E+01 0. -1.
</event>
<event>
 5   0  0.2395572E-07  0.3890479E+04  0.7818609E-02  0.8027012E-01
       -2   -1    0    0    0  501  0.00000000000E+00  0.00000000000E+00  0.26941077408E+04  0.26941077408E+04  0.25500000920E-02 0.  1.
        2   -1    0    0  501    0  0.00000000000E+00  0.00000000000E+00 -0.14045308091E+04  0.14045308091E+04  0.25500000920E-02 0. -1.
    10030    2    1    2    0    0  0.00000000000E+00  0.00000000000E+00  0.12895769317E+04  0.40986385500E+04  0.38904793150E+04 0.  0.
        3    1    3    3  502    0 -0.12866949795E+04  0.82018212922E+03 -0.62627918204E+03  0.16493963500E+04  0.10100000352E+00 0. -1.
       -3    1    3    3    0  502  0.12866949795E+04 -0.82018212922E+03  0.19158561137E+04  0.24492422000E+04  0.10100000352E+00 0.  1.
</event>
<event>
 5   0  0.2395572E-07  0.3878351E+04  0.7818609E-02  0.8029547E-01
        2   -1    0    0  501    0  0.00000000000E+00  0.00000000000E+00  0.19143704542E+04  0.19143704542E+04  0.25500000920E-02 0.  1.
       -2   -1    0    0    0  501  0.00000000000E+00  0.00000000000E+00 -0.19643023909E+04  0.19643023909E+04  0.25500000920E-02 0. -1.
    10030    2    1    2    0    0  0.00000000000E+00  0.00000000000E+00 -0.49931936751E+02  0.38786728451E+04  0.38783514334E+04 0.  0.
        3    1    3    3  502    0 -0.10811591242E+04  0.36798019164E+03  0.15423550204E+04  0.19191595797E+04  0.10100000352E+00 0.  1.
       -3    1    3    3    0  502  0.10811591242E+04 -0.36798019164E+03 -0.15922869571E+04  0.19595132654E+04  0.10100000352E+00 0. -1.
</event>
<event>
 5   0  0.2473224E-07  0.3911446E+04  0.7818609E-02  0.8022653E-01
       -2   -1    0    0    0  501  0.00000000000E+00  0.00000000000E+00  0.21056250574E+04  0.21056250574E+04  0.25500000920E-02 0. -1.
        2   -1    0    0  501    0  0.00000000000E+00  0.00000000000E+00 -0.18164929412E+04  0.18164929412E+04  0.25500000920E-02 0.  1.
    10030    2    1    2    0    0  0.00000000000E+00  0.00000000000E+00  0.28913211619E+03  0.39221179986E+04  0.39114463072E+04 0.  0.
        2    1    3    3  502    0  0.10589241658E+04  0.15682999792E+04  0.63984466909E+03  0.19975701275E+04  0.25500000920E-02 0. -1.
       -2    1    3    3    0  502 -0.10589241658E+04 -0.15682999792E+04 -0.35071255290E+03  0.19245478711E+04  0.25500000920E-02 0.  1.
</event>
<event>
 5   0  0.7675750E-08  0.3912166E+04  0.7818609E-02  0.8022504E-01
       -1   -1    0    0    0  501  0.00000000000E+00  0.00000000000E+00  0.13314822553E+04  0.13314822553E+04  0.50400001928E-02 0.  1.
        1   -1    0    0  501    0  0.00000000000E+00  0.00000000000E+00 -0.28736844943E+04  0.28736844943E+04  0.50400001928E-02 0. -1.
    10030    2    1    2    0    0  0.00000000000E+00  0.00000000000E+00 -0.15422022389E+04  0.42051667496E+04  0.39121655954E+04 0.  0.
        1    1    3    3  502    0 -0.26063391505E+03  0.17722747486E+04 -0.16156785820E+04  0.24123235899E+04  0.50400001928E-02 0. -1.
       -1    1    3    3    0  502  0.26063391505E+03 -0.17722747486E+04  0.73476343069E+02  0.17928431597E+04  0.50400001928E-02 0.  1.
</event>
<event>
 5   0  0.2384787E-07  0.4101167E+04  0.7818609E-02  0.7984443E-01
        2   -1    0    0  501    0  0.00000000000E+00  0.00000000000E+00  0.25368412394E+04  0.25368412394E+04  0.25500000920E-02 0. -1.
       -2   -1    0    0    0  501  0.00000000000E+00  0.00000000000E+00 -0.16575310138E+04  0.16575310138E+04  0.25500000920E-02 0.  1.
    10030    2    1    2    0    0  0.00000000000E+00  0.00000000000E+00  0.87931022563E+03  0.41943722531E+04  0.41011671662E+04 0.  0.
        4    1    3    3  502    0 -0.14851949787E+04  0.44568366715E+03  0.18119594568E+04  0.23848766723E+04  0.12699999809E+01 0. -1.
       -4    1    3    3    0  502  0.14851949787E+04 -0.44568366715E+03 -0.93264923112E+03  0.18094955809E+04  0.12699999809E+01 0.  1.
</event>
<event>
 5   0  0.2395572E-07  0.3919368E+04  0.7818609E-02  0.8021013E-01
       -2   -1    0    0    0  501  0.00000000000E+00  0.00000000000E+00  0.15342447987E+04  0.15342447987E+04  0.25500000920E-02 0.  1.
        2   -1    0    0  501    0  0.00000000000E+00  0.00000000000E+00 -0.25030954221E+04  0.25030954221E+04  0.25500000920E-02 0. -1.
    10030    2    1    2    0    0  0.00000000000E+00  0.00000000000E+00 -0.96885062346E+03  0.40373402208E+04  0.39193678735E+04 0.  0.
        3    1    3    3  502    0  0.24181765498E+03 -0.17118335301E+04  0.46612373333E+03  0.17905644803E+04  0.10100000352E+00 0.  1.
       -3    1    3    3    0  502 -0.24181765498E+03  0.17118335301E+04 -0.14349743568E+04  0.22467757405E+04  0.10100000352E+00 0. -1.
</event>
<event>
 5   0  0.7675750E-08  0.3340569E+04  0.7818609E-02  0.8152649E-01
       -1   -1    0    0    0  501  0.00000000000E+00  0.00000000000E+00  0.96670596139E+03  0.96670596140E+03  0.50400001928E-02 0. -1.
        1   -1    0    0  501    0  0.00000000000E+00  0.00000000000E+00 -0.28859343173E+04  0.28859343173E+04  0.50400001928E-02 0.  1.
    10030    2    1    2    0    0  0.00000000000E+00  0.00000000000E+00 -0.19192283559E+04  0.38526402787E+04  0.33405687592E+04 0.  0.
        2    1    3    3  502    0 -0.61105980684E+03  0.11122230924E+04 -0.22120961458E+04  0.25502556055E+04  0.25500000920E-02 0.  1.
       -2    1    3    3    0  502  0.61105980684E+03 -0.11122230924E+04  0.29286778991E+03  0.13023846733E+04  0.25500000920E-02 0. -1.
</event>
<event>
 5   0  0.7675750E-08  0.3435071E+04  0.7818609E-02  0.8129352E-01
        1   -1    0    0  501    0  0.00000000000E+00  0.00000000000E+00  0.19076718948E+04  0.19076718948E+04  0.50400001928E-02 0.  1.
       -1   -1    0    0    0  501  0.00000000000E+00  0.00000000000E+00 -0.15463499078E+04  0.15463499078E+04  0.50400001928E-02 0. -1.
    10030    2    1    2    0    0  0.00000000000E+00  0.00000000000E+00  0.36132198695E+03  0.34540218026E+04  0.34350710378E+04 0.  0.
        1    1    3    3  502    0 -0.60268585744E+03 -0.59045139959E+03 -0.13236087324E+04  0.15696506537E+04  0.50400001928E-02 0. -1.
       -1    1    3    3    0  502  0.60268585744E+03  0.59045139959E+03  0.16849307194E+04  0.18843711490E+04  0.50400001928E-02 0.  1.
</event>
<event>
 5   0  0.2446281E-07  0.3912197E+04  0.7818609E-02  0.8022497E-01
       -2   -1    0    0    0  501  0.00000000000E+00  0.00000000000E+00  0.23570879213E+04  0.23570879213E+04  0.25500000920E-02 0. -1.
        2   -1    0    0  501    0  0.00000000000E+00  0.00000000000E+00 -0.16233257309E+04  0.16233257309E+04  0.25500000920E-02 0.  1.
    10030    2    1    2    0    0  0.00000000000E+00  0.00000000000E+00  0.73376219038E+03  0.39804136522E+04  0.39121970670E+04 0.  0.
        1    1    3    3  502    0  0.18387641852E+04  0.57780016981E+03  0.70648974785E+03  0.20528113719E+04  0.50400001928E-02 0. -1.
       -1    1    3    3    0  502 -0.18387641852E+04 -0.57780016981E+03  0.27272442535E+02  0.19276022803E+04  0.50400001928E-02 0.  1.
</event>
<event>
 5   0  0.7675750E-08  0.3966295E+04  0.7818609E-02  0.8011381E-01
       -1   -1    0    0    0  501  0.00000000000E+00  0.00000000000E+00  0.13656034669E+04  0.13656034669E+04  0.50400001928E-02 0.  1.
        1   -1    0    0  501    0  0.00000000000E+00  0.00000000000E+00 -0.28799533034E+04  0.28799533034E+04  0.50400001928E-02 0. -1.
    10030    2    1    2    0    0  0.00000000000E+00  0.00000000000E+00 -0.15143498364E+04  0.42455567703E+04  0.39662951054E+04 0.  0.
        5    1    3    3  502    0  0.13533309731E+04  0.11738324869E+03  0.78939658571E+03  0.15711309969E+04  0.46999998093E+01 0.  1.
       -5    1    3    3    0  502 -0.13533309731E+04 -0.11738324869E+03 -0.23037464222E+04  0.26744257734E+04  0.46999998093E+01 0. -1.
</event>
<event>
 5   0  0.7675750E-08  0.3880589E+04  0.7818609E-02  0.8029079E-01
       -1   -1    0    0    0  501  0.00000000000E+00  0.00000000000E+00  0.21700795166E+04  0.21700795166E+04  0.50400001928E-02 0.  1.
        1   -1    0    0  501    0  0.00000000000E+00  0.00000000000E+00 -0.17348406504E+04  0.17348406504E+04  0.50400001928E-02 0. -1.
    10030    2    1    2    0    0  0.00000000000E+00  0.00000000000E+00  0.43523886624E+03  0.39049201670E+04  0.38805886976E+04 0.  0.
        1    1    3    3  502    0 -0.69810530637E+03 -0.23597565573E+03  0.20237849252E+04  0.21537736539E+04  0.50400001928E-02 0.  1.
       -1    1    3    3    0  502  0.69810530637E+03  0.23597565573E+03 -0.15885460590E+04  0.17511465131E+04  0.50400001928E-02 0. -1.
</event>
<event>
 5   0  0.2395572E-07  0.3911479E+04  0.7818609E-02  0.8022646E-01
       -2   -1    0    0    0  501  0.00000000000E+00  0.00000000000E+00  0.22163526614E+04  0.22163526614E+04  0.25500000920E-02 0.  1.
        2   -1    0    0  501    0  0.00000000000E+00  0.00000000000E+00 -0.17257710971E+04  0.17257710971E+04  0.25500000920E-02 0. -1.
    10030    2    1    2    0    0  0.00000000000E+00  0.00000000000E+00  0.49058156428E+03  0.39421237585E+04  0.39114791903E+04 0.  0.
        3    1    3    3  502    0 -0.73107321179E+03  0.84256683304E+03 -0.13736975687E+04  0.17695852422E+04  0.10100000352E+00 0. -1.
       -3    1    3    3    0  502  0.73107321179E+03 -0.84256683304E+03  0.18642791329E+04  0.21725385163E+04  0.10100000352E+00 0.  1.
</event>
<event>
 5   0  0.7675750E-08  0.3860281E+04  0.7818609E-02  0.8033341E-01
       -1   -1    0    0    0  501  0.00000000000E+00  0.00000000000E+00  0.15294740511E+04  0.15294740511E+04  0.50400001928E-02 0. -1.
        1   -1    0    0  501    0  0.00000000000E+00  0.00000000000E+00 -0.24357673595E+04  0.24357673595E+04  0.50400001928E-02 0.  1.
    10030    2    1    2    0    0  0.00000000000E+00  0.00000000000E+00 -0.90629330836E+03  0.39652414106E+04  0.38602813218E+04 0.  0.
        1    1    3    3  502    0 -0.27727210520E+00  0.11910543686E+04 -0.20132691441E+04  0.23392014091E+04  0.50400001928E-02 0.  1.
       -1    1    3    3    0  502  0.27727210520E+00 -0.11910543686E+04  0.11069758357E+04  0.16260400015E+04  0.50400001928E-02 0. -1.
</event>
<event>
 5   0  0.7675750E-08  0.3890381E+04  0.7818609E-02  0.8027033E-01
        1   -1    0    0  501    0  0.00000000000E+00  0.00000000000E+00  0.20026841070E+04  0.20026841070E+04  0.50400001928E-02 0. -1.
       -1   -1    0    0    0  501  0.00000000000E+00  0.00000000000E+00 -0.18893471439E+04  0.18893471439E+04  0.50400001928E-02 0.  1.
    10030    2    1    2    0    0  0.00000000000E+00  0.00000000000E+00  0.11333696305E+03  0.38920312509E+04  0.38903807000E+04 0.  0.
        1    1    3    3  502    0  0.10834511791E+04  0.89352336962E+03 -0.12898278897E+04  0.19068053007E+04  0.50400001928E-02 0.  1.
       -1    1    3    3    0  502 -0.10834511791E+04 -0.89352336962E+03  0.14031648528E+04  0.19852259503E+04  0.50400001928E-02 0. -1.
</event>
<event>
 5   0  0.7675750E-08  0.3856290E+04  0.7818609E-02  0.8034182E-01
       -1   -1    0    0    0  501  0.00000000000E+00  0.00000000000E+00  0.21183410858E+04  0.21183410859E+04  0.50400001928E-02 0.  1.
        1   -1    0    0  501    0  0.00000000000E+00  0.00000000000E+00 -0.17550260644E+04  0.17550260644E+04  0.50400001928E-02 0. -1.
    10030    2    1    2    0    0  0.00000000000E+00  0.00000000000E+00  0.36331502149E+03  0.38733671502E+04  0.38562903516E+04 0.  0.
        2    1    3    3  502    0 -0.81749290463E+03  0.17444224008E+04  0.26226034507E+03  0.19442439791E+04  0.25500000920E-02 0. -1.
       -2    1    3    3    0  502  0.81749290463E+03 -0.17444224008E+04  0.10105467643E+03  0.19291231711E+04  0.25500000920E-02 0.  1.
</event>
<event>
 5   0  0.2446281E-07  0.3816889E+04  0.7818609E-02  0.8042540E-01
        2   -1    0    0  501    0  0.00000000000E+00  0.00000000000E+00  0.22020135132E+04  0.22020135132E+04  0.25500000920E-02 0.  1.
       -2   -1    0    0    0  501  0.00000000000E+00  0.00000000000E+00 -0.16540137833E+04  0.16540137833E+04  0.25500000920E-02 0. -1.
    10030    2    1    2    0    0  0.00000000000E+00  0.00000000000E+00  0.54799972991E+03  0.38560272964E+04  0.38168891531E+04 0.  0.
        1    1    3    3  502    0 -0.12324223619E+04  0.37742911838E+03 -0.11478560488E+04  0.17259464436E+04  0.50400001928E-02 0. -1.
       -1    1    3    3    0  502  0.12324223619E+04 -0.37742911838E+03  0.16958557787E+04  0.21300808528E+04  0.50400001928E-02 0.  1.
</event>
<event>
 5   0  0.2395572E-07  0.3902246E+04  0.7818609E-02  0.8024562E-01
        2   -1    0    0  501    0  0.00000000000E+00  0.00000000000E+00  0.25775740345E+04  0.25775740345E+04  0.25500000920E-02 0.  1.
       -2   -1    0    0    0  501  0.00000000000E+00  0.00000000000E+00 -0.14769239720E+04  0.14769239720E+04  0.25500000920E-02 0. -1.
    10030    2    1    2    0    0  0.00000000000E+00  0.00000000000E+00  0.11006500625E+04  0.40544980065E+04  0.39022459590E+04 0.  0.
        3    1    3    3  502    0  0.80530876100E+03 -0.69158081184E+03  0.22512920671E+04  0.24890002413E+04  0.10100000352E+00 0.  1.
       -3    1    3    3    0  502 -0.80530876100E+03  0.69158081184E+03 -0.11506420045E+04  0.15654977651E+04  0.10100000352E+00 0. -1.
</event>
<event>
 5   0  0.2473224E-07  0.3930176E+04  0.7818609E-02  0.8018782E-01
       -2   -1    0    0    0  501  0.00000000000E+00  0.00000000000E+00  0.15947432565E+04  0.15947432565E+04  0.25500000920E-02 0. -1.
        2   -1    0    0  501    0  0.00000000000E+00  0.00000000000E+00 -0.24214376236E+04  0.24214376236E+04  0.25500000920E-02 0.  1.
    10030    2    1    2    0    0  0.00000000000E+00  0.00000000000E+00 -0.82669436707E+03  0.40161808801E+04  0.39301762410E+04 0.  0.
        2    1    3    3  502    0  0.50282072580E+03 -0.20556142633E+03  0.15164939970E+04  0.16108501561E+04  0.25500000920E-02 0. -1.
       -2    1    3    3    0  502 -0.50282072580E+03  0.20556142633E+03 -0.23431883641E+04  0.24053307240E+04  0.25500000920E-02 0.  1.
</event>
<event>
 5   0  0.2384787E-07  0.3922336E+04  0.7818609E-02  0.8020400E-01
       -2   -1    0    0    0  501  0.00000000000E+00  0.00000000000E+00  0.29327025456E+04  0.29327025456E+04  0.25500000920E-02 0. -1.
        2   -1    0    0  501    0  0.00000000000E+00  0.00000000000E+00 -0.13114796778E+04  0.13114796778E+04  0.25500000920E-02 0.  1.
    10030    2    1    2    0    0  0.00000000000E+00  0.00000000000E+00  0.16212228678E+04  0.42441822233E+04  0.39223359313E+04 0.  0.
        4    1    3    3  502    0 -0.75062808363E+03  0.10470385330E+04  0.24106063777E+04  0.27332685434E+04  0.12699999809E+01 0. -1.
       -4    1    3    3    0  502  0.75062808363E+03 -0.10470385330E+04 -0.78938350992E+03  0.15109136799E+04  0.12699999809E+01 0.  1.
</event>
<event>
 5   0  0.2395572E-07  0.3931042E+04  0.7818609E-02  0.8018604E-01
        2   -1    0    0  501    0  0.00000000000E+00  0.00000000000E+00  0.21582592913E+04  0.21582592913E+04  0.25500000920E-02 0. -1.
       -2   -1    0    0    0  501  0.00000000000E+00  0.00000000000E+00 -0.17899944747E+04  0.17899944747E+04  0.25500000920E-02 0.  1.
    10030    2    1    2    0    0  0.00000000000E+00  0.00000000000E+00  0.36826481652E+03  0.39482537660E+04  0.39310416973E+04 0.  0.
        3    1    3    3  502    0 -0.13718590336E+04 -0.49345545812E+03  0.15081519426E+04  0.20976219367E+04  0.10100000352E+00 0. -1.
       -3    1    3    3    0  502  0.13718590336E+04  0.49345545812E+03 -0.11398871260E+04  0.18506318293E+04  0.10100000352E+00 0.  1.
</event>
<event>
 5   0  0.7731706E-08  0.3921126E+04  0.7818609E-02  0.8020650E-01
        1   -1    0    0  501    0  0.00000000000E+00  0.00000000000E+00  0.26927246111E+04  0.26927246111E+04  0.50400001928E-02 0. -1.
       -1   -1    0    0    0  501  0.00000000000E+00  0.00000000000E+00 -0.14274786345E+04  0.14274786345E+04  0.50400001928E-02 0.  1.
    10030    2    1    2    0    0  0.00000000000E+00  0.00000000000E+00  0.12652459766E+04  0.41202032455E+04  0.39211257826E+04 0.  0.
        3    1    3    3  502    0 -0.16462843408E+03  0.47430463980E+02 -0.14195978593E+04  0.14298986896E+04  0.10100000352E+00 0.  1.
       -3    1    3    3    0  502  0.16462843408E+03 -0.47430463980E+02  0.26848438359E+04  0.26903045559E+04  0.10100000352E+00 0. -1.
</event>
<event>
 5   0  0.2384787E-07  0.3968388E+04  0.7818609E-02  0.8010954E-01
       -2   -1    0    0    0  501  0.00000000000E+00  0.00000000000E+00  0.15671784115E+04  0.15671784115E+04  0.25500000920E-02 0.  1.
        2   -1    0    0  501    0  0.00000000000E+00  0.00000000000E+00 -0.25121751472E+04  0.25121751472E+04  0.25500000920E-02 0. -1.
    10030    2    1    2    0    0  0.00000000000E+00  0.00000000000E+00 -0.94499673571E+03  0.40793535587E+04  0.39683884167E+04 0.  0.
        4    1    3    3  502    0 -0.74703054876E+03 -0.15323967152E+04 -0.15161361230E+04  0.22814391708E+04  0.12699999809E+01 0. -1.
       -4    1    3    3    0  502  0.74703054876E+03  0.15323967152E+04  0.57113938733E+03  0.17979143879E+04  0.12699999809E+01 0.  1.
</event>
<event>
 5   0  0.2473224E-07  0.3930562E+04  0.7818609E-02  0.8018703E-01
       -2   -1    0    0    0  501  0.00000000000E+00  0.00000000000E+00  0.20025959881E+04  0.20025959881E+04  0.25500000920E-02 0. -1.
        2   -1    0    0  501    0  0.00000000000E+00  0.00000000000E+00 -0.19286611424E+04  0.19286611424E+04  0.25500000920E-02 0.  1.
    10030    2    1    2    0    0  0.00000000000E+00  0.00000000000E+00  0.73934845737E+02  0.39312571305E+04  0.39305618256E+04 0.  0.
        2    1    3    3  502    0  0.17644517060E+04 -0.30828079217E+03  0.84581450320E+03  0.19808404891E+04  0.25500000920E-02 0.  1.
       -2    1    3    3    0  502 -0.17644517060E+04  0.30828079217E+03 -0.77187965746E+03  0.19504166414E+04  0.25500000920E-02 0. -1.
</event>
<event>
 5   0  0.7675750E-08  0.3934996E+04  0.7818609E-02  0.8017790E-01
       -1   -1    0    0    0  501  0.00000000000E+00  0.00000000000E+00  0.34726780761E+04  0.34726780762E+04  0.50400001928E-02 0.  1.
        1   -1    0    0  501    0  0.00000000000E+00  0.00000000000E+00 -0.11147155884E+04  0.11147155884E+04  0.50400001928E-02 0. -1.
    10030    2    1    2    0    0  0.00000000000E+00  0.00000000000E+00  0.23579624877E+04  0.45873936646E+04  0.39349960026E+04 0.  0.
        2    1    3    3  502    0  0.85966100702E+03  0.51770240799E+03 -0.79393841878E+03  0.12795980006E+04  0.25500000920E-02 0. -1.
       -2    1    3    3    0  502 -0.85966100702E+03 -0.51770240799E+03  0.31519009065E+04  0.33077956640E+04  0.25500000920E-02 0.  1.
</event>
<event>
 5   0  0.7675750E-08  0.3987214E+04  0.7818609E-02  0.8007131E-01
       -1   -1    0    0    0  501  0.00000000000E+00  0.00000000000E+00  0.16075374387E+04  0.16075374387E+04  0.50400001928E-02 0. -1.
        1   -1    0    0  501    0  0.00000000000E+00  0.00000000000E+00 -0.24723955702E+04  0.24723955702E+04  0.50400001928E-02 0.  1.
    10030    2    1    2    0    0  0.00000000000E+00  0.00000000000E+00 -0.86485813150E+03  0.40799330089E+04  0.39872137852E+04 0.  0.
        2    1    3    3  502    0 -0.19632070020E+04  0.45789293159E+02 -0.80646778308E+02  0.19653962183E+04  0.25500000920E-02 0. -1.
       -2    1    3    3    0  502  0.19632070020E+04 -0.45789293159E+02 -0.78421135319E+03  0.21145367906E+04  0.25500000920E-02 0.  1.
</event>
<event>
 5   0  0.2446281E-07  0.3936284E+04  0.7818609E-02  0.8017525E-01
        2   -1    0    0  501    0  0.00000000000E+00  0.00000000000E+00  0.19049196483E+04  0.19049196483E+04  0.25500000920E-02 0. -1.
       -2   -1    0    0    0  501  0.00000000000E+00  0.00000000000E+00 -0.20334623865E+04  0.20334623865E+04  0.25500000920E-02 0.  1.
    10030    2    1    2    0    0  0.00000000000E+00  0.00000000000E+00 -0.12854273819E+03  0.39383820349E+04  0.39362837572E+04 0.  0.
        1    1    3    3  502    0  0.35211125201E+03  0.10332675875E+04  0.15742701371E+04  0.19157115403E+04  0.50400001928E-02 0. -1.
       -1    1    3    3    0  502 -0.35211125201E+03 -0.10332675875E+04 -0.17028128753E+04  0.20226704945E+04  0.50400001928E-02 0.  1.
</event>
<event>
 5   0  0.7675750E-08  0.3179825E+04  0.7818609E-02  0.8194166E-01
       -1   -1    0    0    0  501  0.00000000000E+00  0.00000000000E+00  0.15393984818E+04  0.15393984818E+04  0.50400001928E-02 0.  1.
        1   -1    0    0  501    0  0.00000000000E+00  0.00000000000E+00 -0.16420838681E+04  0.16420838681E+04  0.50400001928E-02 0. -1.
    10030    2    1    2    0    0  0.00000000000E+00  0.00000000000E+00 -0.10268538635E+03  0.31814823499E+04  0.31798247835E+04 0.  0.
        1    1    3    3  502    0 -0.16152805848E+03  0.24349398743E+03  0.15123029870E+04  0.15402730148E+04  0.50400001928E-02 0.  1.
       -1    1    3    3    0  502  0.16152805848E+03 -0.24349398743E+03 -0.16149883733E+04  0.16412093351E+04  0.50400001928E-02 0. -1.
</event>
<event>
 5   0  0.7675750E-08  0.4393406E+04  0.7818609E-02  0.7929569E-01
       -1   -1    0    0    0  501  0.00000000000E+00  0.00000000000E+00  0.29649017322E+04  0.29649017322E+04  0.50400001928E-02 0.  1.
        1   -1    0    0  501    0  0.00000000000E+00  0.00000000000E+00 -0.16275424700E+04  0.16275424700E+04  0.50400001928E-02 0. -1.
    10030    2    1    2    0    0  0.00000000000E+00  0.00000000000E+00  0.13373592622E+04  0.45924442021E+04  0.43934057351E+04 0.  0.
        5    1    3    3  502    0  0.54441180138E+03 -0.41565763254E+03 -0.15130591826E+04  0.16608809882E+04  0.46999998093E+01 0. -1.
       -5    1    3    3    0  502 -0.54441180138E+03  0.41565763254E+03  0.28504184448E+04  0.29315632139E+04  0.46999998093E+01 0.  1.
</event>
<event>
 5   0  0.7675750E-08  0.3327466E+04  0.7818609E-02  0.8155942E-01
        1   -1    0    0  501    0  0.00000000000E+00  0.00000000000E+00  0.18086066996E+04  0.18086066996E+04  0.50400001928E-02 0. -1.
       -1   -1    0    0    0  501  0.00000000000E+00  0.00000000000E+00 -0.15304638100E+04  0.15304638100E+04  0.50400001928E-02 0.  1.
    10030    2    1    2    0    0  0.00000000000E+00  0.00000000000E+00  0.27814288959E+03  0.33390705097E+04  0.33274657626E+04 0.  0.
        1    1    3    3  502    0  0.11455404438E+04  0.84322534224E+03  0.10050499404E+04  0.17416708268E+04  0.50400001928E-02 0. -1.
       -1    1    3    3    0  502 -0.11455404438E+04 -0.84322534224E+03 -0.72690705083E+03  0.15973996829E+04  0.50400001928E-02 0.  1.
</event>
<event>
 5   0  0.7731706E-08  0.3742177E+04  0.7818609E-02  0.8058679E-01
        1   -1    0    0  501    0  0.00000000000E+00  0.00000000000E+00  0.27988286554E+04  0.27988286554E+04  0.50400001928E-02 0. -1.
       -1   -1    0    0    0  501  0.00000000000E+00  0.00000000000E+00 -0.12508704739E+04  0.12508704739E+04  0.50400001928E-02 0.  1.
    10030    2    1    2    0    0  0.00000000000E+00  0.00000000000E+00  0.15479581816E+04  0.40496991293E+04  0.37421769742E+04 0.  0.
        3    1    3    3  502    0 -0.53304017181E+03  0.15176765767E+04  0.18082927515E+04  0.24202059214E+04  0.10100000352E+00 0. -1.
       -3    1    3    3    0  502  0.53304017181E+03 -0.15176765767E+04 -0.26033456999E+03  0.16294932080E+04  0.10100000352E+00 0.  1.
</event>
<event>
 5   0  0.2395572E-07  0.4040790E+04  0.7818609E-02  0.7996368E-01
        2   -1    0    0  501    0  0.00000000000E+00  0.00000000000E+00  0.21013811542E+04  0.21013811542E+04  0.25500000920E-02 0. -1.
       -2   -1    0    0    0  501  0.00000000000E+00  0.00000000000E+00 -0.19425301085E+04  0.19425301085E+04  0.25500000920E-02 0.  1.
    10030    2    1    2    0    0  0.00000000000E+00  0.00000000000E+00  0.15885104568E+03  0.40439112627E+04  0.40407901017E+04 0.  0.
        3    1    3    3  502    0 -0.10401281683E+04 -0.15918852571E+04 -0.60376631561E+03  0.19951188066E+04  0.10100000352E+00 0.  1.
       -3    1    3    3    0  502  0.10401281683E+04  0.15918852571E+04  0.76261736130E+03  0.20487924561E+04  0.10100000352E+00 0. -1.
</event>
<event>
 5   0  0.2446281E-07  0.3776980E+04  0.7818609E-02  0.8051113E-01
       -2   -1    0    0    0  501  0.00000000000E+00  0.00000000000E+00  0.14316386584E+04  0.14316386584E+04  0.25500000920E-02 0.  1.
        2   -1    0    0  501    0  0.00000000000E+00  0.00000000000E+00 -0.24911281102E+04  0.24911281102E+04  0.25500000920E-02 0. -1.
    10030    2    1    2    0    0  0.00000000000E+00  0.00000000000E+00 -0.10594894518E+04  0.39227667685E+04  0.37769804370E+04 0.  0.
        1    1    3    3  502    0 -0.14732174348E+04  0.66947759528E+02 -0.17549142231E+04  0.22922860954E+04  0.50400001928E-02 0. -1.
       -1    1    3    3    0  502  0.14732174348E+04 -0.66947759528E+02  0.69542477132E+03  0.16304806731E+04  0.50400001928E-02 0.  1.
</event>
<event>
 5   0  0.2384787E-07  0.3772200E+04  0.7818609E-02  0.8052147E-01
        2   -1    0    0  501    0  0.00000000000E+00  0.00000000000E+00  0.21811507861E+04  0.21811507861E+04  0.25500000920E-02 0. -1.
       -2   -1    0    0    0  501  0.00000000000E+00  0.00000000000E+00 -0.16309614177E+04  0.16309614177E+04  0.25500000920E-02 0.  1.
    10030    2    1    2    0    0  0.00000000000E+00  0.00000000000E+00  0.55018936838E+03  0.38121122037E+04  0.37721997710E+04 0.  0.
        4    1    3    3  502    0 -0.13312492914E+04 -0.12366485225E+04  0.78625965912E+03  0.19798308282E+04  0.12699999809E+01 0.  1.
       -4    1    3    3    0  502  0.13312492914E+04  0.12366485225E+04 -0.23607029074E+03  0.18322813755E+04  0.12699999809E+01 0. -1.
</event>
<event>
 5   0  0.7675750E-08  0.4001721E+04  0.7818609E-02  0.8004199E-01
       -1   -1    0    0    0  501  0.00000000000E+00  0.00000000000E+00  0.13901235161E+04  0.13901235161E+04  0.50400001928E-02 0. -1.
        1   -1    0    0  501    0  0.00000000000E+00  0.00000000000E+00 -0.28799192705E+04  0.28799192705E+04  0.50400001928E-02 0.  1.
    10030    2    1    2    0    0  0.00000000000E+00  0.00000000000E+00 -0.14897957544E+04  0.42700427867E+04  0.40017213809E+04 0.  0.
        2    1    3    3  502    0  0.13050028581E+04 -0.64423324513E+03  0.72025924792E+03  0.16238356808E+04  0.25500000920E-02 0. -1.
       -2    1    3    3    0  502 -0.13050028581E+04  0.64423324513E+03 -0.22100550023E+04  0.26462071059E+04  0.25500000920E-02 0.  1.
</event>
<event>
 5   0  0.2486268E-07  0.3849289E+04  0.7818609E-02  0.8035660E-01
        2   -1    0    0  501    0  0.00000000000E+00  0.00000000000E+00  0.19862228347E+04  0.19862228347E+04  0.25500000920E-02 0.  1.
       -2   -1    0    0    0  501  0.00000000000E+00  0.00000000000E+00 -0.18649749770E+04  0.18649749770E+04  0.25500000920E-02 0. -1.
    10030    2    1    2    0    0  0.00000000000E+00  0.00000000000E+00  0.12124785770E+03  0.38511978117E+04  0.38492887060E+04 0.  0.
        5    1    3    3  502    0  0.16020456614E+04  0.10515194349E+04  0.23957116236E+03  0.19312327294E+04  0.46999998093E+01 0. -1.
       -5    1    3    3    0  502 -0.16020456614E+04 -0.10515194349E+04 -0.11832330466E+03  0.19199650824E+04  0.46999998093E+01 0.  1.
</event>
<event>
 5   0  0.2486268E-07  0.3854946E+04  0.7818609E-02  0.8034465E-01
        2   -1    0    0  501    0  0.00000000000E+00  0.00000000000E+00  0.32640045824E+04  0.32640045824E+04  0.25500000920E-02 0.  1.
       -2   -1    0    0    0  501  0.00000000000E+00  0.00000000000E+00 -0.11382191272E+04  0.11382191272E+04  0.25500000920E-02 0. -1.
    10030    2    1    2    0    0  0.00000000000E+00  0.00000000000E+00  0.21257854552E+04  0.44022237096E+04  0.38549461459E+04 0.  0.
        5    1    3    3  502    0  0.13556129801E+04  0.13550357014E+04  0.83075552928E+03  0.20890153526E+04  0.46999998093E+01 0.  1.
       -5    1    3    3    0  502 -0.13556129801E+04 -0.13550357014E+04  0.12950299260E+04  0.23132083570E+04  0.46999998093E+01 0. -1.
</event>
<event>
 5   0  0.2395572E-07  0.3894661E+04  0.7818609E-02  0.8026141E-01
       -2   -1    0    0    0  501  0.00000000000E+00  0.00000000000E+00  0.24845219461E+04  0.24845219461E+04  0.25500000920E-02 0.  1.
        2   -1    0    0  501    0  0.00000000000E+00  0.00000000000E+00 -0.15262878629E+04  0.15262878629E+04  0.25500000920E-02 0. -1.
    10030    2    1    2    0    0  0.00000000000E+00  0.00000000000E+00  0.95823408321E+03  0.40108098090E+04  0.38946608024E+04 0.  0.
        3    1    3    3  502    0  0.65224753746E+03 -0.12872031431E+04  0.18256970150E+04  0.23271201909E+04  0.10100000352E+00 0.  1.
       -3    1    3    3    0  502 -0.65224753746E+03  0.12872031431E+04 -0.86746293181E+03  0.16836896181E+04  0.10100000352E+00 0. -1.
</event>
<event>
 5   0  0.2486268E-07  0.3894534E+04  0.7818609E-02  0.8026167E-01
        2   -1    0    0  501    0  0.00000000000E+00  0.00000000000E+00  0.27641814546E+04  0.27641814546E+04  0.25500000920E-02 0.  1.
       -2   -1    0    0    0  501  0.00000000000E+00  0.00000000000E+00 -0.13717802348E+04  0.13717802348E+04  0.25500000920E-02 0. -1.
    10030    2    1    2    0    0  0.00000000000E+00  0.00000000000E+00  0.13924012198E+04  0.41359616894E+04  0.38945343675E+04 0.  0.
        5    1    3    3  502    0 -0.13185307392E+04  0.72541381123E+03 -0.61615551670E+03  0.16261667253E+04  0.46999998093E+01 0. -1.
       -5    1    3    3    0  502  0.13185307392E+04 -0.72541381123E+03  0.20085567365E+04  0.25097949641E+04  0.46999998093E+01 0.  1.
</event>
<event>
 5   0  0.2473224E-07  0.3881370E+04  0.7818609E-02  0.8028915E-01
       -2   -1    0    0    0  501  0.00000000000E+00  0.00000000000E+00  0.33175323304E+04  0.33175323304E+04  0.25500000920E-02 0. -1.
        2   -1    0    0  501    0  0.00000000000E+00  0.00000000000E+00 -0.11352588170E+04  0.11352588170E+04  0.25500000920E-02 0.  1.
    10030    2    1    2    0    0  0.00000000000E+00  0.00000000000E+00  0.21822735134E+04  0.44527911474E+04  0.38813697731E+04 0.  0.
        2    1    3    3  502    0  0.16825186422E+03  0.10209757372E+04  0.29746627635E+04  0.31494949917E+04  0.25500000920E-02 0. -1.
       -2    1    3    3    0  502 -0.16825186422E+03 -0.10209757372E+04 -0.79238925017E+03  0.13032961557E+04  0.25500000920E-02 0.  1.
</event>
<event>
 5   0  0.2486268E-07  0.3930927E+04  0.7818609E-02  0.8018628E-01
       -2   -1    0    0    0  501  0.00000000000E+00  0.00000000000E+00  0.27483588990E+04  0.27483588990E+04  0.25500000920E-02 0.  1.
        2   -1    0    0  501    0  0.00000000000E+00  0.00000000000E+00 -0.14055828433E+04  0.14055828433E+04  0.25500000920E-02 0. -1.
    10030    2    1    2    0    0  0.00000000000E+00  0.00000000000E+00  0.13427760557E+04  0.41539417423E+04  0.39309266672E+04 0.  0.
        5    1    3    3  502    0  0.16555755590E+03 -0.24144897704E+03 -0.13824073992E+04  0.14130743859E+04  0.46999998093E+01 0. -1.
       -5    1    3    3    0  502 -0.16555755590E+03  0.24144897704E+03  0.27251834548E+04  0.27408673564E+04  0.46999998093E+01 0.  1.
</event>
<event>
 5   0  0.2473224E-07  0.3846967E+04  0.7818609E-02  0.8036150E-01
        2   -1    0    0  501    0  0.00000000000E+00  0.00000000000E+00  0.25080296155E+04  0.25080296155E+04  0.25500000920E-02 0. -1.
       -2   -1    0    0    0  501  0.00000000000E+00  0.00000000000E+00 -0.14751775541E+04  0.14751775541E+04  0.25500000920E-02 0.  1.
    10030    2    1    2    0    0  0.00000000000E+00  0.00000000000E+00  0.10328520614E+04  0.39832071696E+04  0.38469671138E+04 0.  0.
        2    1    3    3  502    0  0.14640579704E+04 -0.80038450549E+03 -0.47438971781E+03  0.17346834587E+04  0.25500000920E-02 0.  1.
       -2    1    3    3    0  502 -0.14640579704E+04  0.80038450549E+03  0.15072417792E+04  0.22485237109E+04  0.25500000920E-02 0. -1.
</event>
<event>
 5   0  0.2384787E-07  0.3895403E+04  0.7818609E-02  0.8025986E-01
       -2   -1    0    0    0  501  0.00000000000E+00  0.00000000000E+00  0.21274492817E+04  0.21274492817E+04  0.25500000920E-02 0.  1.
        2   -1    0    0  501    0  0.00000000000E+00  0.00000000000E+00 -0.17831408226E+04  0.17831408226E+04  0.25500000920E-02 0. -1.
    10030    2    1    2    0    0  0.00000000000E+00  0.00000000000E+00  0.34430845909E+03  0.39105901044E+04  0.38954032717E+04 0.  0.
        4    1    3    3  502    0  0.13269566172E+04 -0.11915239592E+04  0.95814779428E+03  0.20244979668E+04  0.12699999809E+01 0.  1.
       -4    1    3    3    0  502 -0.13269566172E+04  0.11915239592E+04 -0.61383933519E+03  0.18860921376E+04  0.12699999809E+01 0. -1.
</event>
<event>
 5   0  0.2446281E-07  0.3841059E+04  0.7818609E-02  0.8037401E-01
       -2   -1    0    0    0  501  0.00000000000E+00  0.00000000000E+00  0.12515777859E+04  0.12515777859E+04  0.25500000920E-02 0. -1.
        2   -1    0    0  501    0  0.00000000000E+00  0.00000000000E+00 -0.29470263168E+04  0.29470263168E+04  0.25500000920E-02 0.  1.
    10030    2    1    2    0    0  0.00000000000E+00  0.00000000000E+00 -0.16954485309E+04  0.41986041028E+04  0.38410585378E+04 0.  0.
        1    1    3    3  502    0 -0.10233443210E+04  0.90947439751E+03  0.62451796875E+03  0.15047923353E+04  0.50400001928E-02 0. -1.
       -1    1    3    3    0  502  0.10233443210E+04 -0.90947439751E+03 -0.23199664997E+04  0.26938117675E+04  0.50400001928E-02 0.  1.
</event>
<event>
 5   0  0.7675750E-08  0.3831461E+04  0.7818609E-02  0.8039437E-01
        1   -1    0    0  501    0  0.00000000000E+00  0.00000000000E+00  0.17629124630E+04  0.17629124630E+04  0.50400001928E-02 0.  1.
       -1   -1    0    0    0  501  0.00000000000E+00  0.00000000000E+00 -0.20817954364E+04  0.20817954364E+04  0.50400001928E-02 0. -1.
    10030    2    1    2    0    0  0.00000000000E+00  0.00000000000E+00 -0.31888297336E+03  0.38447078994E+04  0.38314608808E+04 0.  0.
        1    1    3    3  502    0 -0.44887981702E+03 -0.45373773405E+03  0.16530848996E+04  0.17720216440E+04  0.50400001928E-02 0.  1.
       -1    1    3    3    0  502  0.44887981702E+03  0.45373773405E+03 -0.19719678730E+04  0.20726862554E+04  0.50400001928E-02 0. -1.
</event>
<event>
 5   0  0.7675750E-08  0.3732459E+04  0.7818609E-02  0.8060806E-01
       -1   -1    0    0    0  501  0.00000000000E+00  0.00000000000E+00  0.31165968806E+04  0.31165968806E+04  0.50400001928E-02 0.  1.
        1   -1    0    0  501    0  0.00000000000E+00  0.00000000000E+00 -0.11175047618E+04  0.11175047619E+04  0.50400001928E-02 0. -1.
    10030    2    1    2    0    0  0.00000000000E+00  0.00000000000E+00  0.19990921187E+04  0.42341016424E+04  0.37324586293E+04 0.  0.
        5    1    3    3  502    0 -0.62551412560E+03 -0.13955890178E+04 -0.21370704271E+03  0.15442245362E+04  0.46999998093E+01 0. -1.
       -5    1    3    3    0  502  0.62551412560E+03  0.13955890178E+04  0.22127991614E+04  0.26898771063E+04  0.46999998093E+01 0.  1.
</event>
<event>
 5   0  0.7675750E-08  0.3319726E+04  0.7818609E-02  0.8157894E-01
       -1   -1    0    0    0  501  0.00000000000E+00  0.00000000000E+00  0.13370105725E+04  0.13370105725E+04  0.50400001928E-02 0.  1.
        1   -1    0    0  501    0  0.00000000000E+00  0.00000000000E+00 -0.20606757131E+04  0.20606757131E+04  0.50400001928E-02 0. -1.
    10030    2    1    2    0    0  0.00000000000E+00  0.00000000000E+00 -0.72366514056E+03  0.33976862856E+04  0.33197260218E+04 0.  0.
        2    1    3    3  502    0 -0.14134149525E+04 -0.49743389688E+03  0.36905458203E+03  0.15431732224E+04  0.25500000920E-02 0.  1.
       -2    1    3    3    0  502  0.14134149525E+04  0.49743389688E+03 -0.10927197226E+04  0.18545130633E+04  0.25500000920E-02 0. -1.
</event>
<event>
 5   0  0.7675750E-08  0.3851127E+04  0.7818609E-02  0.8035271E-01
        3   -1    0    0  501    0  0.00000000000E+00  0.00000000000E+00  0.20764763344E+04  0.20764763368E+04  0.10100000352E+00 0.  1.
       -3   -1    0    0    0  501  0.00000000000E+00  0.00000000000E+00 -0.17856183515E+04  0.17856183543E+04  0.10100000352E+00 0. -1.
    10030    2    1    2    0    0  0.00000000000E+00  0.00000000000E+00  0.29085798290E+03  0.38620946912E+04  0.38511267231E+04 0.  0.
        1    1    3    3  502    0 -0.14234988911E+04  0.10453535998E+04  0.91486963714E+03  0.19889946442E+04  0.50400001928E-02 0.  1.
       -1    1    3    3    0  502  0.14234988911E+04 -0.10453535998E+04 -0.62401165424E+03  0.18731000470E+04  0.50400001928E-02 0. -1.
</event>
<event>
 5   0  0.2446281E-07  0.3898781E+04  0.7818609E-02  0.8025283E-01
       -2   -1    0    0    0  501  0.00000000000E+00  0.00000000000E+00  0.18175829117E+04  0.18175829117E+04  0.25500000920E-02 0. -1.
        2   -1    0    0  501    0  0.00000000000E+00  0.00000000000E+00 -0.20907564602E+04  0.20907564602E+04  0.25500000920E-02 0.  1.
    10030    2    1    2    0    0  0.00000000000E+00  0.00000000000E+00 -0.27317354854E+03  0.39083393719E+04  0.38987809452E+04 0.  0.
        1    1    3    3  502    0 -0.13004854472E+04 -0.12354141079E+04  0.62857531280E+03  0.19006886490E+04  0.50400001928E-02 0. -1.
       -1    1    3    3    0  502  0.13004854472E+04  0.12354141079E+04 -0.90174886134E+03  0.20076507230E+04  0.50400001928E-02 0.  1.
</event>
<event>
 5   0  0.2384787E-07  0.3951111E+04  0.7818609E-02  0.8014482E-01
        2   -1    0    0  501    0  0.00000000000E+00  0.00000000000E+00  0.22318141225E+04  0.22318141225E+04  0.25500000920E-02 0. -1.
       -2   -1    0    0    0  501  0.00000000000E+00  0.00000000000E+00 -0.17487207360E+04  0.17487207360E+04  0.25500000920E-02 0.  1.
    10030    2    1    2    0    0  0.00000000000E+00  0.00000000000E+00  0.48309338644E+03  0.39805348585E+04  0.39511110513E+04 0.  0.
        4    1    3    3  502    0  0.62848573172E+03 -0.78370586546E+03  0.19552814548E+04  0.21982530289E+04  0.12699999809E+01 0. -1.
       -4    1    3    3    0  502 -0.62848573172E+03  0.78370586546E+03 -0.14721880684E+04  0.17822818296E+04  0.12699999809E+01 0.  1.
</event>
<event>
 5   0  0.7675750E-08  0.3882692E+04  0.7818609E-02  0.8028639E-01
       -1   -1    0    0    0  501  0.00000000000E+00  0.00000000000E+00  0.14619861157E+04  0.14619861157E+04  0.50400001928E-02 0. -1.
        1   -1    0    0  501    0  0.00000000000E+00  0.00000000000E+00 -0.25778794750E+04  0.25778794750E+04  0.50400001928E-02 0.  1.
    10030    2    1    2    0    0  0.00000000000E+00  0.00000000000E+00 -0.11158933593E+04  0.40398655907E+04  0.38826918499E+04 0.  0.
        4    1    3    3  502    0  0.11465307898E+03  0.67727122998E+03 -0.24472087128E+04  0.25417855425E+04  0.12699999809E+01 0.  1.
       -4    1    3    3    0  502 -0.11465307898E+03 -0.67727122998E+03  0.13313153535E+04  0.14980800482E+04  0.12699999809E+01 0. -1.
</event>
<event>
 5   0  0.7675750E-08  0.3895825E+04  0.7818609E-02  0.8025898E-01
        1   -1    0    0  501    0  0.00000000000E+00  0.00000000000E+00  0.26606244039E+04  0.26606244039E+04  0.50400001928E-02 0.  1.
       -1   -1    0    0    0  501  0.00000000000E+00  0.00000000000E+00 -0.14261172669E+04  0.14261172670E+04  0.50400001928E-02 0. -1.
    10030    2    1    2    0    0  0.00000000000E+00  0.00000000000E+00  0.12345071370E+04  0.40867416709E+04  0.38958246384E+04 0.  0.
        2    1    3    3  502    0  0.13466312641E+04  0.94720411791E+03 -0.47479647899E+03  0.17134885757E+04  0.25500000920E-02 0. -1.
       -2    1    3    3    0  502 -0.13466312641E+04 -0.94720411791E+03  0.17093036160E+04  0.23732530952E+04  0.25500000920E-02 0.  1.
</event>
<event>
 5   0  0.7675750E-08  0.3906969E+04  0.7818609E-02  0.8023581E-01
        1   -1    0    0  501    0  0.00000000000E+00  0.00000000000E+00  0.13917818097E+04  0.13917818097E+04  0.50400001928E-02 0. -1.
       -1   -1    0    0    0  501  0.00000000000E+00  0.00000000000E+00 -0.27418819318E+04  0.27418819318E+04  0.50400001928E-02 0.  1.
    10030    2    1    2    0    0  0.00000000000E+00  0.00000000000E+00 -0.13501001222E+04  0.41336637415E+04  0.39069688491E+04 0.  0.
        2    1    3    3  502    0 -0.14892928710E+04 -0.69541384450E+03  0.44190767055E+03  0.17020211691E+04  0.25500000920E-02 0. -1.
       -2    1    3    3    0  502  0.14892928710E+04  0.69541384450E+03 -0.17920077927E+04  0.24316425724E+04  0.25500000920E-02 0.  1.
</event>
<event>
 5   0  0.2473224E-07  0.4072218E+04  0.7818609E-02  0.7990134E-01
        2   -1    0    0  501    0  0.00000000000E+00  0.00000000000E+00  0.24137008755E+04  0.24137008755E+04  0.25500000920E-02 0. -1.
       -2   -1    0    0    0  501  0.00000000000E+00  0.00000000000E+00 -0.17175864322E+04  0.17175864322E+04  0.25500000920E-02 0.  1.
    10030    2    1    2    0    0  0.00000000000E+00  0.00000000000E+00  0.69611444331E+03  0.41312873076E+04  0.40722180074E+04 0.  0.
        2    1    3    3  502    0 -0.31026329740E+03 -0.23416363062E+03 -0.16795947624E+04  0.17239879598E+04  0.25500000920E-02 0.  1.
       -2    1    3    3    0  502  0.31026329740E+03  0.23416363062E+03  0.23757092058E+04  0.24072993478E+04  0.25500000920E-02 0. -1.
</event>
<event>
 5   0  0.7675750E-08  0.3865171E+04  0.7818609E-02  0.8032312E-01
        1   -1    0    0  501    0  0.00000000000E+00  0.00000000000E+00  0.24483190921E+04  0.24483190921E+04  0.50400001928E-02 0.  1.
       -1   -1    0    0    0  501  0.00000000000E+00  0.00000000000E+00 -0.15254902411E+04  0.15254902411E+04  0.50400001928E-02 0. -1.
    10030    2    1    2    0    0  0.00000000000E+00  0.00000000000E+00  0.92282885107E+03  0.39738093332E+04  0.38651710866E+04 0.  0.
        1    1    3    3  502    0 -0.13859837976E+04  0.69088621943E+03 -0.72719996948E+03  0.17108754049E+04  0.50400001928E-02 0. -1.
       -1    1    3    3    0  502  0.13859837976E+04 -0.69088621943E+03  0.16500288205E+04  0.22629339283E+04  0.50400001928E-02 0.  1.
</event>
<event>
 5   0  0.7675750E-08  0.3867705E+04  0.7818609E-02  0.8031780E-01
        1   -1    0    0  501    0  0.00000000000E+00  0.00000000000E+00  0.16286771068E+04  0.16286771068E+04  0.50400001928E-02 0.  1.
       -1   -1    0    0    0  501  0.00000000000E+00  0.00000000000E+00 -0.22962107044E+04  0.22962107044E+04  0.50400001928E-02 0. -1.
    10030    2    1    2    0    0  0.00000000000E+00  0.00000000000E+00 -0.66753359765E+03  0.39248878112E+04  0.38677051628E+04 0.  0.
        4    1    3    3  502    0  0.17320564842E+03  0.66889840459E+03 -0.21666709601E+04  0.22741789584E+04  0.12699999809E+01 0. -1.
       -4    1    3    3    0  502 -0.17320564842E+03 -0.66889840459E+03  0.14991373625E+04  0.16507088528E+04  0.12699999809E+01 0.  1.
</event>
<event>
 5   0  0.7731706E-08  0.3914402E+04  0.7818609E-02  0.8022041E-01
        1   -1    0    0  501    0  0.00000000000E+00  0.00000000000E+00  0.21525549278E+04  0.21525549278E+04  0.50400001928E-02 0.  1.
       -1   -1    0    0    0  501  0.00000000000E+00  0.00000000000E+00 -0.17795758882E+04  0.17795758882E+04  0.50400001928E-02 0. -1.
    10030    2    1    2    0    0  0.00000000000E+00  0.00000000000E+00  0.37297903964E+03  0.39321308160E+04  0.39144015367E+04 0.  0.
        3    1    3    3  502    0  0.13161608334E+04 -0.14464581960E+04  0.26503693218E+03  0.19735159583E+04  0.10100000352E+00 0. -1.
       -3    1    3    3    0  502 -0.13161608334E+04  0.14464581960E+04  0.10794210746E+03  0.19586148577E+04  0.10100000352E+00 0.  1.
</event>
<event>
 5   0  0.7675750E-08  0.3896310E+04  0.7818609E-02  0.8025797E-01
        1   -1    0    0  501    0  0.00000000000E+00  0.00000000000E+00  0.20498625729E+04  0.20498625729E+04  0.50400001928E-02 0.  1.
       -1   -1    0    0    0  501  0.00000000000E+00  0.00000000000E+00 -0.18514933833E+04  0.18514933833E+04  0.50400001928E-02 0. -1.
    10030    2    1    2    0    0  0.00000000000E+00  0.00000000000E+00  0.19836918964E+03  0.39013559562E+04  0.38963095310E+04 0.  0.
        4    1    3    3  502    0 -0.16808621648E+03  0.10986133293E+04  0.17012885353E+04  0.20321389019E+04  0.12699999809E+01 0.  1.
       -4    1    3    3    0  502  0.16808621648E+03 -0.10986133293E+04 -0.15029193457E+04  0.18692170543E+04  0.12699999809E+01 0. -1.
</event>
<event>
 5   0  0.2384787E-07  0.3874121E+04  0.7818609E-02  0.8030433E-01
       -2   -1    0    0    0  501  0.00000000000E+00  0.00000000000E+00  0.16941236919E+04  0.16941236919E+04  0.25500000920E-02 0. -1.
        2   -1    0    0  501    0  0.00000000000E+00  0.00000000000E+00 -0.22148346466E+04  0.22148346466E+04  0.25500000920E-02 0.  1.
    10030    2    1    2    0    0  0.00000000000E+00  0.00000000000E+00 -0.52071095465E+03  0.39089583385E+04  0.38741212415E+04 0.  0.
        4    1    3    3  502    0 -0.13043931027E+04 -0.13209390440E+04 -0.81839379594E+03  0.20288152559E+04  0.12699999809E+01 0.  1.
       -4    1    3    3    0  502  0.13043931027E+04  0.13209390440E+04  0.29768284129E+03  0.18801430826E+04  0.12699999809E+01 0. -1.
</event>
<event>
 5   0  0.2473224E-07  0.3880924E+04  0.7818609E-02  0.8029008E-01
       -2   -1    0    0    0  501  0.00000000000E+00  0.00000000000E+00  0.18270206790E+04  0.18270206790E+04  0.25500000920E-02 0. -1.
        2   -1    0    0  501    0  0.00000000000E+00  0.00000000000E+00 -0.20609470100E+04  0.20609470100E+04  0.25500000920E-02 0.  1.
    10030    2    1    2    0    0  0.00000000000E+00  0.00000000000E+00 -0.23392633096E+03  0.38879676889E+04  0.38809240165E+04 0.  0.
        2    1    3    3  502    0  0.14602031913E+04  0.49036738477E+03 -0.12992488153E+04  0.20151181147E+04  0.25500000920E-02 0.  1.
       -2    1    3    3    0  502 -0.14602031913E+04 -0.49036738477E+03  0.10653224844E+04  0.18728495742E+04  0.25500000920E-02 0. -1.
</event>
<event>
 5   0  0.2486268E-07  0.3889633E+04  0.7818609E-02  0.8027189E-01
        2   -1    0    0  501    0  0.00000000000E+00  0.00000000000E+00  0.20312062302E+04  0.20312062302E+04  0.25500000920E-02 0.  1.
       -2   -1    0    0    0  501  0.00000000000E+00  0.00000000000E+00 -0.18621006093E+04  0.18621006093E+04  0.25500000920E-02 0. -1.
    10030    2    1    2    0    0  0.00000000000E+00  0.00000000000E+00  0.16910562091E+03  0.38933068396E+04  0.38896325580E+04 0.  0.
        5    1    3    3  502    0  0.22406250694E+03 -0.13665075109E+04  0.14513981373E+04  0.20060222898E+04  0.46999998093E+01 0.  1.
       -5    1    3    3    0  502 -0.22406250694E+03  0.13665075109E+04 -0.12822925164E+04  0.18872845498E+04  0.46999998093E+01 0. -1.
</event>
<event>
 5   0  0.2395572E-07  0.3866575E+04  0.7818609E-02  0.8032017E-01
        2   -1    0    0  501    0  0.00000000000E+00  0.00000000000E+00  0.24289889974E+04  0.24289889974E+04  0.25500000920E-02 0.  1.
       -2   -1    0    0    0  501  0.00000000000E+00  0.00000000000E+00 -0.15387478176E+04  0.15387478176E+04  0.25500000920E-02 0. -1.
    10030    2    1    2    0    0  0.00000000000E+00  0.00000000000E+00  0.89024117983E+03  0.39677368150E+04  0.38665754971E+04 0.  0.
        3    1    3    3  502    0 -0.14704251890E+04 -0.91683773402E+03  0.13247882381E+04  0.21812394534E+04  0.10100000352E+00 0.  1.
       -3    1    3    3    0  502  0.14704251890E+04  0.91683773402E+03 -0.43454705832E+03  0.17864973616E+04  0.10100000352E+00 0. -1.
</event>
<event>
 5   0  0.2446281E-07  0.3928535E+04  0.7818609E-02  0.8019121E-01
       -2   -1    0    0    0  501  0.00000000000E+00  0.00000000000E+00  0.15337028492E+04  0.15337028492E+04  0.25500000920E-02 0. -1.
        2   -1    0    0  501    0  0.00000000000E+00  0.00000000000E+00 -0.25157067100E+04  0.25157067100E+04  0.25500000920E-02 0.  1.
    10030    2    1    2    0    0  0.00000000000E+00  0.00000000000E+00 -0.98200386084E+03  0.40494095592E+04  0.39285348662E+04 0.  0.
        1    1    3    3  502    0 -0.13585882040E+04  0.91638499817E+03 -0.16072927716E+04  0.22954113851E+04  0.50400001928E-02 0.  1.
       -1    1    3    3    0  502  0.13585882040E+04 -0.91638499817E+03  0.62528891079E+03  0.17539981741E+04  0.50400001928E-02 0. -1.
</event>
<event>
 5   0  0.7731706E-08  0.3864537E+04  0.7818609E-02  0.8032445E-01
       -1   -1    0    0    0  501  0.00000000000E+00  0.00000000000E+00  0.17816342630E+04  0.17816342630E+04  0.50400001928E-02 0.  1.
        1   -1    0    0  501    0  0.00000000000E+00  0.00000000000E+00 -0.20956387262E+04  0.20956387262E+04  0.50400001928E-02 0. -1.
    10030    2    1    2    0    0  0.00000000000E+00  0.00000000000E+00 -0.31400446320E+03  0.38772729892E+04  0.38645371042E+04 0.  0.
        3    1    3    3  502    0 -0.24483978888E+03 -0.12741851130E+04 -0.15935615812E+04  0.20549775541E+04  0.10100000352E+00 0. -1.
       -3    1    3    3    0  502  0.24483978888E+03  0.12741851130E+04  0.12795571180E+04  0.18222954351E+04  0.10100000352E+00 0.  1.
</event>
<event>
 5   0  0.7731706E-08  0.3893958E+04  0.7818609E-02  0.8026287E-01
        1   -1    0    0  501    0  0.00000000000E+00  0.00000000000E+00  0.12070082515E+04  0.12070082515E+04  0.50400001928E-02 0. -1.
       -1   -1    0    0    0  501  0.00000000000E+00  0.00000000000E+00 -0.31405974485E+04  0.31405974485E+04  0.50400001928E-02 0.  1.
    10030    2    1    2    0    0  0.00000000000E+00  0.00000000000E+00 -0.19335891970E+04  0.43476056999E+04  0.38939579016E+04 0.  0.
        3    1    3    3  502    0  0.15457524369E+04  0.97731032965E+03 -0.22095814297E+03  0.18420935339E+04  0.10100000352E+00 0. -1.
       -3    1    3    3    0  502 -0.15457524369E+04 -0.97731032965E+03 -0.17126310540E+04  0.25055121660E+04  0.10100000352E+00 0.  1.
</event>
<event>
 5   0  0.2486268E-07  0.3907347E+04  0.7818609E-02  0.8023503E-01
       -2   -1    0    0    0  501  0.00000000000E+00  0.00000000000E+00  0.19523107211E+04  0.19523107211E+04  0.25500000920E-02 0.  1.
        2   -1    0    0  501    0  0.00000000000E+00  0.00000000000E+00 -0.19550374307E+04  0.19550374307E+04  0.25500000920E-02 0. -1.
    10030    2    1    2    0    0  0.00000000000E+00  0.00000000000E+00 -0.27267096005E+01  0.39073481518E+04  0.39073472004E+04 0.  0.
        5    1    3    3  502    0 -0.13693588457E+04  0.11678745075E+03  0.13871741593E+04  0.19527050968E+04  0.46999998093E+01 0.  1.
       -5    1    3    3    0  502  0.13693588457E+04 -0.11678745075E+03 -0.13899008689E+04  0.19546430550E+04  0.46999998093E+01 0. -1.
</event>
<event>
 5   0  0.7675750E-08  0.3898205E+04  0.7818609E-02  0.8025403E-01
        1   -1    0    0  501    0  0.00000000000E+00  0.00000000000E+00  0.15807874169E+04  0.15807874169E+04  0.50400001928E-02 0.  1.
       -1   -1    0    0    0  501  0.00000000000E+00  0.00000000000E+00 -0.24032328840E+04  0.24032328840E+04  0.50400001928E-02 0. -1.
    10030    2    1    2    0    0  0.00000000000E+00  0.00000000000E+00 -0.82244546709E+03  0.39840203008E+04  0.38982048703E+04 0.  0.
        4    1    3    3  502    0 -0.38791432207E+03  0.16946637962E+04  0.48944702790E+03  0.18060794305E+04  0.12699999809E+01 0.  1.
       -4    1    3    3    0  502  0.38791432207E+03 -0.16946637962E+04 -0.13118924950E+04  0.21779408703E+04  0.12699999809E+01 0. -1.
</event>
<event>
 5   0  0.2446281E-07  0.3886978E+04  0.7818609E-02  0.8027743E-01
       -2   -1    0    0    0  501  0.00000000000E+00  0.00000000000E+00  0.17320223786E+04  0.17320223786E+04  0.25500000920E-02 0. -1.
        2   -1    0    0  501    0  0.00000000000E+00  0.00000000000E+00 -0.21807740408E+04  0.21807740408E+04  0.25500000920E-02 0.  1.
    10030    2    1    2    0    0  0.00000000000E+00  0.00000000000E+00 -0.44875166219E+03  0.39127964193E+04  0.38869779733E+04 0.  0.
        1    1    3    3  502    0  0.12326172453E+04  0.66862798001E+03  0.11301999783E+04  0.18010443193E+04  0.50400001928E-02 0. -1.
       -1    1    3    3    0  502 -0.12326172453E+04 -0.66862798001E+03 -0.15789516405E+04  0.21117521000E+04  0.50400001928E-02 0.  1.
</event>
<event>
 5   0  0.2395572E-07  0.3881438E+04  0.7818609E-02  0.8028901E-01
       -2   -1    0    0    0  501  0.00000000000E+00  0.00000000000E+00  0.32411083116E+04  0.32411083116E+04  0.25500000920E-02 0. -1.
        2   -1    0    0  501    0  0.00000000000E+00  0.00000000000E+00 -0.11620687333E+04  0.11620687333E+04  0.25500000920E-02 0.  1.
    10030    2    1    2    0    0  0.00000000000E+00  0.00000000000E+00  0.20790395783E+04  0.44031770450E+04  0.38814382027E+04 0.  0.
        3    1    3    3  502    0 -0.98311309413E+03  0.60444228956E+03  0.28095510183E+04  0.30373407402E+04  0.10100000352E+00 0. -1.
       -3    1    3    3    0  502  0.98311309413E+03 -0.60444228956E+03 -0.73051144004E+03  0.13658363048E+04  0.10100000352E+00 0.  1.
</event>
<event>
 5   0  0.7731706E-08  0.3882957E+04  0.7818609E-02  0.8028583E-01
       -1   -1    0    0    0  501  0.00000000000E+00  0.00000000000E+00  0.29439391566E+04  0.29439391566E+04  0.50400001928E-02 0.  1.
        1   -1    0    0  501    0  0.00000000000E+00  0.00000000000E+00 -0.12803722261E+04  0.12803722262E+04  0.50400001928E-02 0. -1.
    10030    2    1    2    0    0  0.00000000000E+00  0.00000000000E+00  0.16635669304E+04  0.42243113827E+04  0.38829565702E+04 0.  0.
        3    1    3    3  502    0 -0.16313455097E+04  0.27906215292E+03  0.19359858893E+04  0.25469992601E+04  0.10100000352E+00 0.  1.
       -3    1    3    3    0  502  0.16313455097E+04 -0.27906215292E+03 -0.27241895890E+03  0.16773121226E+04  0.10100000352E+00 0. -1.
</event>
<event>
 5   0  0.2395572E-07  0.3885197E+04  0.7818609E-02  0.8028115E-01
       -2   -1    0    0    0  501  0.00000000000E+00  0.00000000000E+00  0.13685804104E+04  0.13685804104E+04  0.25500000920E-02 0.  1.
        2   -1    0    0  501    0  0.00000000000E+00  0.00000000000E+00 -0.27573740935E+04  0.27573740935E+04  0.25500000920E-02 0. -1.
    10030    2    1    2    0    0  0.00000000000E+00  0.00000000000E+00 -0.13887936831E+04  0.41259545038E+04  0.38851966068E+04 0.  0.
        3    1    3    3  502    0 -0.68373640333E+03  0.12897672540E+04 -0.20554956476E+04  0.25211222514E+04  0.10100000352E+00 0. -1.
       -3    1    3    3    0  502  0.68373640333E+03 -0.12897672540E+04  0.66670196452E+03  0.16048322524E+04  0.10100000352E+00 0.  1.
</event>
<event>
 5   0  0.2446281E-07  0.3931112E+04  0.7818609E-02  0.8018589E-01
       -2   -1    0    0    0  501  0.00000000000E+00  0.00000000000E+00  0.24738515020E+04  0.24738515020E+04  0.25500000920E-02 0.  1.
        2   -1    0    0  501    0  0.00000000000E+00  0.00000000000E+00 -0.15616984016E+04  0.15616984016E+04  0.25500000920E-02 0. -1.
    10030    2    1    2    0    0  0.00000000000E+00  0.00000000000E+00  0.91215310042E+03  0.40355499036E+04  0.39311117697E+04 0.  0.
        1    1    3    3  502    0  0.13135699001E+04 -0.66125031177E+03  0.17948286802E+04  0.23203723512E+04  0.50400001928E-02 0.  1.
       -1    1    3    3    0  502 -0.13135699001E+04  0.66125031177E+03 -0.88267557974E+03  0.17151775524E+04  0.50400001928E-02 0. -1.
</event>
<event>
 5   0  0.7675750E-08  0.3898194E+04  0.7818609E-02  0.8025405E-01
        1   -1    0    0  501    0  0.00000000000E+00  0.00000000000E+00  0.30350514721E+04  0.30350514721E+04  0.50400001928E-02 0. -1.
       -1   -1    0    0    0  501  0.00000000000E+00  0.00000000000E+00 -0.12517015480E+04  0.12517015480E+04  0.50400001928E-02 0.  1.
    10030    2    1    2    0    0  0.00000000000E+00  0.00000000000E+00  0.17833499241E+04  0.42867530201E+04  0.38981937488E+04 0.  0.
        2    1    3    3  502    0 -0.77488386710E+03 -0.13873092099E+04  0.21328523799E+04  0.26597238815E+04  0.25500000920E-02 0. -1.
       -2    1    3    3    0  502  0.77488386710E+03  0.13873092099E+04 -0.34950245576E+03  0.16270291386E+04  0.25500000920E-02 0.  1.
</event>
<event>
 5   0  0.2384787E-07  0.3910661E+04  0.7818609E-02  0.8022816E-01
        2   -1    0    0  501    0  0.00000000000E+00  0.00000000000E+00  0.24865279930E+04  0.24865279930E+04  0.25500000920E-02 0. -1.
       -2   -1    0    0    0  501  0.00000000000E+00  0.00000000000E+00 -0.15376125230E+04  0.15376125230E+04  0.25500000920E-02 0.  1.
    10030    2    1    2    0    0  0.00000000000E+00  0.00000000000E+00  0.94891546998E+03  0.40241405160E+04  0.39106605993E+04 0.  0.
        4    1    3    3  502    0  0.91522936282E+03  0.12841213853E+04 -0.71525026848E+03  0.17315302707E+04  0.12699999809E+01 0.  1.
       -4    1    3    3    0  502 -0.91522936282E+03 -0.12841213853E+04  0.16641657385E+04  0.22926102453E+04  0.12699999809E+01 0. -1.
</event>
<event>
 5   0  0.2473224E-07  0.3902922E+04  0.7818609E-02  0.8024422E-01
        2   -1    0    0  501    0  0.00000000000E+00  0.00000000000E+00  0.22259618764E+04  0.22259618764E+04  0.25500000920E-02 0. -1.
       -2   -1    0    0    0  501  0.00000000000E+00  0.00000000000E+00 -0.17108107868E+04  0.17108107868E+04  0.25500000920E-02 0.  1.
    10030    2    1    2    0    0  0.00000000000E+00  0.00000000000E+00  0.51515108952E+03  0.39367726632E+04  0.39029217718E+04 0.  0.
        2    1    3    3  502    0  0.15227525724E+03 -0.21103085403E+03 -0.16932302245E+04  0.17131113123E+04  0.25500000920E-02 0.  1.
       -2    1    3    3    0  502 -0.15227525724E+03  0.21103085403E+03  0.22083813140E+04  0.22236613509E+04  0.25500000920E-02 0. -1.
</event>
<event>
 5   0  0.7731706E-08  0.3928732E+04  0.7818609E-02  0.8019080E-01
       -1   -1    0    0    0  501  0.00000000000E+00  0.00000000000E+00  0.27913449979E+04  0.27913449979E+04  0.50400001928E-02 0. -1.
        1   -1    0    0  501    0  0.00000000000E+00  0.00000000000E+00 -0.13823925257E+04  0.13823925257E+04  0.50400001928E-02 0.  1.
    10030    2    1    2    0    0  0.00000000000E+00  0.00000000000E+00  0.14089524722E+04  0.41737375236E+04  0.39287323461E+04 0.  0.
        3    1    3    3  502    0 -0.16393984668E+04  0.31770654283E+03  0.18034795723E+04  0.24578656102E+04  0.10100000352E+00 0. -1.
       -3    1    3    3    0  502  0.16393984668E+04 -0.31770654283E+03 -0.39452710008E+03  0.17158719134E+04  0.10100000352E+00 0.  1.
</event>
<event>
 5   0  0.7675750E-08  0.3916445E+04  0.7818609E-02  0.8021618E-01
       -1   -1    0    0    0  501  0.00000000000E+00  0.00000000000E+00  0.23677225878E+04  0.23677225878E+04  0.50400001928E-02 0. -1.
        1   -1    0    0  501    0  0.00000000000E+00  0.00000000000E+00 -0.16195455730E+04  0.16195455730E+04  0.50400001928E-02 0.  1.
    10030    2    1    2    0    0  0.00000000000E+00  0.00000000000E+00  0.74817701480E+03  0.39872681608E+04  0.39164446301E+04 0.  0.
        4    1    3    3  502    0 -0.13765889143E+04  0.89202028859E+03 -0.71480216455E+03  0.17893129915E+04  0.12699999809E+01 0.  1.
       -4    1    3    3    0  502  0.13765889143E+04 -0.89202028859E+03  0.14629791794E+04  0.21979551693E+04  0.12699999809E+01 0. -1.
</event>
<event>
 5   0  0.7675750E-08  0.3797241E+04  0.7818609E-02  0.8046747E-01
        1   -1    0    0  501    0  0.00000000000E+00  0.00000000000E+00  0.31086038320E+04  0.31086038320E+04  0.50400001928E-02 0. -1.
       -1   -1    0    0    0  501  0.00000000000E+00  0.00000000000E+00 -0.11596074905E+04  0.11596074905E+04  0.50400001928E-02 0.  1.
    10030    2    1    2    0    0  0.00000000000E+00  0.00000000000E+00  0.19489963415E+04  0.42682113225E+04  0.37972412557E+04 0.  0.
        5    1    3    3  502    0 -0.86168900896E+03  0.39707353071E+03 -0.87403080659E+03  0.12900105728E+04  0.46999998093E+01 0.  1.
       -5    1    3    3    0  502  0.86168900896E+03 -0.39707353071E+03  0.28230271480E+04  0.29782007497E+04  0.46999998093E+01 0. -1.
</event>
<event>
 5   0  0.7675750E-08  0.3839721E+04  0.7818609E-02  0.8037684E-01
        1   -1    0    0  501    0  0.00000000000E+00  0.00000000000E+00  0.12182311764E+04  0.12182311764E+04  0.50400001928E-02 0. -1.
       -1   -1    0    0    0  501  0.00000000000E+00  0.00000000000E+00 -0.30255875321E+04  0.30255875321E+04  0.50400001928E-02 0.  1.
    10030    2    1    2    0    0  0.00000000000E+00  0.00000000000E+00 -0.18073563557E+04  0.42438187085E+04  0.38397213745E+04 0.  0.
        4    1    3    3  502    0 -0.17796544876E+03 -0.19100795480E+04 -0.98776274773E+03  0.21577192679E+04  0.12699999809E+01 0.  1.
       -4    1    3    3    0  502  0.17796544876E+03  0.19100795480E+04 -0.81959360801E+03  0.20860994405E+04  0.12699999809E+01 0. -1.
</event>
<event>
 5   0  0.7675750E-08  0.3831067E+04  0.7818609E-02  0.8039521E-01
        1   -1    0    0  501    0  0.00000000000E+00  0.00000000000E+00  0.17154588121E+04  0.17154588121E+04  0.50400001928E-02 0.  1.
       -1   -1    0    0    0  501  0.00000000000E+00  0.00000000000E+00 -0.21389428941E+04  0.21389428941E+04  0.50400001928E-02 0. -1.
    10030    2    1    2    0    0  0.00000000000E+00  0.00000000000E+00 -0.42348408204E+03  0.38544017062E+04  0.38310669200E+04 0.  0.
        1    1    3    3  502    0  0.82834291606E+03  0.12026198198E+04  0.10354950678E+04  0.17901665992E+04  0.50400001928E-02 0.  1.
       -1    1    3    3    0  502 -0.82834291606E+03 -0.12026198198E+04 -0.14589791498E+04  0.20642351070E+04  0.50400001928E-02 0. -1.
</event>
<event>
 5   0  0.2486268E-07  0.3877034E+04  0.7818609E-02  0.8029823E-01
       -2   -1    0    0    0  501  0.00000000000E+00  0.00000000000E+00  0.27376839345E+04  0.27376839345E+04  0.25500000920E-02 0.  1.
        2   -1    0    0  501    0  0.00000000000E+00  0.00000000000E+00 -0.13726379368E+04  0.13726379368E+04  0.25500000920E-02 0. -1.
    10030    2    1    2    0    0  0.00000000000E+00  0.00000000000E+00  0.13650459977E+04  0.41103218714E+04  0.38770343448E+04 0.  0.
        5    1    3    3  502    0 -0.41443057980E+02  0.14252382745E+04 -0.70981986723E+03  0.15927611246E+04  0.46999998093E+01 0. -1.
       -5    1    3    3    0  502  0.41443057980E+02 -0.14252382745E+04  0.20748658649E+04  0.25175607468E+04  0.46999998093E+01 0.  1.
</event>
<event>
 5   0  0.7675750E-08  0.4005303E+04  0.7818609E-02  0.8003478E-01
       -1   -1    0    0    0  501  0.00000000000E+00  0.00000000000E+00  0.28755479448E+04  0.28755479448E+04  0.50400001928E-02 0. -1.
        1   -1    0    0  501    0  0.00000000000E+00  0.00000000000E+00 -0.13947298301E+04  0.13947298301E+04  0.50400001928E-02 0.  1.
    10030    2    1    2    0    0  0.00000000000E+00  0.00000000000E+00  0.14808181147E+04  0.42702777749E+04  0.40053027333E+04 0.  0.
        4    1    3    3  502    0 -0.21989746497E+03 -0.19764287705E+04  0.48814359328E+03  0.20476599719E+04  0.12699999809E+01 0. -1.
       -4    1    3    3    0  502  0.21989746497E+03  0.19764287705E+04  0.99267452141E+03  0.22226178030E+04  0.12699999809E+01 0.  1.
</event>
<event>
 5   0  0.2486268E-07  0.3861625E+04  0.7818609E-02  0.8033058E-01
        2   -1    0    0  501    0  0.00000000000E+00  0.00000000000E+00  0.25754116015E+04  0.25754116015E+04  0.25500000920E-02 0. -1.
       -2   -1    0    0    0  501  0.00000000000E+00  0.00000000000E+00 -0.14475497987E+04  0.14475497987E+04  0.25500000920E-02 0.  1.
    10030    2    1    2    0    0  0.00000000000E+00  0.00000000000E+00  0.11278618028E+04  0.40229614002E+04  0.38616248111E+04 0.  0.
        5    1    3    3  502    0 -0.16400917566E+04 -0.63174737456E+03 -0.26884699288E+03  0.17780063304E+04  0.46999998093E+01 0.  1.
       -5    1    3    3    0  502  0.16400917566E+04  0.63174737456E+03  0.13967087957E+04  0.22449550698E+04  0.46999998093E+01 0. -1.
</event>
<event>
 5   0  0.2395572E-07  0.3895076E+04  0.7818609E-02  0.8026054E-01
        2   -1    0    0  501    0  0.00000000000E+00  0.00000000000E+00  0.28953085889E+04  0.28953085889E+04  0.25500000920E-02 0.  1.
       -2   -1    0    0    0  501  0.00000000000E+00  0.00000000000E+00 -0.13100170730E+04  0.13100170730E+04  0.25500000920E-02 0. -1.
    10030    2    1    2    0    0  0.00000000000E+00  0.00000000000E+00  0.15852915159E+04  0.42053256619E+04  0.38950757030E+04 0.  0.
        3    1    3    3  502    0  0.11190754912E+04 -0.14765316232E+04  0.14408219004E+04  0.23470073175E+04  0.10100000352E+00 0. -1.
       -3    1    3    3    0  502 -0.11190754912E+04  0.14765316232E+04  0.14446961546E+03  0.18583183444E+04  0.10100000352E+00 0.  1.
</event>
<event>
 5   0  0.2395572E-07  0.3949095E+04  0.7818609E-02  0.8014895E-01
        2   -1    0    0  501    0  0.00000000000E+00  0.00000000000E+00  0.19581323150E+04  0.19581323150E+04  0.25500000920E-02 0. -1.
       -2   -1    0    0    0  501  0.00000000000E+00  0.00000000000E+00 -0.19910999767E+04  0.19910999767E+04  0.25500000920E-02 0.  1.
    10030    2    1    2    0    0  0.00000000000E+00  0.00000000000E+00 -0.32967661699E+02  0.39492322917E+04  0.39490946845E+04 0.  0.
        3    1    3    3  502    0  0.18922961981E+04 -0.11405885564E+03  0.53584227917E+03  0.19700054015E+04  0.10100000352E+00 0. -1.
       -3    1    3    3    0  502 -0.18922961981E+04  0.11405885564E+03 -0.56880994087E+03  0.19792268902E+04  0.10100000352E+00 0.  1.
</event>
<event>
 5   0  0.7675750E-08  0.3831011E+04  0.7818609E-02  0.8039533E-01
        1   -1    0    0  501    0  0.00000000000E+00  0.00000000000E+00  0.25262254120E+04  0.25262254120E+04  0.50400001928E-02 0.  1.
       -1   -1    0    0    0  501  0.00000000000E+00  0.00000000000E+00 -0.14524283249E+04  0.14524283249E+04  0.50400001928E-02 0. -1.
    10030    2    1    2    0    0  0.00000000000E+00  0.00000000000E+00  0.10737970871E+04  0.39786537370E+04  0.38310110121E+04 0.  0.
        5    1    3    3  502    0  0.95731034569E+03  0.14132998579E+04 -0.36566261605E+03  0.17457350387E+04  0.46999998093E+01 0. -1.
       -5    1    3    3    0  502 -0.95731034569E+03 -0.14132998579E+04  0.14394597031E+04  0.22329186983E+04  0.46999998093E+01 0.  1.
</event>
<event>
 5   0  0.2486268E-07  0.3872025E+04  0.7818609E-02  0.8030873E-01
       -2   -1    0    0    0  501  0.00000000000E+00  0.00000000000E+00  0.27878537476E+04  0.27878537476E+04  0.25500000920E-02 0. -1.
        2   -1    0    0  501    0  0.00000000000E+00  0.00000000000E+00 -0.13444551548E+04  0.13444551549E+04  0.25500000920E-02 0.  1.
    10030    2    1    2    0    0  0.00000000000E+00  0.00000000000E+00  0.14433985927E+04  0.41323089024E+04  0.38720249699E+04 0.  0.
        5    1    3    3  502    0 -0.13813484028E+04 -0.11893042842E+04  0.25502451985E+02  0.18229757419E+04  0.46999998093E+01 0.  1.
       -5    1    3    3    0  502  0.13813484028E+04  0.11893042842E+04  0.14178961407E+04  0.23093331605E+04  0.46999998093E+01 0. -1.
</event>
<event>
 5   0  0.2395572E-07  0.3943787E+04  0.7818609E-02  0.8015984E-01
       -2   -1    0    0    0  501  0.00000000000E+00  0.00000000000E+00  0.18492633707E+04  0.18492633707E+04  0.25500000920E-02 0. -1.
        2   -1    0    0  501    0  0.00000000000E+00  0.00000000000E+00 -0.21026551524E+04  0.21026551524E+04  0.25500000920E-02 0.  1.
    10030    2    1    2    0    0  0.00000000000E+00  0.00000000000E+00 -0.25339178165E+03  0.39519185231E+04  0.39437865837E+04 0.  0.
        3    1    3    3  502    0 -0.23593773493E+03 -0.15312520639E+04 -0.13490322695E+04  0.20543338512E+04  0.10100000352E+00 0. -1.
       -3    1    3    3    0  502  0.23593773493E+03  0.15312520639E+04  0.10956404878E+04  0.18975846718E+04  0.10100000352E+00 0.  1.
</event>
<event>
 5   0  0.7731706E-08  0.3872971E+04  0.7818609E-02  0.8030674E-01
       -1   -1    0    0    0  501  0.00000000000E+00  0.00000000000E+00  0.14841121793E+04  0.14841121793E+04  0.50400001928E-02 0.  1.
        1   -1    0    0  501    0  0.00000000000E+00  0.00000000000E+00 -0.25267469672E+04  0.25267469672E+04  0.50400001928E-02 0. -1.
    10030    2    1    2    0    0  0.00000000000E+00  0.00000000000E+00 -0.10426347879E+04  0.40108591465E+04  0.38729709258E+04 0.  0.
        3    1    3    3  502    0  0.11116213971E+04  0.52888204834E+03 -0.20693815302E+04  0.24078534589E+04  0.10100000352E+00 0. -1.
       -3    1    3    3    0  502 -0.11116213971E+04 -0.52888204834E+03  0.10267467423E+04  0.16030056876E+04  0.10100000352E+00 0.  1.
</event>
<event>
 5   0  0.7731706E-08  0.3909077E+04  0.7818609E-02  0.8023144E-01
        1   -1    0    0  501    0  0.00000000000E+00  0.00000000000E+00  0.21886446638E+04  0.21886446638E+04  0.50400001928E-02 0.  1.
       -1   -1    0    0    0  501  0.00000000000E+00  0.00000000000E+00 -0.17454736894E+04  0.17454736894E+04  0.50400001928E-02 0. -1.
    10030    2    1    2    0    0  0.00000000000E+00  0.00000000000E+00  0.44317097437E+03  0.39341183533E+04  0.39090774749E+04 0.  0.
        3    1    3    3  502    0 -0.11734547002E+04 -0.11720180564E+04  0.12624248786E+04  0.20843077609E+04  0.10100000352E+00 0.  1.
       -3    1    3    3    0  502  0.11734547002E+04  0.11720180564E+04 -0.81925390420E+03  0.18498105924E+04  0.10100000352E+00 0. -1.
</event>
<event>
 5   0  0.7675750E-08  0.3930443E+04  0.7818609E-02  0.8018727E-01
       -1   -1    0    0    0  501  0.00000000000E+00  0.00000000000E+00  0.29423006107E+04  0.29423006107E+04  0.50400001928E-02 0. -1.
        1   -1    0    0  501    0  0.00000000000E+00  0.00000000000E+00 -0.13126109219E+04  0.13126109219E+04  0.50400001928E-02 0.  1.
    10030    2    1    2    0    0  0.00000000000E+00  0.00000000000E+00  0.16296896888E+04  0.42549115327E+04  0.39304431899E+04 0.  0.
        4    1    3    3  502    0  0.15747038307E+04  0.87794157439E+03 -0.31778255462E+02  0.18031874647E+04  0.12699999809E+01 0.  1.
       -4    1    3    3    0  502 -0.15747038307E+04 -0.87794157439E+03  0.16614679442E+04  0.24517240679E+04  0.12699999809E+01 0. -1.
</event>
<event>
 5   0  0.2446281E-07  0.3991782E+04  0.7818609E-02  0.8006206E-01
        2   -1    0    0  501    0  0.00000000000E+00  0.00000000000E+00  0.24557113664E+04  0.24557113664E+04  0.25500000920E-02 0. -1.
       -2   -1    0    0    0  501  0.00000000000E+00  0.00000000000E+00 -0.16221702299E+04  0.16221702299E+04  0.25500000920E-02 0.  1.
    10030    2    1    2    0    0  0.00000000000E+00  0.00000000000E+00  0.83354113648E+03  0.40778815962E+04  0.39917824949E+04 0.  0.
        1    1    3    3  502    0  0.42090768829E+03  0.55510151736E+02 -0.15755084382E+04  0.16317081534E+04  0.50400001928E-02 0.  1.
       -1    1    3    3    0  502 -0.42090768829E+03 -0.55510151736E+02  0.24090495747E+04  0.24461734428E+04  0.50400001928E-02 0. -1.
</event>
<event>
 5   0  0.2486268E-07  0.3858130E+04  0.7818609E-02  0.8033794E-01
       -2   -1    0    0    0  501  0.00000000000E+00  0.00000000000E+00  0.18846028073E+04  0.18846028073E+04  0.25500000920E-02 0. -1.
        2   -1    0    0  501    0  0.00000000000E+00  0.00000000000E+00 -0.19745762409E+04  0.19745762409E+04  0.25500000920E-02 0.  1.
    10030    2    1    2    0    0  0.00000000000E+00  0.00000000000E+00 -0.89973433643E+02  0.38591790482E+04  0.38581300791E+04 0.  0.
        5    1    3    3  502    0  0.42278377828E+02 -0.29965493167E+03  0.18607056205E+04  0.18851599496E+04  0.46999998093E+01 0. -1.
       -5    1    3    3    0  502 -0.42278377828E+02  0.29965493167E+03 -0.19506790542E+04  0.19740190986E+04  0.46999998093E+01 0.  1.
</event>
<event>
 5   0  0.2473224E-07  0.3808944E+04  0.7818609E-02  0.8044238E-01
       -2   -1    0    0    0  501  0.00000000000E+00  0.00000000000E+00  0.21335658816E+04  0.21335658816E+04  0.25500000920E-02 0. -1.
        2   -1    0    0  501    0  0.00000000000E+00  0.00000000000E+00 -0.16999773789E+04  0.16999773789E+04  0.25500000920E-02 0.  1.
    10030    2    1    2    0    0  0.00000000000E+00  0.00000000000E+00  0.43358850267E+03  0.38335432604E+04  0.38089440715E+04 0.  0.
        2    1    3    3  502    0 -0.55462588832E+03  0.41845237704E+03  0.20014639992E+04  0.21186246500E+04  0.25500000920E-02 0. -1.
       -2    1    3    3    0  502  0.55462588832E+03 -0.41845237704E+03 -0.15678754965E+04  0.17149186104E+04  0.25500000920E-02 0.  1.
</event>
<event>
 5   0  0.2395572E-07  0.3938120E+04  0.7818609E-02  0.8017147E-01
        2   -1    0    0  501    0  0.00000000000E+00  0.00000000000E+00  0.20014038928E+04  0.20014038928E+04  0.25500000920E-02 0.  1.
       -2   -1    0    0    0  501  0.00000000000E+00  0.00000000000E+00 -0.19372386670E+04  0.19372386670E+04  0.25500000920E-02 0. -1.
    10030    2    1    2    0    0  0.00000000000E+00  0.00000000000E+00  0.64165225801E+02  0.39386425598E+04  0.39381198608E+04 0.  0.
        3    1    3    3  502    0  0.11861439975E+04 -0.37411663233E+03  0.15588159866E+04  0.19941936034E+04  0.10100000352E+00 0.  1.
       -3    1    3    3    0  502 -0.11861439975E+04  0.37411663233E+03 -0.14946507608E+04  0.19444489565E+04  0.10100000352E+00 0. -1.
</event>
<event>
 5   0  0.7675750E-08  0.3884055E+04  0.7818609E-02  0.8028354E-01
        1   -1    0    0  501    0  0.00000000000E+00  0.00000000000E+00  0.24230915508E+04  0.24230915508E+04  0.50400001928E-02 0. -1.
       -1   -1    0    0    0  501  0.00000000000E+00  0.00000000000E+00 -0.15564710186E+04  0.15564710186E+04  0.50400001928E-02 0.  1.
    10030    2    1    2    0    0  0.00000000000E+00  0.00000000000E+00  0.86662053227E+03  0.39795625694E+04  0.38840554961E+04 0.  0.
        4    1    3    3  502    0  0.18659153032E+04 -0.12126993616E+03  0.97073051673E+03  0.21068141031E+04  0.12699999809E+01 0.  1.
       -4    1    3    3    0  502 -0.18659153032E+04  0.12126993616E+03 -0.10410998446E+03  0.18727484663E+04  0.12699999809E+01 0. -1.
</event>
<event>
 5   0  0.7675750E-08  0.3854327E+04  0.7818609E-02  0.8034596E-01
        1   -1    0    0  501    0  0.00000000000E+00  0.00000000000E+00  0.19835312853E+04  0.19835312853E+04  0.50400001928E-02 0.  1.
       -1   -1    0    0    0  501  0.00000000000E+00  0.00000000000E+00 -0.18723978303E+04  0.18723978303E+04  0.50400001928E-02 0. -1.
    10030    2    1    2    0    0  0.00000000000E+00  0.00000000000E+00  0.11113345497E+03  0.38559291156E+04  0.38543272694E+04 0.  0.
        1    1    3    3  502    0  0.32838663023E+03 -0.16892061412E+04 -0.81237928568E+03  0.19029490982E+04  0.50400001928E-02 0. -1.
       -1    1    3    3    0  502 -0.32838663023E+03  0.16892061412E+04  0.92351274065E+03  0.19529800174E+04  0.50400001928E-02 0.  1.
</event>
<event>
 5   0  0.2395572E-07  0.3962979E+04  0.7818609E-02  0.8012057E-01
        2   -1    0    0  501    0  0.00000000000E+00  0.00000000000E+00  0.23342830782E+04  0.23342830782E+04  0.25500000920E-02 0. -1.
       -2   -1    0    0    0  501  0.00000000000E+00  0.00000000000E+00 -0.16820160249E+04  0.16820160249E+04  0.25500000920E-02 0.  1.
    10030    2    1    2    0    0  0.00000000000E+00  0.00000000000E+00  0.65226705330E+03  0.40162991031E+04  0.39629794570E+04 0.  0.
        3    1    3    3  502    0  0.14408132448E+04 -0.11684653426E+04  0.10319574094E+04  0.21227788788E+04  0.10100000352E+00 0.  1.
       -3    1    3    3    0  502 -0.14408132448E+04  0.11684653426E+04 -0.37969035607E+03  0.18935202243E+04  0.10100000352E+00 0. -1.
</event>
<event>
 5   0  0.2486268E-07  0.3917498E+04  0.7818609E-02  0.8021400E-01
        2   -1    0    0  501    0  0.00000000000E+00  0.00000000000E+00  0.27551843929E+04  0.27551843929E+04  0.25500000920E-02 0. -1.
       -2   -1    0    0    0  501  0.00000000000E+00  0.00000000000E+00 -0.13925377655E+04  0.13925377655E+04  0.25500000920E-02 0.  1.
    10030    2    1    2    0    0  0.00000000000E+00  0.00000000000E+00  0.13626466275E+04  0.41477221584E+04  0.39174983436E+04 0.  0.
        5    1    3    3  502    0 -0.18277622031E+04 -0.70372196120E+03  0.65258096563E+03  0.20644183870E+04  0.46999998093E+01 0. -1.
       -5    1    3    3    0  502  0.18277622031E+04  0.70372196120E+03  0.71006566183E+03  0.20833037714E+04  0.46999998093E+01 0.  1.
</event>
<event>
 5   0  0.7731706E-08  0.3920374E+04  0.7818609E-02  0.8020805E-01
        1   -1    0    0  501    0  0.00000000000E+00  0.00000000000E+00  0.19653724199E+04  0.19653724199E+04  0.50400001928E-02 0. -1.
       -1   -1    0    0    0  501  0.00000000000E+00  0.00000000000E+00 -0.19550157132E+04  0.19550157132E+04  0.50400001928E-02 0.  1.
    10030    2    1    2    0    0  0.00000000000E+00  0.00000000000E+00  0.10356706720E+02  0.39203881331E+04  0.39203744531E+04 0.  0.
        3    1    3    3  502    0 -0.98530062761E+03  0.10440829805E+04  0.13398767419E+04  0.19637200133E+04  0.10100000352E+00 0. -1.
       -3    1    3    3    0  502  0.98530062761E+03 -0.10440829805E+04 -0.13295200352E+04  0.19566681198E+04  0.10100000352E+00 0.  1.
</event>
<event>
 5   0  0.7675750E-08  0.3966937E+04  0.7818609E-02  0.8011250E-01
       -1   -1    0    0    0  501  0.00000000000E+00  0.00000000000E+00  0.22339655221E+04  0.22339655221E+04  0.50400001928E-02 0. -1.
        1   -1    0    0  501    0  0.00000000000E+00  0.00000000000E+00 -0.17610596063E+04  0.17610596063E+04  0.50400001928E-02 0.  1.
    10030    2    1    2    0    0  0.00000000000E+00  0.00000000000E+00  0.47290591581E+03  0.39950251283E+04  0.39669365726E+04 0.  0.
        4    1    3    3  502    0  0.74874515217E+03 -0.82175248325E+03  0.18907184920E+04  0.21933341003E+04  0.12699999809E+01 0. -1.
       -4    1    3    3    0  502 -0.74874515217E+03  0.82175248325E+03 -0.14178125761E+04  0.18016910281E+04  0.12699999809E+01 0.  1.
</event>
<event>
 5   0  0.7675750E-08  0.3932237E+04  0.7818609E-02  0.8018358E-01
        1   -1    0    0  501    0  0.00000000000E+00  0.00000000000E+00  0.12163030775E+04  0.12163030776E+04  0.50400001928E-02 0.  1.
       -1   -1    0    0    0  501  0.00000000000E+00  0.00000000000E+00 -0.31781729287E+04  0.31781729288E+04  0.50400001928E-02 0. -1.
    10030    2    1    2    0    0  0.00000000000E+00  0.00000000000E+00 -0.19618698512E+04  0.43944760063E+04  0.39322367753E+04 0.  0.
        2    1    3    3  502    0 -0.18567984490E+04 -0.41760871350E+03 -0.15324257845E+04  0.24434455801E+04  0.25500000920E-02 0. -1.
       -2    1    3    3    0  502  0.18567984490E+04  0.41760871350E+03 -0.42944406671E+03  0.19510304262E+04  0.25500000920E-02 0.  1.
</event>
<event>
 5   0  0.2384787E-07  0.3947757E+04  0.7818609E-02  0.8015169E-01
        2   -1    0    0  501    0  0.00000000000E+00  0.00000000000E+00  0.20106834578E+04  0.20106834578E+04  0.25500000920E-02 0. -1.
       -2   -1    0    0    0  501  0.00000000000E+00  0.00000000000E+00 -0.19377468323E+04  0.19377468323E+04  0.25500000920E-02 0.  1.
    10030    2    1    2    0    0  0.00000000000E+00  0.00000000000E+00  0.72936625481E+02  0.39484302901E+04  0.39477565787E+04 0.  0.
        4    1    3    3  502    0  0.63555897457E+03  0.26380196503E+03  0.18868292245E+04  0.20083955841E+04  0.12699999809E+01 0. -1.
       -4    1    3    3    0  502 -0.63555897457E+03 -0.26380196503E+03 -0.18138925990E+04  0.19400347060E+04  0.12699999809E+01 0.  1.
</event>
<event>
 5   0  0.7675750E-08  0.3936045E+04  0.7818609E-02  0.8017574E-01
        1   -1    0    0  501    0  0.00000000000E+00  0.00000000000E+00  0.14350797298E+04  0.14350797298E+04  0.50400001928E-02 0.  1.
       -1   -1    0    0    0  501  0.00000000000E+00  0.00000000000E+00 -0.26988827842E+04  0.26988827842E+04  0.50400001928E-02 0. -1.
    10030    2    1    2    0    0  0.00000000000E+00  0.00000000000E+00 -0.12638030544E+04  0.41339625139E+04  0.39360447033E+04 0.  0.
        5    1    3    3  502    0 -0.77386177587E+03  0.15675290650E+04 -0.15812790094E+04  0.23572175999E+04  0.46999998093E+01 0. -1.
       -5    1    3    3    0  502  0.77386177587E+03 -0.15675290650E+04  0.31747595500E+03  0.17767449141E+04  0.46999998093E+01 0.  1.
</event>
<event>
 5   0  0.2486268E-07  0.3910034E+04  0.7818609E-02  0.8022945E-01
        2   -1    0    0  501    0  0.00000000000E+00  0.00000000000E+00  0.17675759348E+04  0.17675759348E+04  0.25500000920E-02 0.  1.
       -2   -1    0    0    0  501  0.00000000000E+00  0.00000000000E+00 -0.21623354579E+04  0.21623354579E+04  0.25500000920E-02 0. -1.
    10030    2    1    2    0    0  0.00000000000E+00  0.00000000000E+00 -0.39475952314E+03  0.39299113927E+04  0.39100343315E+04 0.  0.
        5    1    3    3  502    0 -0.86042584391E+03 -0.46221141422E+03  0.15047755386E+04  0.17939742295E+04  0.46999998093E+01 0.  1.
       -5    1    3    3    0  502  0.86042584391E+03  0.46221141422E+03 -0.18995350618E+04  0.21359371632E+04  0.46999998093E+01 0. -1.
</event>
<event>
 5   0  0.7675750E-08  0.3900917E+04  0.7818609E-02  0.8024838E-01
        1   -1    0    0  501    0  0.00000000000E+00  0.00000000000E+00  0.16210388659E+04  0.16210388659E+04  0.50400001928E-02 0. -1.
       -1   -1    0    0    0  501  0.00000000000E+00  0.00000000000E+00 -0.23468214718E+04  0.23468214718E+04  0.50400001928E-02 0.  1.
    10030    2    1    2    0    0  0.00000000000E+00  0.00000000000E+00 -0.72578260591E+03  0.39678603377E+04  0.39009172342E+04 0.  0.
        2    1    3    3  502    0 -0.12037285601E+04 -0.63143898052E+03 -0.17856849167E+04  0.22441809763E+04  0.25500000920E-02 0.  1.
       -2    1    3    3    0  502  0.12037285601E+04  0.63143898052E+03  0.10599023108E+04  0.17236793614E+04  0.25500000920E-02 0. -1.
</event>
<event>
 5   0  0.2446281E-07  0.3889718E+04  0.7818609E-02  0.8027171E-01
        2   -1    0    0  501    0  0.00000000000E+00  0.00000000000E+00  0.21796679842E+04  0.21796679842E+04  0.25500000920E-02 0. -1.
       -2   -1    0    0    0  501  0.00000000000E+00  0.00000000000E+00 -0.17353454557E+04  0.17353454557E+04  0.25500000920E-02 0.  1.
    10030    2    1    2    0    0  0.00000000000E+00  0.00000000000E+00  0.44432252852E+03  0.39150134399E+04  0.38897182064E+04 0.  0.
        1    1    3    3  502    0 -0.14362368266E+03 -0.47385668672E+03  0.21151656395E+04  0.21723474870E+04  0.50400001928E-02 0. -1.
       -1    1    3    3    0  502  0.14362368266E+03  0.47385668672E+03 -0.16708431110E+04  0.17426659529E+04  0.50400001928E-02 0.  1.
</event>
<event>
 5   0  0.7675750E-08  0.3611618E+04  0.7818609E-02  0.8087836E-01
       -1   -1    0    0    0  501  0.00000000000E+00  0.00000000000E+00  0.16767767816E+04  0.16767767816E+04  0.50400001928E-02 0.  1.
        1   -1    0    0  501    0  0.00000000000E+00  0.00000000000E+00 -0.19447700435E+04  0.19447700435E+04  0.50400001928E-02 0. -1.
    10030    2    1    2    0    0  0.00000000000E+00  0.00000000000E+00 -0.26799326190E+03  0.36215468252E+04  0.36116175072E+04 0.  0.
        5    1    3    3  502    0 -0.50393019031E+03 -0.16218334799E+04  0.48139550011E+03  0.17652345993E+04  0.46999998093E+01 0.  1.
       -5    1    3    3    0  502  0.50393019031E+03  0.16218334799E+04 -0.74938876201E+03  0.18563122258E+04  0.46999998093E+01 0. -1.
</event>
<event>
 5   0  0.7675750E-08  0.3519529E+04  0.7818609E-02  0.8109177E-01
        1   -1    0    0  501    0  0.00000000000E+00  0.00000000000E+00  0.11176997193E+04  0.11176997193E+04  0.50400001928E-02 0. -1.
       -1   -1    0    0    0  501  0.00000000000E+00  0.00000000000E+00 -0.27706647870E+04  0.27706647870E+04  0.50400001928E-02 0.  1.
    10030    2    1    2    0    0  0.00000000000E+00  0.00000000000E+00 -0.16529650677E+04  0.38883645064E+04  0.35195290906E+04 0.  0.
        2    1    3    3  502    0  0.16996084799E+04  0.45541013602E+03 -0.85579356638E+03  0.19566425338E+04  0.25500000920E-02 0. -1.
       -2    1    3    3    0  502 -0.16996084799E+04 -0.45541013602E+03 -0.79717150129E+03  0.19317219726E+04  0.25500000920E-02 0.  1.
</event>
<event>
 5   0  0.2473224E-07  0.3924486E+04  0.7818609E-02  0.8019956E-01
        2   -1    0    0  501    0  0.00000000000E+00  0.00000000000E+00  0.20456226628E+04  0.20456226628E+04  0.25500000920E-02 0. -1.
       -2   -1    0    0    0  501  0.00000000000E+00  0.00000000000E+00 -0.18822621394E+04  0.18822621394E+04  0.25500000920E-02 0.  1.
    10030    2    1    2    0    0  0.00000000000E+00  0.00000000000E+00  0.16336052335E+03  0.39278848022E+04  0.39244862541E+04 0.  0.
        2    1    3    3  502    0  0.62340140461E+03 -0.18408630136E+04  0.35208480793E+03  0.19751885120E+04  0.25500000920E-02 0. -1.
       -2    1    3    3    0  502 -0.62340140461E+03  0.18408630136E+04 -0.18872428458E+03  0.19526962902E+04  0.25500000920E-02 0.  1.
</event>
<event>
 5   0  0.2473224E-07  0.3936305E+04  0.7818609E-02  0.8017521E-01
       -2   -1    0    0    0  501  0.00000000000E+00  0.00000000000E+00  0.17997326183E+04  0.17997326183E+04  0.25500000920E-02 0. -1.
        2   -1    0    0  501    0  0.00000000000E+00  0.00000000000E+00 -0.21523332658E+04  0.21523332658E+04  0.25500000920E-02 0.  1.
    10030    2    1    2    0    0  0.00000000000E+00  0.00000000000E+00 -0.35260064746E+03  0.39520658841E+04  0.39363050613E+04 0.  0.
        2    1    3    3  502    0 -0.10004429916E+03  0.14571909050E+04  0.11481518514E+04  0.18578662140E+04  0.25500000920E-02 0. -1.
       -2    1    3    3    0  502  0.10004429916E+03 -0.14571909050E+04 -0.15007524988E+04  0.20941996701E+04  0.25500000920E-02 0.  1.
</event>
<event>
 5   0  0.2384787E-07  0.3917876E+04  0.7818609E-02  0.8021322E-01
        2   -1    0    0  501    0  0.00000000000E+00  0.00000000000E+00  0.27294703219E+04  0.27294703219E+04  0.25500000920E-02 0.  1.
       -2   -1    0    0    0  501  0.00000000000E+00  0.00000000000E+00 -0.14059279468E+04  0.14059279468E+04  0.25500000920E-02 0. -1.
    10030    2    1    2    0    0  0.00000000000E+00  0.00000000000E+00  0.13235423751E+04  0.41353982687E+04  0.39178762643E+04 0.  0.
        4    1    3    3  502    0 -0.13893128128E+04 -0.13290335908E+04  0.26554084701E+03  0.19408848321E+04  0.12699999809E+01 0. -1.
       -4    1    3    3    0  502  0.13893128128E+04  0.13290335908E+04  0.10580015281E+04  0.21945134366E+04  0.12699999809E+01 0.  1.
</event>
<event>
 5   0  0.2473224E-07  0.4323951E+04  0.7818609E-02  0.7942204E-01
       -2   -1    0    0    0  501  0.00000000000E+00  0.00000000000E+00  0.21968817863E+04  0.21968817863E+04  0.25500000920E-02 0. -1.
        2   -1    0    0  501    0  0.00000000000E+00  0.00000000000E+00 -0.21276235574E+04  0.21276235574E+04  0.25500000920E-02 0.  1.
    10030    2    1    2    0    0  0.00000000000E+00  0.00000000000E+00  0.69258228883E+02  0.43245053437E+04  0.43239507126E+04 0.  0.
        2    1    3    3  502    0  0.56407983543E+03 -0.20054936000E+04  0.61258454254E+03  0.21715087985E+04  0.25500000920E-02 0.  1.
       -2    1    3    3    0  502 -0.56407983543E+03  0.20054936000E+04 -0.54332631366E+03  0.21529965452E+04  0.25500000920E-02 0. -1.
</event>
<event>
 5   0  0.2473224E-07  0.3850506E+04  0.7818609E-02  0.8035403E-01
        2   -1    0    0  501    0  0.00000000000E+00  0.00000000000E+00  0.25884783713E+04  0.25884783713E+04  0.25500000920E-02 0. -1.
       -2   -1    0    0    0  501  0.00000000000E+00  0.00000000000E+00 -0.14319604316E+04  0.14319604316E+04  0.25500000920E-02 0.  1.
    10030    2    1    2    0    0  0.00000000000E+00  0.00000000000E+00  0.11565179397E+04  0.40204388028E+04  0.38505057360E+04 0.  0.
        2    1    3    3  502    0 -0.16268501587E+04  0.76855204797E+03 -0.13701756671E+03  0.18044632174E+04  0.25500000920E-02 0.  1.
       -2    1    3    3    0  502  0.16268501587E+04 -0.76855204797E+03  0.12935355064E+04  0.22159755855E+04  0.25500000920E-02 0. -1.
</event>
<event>
 5   0  0.2395572E-07  0.3639084E+04  0.7818609E-02  0.8081597E-01
       -2   -1    0    0    0  501  0.00000000000E+00  0.00000000000E+00  0.16133854526E+04  0.16133854526E+04  0.25500000920E-02 0. -1.
        2   -1    0    0  501    0  0.00000000000E+00  0.00000000000E+00 -0.20520412090E+04  0.20520412090E+04  0.25500000920E-02 0.  1.
    10030    2    1    2    0    0  0.00000000000E+00  0.00000000000E+00 -0.43865575647E+03  0.36654266616E+04  0.36390841896E+04 0.  0.
        3    1    3    3  502    0 -0.37365452895E+03 -0.10592359918E+04 -0.16611699683E+04  0.20052641390E+04  0.10100000352E+00 0.  1.
       -3    1    3    3    0  502  0.37365452895E+03  0.10592359918E+04  0.12225142118E+04  0.16601625226E+04  0.10100000352E+00 0. -1.
</event>
<event>
 5   0  0.7675750E-08  0.3905095E+04  0.7818609E-02  0.8023970E-01
        1   -1    0    0  501    0  0.00000000000E+00  0.00000000000E+00  0.28335236312E+04  0.28335236312E+04  0.50400001928E-02 0. -1.
       -1   -1    0    0    0  501  0.00000000000E+00  0.00000000000E+00 -0.13454774281E+04  0.13454774281E+04  0.50400001928E-02 0.  1.
    10030    2    1    2    0    0  0.00000000000E+00  0.00000000000E+00  0.14880462032E+04  0.41790010593E+04  0.39050951782E+04 0.  0.
        4    1    3    3  502    0 -0.14084940199E+04 -0.27860058627E+03 -0.67203088722E+03  0.15852762589E+04  0.12699999809E+01 0.  1.
       -4    1    3    3    0  502  0.14084940199E+04  0.27860058627E+03  0.21600770904E+04  0.25937248004E+04  0.12699999809E+01 0. -1.
</event>
<event>
 5   0  0.7675750E-08  0.3750436E+04  0.7818609E-02  0.8056876E-01
        1   -1    0    0  501    0  0.00000000000E+00  0.00000000000E+00  0.23788159329E+04  0.23788159329E+04  0.50400001928E-02 0. -1.
       -1   -1    0    0    0  501  0.00000000000E+00  0.00000000000E+00 -0.14782326529E+04  0.14782326529E+04  0.50400001928E-02 0.  1.
    10030    2    1    2    0    0  0.00000000000E+00  0.00000000000E+00  0.90058328004E+03  0.38570485858E+04  0.37504364478E+04 0.  0.
        1    1    3    3  502    0 -0.30726886080E+03  0.33372227397E+03 -0.14209527143E+04  0.14916069607E+04  0.50400001928E-02 0.  1.
       -1    1    3    3    0  502  0.30726886080E+03 -0.33372227397E+03  0.23215359943E+04  0.23654416251E+04  0.50400001928E-02 0. -1.
</event>
<event>
 5   0  0.7731706E-08  0.3881879E+04  0.7818609E-02  0.8028809E-01
       -1   -1    0    0    0  501  0.00000000000E+00  0.00000000000E+00  0.17636507388E+04  0.17636507388E+04  0.50400001928E-02 0. -1.
        1   -1    0    0  501    0  0.00000000000E+00  0.00000000000E+00 -0.21360497229E+04  0.21360497229E+04  0.50400001928E-02 0.  1.
    10030    2    1    2    0    0  0.00000000000E+00  0.00000000000E+00 -0.37239898416E+03  0.38997004617E+04  0.38818787575E+04 0.  0.
        3    1    3    3  502    0 -0.17780558177E+04 -0.42308563122E+03  0.47006969075E+03  0.18871802952E+04  0.10100000352E+00 0. -1.
       -3    1    3    3    0  502  0.17780558177E+04  0.42308563122E+03 -0.84246867491E+03  0.20125201665E+04  0.10100000352E+00 0.  1.
</event>
<event>
 5   0  0.7675750E-08  0.4046720E+04  0.7818609E-02  0.7995187E-01
        1   -1    0    0  501    0  0.00000000000E+00  0.00000000000E+00  0.23252188377E+04  0.23252188377E+04  0.50400001928E-02 0.  1.
       -1   -1    0    0    0  501  0.00000000000E+00  0.00000000000E+00 -0.17606882318E+04  0.17606882318E+04  0.50400001928E-02 0. -1.
    10030    2    1    2    0    0  0.00000000000E+00  0.00000000000E+00  0.56453060594E+03  0.40859070695E+04  0.40467198785E+04 0.  0.
        2    1    3    3  502    0 -0.11375130341E+04  0.40629813516E+03 -0.13567133311E+04  0.18165035481E+04  0.25500000920E-02 0. -1.
       -2    1    3    3    0  502  0.11375130341E+04 -0.40629813516E+03  0.19212439370E+04  0.22694035214E+04  0.25500000920E-02 0.  1.
</event>
<event>
 5   0  0.7731706E-08  0.3885957E+04  0.7818609E-02  0.8027956E-01
       -1   -1    0    0    0  501  0.00000000000E+00  0.00000000000E+00  0.14022364590E+04  0.14022364590E+04  0.50400001928E-02 0.  1.
        1   -1    0    0  501    0  0.00000000000E+00  0.00000000000E+00 -0.26922464618E+04  0.26922464618E+04  0.50400001928E-02 0. -1.
    10030    2    1    2    0    0  0.00000000000E+00  0.00000000000E+00 -0.12900100029E+04  0.40944829208E+04  0.38859573571E+04 0.  0.
        3    1    3    3  502    0  0.12343441676E+04 -0.13263694852E+04  0.94290357917E+02  0.18143186648E+04  0.10100000352E+00 0.  1.
       -3    1    3    3    0  502 -0.12343441676E+04  0.13263694852E+04 -0.13843003608E+04  0.22801642561E+04  0.10100000352E+00 0. -1.
</event>
<event>
 5   0  0.2384787E-07  0.3855676E+04  0.7818609E-02  0.8034311E-01
        2   -1    0    0  501    0  0.00000000000E+00  0.00000000000E+00  0.20240683592E+04  0.20240683592E+04  0.25500000920E-02 0.  1.
       -2   -1    0    0    0  501  0.00000000000E+00  0.00000000000E+00 -0.18361828234E+04  0.18361828234E+04  0.25500000920E-02 0. -1.
    10030    2    1    2    0    0  0.00000000000E+00  0.00000000000E+00  0.18788553583E+03  0.38602511826E+04  0.38556761039E+04 0.  0.
        4    1    3    3  502    0  0.17225427329E+04  0.50389933434E+03 -0.61080294033E+03  0.18958243195E+04  0.12699999809E+01 0.  1.
       -4    1    3    3    0  502 -0.17225427329E+04 -0.50389933434E+03  0.79868847615E+03  0.19644268631E+04  0.12699999809E+01 0. -1.
</event>
<event>
 5   0  0.2384787E-07  0.3913203E+04  0.7818609E-02  0.8022289E-01
       -2   -1    0    0    0  501  0.00000000000E+00  0.00000000000E+00  0.24673060575E+04  0.24673060575E+04  0.25500000920E-02 0.  1.
        2   -1    0    0  501    0  0.00000000000E+00  0.00000000000E+00 -0.15516068452E+04  0.15516068452E+04  0.25500000920E-02 0. -1.
    10030    2    1    2    0    0  0.00000000000E+00  0.00000000000E+00  0.91569921233E+03  0.40189129027E+04  0.39132027640E+04 0.  0.
        4    1    3    3  502    0  0.19298597740E+04 -0.12857100350E+03  0.76146742139E+03  0.20786350081E+04  0.12699999809E+01 0. -1.
       -4    1    3    3    0  502 -0.19298597740E+04  0.12857100350E+03  0.15423179094E+03  0.19402778946E+04  0.12699999809E+01 0.  1.
</event>
<event>
 5   0  0.2473224E-07  0.3368630E+04  0.7818609E-02  0.8145649E-01
       -2   -1    0    0    0  501  0.00000000000E+00  0.00000000000E+00  0.26653429199E+04  0.26653429199E+04  0.25500000920E-02 0.  1.
        2   -1    0    0  501    0  0.00000000000E+00  0.00000000000E+00 -0.10643721730E+04  0.10643721730E+04  0.25500000920E-02 0. -1.
    10030    2    1    2    0    0  0.00000000000E+00  0.00000000000E+00  0.16009707469E+04  0.37297150929E+04  0.33686298908E+04 0.  0.
        2    1    3    3  502    0 -0.14446383192E+04  0.42503377483E+03 -0.34899416677E+02  0.15062707434E+04  0.25500000920E-02 0. -1.
       -2    1    3    3    0  502  0.14446383192E+04 -0.42503377483E+03  0.16358701636E+04  0.22234443495E+04  0.25500000920E-02 0.  1.
</event>
<event>
 5   0  0.7675750E-08  0.3409380E+04  0.7818609E-02  0.8135608E-01
        1   -1    0    0  501    0  0.00000000000E+00  0.00000000000E+00  0.21082084784E+04  0.21082084784E+04  0.50400001928E-02 0.  1.
       -1   -1    0    0    0  501  0.00000000000E+00  0.00000000000E+00 -0.13784064197E+04  0.13784064197E+04  0.50400001928E-02 0. -1.
    10030    2    1    2    0    0  0.00000000000E+00  0.00000000000E+00  0.72980205865E+03  0.34866148981E+04  0.34093800614E+04 0.  0.
        4    1    3    3  502    0  0.88252064243E+03  0.24132170339E+03 -0.11060459440E+04  0.14354156513E+04  0.12699999809E+01 0. -1.
       -4    1    3    3    0  502 -0.88252064243E+03 -0.24132170339E+03  0.18358480026E+04  0.20511992469E+04  0.12699999809E+01 0.  1.
</event>
<event>
 5   0  0.7731706E-08  0.3884871E+04  0.7818609E-02  0.8028183E-01
        1   -1    0    0  501    0  0.00000000000E+00  0.00000000000E+00  0.20073452921E+04  0.20073452921E+04  0.50400001928E-02 0. -1.
       -1   -1    0    0    0  501  0.00000000000E+00  0.00000000000E+00 -0.18796249234E+04  0.18796249234E+04  0.50400001928E-02 0.  1.
    10030    2    1    2    0    0  0.00000000000E+00  0.00000000000E+00  0.12772036873E+03  0.38869702155E+04  0.38848712930E+04 0.  0.
        3    1    3    3  502    0  0.94954543465E+03 -0.16520431381E+04  0.44112247556E+03  0.19558814155E+04  0.10100000352E+00 0. -1.
       -3    1    3    3    0  502 -0.94954543465E+03  0.16520431381E+04 -0.31340210683E+03  0.19310888000E+04  0.10100000352E+00 0.  1.
</event>
<event>
 5   0  0.7675750E-08  0.3854905E+04  0.7818609E-02  0.8034474E-01
        1   -1    0    0  501    0  0.00000000000E+00  0.00000000000E+00  0.22759602218E+04  0.22759602218E+04  0.50400001928E-02 0.  1.
       -1   -1    0    0    0  501  0.00000000000E+00  0.00000000000E+00 -0.16323100711E+04  0.16323100711E+04  0.50400001928E-02 0. -1.
    10030    2    1    2    0    0  0.00000000000E+00  0.00000000000E+00  0.64365015077E+03  0.39082702929E+04  0.38549048193E+04 0.  0.
        4    1    3    3  502    0 -0.78564611916E+03 -0.95306151875E+03 -0.11783567932E+04  0.17070713014E+04  0.12699999809E+01 0. -1.
       -4    1    3    3    0  502  0.78564611916E+03  0.95306151875E+03  0.18220069440E+04  0.22011989915E+04  0.12699999809E+01 0.  1.
</event>
<event>
 5   0  0.7675750E-08  0.3908828E+04  0.7818609E-02  0.8023196E-01
        1   -1    0    0  501    0  0.00000000000E+00  0.00000000000E+00  0.26822510808E+04  0.26822510808E+04  0.50400001928E-02 0.  1.
       -1   -1    0    0    0  501  0.00000000000E+00  0.00000000000E+00 -0.14240774202E+04  0.14240774203E+04  0.50400001928E-02 0. -1.
    10030    2    1    2    0    0  0.00000000000E+00  0.00000000000E+00  0.12581736605E+04  0.41063285011E+04  0.39088275478E+04 0.  0.
        4    1    3    3  502    0 -0.82207239310E+03 -0.13003998519E+04 -0.63717456266E+03  0.16651834225E+04  0.12699999809E+01 0. -1.
       -4    1    3    3    0  502  0.82207239310E+03  0.13003998519E+04  0.18953482232E+04  0.24411450785E+04  0.12699999809E+01 0.  1.
</event>
<event>
 5   0  0.2446281E-07  0.4099963E+04  0.7818609E-02  0.7984679E-01
       -2   -1    0    0    0  501  0.00000000000E+00  0.00000000000E+00  0.22353380062E+04  0.22353380062E+04  0.25500000920E-02 0.  1.
        2   -1    0    0  501    0  0.00000000000E+00  0.00000000000E+00 -0.18799951870E+04  0.18799951870E+04  0.25500000920E-02 0. -1.
    10030    2    1    2    0    0  0.00000000000E+00  0.00000000000E+00  0.35534281925E+03  0.41153331932E+04  0.40999632647E+04 0.  0.
        1    1    3    3  502    0  0.29298285185E+03  0.16418592890E+04  0.13741483186E+04  0.21609776672E+04  0.50400001928E-02 0.  1.
       -1    1    3    3    0  502 -0.29298285185E+03 -0.16418592890E+04 -0.10188054994E+04  0.19543555260E+04  0.50400001928E-02 0. -1.
</event>
<event>
 5   0  0.2473224E-07  0.3906915E+04  0.7818609E-02  0.8023593E-01
       -2   -1    0    0    0  501  0.00000000000E+00  0.00000000000E+00  0.29712414221E+04  0.29712414221E+04  0.25500000920E-02 0.  1.
        2   -1    0    0  501    0  0.00000000000E+00  0.00000000000E+00 -0.12843103673E+04  0.12843103673E+04  0.25500000920E-02 0. -1.
    10030    2    1    2    0    0  0.00000000000E+00  0.00000000000E+00  0.16869310548E+04  0.42555517894E+04  0.39069149784E+04 0.  0.
        2    1    3    3  502    0  0.11226671059E+04 -0.81065727499E+01  0.25847271466E+04  0.28180244089E+04  0.25500000920E-02 0.  1.
       -2    1    3    3    0  502 -0.11226671059E+04  0.81065727499E+01 -0.89779609176E+03  0.14375273804E+04  0.25500000920E-02 0. -1.
</event>
<event>
 5   0  0.2395572E-07  0.3887285E+04  0.7818609E-02  0.8027679E-01
        2   -1    0    0  501    0  0.00000000000E+00  0.00000000000E+00  0.18505208627E+04  0.18505208627E+04  0.25500000920E-02 0.  1.
       -2   -1    0    0    0  501  0.00000000000E+00  0.00000000000E+00 -0.20414499600E+04  0.20414499600E+04  0.25500000920E-02 0. -1.
    10030    2    1    2    0    0  0.00000000000E+00  0.00000000000E+00 -0.19092909734E+03  0.38919708227E+04  0.38872847805E+04 0.  0.
        3    1    3    3  502    0 -0.17448364251E+04  0.81767895925E+03 -0.35011875699E+03  0.19584780277E+04  0.10100000352E+00 0. -1.
       -3    1    3    3    0  502  0.17448364251E+04 -0.81767895925E+03  0.15918965965E+03  0.19334927951E+04  0.10100000352E+00 0.  1.
</event>
<event>
 5   0  0.2486268E-07  0.3895384E+04  0.7818609E-02  0.8025990E-01
        2   -1    0    0  501    0  0.00000000000E+00  0.00000000000E+00  0.16267106028E+04  0.16267106028E+04  0.25500000920E-02 0. -1.
       -2   -1    0    0    0  501  0.00000000000E+00  0.00000000000E+00 -0.23320090277E+04  0.23320090277E+04  0.25500000920E-02 0.  1.
    10030    2    1    2    0    0  0.00000000000E+00  0.00000000000E+00 -0.70529842498E+03  0.39587196305E+04  0.38953838379E+04 0.  0.
        5    1    3    3  502    0 -0.17304294851E+04  0.11663384650E+03 -0.12533393090E+04  0.21398297060E+04  0.46999998093E+01 0.  1.
       -5    1    3    3    0  502  0.17304294851E+04 -0.11663384650E+03  0.54804088400E+03  0.18188899245E+04  0.46999998093E+01 0. -1.
</event>
<event>
 5   0  0.7675750E-08  0.3893437E+04  0.7818609E-02  0.8026396E-01
        1   -1    0    0  501    0  0.00000000000E+00  0.00000000000E+00  0.25662547013E+04  0.25662547013E+04  0.50400001928E-02 0. -1.
       -1   -1    0    0    0  501  0.00000000000E+00  0.00000000000E+00 -0.14767482355E+04  0.14767482355E+04  0.50400001928E-02 0.  1.
    10030    2    1    2    0    0  0.00000000000E+00  0.00000000000E+00  0.10895064658E+04  0.40430029368E+04  0.38934365807E+04 0.  0.
        5    1    3    3  502    0  0.17266541533E+04  0.38965479203E+03  0.13861414976E+04  0.22482383689E+04  0.46999998093E+01 0. -1.
       -5    1    3    3    0  502 -0.17266541533E+04 -0.38965479203E+03 -0.29663503185E+03  0.17947645679E+04  0.46999998093E+01 0.  1.
</event>
<event>
 5   0  0.7675750E-08  0.3867255E+04  0.7818609E-02  0.8031874E-01
        1   -1    0    0  501    0  0.00000000000E+00  0.00000000000E+00  0.20673351049E+04  0.20673351049E+04  0.50400001928E-02 0. -1.
       -1   -1    0    0    0  501  0.00000000000E+00  0.00000000000E+00 -0.18085671620E+04  0.18085671620E+04  0.50400001928E-02 0.  1.
    10030    2    1    2    0    0  0.00000000000E+00  0.00000000000E+00  0.25876794294E+03  0.38759022669E+04  0.38672545215E+04 0.  0.
        2    1    3    3  502    0  0.11824271329E+04  0.15074690728E+04  0.39134452360E+03  0.19554404788E+04  0.25500000920E-02 0. -1.
       -2    1    3    3    0  502 -0.11824271329E+04 -0.15074690728E+04 -0.13257658065E+03  0.19204617881E+04  0.25500000920E-02 0.  1.
</event>
<event>
 5   0  0.7675750E-08  0.3877288E+04  0.7818609E-02  0.8029770E-01
        1   -1    0    0  501    0  0.00000000000E+00  0.00000000000E+00  0.19748876877E+04  0.19748876877E+04  0.50400001928E-02 0.  1.
       -1   -1    0    0    0  501  0.00000000000E+00  0.00000000000E+00 -0.19030650271E+04  0.19030650271E+04  0.50400001928E-02 0. -1.
    10030    2    1    2    0    0  0.00000000000E+00  0.00000000000E+00  0.71822660542E+02  0.38779527148E+04  0.38772875524E+04 0.  0.
        5    1    3    3  502    0  0.50332588768E+03 -0.13233217227E+04  0.13604497642E+04  0.19635078258E+04  0.46999998093E+01 0.  1.
       -5    1    3    3    0  502 -0.50332588768E+03  0.13233217227E+04 -0.12886271036E+04  0.19144448891E+04  0.46999998093E+01 0. -1.
</event>
<event>
 5   0  0.2473224E-07  0.3924299E+04  0.7818609E-02  0.8019994E-01
       -2   -1    0    0    0  501  0.00000000000E+00  0.00000000000E+00  0.26209893181E+04  0.26209893181E+04  0.25500000920E-02 0.  1.
        2   -1    0    0  501    0  0.00000000000E+00  0.00000000000E+00 -0.14689223410E+04  0.14689223410E+04  0.25500000920E-02 0. -1.
    10030    2    1    2    0    0  0.00000000000E+00  0.00000000000E+00  0.11520669772E+04  0.40899116591E+04  0.39242985436E+04 0.  0.
        2    1    3    3  502    0  0.16675886016E+04 -0.18001402764E+03 -0.48515791053E+03  0.17460340754E+04  0.25500000920E-02 0. -1.
       -2    1    3    3    0  502 -0.16675886016E+04  0.18001402764E+03  0.16372248877E+04  0.23438775837E+04  0.25500000920E-02 0.  1.
</event>
<event>
 5   0  0.2446281E-07  0.3895189E+04  0.7818609E-02  0.8026031E-01
       -2   -1    0    0    0  501  0.00000000000E+00  0.00000000000E+00  0.14579466162E+04  0.14579466162E+04  0.25500000920E-02 0. -1.
        2   -1    0    0  501    0  0.00000000000E+00  0.00000000000E+00 -0.26016888900E+04  0.26016888900E+04  0.25500000920E-02 0.  1.
    10030    2    1    2    0    0  0.00000000000E+00  0.00000000000E+00 -0.11437422738E+04  0.40596355062E+04  0.38951885775E+04 0.  0.
        1    1    3    3  502    0  0.20698097466E+03  0.16869206136E+04 -0.15631191755E+04  0.23090872303E+04  0.50400001928E-02 0. -1.
       -1    1    3    3    0  502 -0.20698097466E+03 -0.16869206136E+04  0.41937690170E+03  0.17505482759E+04  0.50400001928E-02 0.  1.
</event>
<event>
 5   0  0.2446281E-07  0.4270726E+04  0.7818609E-02  0.7952053E-01
        2   -1    0    0  501    0  0.00000000000E+00  0.00000000000E+00  0.31354738580E+04  0.31354738580E+04  0.25500000920E-02 0. -1.
       -2   -1    0    0    0  501  0.00000000000E+00  0.00000000000E+00 -0.14542539241E+04  0.14542539241E+04  0.25500000920E-02 0.  1.
    10030    2    1    2    0    0  0.00000000000E+00  0.00000000000E+00  0.16812199339E+04  0.45897277821E+04  0.42707260094E+04 0.  0.
        1    1    3    3  502    0  0.40101465720E+03 -0.48044562856E+03  0.30347082399E+04  0.30985633540E+04  0.50400001928E-02 0. -1.
       -1    1    3    3    0  502 -0.40101465720E+03  0.48044562856E+03 -0.13534883060E+04  0.14911644281E+04  0.50400001928E-02 0.  1.
</event>
<event>
 5   0  0.2395572E-07  0.3775073E+04  0.7818609E-02  0.8051525E-01
        2   -1    0    0  501    0  0.00000000000E+00  0.00000000000E+00  0.19727570322E+04  0.19727570322E+04  0.25500000920E-02 0.  1.
       -2   -1    0    0    0  501  0.00000000000E+00  0.00000000000E+00 -0.18059978142E+04  0.18059978143E+04  0.25500000920E-02 0. -1.
    10030    2    1    2    0    0  0.00000000000E+00  0.00000000000E+00  0.16675921793E+03  0.37787548464E+04  0.37750734500E+04 0.  0.
        3    1    3    3  502    0  0.75016388926E+02 -0.18437532730E+04  0.48093349421E+03  0.19069217672E+04  0.10100000352E+00 0.  1.
       -3    1    3    3    0  502 -0.75016388926E+02  0.18437532730E+04 -0.31417427628E+03  0.18718330792E+04  0.10100000352E+00 0. -1.
</event>
<event>
 5   0  0.7675750E-08  0.3922272E+04  0.7818609E-02  0.8020413E-01
       -1   -1    0    0    0  501  0.00000000000E+00  0.00000000000E+00  0.27731905094E+04  0.27731905094E+04  0.50400001928E-02 0. -1.
        1   -1    0    0  501    0  0.00000000000E+00  0.00000000000E+00 -0.13868695906E+04  0.13868695906E+04  0.50400001928E-02 0.  1.
    10030    2    1    2    0    0  0.00000000000E+00  0.00000000000E+00  0.13863209188E+04  0.41600601000E+04  0.39222715798E+04 0.  0.
        4    1    3    3  502    0 -0.58119646412E+03 -0.15359200090E+04  0.18301647138E+04  0.24589314949E+04  0.12699999809E+01 0. -1.
       -4    1    3    3    0  502  0.58119646412E+03  0.15359200090E+04 -0.44384379497E+03  0.17011286051E+04  0.12699999809E+01 0.  1.
</event>
<event>
 5   0  0.2395572E-07  0.4027013E+04  0.7818609E-02  0.7999119E-01
       -2   -1    0    0    0  501  0.00000000000E+00  0.00000000000E+00  0.27662657459E+04  0.27662657459E+04  0.25500000920E-02 0.  1.
        2   -1    0    0  501    0  0.00000000000E+00  0.00000000000E+00 -0.14655887781E+04  0.14655887782E+04  0.25500000920E-02 0. -1.
    10030    2    1    2    0    0  0.00000000000E+00  0.00000000000E+00  0.13006769678E+04  0.42318545241E+04  0.40270128058E+04 0.  0.
        3    1    3    3  502    0 -0.13617658120E+03 -0.61679198610E+03 -0.13587782434E+04  0.14984174119E+04  0.10100000352E+00 0. -1.
       -3    1    3    3    0  502  0.13617658120E+03  0.61679198610E+03  0.26594552112E+04  0.27334371121E+04  0.10100000352E+00 0.  1.
</event>
<event>
 5   0  0.7675750E-08  0.3919173E+04  0.7818609E-02  0.8021053E-01
       -1   -1    0    0    0  501  0.00000000000E+00  0.00000000000E+00  0.18986572031E+04  0.18986572031E+04  0.50400001928E-02 0.  1.
        1   -1    0    0  501    0  0.00000000000E+00  0.00000000000E+00 -0.20224708517E+04  0.20224708517E+04  0.50400001928E-02 0. -1.
    10030    2    1    2    0    0  0.00000000000E+00  0.00000000000E+00 -0.12381364862E+03  0.39211280547E+04  0.39191727956E+04 0.  0.
        2    1    3    3  502    0  0.35198599897E+03 -0.17140474658E+04 -0.94446140819E+03  0.19884315955E+04  0.25500000920E-02 0. -1.
       -2    1    3    3    0  502 -0.35198599897E+03  0.17140474658E+04  0.82064775957E+03  0.19326964593E+04  0.25500000920E-02 0.  1.
</event>
<event>
 5   0  0.2486268E-07  0.3934904E+04  0.7818609E-02  0.8017809E-01
        2   -1    0    0  501    0  0.00000000000E+00  0.00000000000E+00  0.21902559761E+04  0.21902559761E+04  0.25500000920E-02 0. -1.
       -2   -1    0    0    0  501  0.00000000000E+00  0.00000000000E+00 -0.17673127214E+04  0.17673127214E+04  0.25500000920E-02 0.  1.
    10030    2    1    2    0    0  0.00000000000E+00  0.00000000000E+00  0.42294325466E+03  0.39575686975E+04  0.39349039377E+04 0.  0.
        5    1    3    3  502    0  0.36901864670E+03  0.17654959718E+04  0.10019339060E+04  0.20632606306E+04  0.46999998093E+01 0. -1.
       -5    1    3    3    0  502 -0.36901864670E+03 -0.17654959718E+04 -0.57899065134E+03  0.18943080669E+04  0.46999998093E+01 0.  1.
</event>
<event>
 5   0  0.2395572E-07  0.3914782E+04  0.7818609E-02  0.8021962E-01
        2   -1    0    0  501    0  0.00000000000E+00  0.00000000000E+00  0.27793191153E+04  0.27793191153E+04  0.25500000920E-02 0.  1.
       -2   -1    0    0    0  501  0.00000000000E+00  0.00000000000E+00 -0.13785320004E+04  0.13785320004E+04  0.25500000920E-02 0. -1.
    10030    2    1    2    0    0  0.00000000000E+00  0.00000000000E+00  0.14007871149E+04  0.41578511157E+04  0.39147824152E+04 0.  0.
        3    1    3    3  502    0 -0.62283721727E+03  0.15681192973E+04  0.17541966294E+04  0.24339536057E+04  0.10100000352E+00 0.  1.
       -3    1    3    3    0  502  0.62283721727E+03 -0.15681192973E+04 -0.35340951456E+03  0.17238975100E+04  0.10100000352E+00 0. -1.
</event>
<event>
 5   0  0.7675750E-08  0.3917788E+04  0.7818609E-02  0.8021340E-01
       -1   -1    0    0    0  501  0.00000000000E+00  0.00000000000E+00  0.13404108289E+04  0.13404108289E+04  0.50400001928E-02 0.  1.
        1   -1    0    0  501    0  0.00000000000E+00  0.00000000000E+00 -0.28627540797E+04  0.28627540797E+04  0.50400001928E-02 0. -1.
    10030    2    1    2    0    0  0.00000000000E+00  0.00000000000E+00 -0.15223432508E+04  0.42031649087E+04  0.39177884420E+04 0.  0.
        2    1    3    3  502    0 -0.54030107850E+02 -0.16893268181E+04 -0.18235131769E+04  0.24863516761E+04  0.25500000920E-02 0. -1.
       -2    1    3    3    0  502  0.54030107850E+02  0.16893268181E+04  0.30116992612E+03  0.17168132325E+04  0.25500000920E-02 0.  1.
</event>
<event>
 5   0  0.7675750E-08  0.3889655E+04  0.7818609E-02  0.8027184E-01
        1   -1    0    0  501    0  0.00000000000E+00  0.00000000000E+00  0.29298267841E+04  0.29298267841E+04  0.50400001928E-02 0.  1.
       -1   -1    0    0    0  501  0.00000000000E+00  0.00000000000E+00 -0.12909818359E+04  0.12909818359E+04  0.50400001928E-02 0. -1.
    10030    2    1    2    0    0  0.00000000000E+00  0.00000000000E+00  0.16388449482E+04  0.42208086200E+04  0.38896545659E+04 0.  0.
        2    1    3    3  502    0  0.12021954743E+04 -0.57250933214E+03  0.23576066689E+04  0.27076465979E+04  0.25500000920E-02 0.  1.
       -2    1    3    3    0  502 -0.12021954743E+04  0.57250933214E+03 -0.71876172074E+03  0.15131620221E+04  0.25500000920E-02 0. -1.
</event>
<event>
 5   0  0.7675750E-08  0.3890088E+04  0.7818609E-02  0.8027094E-01
        3   -1    0    0  501    0  0.00000000000E+00  0.00000000000E+00  0.24479631537E+04  0.24479631558E+04  0.10100000352E+00 0. -1.
       -3   -1    0    0    0  501  0.00000000000E+00  0.00000000000E+00 -0.15454465547E+04  0.15454465580E+04  0.10100000352E+00 0.  1.
    10030    2    1    2    0    0  0.00000000000E+00  0.00000000000E+00  0.90251659900E+03  0.39934097137E+04  0.38900880363E+04 0.  0.
        3    1    3    3  502    0 -0.18256994540E+03  0.32832648488E+03 -0.15078495975E+04  0.15539435268E+04  0.10100000352E+00 0.  1.
       -3    1    3    3    0  502  0.18256994540E+03 -0.32832648488E+03  0.24103661965E+04  0.24394661869E+04  0.10100000352E+00 0. -1.
</event>
<event>
 5   0  0.2473224E-07  0.3879014E+04  0.7818609E-02  0.8029408E-01
        2   -1    0    0  501    0  0.00000000000E+00  0.00000000000E+00  0.21642763943E+04  0.21642763943E+04  0.25500000920E-02 0.  1.
       -2   -1    0    0    0  501  0.00000000000E+00  0.00000000000E+00 -0.17380810662E+04  0.17380810662E+04  0.25500000920E-02 0. -1.
    10030    2    1    2    0    0  0.00000000000E+00  0.00000000000E+00  0.42619532816E+03  0.39023574605E+04  0.38790142165E+04 0.  0.
        2    1    3    3  502    0 -0.52464697602E+03 -0.14402293639E+04 -0.98240236596E+03  0.18206123911E+04  0.25500000920E-02 0. -1.
       -2    1    3    3    0  502  0.52464697602E+03  0.14402293639E+04  0.14085976941E+04  0.20817450694E+04  0.25500000920E-02 0.  1.
</event>
<event>
 5   0  0.2473224E-07  0.3515185E+04  0.7818609E-02  0.8110201E-01
        2   -1    0    0  501    0  0.00000000000E+00  0.00000000000E+00  0.22828938341E+04  0.22828938341E+04  0.25500000920E-02 0. -1.
       -2   -1    0    0    0  501  0.00000000000E+00  0.00000000000E+00 -0.13531646888E+04  0.13531646888E+04  0.25500000920E-02 0.  1.
    10030    2    1    2    0    0  0.00000000000E+00  0.00000000000E+00  0.92972914530E+03  0.36360585230E+04  0.35151849594E+04 0.  0.
        2    1    3    3  502    0  0.10123363212E+04  0.10763135002E+04  0.14493566040E+04  0.20697608904E+04  0.25500000920E-02 0. -1.
       -2    1    3    3    0  502 -0.10123363212E+04 -0.10763135002E+04 -0.51962745874E+03  0.15662976326E+04  0.25500000920E-02 0.  1.
</event>
<event>
 5   0  0.7731706E-08  0.3894710E+04  0.7818609E-02  0.8026130E-01
       -1   -1    0    0    0  501  0.00000000000E+00  0.00000000000E+00  0.15762706662E+04  0.15762706662E+04  0.50400001928E-02 0.  1.
        1   -1    0    0  501    0  0.00000000000E+00  0.00000000000E+00 -0.24057993808E+04  0.24057993808E+04  0.50400001928E-02 0. -1.
    10030    2    1    2    0    0  0.00000000000E+00  0.00000000000E+00 -0.82952871467E+03  0.39820700470E+04  0.38947097415E+04 0.  0.
        3    1    3    3  502    0  0.17611837261E+04  0.28261770607E+03 -0.12136680911E+04  0.21574594157E+04  0.10100000352E+00 0. -1.
       -3    1    3    3    0  502 -0.17611837261E+04 -0.28261770607E+03  0.38413937647E+03  0.18246106313E+04  0.10100000352E+00 0.  1.
</event>
<event>
 5   0  0.2384787E-07  0.3932220E+04  0.7818609E-02  0.8018361E-01
        2   -1    0    0  501    0  0.00000000000E+00  0.00000000000E+00  0.25268279786E+04  0.25268279786E+04  0.25500000920E-02 0.  1.
       -2   -1    0    0    0  501  0.00000000000E+00  0.00000000000E+00 -0.15298188024E+04  0.15298188024E+04  0.25500000920E-02 0. -1.
    10030    2    1    2    0    0  0.00000000000E+00  0.00000000000E+00  0.99700917619E+03  0.40566467811E+04  0.39322202137E+04 0.  0.
        4    1    3    3  502    0 -0.79630341293E+03  0.17880232323E+04  0.30699340011E+03  0.19812553508E+04  0.12699999809E+01 0.  1.
       -4    1    3    3    0  502  0.79630341293E+03 -0.17880232323E+04  0.69001577608E+03  0.20753914302E+04  0.12699999809E+01 0. -1.
</event>
<event>
 5   0  0.7675750E-08  0.3899861E+04  0.7818609E-02  0.8025058E-01
        1   -1    0    0  501    0  0.00000000000E+00  0.00000000000E+00  0.19998378065E+04  0.19998378065E+04  0.50400001928E-02 0.  1.
       -1   -1    0    0    0  501  0.00000000000E+00  0.00000000000E+00 -0.19012684636E+04  0.19012684636E+04  0.50400001928E-02 0. -1.
    10030    2    1    2    0    0  0.00000000000E+00  0.00000000000E+00  0.98569342954E+02  0.39011062701E+04  0.38998607944E+04 0.  0.
        1    1    3    3  502    0 -0.59415124563E+03 -0.14554255325E+04  0.12033209020E+04  0.19797121954E+04  0.50400001928E-02 0.  1.
       -1    1    3    3    0  502  0.59415124563E+03  0.14554255325E+04 -0.11047515590E+04  0.19213940748E+04  0.50400001928E-02 0. -1.
</event>
<event>
 5   0  0.2473224E-07  0.3896060E+04  0.7818609E-02  0.8025849E-01
        2   -1    0    0  501    0  0.00000000000E+00  0.00000000000E+00  0.13173759248E+04  0.13173759248E+04  0.25500000920E-02 0.  1.
       -2   -1    0    0    0  501  0.00000000000E+00  0.00000000000E+00 -0.28805910289E+04  0.28805910289E+04  0.25500000920E-02 0. -1.
    10030    2    1    2    0    0  0.00000000000E+00  0.00000000000E+00 -0.15632151042E+04  0.41979669537E+04  0.38960602000E+04 0.  0.
        2    1    3    3  502    0  0.18241184075E+04  0.34898926197E+02 -0.45913347083E+02  0.18250298450E+04  0.25500000920E-02 0.  1.
       -2    1    3    3    0  502 -0.18241184075E+04 -0.34898926197E+02 -0.15173017571E+04  0.23729371087E+04  0.25500000920E-02 0. -1.
</event>
<event>
 5   0  0.7675750E-08  0.4045671E+04  0.7818609E-02  0.7995396E-01
        1   -1    0    0  501    0  0.00000000000E+00  0.00000000000E+00  0.12700501597E+04  0.12700501597E+04  0.50400001928E-02 0.  1.
       -1   -1    0    0    0  501  0.00000000000E+00  0.00000000000E+00 -0.32218123169E+04  0.32218123169E+04  0.50400001928E-02 0. -1.
    10030    2    1    2    0    0  0.00000000000E+00  0.00000000000E+00 -0.19517621572E+04  0.44918624766E+04  0.40456708950E+04 0.  0.
        5    1    3    3  502    0 -0.19278805245E+04 -0.59506674508E+03 -0.81493360445E+03  0.21759978441E+04  0.46999998093E+01 0.  1.
       -5    1    3    3    0  502  0.19278805245E+04  0.59506674508E+03 -0.11368285527E+04  0.23158646325E+04  0.46999998093E+01 0. -1.
</event>
<event>
 5   0  0.2446281E-07  0.4004515E+04  0.7818609E-02  0.8003636E-01
       -2   -1    0    0    0  501  0.00000000000E+00  0.00000000000E+00  0.21970454984E+04  0.21970454984E+04  0.25500000920E-02 0.  1.
        2   -1    0    0  501    0  0.00000000000E+00  0.00000000000E+00 -0.18247389103E+04  0.18247389103E+04  0.25500000920E-02 0. -1.
    10030    2    1    2    0    0  0.00000000000E+00  0.00000000000E+00  0.37230658810E+03  0.40217844087E+04  0.40045146565E+04 0.  0.
        1    1    3    3  502    0  0.14422404845E+04 -0.31777976254E+03 -0.11717102888E+04  0.18851913944E+04  0.50400001928E-02 0. -1.
       -1    1    3    3    0  502 -0.14422404845E+04  0.31777976254E+03  0.15440168769E+04  0.21365930143E+04  0.50400001928E-02 0.  1.
</event>
<event>
 5   0  0.2486268E-07  0.3874434E+04  0.7818609E-02  0.8030367E-01
        2   -1    0    0  501    0  0.00000000000E+00  0.00000000000E+00  0.17616055455E+04  0.17616055455E+04  0.25500000920E-02 0. -1.
       -2   -1    0    0    0  501  0.00000000000E+00  0.00000000000E+00 -0.21303351673E+04  0.21303351673E+04  0.25500000920E-02 0.  1.
    10030    2    1    2    0    0  0.00000000000E+00  0.00000000000E+00 -0.36872962181E+03  0.38919407128E+04  0.38744342785E+04 0.  0.
        5    1    3    3  502    0  0.17675250513E+04 -0.27630868979E+03  0.56215992552E+03  0.18752432298E+04  0.46999998093E+01 0. -1.
       -5    1    3    3    0  502 -0.17675250513E+04  0.27630868979E+03 -0.93088954732E+03  0.20166974831E+04  0.46999998093E+01 0.  1.
</event>
<event>
 5   0  0.7731706E-08  0.3907775E+04  0.7818609E-02  0.8023414E-01
       -1   -1    0    0    0  501  0.00000000000E+00  0.00000000000E+00  0.14197085902E+04  0.14197085902E+04  0.50400001928E-02 0. -1.
        1   -1    0    0  501    0  0.00000000000E+00  0.00000000000E+00 -0.26890564183E+04  0.26890564183E+04  0.50400001928E-02 0.  1.
    10030    2    1    2    0    0  0.00000000000E+00  0.00000000000E+00 -0.12693478281E+04  0.41087650084E+04  0.39077750685E+04 0.  0.
        3    1    3    3  502    0  0.18254547457E+04  0.61911259182E+03 -0.97062464836E+03  0.21581699766E+04  0.10100000352E+00 0.  1.
       -3    1    3    3    0  502 -0.18254547457E+04 -0.61911259182E+03 -0.29872317973E+03  0.19505950318E+04  0.10100000352E+00 0. -1.
</event>
<event>
 5   0  0.7675750E-08  0.3661021E+04  0.7818609E-02  0.8076655E-01
        1   -1    0    0  501    0  0.00000000000E+00  0.00000000000E+00  0.29521995991E+04  0.29521995991E+04  0.50400001928E-02 0.  1.
       -1   -1    0    0    0  501  0.00000000000E+00  0.00000000000E+00 -0.11350077879E+04  0.11350077879E+04  0.50400001928E-02 0. -1.
    10030    2    1    2    0    0  0.00000000000E+00  0.00000000000E+00  0.18171918112E+04  0.40872073870E+04  0.36610214621E+04 0.  0.
        4    1    3    3  502    0  0.10054679659E+04 -0.92231786720E+03  0.22709530553E+04  0.26493141510E+04  0.12699999809E+01 0.  1.
       -4    1    3    3    0  502 -0.10054679659E+04  0.92231786720E+03 -0.45376124406E+03  0.14378932360E+04  0.12699999809E+01 0. -1.
</event>
<event>
 5   0  0.7675750E-08  0.3893038E+04  0.7818609E-02  0.8026479E-01
       -1   -1    0    0    0  501  0.00000000000E+00  0.00000000000E+00  0.28820666099E+04  0.28820666099E+04  0.50400001928E-02 0.  1.
        1   -1    0    0  501    0  0.00000000000E+00  0.00000000000E+00 -0.13146597732E+04  0.13146597732E+04  0.50400001928E-02 0. -1.
    10030    2    1    2    0    0  0.00000000000E+00  0.00000000000E+00  0.15674068368E+04  0.41967263831E+04  0.38930384204E+04 0.  0.
        4    1    3    3  502    0 -0.38104729283E+03 -0.16214234410E+03 -0.12666235705E+04  0.13326004883E+04  0.12699999809E+01 0. -1.
       -4    1    3    3    0  502  0.38104729283E+03  0.16214234410E+03  0.28340304073E+04  0.28641258948E+04  0.12699999809E+01 0.  1.
</event>
<event>
 5   0  0.2473224E-07  0.3896046E+04  0.7818609E-02  0.8025852E-01
       -2   -1    0    0    0  501  0.00000000000E+00  0.00000000000E+00  0.17182431447E+04  0.17182431447E+04  0.25500000920E-02 0.  1.
        2   -1    0    0  501    0  0.00000000000E+00  0.00000000000E+00 -0.22085312141E+04  0.22085312141E+04  0.25500000920E-02 0. -1.
    10030    2    1    2    0    0  0.00000000000E+00  0.00000000000E+00 -0.49028806940E+03  0.39267743588E+04  0.38960460051E+04 0.  0.
        2    1    3    3  502    0  0.13897758179E+04  0.55627939061E+03  0.10112307622E+04  0.18065190945E+04  0.25500000920E-02 0.  1.
       -2    1    3    3    0  502 -0.13897758179E+04 -0.55627939061E+03 -0.15015188316E+04  0.21202552643E+04  0.25500000920E-02 0. -1.
</event>
<event>
 5   0  0.2473224E-07  0.3889908E+04  0.7818609E-02  0.8027131E-01
        2   -1    0    0  501    0  0.00000000000E+00  0.00000000000E+00  0.17718458237E+04  0.17718458237E+04  0.25500000920E-02 0. -1.
       -2   -1    0    0    0  501  0.00000000000E+00  0.00000000000E+00 -0.21349743822E+04  0.21349743822E+04  0.25500000920E-02 0.  1.
    10030    2    1    2    0    0  0.00000000000E+00  0.00000000000E+00 -0.36312855842E+03  0.39068202059E+04  0.38899076816E+04 0.  0.
        2    1    3    3  502    0  0.10183936626E+04  0.10149822632E+04  0.11339131173E+04  0.18311399739E+04  0.25500000920E-02 0. -1.
       -2    1    3    3    0  502 -0.10183936626E+04 -0.10149822632E+04 -0.14970416757E+04  0.20756802320E+04  0.25500000920E-02 0.  1.
</event>
<event>
 5   0  0.2384787E-07  0.3916023E+04  0.7818609E-02  0.8021705E-01
       -2   -1    0    0    0  501  0.00000000000E+00  0.00000000000E+00  0.20709613221E+04  0.20709613221E+04  0.25500000920E-02 0. -1.
        2   -1    0    0  501    0  0.00000000000E+00  0.00000000000E+00 -0.18512221769E+04  0.18512221769E+04  0.25500000920E-02 0.  1.
    10030    2    1    2    0    0  0.00000000000E+00  0.00000000000E+00  0.21973914513E+03  0.39221834990E+04  0.39160232517E+04 0.  0.
        4    1    3    3  502    0 -0.38113897300E+03 -0.16728993689E+04 -0.83498535583E+03  0.19081565377E+04  0.12699999809E+01 0.  1.
       -4    1    3    3    0  502  0.38113897300E+03  0.16728993689E+04  0.10547245010E+04  0.20140269613E+04  0.12699999809E+01 0. -1.
</event>
<event>
 5   0  0.2486268E-07  0.3899592E+04  0.7818609E-02  0.8025114E-01
       -2   -1    0    0    0  501  0.00000000000E+00  0.00000000000E+00  0.15605644967E+04  0.15605644967E+04  0.25500000920E-02 0.  1.
        2   -1    0    0  501    0  0.00000000000E+00  0.00000000000E+00 -0.24361087241E+04  0.24361087241E+04  0.25500000920E-02 0. -1.
    10030    2    1    2    0    0  0.00000000000E+00  0.00000000000E+00 -0.87554422741E+03  0.39966732208E+04  0.38995921761E+04 0.  0.
        5    1    3    3  502    0  0.54395135987E+03 -0.17333074073E+04 -0.11635289281E+04  0.21573268891E+04  0.46999998093E+01 0. -1.
       -5    1    3    3    0  502 -0.54395135987E+03  0.17333074073E+04  0.28798470073E+03  0.18393463317E+04  0.46999998093E+01 0.  1.
</event>
<event>
 5   0  0.2473224E-07  0.3794868E+04  0.7818609E-02  0.8047257E-01
       -2   -1    0    0    0  501  0.00000000000E+00  0.00000000000E+00  0.15456772157E+04  0.15456772157E+04  0.25500000920E-02 0. -1.
        2   -1    0    0  501    0  0.00000000000E+00  0.00000000000E+00 -0.23292422657E+04  0.23292422657E+04  0.25500000920E-02 0.  1.
    10030    2    1    2    0    0  0.00000000000E+00  0.00000000000E+00 -0.78356505001E+03  0.38749194814E+04  0.37948684825E+04 0.  0.
        2    1    3    3  502    0  0.86002456949E+03 -0.13788332233E+04 -0.13919514701E+04  0.21397084411E+04  0.25500000920E-02 0.  1.
       -2    1    3    3    0  502 -0.86002456949E+03  0.13788332233E+04  0.60838642011E+03  0.17352110402E+04  0.25500000920E-02 0. -1.
</event>
<event>
 5   0  0.2446281E-07  0.3913396E+04  0.7818609E-02  0.8022249E-01
        2   -1    0    0  501    0  0.00000000000E+00  0.00000000000E+00  0.16013862063E+04  0.16013862063E+04  0.25500000920E-02 0. -1.
       -2   -1    0    0    0  501  0.00000000000E+00  0.00000000000E+00 -0.23908452189E+04  0.23908452189E+04  0.25500000920E-02 0.  1.
    10030    2    1    2    0    0  0.00000000000E+00  0.00000000000E+00 -0.78945901259E+03  0.39922314252E+04  0.39133957403E+04 0.  0.
        1    1    3    3  502    0 -0.92403848246E+03 -0.40064654656E+03  0.13166537311E+04  0.16576917144E+04  0.50400001928E-02 0. -1.
       -1    1    3    3    0  502  0.92403848246E+03  0.40064654656E+03 -0.21061127437E+04  0.23345397108E+04  0.50400001928E-02 0.  1.
</event>
<event>
 5   0  0.2384787E-07  0.3928769E+04  0.7818609E-02  0.8019072E-01
        2   -1    0    0  501    0  0.00000000000E+00  0.00000000000E+00  0.19511961796E+04  0.19511961796E+04  0.25500000920E-02 0. -1.
       -2   -1    0    0    0  501  0.00000000000E+00  0.00000000000E+00 -0.19776617862E+04  0.19776617862E+04  0.25500000920E-02 0.  1.
    10030    2    1    2    0    0  0.00000000000E+00  0.00000000000E+00 -0.26465606570E+02  0.39288579659E+04  0.39287688259E+04 0.  0.
        4    1    3    3  502    0  0.12204587506E+04 -0.53902806248E+03 -0.14550469470E+04  0.19741413437E+04  0.12699999809E+01 0.  1.
       -4    1    3    3    0  502 -0.12204587506E+04  0.53902806248E+03  0.14285813404E+04  0.19547166222E+04  0.12699999809E+01 0. -1.
</event>
<event>
 5   0  0.2384787E-07  0.3965347E+04  0.7818609E-02  0.8011574E-01
        2   -1    0    0  501    0  0.00000000000E+00  0.00000000000E+00  0.19029523236E+04  0.19029523236E+04  0.25500000920E-02 0.  1.
       -2   -1    0    0    0  501  0.00000000000E+00  0.00000000000E+00 -0.20657345508E+04  0.20657345508E+04  0.25500000920E-02 0. -1.
    10030    2    1    2    0    0  0.00000000000E+00  0.00000000000E+00 -0.16278222717E+03  0.39686868744E+04  0.39653470786E+04 0.  0.
        4    1    3    3  502    0  0.21302626568E+03  0.18835497996E+04  0.50034943208E+03  0.19604823908E+04  0.12699999809E+01 0. -1.
       -4    1    3    3    0  502 -0.21302626568E+03 -0.18835497996E+04 -0.66313165925E+03  0.20082044836E+04  0.12699999809E+01 0.  1.
</event>
<event>
 5   0  0.2486268E-07  0.3934480E+04  0.7818609E-02  0.8017896E-01
       -2   -1    0    0    0  501  0.00000000000E+00  0.00000000000E+00  0.15014253843E+04  0.15014253843E+04  0.25500000920E-02 0.  1.
        2   -1    0    0  501    0  0.00000000000E+00  0.00000000000E+00 -0.25775727687E+04  0.25775727687E+04  0.25500000920E-02 0. -1.
    10030    2    1    2    0    0  0.00000000000E+00  0.00000000000E+00 -0.10761473844E+04  0.40789981530E+04  0.39344799834E+04 0.  0.
        5    1    3    3  502    0  0.56048151114E+03  0.13647838575E+04 -0.18871142024E+04  0.23954115732E+04  0.46999998093E+01 0. -1.
       -5    1    3    3    0  502 -0.56048151114E+03 -0.13647838575E+04  0.81096681804E+03  0.16835865799E+04  0.46999998093E+01 0.  1.
</event>
<event>
 5   0  0.7675750E-08  0.3902036E+04  0.7818609E-02  0.8024606E-01
       -1   -1    0    0    0  501  0.00000000000E+00  0.00000000000E+00  0.17994213774E+04  0.17994213774E+04  0.50400001928E-02 0. -1.
        1   -1    0    0  501    0  0.00000000000E+00  0.00000000000E+00 -0.21153867016E+04  0.21153867016E+04  0.50400001928E-02 0.  1.
    10030    2    1    2    0    0  0.00000000000E+00  0.00000000000E+00 -0.31596532424E+03  0.39148080790E+04  0.39020364182E+04 0.  0.
        4    1    3    3  502    0 -0.41344219746E+03 -0.26311250946E+03 -0.20526308071E+04  0.21103216547E+04  0.12699999809E+01 0.  1.
       -4    1    3    3    0  502  0.41344219746E+03  0.26311250946E+03  0.17366654828E+04  0.18044864243E+04  0.12699999809E+01 0. -1.
</event>
<event>
 5   0  0.2486268E-07  0.3887416E+04  0.7818609E-02  0.8027652E-01
        2   -1    0    0  501    0  0.00000000000E+00  0.00000000000E+00  0.20141735743E+04  0.20141735743E+04  0.25500000920E-02 0.  1.
       -2   -1    0    0    0  501  0.00000000000E+00  0.00000000000E+00 -0.18757076675E+04  0.18757076675E+04  0.25500000920E-02 0. -1.
    10030    2    1    2    0    0  0.00000000000E+00  0.00000000000E+00  0.13846590684E+03  0.38898812417E+04  0.38874160142E+04 0.  0.
        5    1    3    3  502    0 -0.11384095528E+03 -0.43319763421E+03  0.19618230881E+04  0.20123100836E+04  0.46999998093E+01 0.  1.
       -5    1    3    3    0  502  0.11384095528E+03  0.43319763421E+03 -0.18233571813E+04  0.18775711582E+04  0.46999998093E+01 0. -1.
</event>
<event>
 5   0  0.2395572E-07  0.3913487E+04  0.7818609E-02  0.8022230E-01
        2   -1    0    0  501    0  0.00000000000E+00  0.00000000000E+00  0.20388924644E+04  0.20388924644E+04  0.25500000920E-02 0.  1.
       -2   -1    0    0    0  501  0.00000000000E+00  0.00000000000E+00 -0.18779046470E+04  0.18779046471E+04  0.25500000920E-02 0. -1.
    10030    2    1    2    0    0  0.00000000000E+00  0.00000000000E+00  0.16098781732E+03  0.39167971114E+04  0.39134872601E+04 0.  0.
        3    1    3    3  502    0 -0.48471849304E+03 -0.18889896606E+04  0.24066571958E+03  0.19649819220E+04  0.10100000352E+00 0. -1.
       -3    1    3    3    0  502  0.48471849304E+03  0.18889896606E+04 -0.79677902259E+02  0.19518151894E+04  0.10100000352E+00 0.  1.
</event>
<event>
 5   0  0.7675750E-08  0.3896244E+04  0.7818609E-02  0.8025811E-01
       -4   -1    0    0    0  501  0.00000000000E+00  0.00000000000E+00  0.17297895614E+04  0.17297900276E+04  0.12699999809E+01 0. -1.
        4   -1    0    0  501    0  0.00000000000E+00  0.00000000000E+00 -0.21940114806E+04  0.21940118482E+04  0.12699999809E+01 0.  1.
    10030    2    1    2    0    0  0.00000000000E+00  0.00000000000E+00 -0.46422191922E+03  0.39238018758E+04  0.38962442391E+04 0.  0.
        2    1    3    3  502    0 -0.18261694374E+04  0.55270145543E+03  0.16412592786E+03  0.19150224628E+04  0.25500000920E-02 0. -1.
       -2    1    3    3    0  502  0.18261694374E+04 -0.55270145543E+03 -0.62834784709E+03  0.20087794130E+04  0.25500000920E-02 0.  1.
</event>
<event>
 5   0  0.7675750E-08  0.3926297E+04  0.7818609E-02  0.8019582E-01
        1   -1    0    0  501    0  0.00000000000E+00  0.00000000000E+00  0.18630505279E+04  0.18630505279E+04  0.50400001928E-02 0. -1.
       -1   -1    0    0    0  501  0.00000000000E+00  0.00000000000E+00 -0.20686243910E+04  0.20686243910E+04  0.50400001928E-02 0.  1.
    10030    2    1    2    0    0  0.00000000000E+00  0.00000000000E+00 -0.20557386314E+03  0.39316749189E+04  0.39262968628E+04 0.  0.
        1    1    3    3  502    0  0.10341500547E+04 -0.13424796972E+04  0.88964763470E+03  0.19139464431E+04  0.50400001928E-02 0.  1.
       -1    1    3    3    0  502 -0.10341500547E+04  0.13424796972E+04 -0.10952214978E+04  0.20177284759E+04  0.50400001928E-02 0. -1.
</event>
<event>
 5   0  0.7675750E-08  0.3937232E+04  0.7818609E-02  0.8017330E-01
       -1   -1    0    0    0  501  0.00000000000E+00  0.00000000000E+00  0.16092905112E+04  0.16092905112E+04  0.50400001928E-02 0.  1.
        1   -1    0    0  501    0  0.00000000000E+00  0.00000000000E+00 -0.24081725210E+04  0.24081725210E+04  0.50400001928E-02 0. -1.
    10030    2    1    2    0    0  0.00000000000E+00  0.00000000000E+00 -0.79888200984E+03  0.40174630322E+04  0.39372321178E+04 0.  0.
        5    1    3    3  502    0 -0.67788442476E+03  0.16894737956E+04  0.36521473140E+03  0.18566779175E+04  0.46999998093E+01 0.  1.
       -5    1    3    3    0  502  0.67788442476E+03 -0.16894737956E+04 -0.11640967412E+04  0.21607851148E+04  0.46999998093E+01 0. -1.
</event>
<event>
 5   0  0.7675750E-08  0.3901557E+04  0.7818609E-02  0.8024705E-01
        1   -1    0    0  501    0  0.00000000000E+00  0.00000000000E+00  0.18694978647E+04  0.18694978647E+04  0.50400001928E-02 0.  1.
       -1   -1    0    0    0  501  0.00000000000E+00  0.00000000000E+00 -0.20355933745E+04  0.20355933745E+04  0.50400001928E-02 0. -1.
    10030    2    1    2    0    0  0.00000000000E+00  0.00000000000E+00 -0.16609550981E+03  0.39050912391E+04  0.39015573644E+04 0.  0.
        5    1    3    3  502    0 -0.74827909156E+02 -0.17550250716E+04  0.76613284266E+03  0.19164273638E+04  0.46999998093E+01 0.  1.
       -5    1    3    3    0  502  0.74827909156E+02  0.17550250716E+04 -0.93222835246E+03  0.19886638754E+04  0.46999998093E+01 0. -1.
</event>
<event>
 5   0  0.2446281E-07  0.3780000E+04  0.7818609E-02  0.8050460E-01
       -2   -1    0    0    0  501  0.00000000000E+00  0.00000000000E+00  0.27197410950E+04  0.27197410950E+04  0.25500000920E-02 0. -1.
        2   -1    0    0  501    0  0.00000000000E+00  0.00000000000E+00 -0.13133973898E+04  0.13133973898E+04  0.25500000920E-02 0.  1.
    10030    2    1    2    0    0  0.00000000000E+00  0.00000000000E+00  0.14063437052E+04  0.40331384848E+04  0.37800004525E+04 0.  0.
        1    1    3    3  502    0 -0.15791224395E+04  0.92710911890E+03  0.12024191036E+04  0.21906553124E+04  0.50400001928E-02 0. -1.
       -1    1    3    3    0  502  0.15791224395E+04 -0.92710911890E+03  0.20392460160E+03  0.18424831724E+04  0.50400001928E-02 0.  1.
</event>
<event>
 5   0  0.2446281E-07  0.4102310E+04  0.7818609E-02  0.7984220E-01
       -2   -1    0    0    0  501  0.00000000000E+00  0.00000000000E+00  0.13316907950E+04  0.13316907950E+04  0.25500000920E-02 0. -1.
        2   -1    0    0  501    0  0.00000000000E+00  0.00000000000E+00 -0.31593195824E+04  0.31593195824E+04  0.25500000920E-02 0.  1.
    10030    2    1    2    0    0  0.00000000000E+00  0.00000000000E+00 -0.18276287873E+04  0.44910103774E+04  0.41023099865E+04 0.  0.
        1    1    3    3  502    0  0.16557986772E+04  0.11397883071E+03  0.40561171101E+03  0.17085611763E+04  0.50400001928E-02 0. -1.
       -1    1    3    3    0  502 -0.16557986772E+04 -0.11397883071E+03 -0.22332404983E+04  0.27824492011E+04  0.50400001928E-02 0.  1.
</event>
<event>
 5   0  0.7675750E-08  0.3897784E+04  0.7818609E-02  0.8025490E-01
       -1   -1    0    0    0  501  0.00000000000E+00  0.00000000000E+00  0.12868970874E+04  0.12868970874E+04  0.50400001928E-02 0. -1.
        1   -1    0    0  501    0  0.00000000000E+00  0.00000000000E+00 -0.29514249716E+04  0.29514249716E+04  0.50400001928E-02 0.  1.
    10030    2    1    2    0    0  0.00000000000E+00  0.00000000000E+00 -0.16645278842E+04  0.42383220591E+04  0.38977840883E+04 0.  0.
        1    1    3    3  502    0 -0.19018582177E+04 -0.41070347382E+03 -0.71099362099E+03  0.20715342026E+04  0.50400001928E-02 0. -1.
       -1    1    3    3    0  502  0.19018582177E+04  0.41070347382E+03 -0.95353426319E+03  0.21667878564E+04  0.50400001928E-02 0.  1.
</event>
<event>
 5   0  0.2473224E-07  0.3919332E+04  0.7818609E-02  0.8021020E-01
        2   -1    0    0  501    0  0.00000000000E+00  0.00000000000E+00  0.25542852261E+04  0.25542852261E+04  0.25500000920E-02 0.  1.
       -2   -1    0    0    0  501  0.00000000000E+00  0.00000000000E+00 -0.15034698811E+04  0.15034698811E+04  0.25500000920E-02 0. -1.
    10030    2    1    2    0    0  0.00000000000E+00  0.00000000000E+00  0.10508153450E+04  0.40577551072E+04  0.39193320376E+04 0.  0.
        2    1    3    3  502    0 -0.12180296604E+04  0.36849337311E+03  0.20683119742E+04  0.24284353074E+04  0.25500000920E-02 0.  1.
       -2    1    3    3    0  502  0.12180296604E+04 -0.36849337311E+03 -0.10174966292E+04  0.16293197998E+04  0.25500000920E-02 0. -1.
</event>
<event>
 5   0  0.2486268E-07  0.3905943E+04  0.7818609E-02  0.8023794E-01
       -2   -1    0    0    0  501  0.00000000000E+00  0.00000000000E+00  0.22048585877E+04  0.22048585877E+04  0.25500000920E-02 0.  1.
        2   -1    0    0  501    0  0.00000000000E+00  0.00000000000E+00 -0.17298603943E+04  0.17298603943E+04  0.25500000920E-02 0. -1.
    10030    2    1    2    0    0  0.00000000000E+00  0.00000000000E+00  0.47499819336E+03  0.39347189820E+04  0.39059429314E+04 0.  0.
        5    1    3    3  502    0 -0.15675185500E+04 -0.56115426296E+03 -0.79083831661E+03  0.18432188813E+04  0.46999998093E+01 0. -1.
       -5    1    3    3    0  502  0.15675185500E+04  0.56115426296E+03  0.12658365100E+04  0.20915001007E+04  0.46999998093E+01 0.  1.
</event>
<event>
 5   0  0.2486268E-07  0.3913069E+04  0.7818609E-02  0.8022317E-01
       -2   -1    0    0    0  501  0.00000000000E+00  0.00000000000E+00  0.16828009957E+04  0.16828009957E+04  0.25500000920E-02 0. -1.
        2   -1    0    0  501    0  0.00000000000E+00  0.00000000000E+00 -0.22747948176E+04  0.22747948176E+04  0.25500000920E-02 0.  1.
    10030    2    1    2    0    0  0.00000000000E+00  0.00000000000E+00 -0.59199382192E+03  0.39575958133E+04  0.39130688643E+04 0.  0.
        5    1    3    3  502    0  0.41447740146E+03  0.18768907667E+04 -0.66552334894E+03  0.20340732250E+04  0.46999998093E+01 0.  1.
       -5    1    3    3    0  502 -0.41447740146E+03 -0.18768907667E+04  0.73529527010E+02  0.19235225884E+04  0.46999998093E+01 0. -1.
</event>
<event>
 5   0  0.7675750E-08  0.3895932E+04  0.7818609E-02  0.8025876E-01
       -1   -1    0    0    0  501  0.00000000000E+00  0.00000000000E+00  0.21793351285E+04  0.21793351285E+04  0.50400001928E-02 0. -1.
        1   -1    0    0  501    0  0.00000000000E+00  0.00000000000E+00 -0.17411602622E+04  0.17411602622E+04  0.50400001928E-02 0.  1.
    10030    2    1    2    0    0  0.00000000000E+00  0.00000000000E+00  0.43817486634E+03  0.39204953907E+04  0.38959320958E+04 0.  0.
        1    1    3    3  502    0  0.91626558459E+02  0.54486787939E+03 -0.16606553714E+04  0.17501579057E+04  0.50400001928E-02 0.  1.
       -1    1    3    3    0  502 -0.91626558459E+02 -0.54486787939E+03  0.20988302377E+04  0.21703374851E+04  0.50400001928E-02 0. -1.
</event>
<event>
 5   0  0.7675750E-08  0.3987857E+04  0.7818609E-02  0.8007001E-01
        1   -1    0    0  501    0  0.00000000000E+00  0.00000000000E+00  0.17609317330E+04  0.17609317330E+04  0.50400001928E-02 0.  1.
       -1   -1    0    0    0  501  0.00000000000E+00  0.00000000000E+00 -0.22577540104E+04  0.22577540104E+04  0.50400001928E-02 0. -1.
    10030    2    1    2    0    0  0.00000000000E+00  0.00000000000E+00 -0.49682227744E+03  0.40186857434E+04  0.39878569093E+04 0.  0.
        4    1    3    3  502    0  0.35149164996E+03 -0.16272396503E+04 -0.13542980207E+04  0.21460615092E+04  0.12699999809E+01 0. -1.
       -4    1    3    3    0  502 -0.35149164996E+03  0.16272396503E+04  0.85747574326E+03  0.18726242342E+04  0.12699999809E+01 0.  1.
</event>
<event>
 5   0  0.2395572E-07  0.3896592E+04  0.7818609E-02  0.8025738E-01
        2   -1    0    0  501    0  0.00000000000E+00  0.00000000000E+00  0.17540806709E+04  0.17540806709E+04  0.25500000920E-02 0.  1.
       -2   -1    0    0    0  501  0.00000000000E+00  0.00000000000E+00 -0.21640156464E+04  0.21640156464E+04  0.25500000920E-02 0. -1.
    10030    2    1    2    0    0  0.00000000000E+00  0.00000000000E+00 -0.40993497558E+03  0.39180963173E+04  0.38965923661E+04 0.  0.
        3    1    3    3  502    0 -0.10068625079E+04 -0.96271816040E+03  0.11646285188E+04  0.18157527264E+04  0.10100000352E+00 0.  1.
       -3    1    3    3    0  502  0.10068625079E+04  0.96271816040E+03 -0.15745634944E+04  0.21023435909E+04  0.10100000352E+00 0. -1.
</event>
<event>
 5   0  0.2446281E-07  0.3905490E+04  0.7818609E-02  0.8023888E-01
       -2   -1    0    0    0  501  0.00000000000E+00  0.00000000000E+00  0.16436185790E+04  0.16436185790E+04  0.25500000920E-02 0.  1.
        2   -1    0    0  501    0  0.00000000000E+00  0.00000000000E+00 -0.23200109660E+04  0.23200109660E+04  0.25500000920E-02 0. -1.
    10030    2    1    2    0    0  0.00000000000E+00  0.00000000000E+00 -0.67639238701E+03  0.39636295450E+04  0.39054900472E+04 0.  0.
        1    1    3    3  502    0  0.18891336019E+02 -0.14568453902E+04 -0.16577274513E+04  0.22069924504E+04  0.50400001928E-02 0. -1.
       -1    1    3    3    0  502 -0.18891336019E+02  0.14568453902E+04  0.98133506424E+03  0.17566370946E+04  0.50400001928E-02 0.  1.
</event>
<event>
 5   0  0.2486268E-07  0.3862467E+04  0.7818609E-02  0.8032881E-01
        2   -1    0    0  501    0  0.00000000000E+00  0.00000000000E+00  0.29116403061E+04  0.29116403061E+04  0.25500000920E-02 0.  1.
       -2   -1    0    0    0  501  0.00000000000E+00  0.00000000000E+00 -0.12809492803E+04  0.12809492803E+04  0.25500000920E-02 0. -1.
    10030    2    1    2    0    0  0.00000000000E+00  0.00000000000E+00  0.16306910257E+04  0.41925895864E+04  0.38624673744E+04 0.  0.
        5    1    3    3  502    0  0.88551934144E+01  0.10485017969E+04  0.25757501121E+04  0.27809971525E+04  0.46999998093E+01 0.  1.
       -5    1    3    3    0  502 -0.88551934144E+01 -0.10485017969E+04 -0.94505908635E+03  0.14115924338E+04  0.46999998093E+01 0. -1.
</event>
<event>
 5   0  0.7675750E-08  0.3965382E+04  0.7818609E-02  0.8011567E-01
        1   -1    0    0  501    0  0.00000000000E+00  0.00000000000E+00  0.20102475449E+04  0.20102475449E+04  0.50400001928E-02 0.  1.
       -1   -1    0    0    0  501  0.00000000000E+00  0.00000000000E+00 -0.19555121187E+04  0.19555121187E+04  0.50400001928E-02 0. -1.
    10030    2    1    2    0    0  0.00000000000E+00  0.00000000000E+00  0.54735426222E+02  0.39657596636E+04  0.39653819164E+04 0.  0.
        2    1    3    3  502    0 -0.14015966550E+04 -0.27568592688E+03  0.14024850676E+04  0.20018592055E+04  0.25500000920E-02 0.  1.
       -2    1    3    3    0  502  0.14015966550E+04  0.27568592688E+03 -0.13477496414E+04  0.19639004581E+04  0.25500000920E-02 0. -1.
</event>
<event>
 5   0  0.2395572E-07  0.3891966E+04  0.7818609E-02  0.8026702E-01
       -2   -1    0    0    0  501  0.00000000000E+00  0.00000000000E+00  0.19281442848E+04  0.19281442849E+04  0.25500000920E-02 0. -1.
        2   -1    0    0  501    0  0.00000000000E+00  0.00000000000E+00 -0.19639865629E+04  0.19639865629E+04  0.25500000920E-02 0.  1.
    10030    2    1    2    0    0  0.00000000000E+00  0.00000000000E+00 -0.35842278021E+02  0.38921308477E+04  0.38919658101E+04 0.  0.
        3    1    3    3  502    0  0.18737276375E+04 -0.40270506100E+03 -0.35531183900E+03  0.19491724240E+04  0.10100000352E+00 0. -1.
       -3    1    3    3    0  502 -0.18737276375E+04  0.40270506100E+03  0.31946956098E+03  0.19429584237E+04  0.10100000352E+00 0.  1.
</event>
<event>
 5   0  0.2384787E-07  0.3799513E+04  0.7818609E-02  0.8046259E-01
       -2   -1    0    0    0  501  0.00000000000E+00  0.00000000000E+00  0.19371972409E+04  0.19371972409E+04  0.25500000920E-02 0. -1.
        2   -1    0    0  501    0  0.00000000000E+00  0.00000000000E+00 -0.18630398073E+04  0.18630398073E+04  0.25500000920E-02 0.  1.
    10030    2    1    2    0    0  0.00000000000E+00  0.00000000000E+00  0.74157433571E+02  0.38002370482E+04  0.37995134291E+04 0.  0.
        4    1    3    3  502    0  0.20827040685E+03  0.13975694612E+04  0.13071618875E+04  0.19249027960E+04  0.12699999809E+01 0. -1.
       -4    1    3    3    0  502 -0.20827040685E+03 -0.13975694612E+04 -0.12330044539E+04  0.18753342522E+04  0.12699999809E+01 0.  1.
</event>
<event>
 5   0  0.2395572E-07  0.3886612E+04  0.7818609E-02  0.8027819E-01
        2   -1    0    0  501    0  0.00000000000E+00  0.00000000000E+00  0.26448556851E+04  0.26448556851E+04  0.25500000920E-02 0.  1.
       -2   -1    0    0    0  501  0.00000000000E+00  0.00000000000E+00 -0.14278429335E+04  0.14278429335E+04  0.25500000920E-02 0. -1.
    10030    2    1    2    0    0  0.00000000000E+00  0.00000000000E+00  0.12170127516E+04  0.40726986187E+04  0.38866121496E+04 0.  0.
        3    1    3    3  502    0 -0.11250521590E+04  0.14157811024E+04  0.13540926024E+04  0.22591470241E+04  0.10100000352E+00 0.  1.
       -3    1    3    3    0  502  0.11250521590E+04 -0.14157811024E+04 -0.13707985083E+03  0.18135515946E+04  0.10100000352E+00 0. -1.
</event>
<event>
 5   0  0.2384787E-07  0.3942646E+04  0.7818609E-02  0.8016218E-01
        2   -1    0    0  501    0  0.00000000000E+00  0.00000000000E+00  0.26351016791E+04  0.26351016791E+04  0.25500000920E-02 0.  1.
       -2   -1    0    0    0  501  0.00000000000E+00  0.00000000000E+00 -0.14747492711E+04  0.14747492712E+04  0.25500000920E-02 0. -1.
    10030    2    1    2    0    0  0.00000000000E+00  0.00000000000E+00  0.11603524080E+04  0.41098509503E+04  0.39426459545E+04 0.  0.
        4    1    3    3  502    0 -0.84129107858E+03  0.69303757743E+02  0.24371689643E+04  0.25792184597E+04  0.12699999809E+01 0.  1.
       -4    1    3    3    0  502  0.84129107858E+03 -0.69303757743E+02 -0.12768165563E+04  0.15306324905E+04  0.12699999809E+01 0. -1.
</event>
<event>
 5   0  0.2446281E-07  0.3896444E+04  0.7818609E-02  0.8025769E-01
       -2   -1    0    0    0  501  0.00000000000E+00  0.00000000000E+00  0.28472765038E+04  0.28472765038E+04  0.25500000920E-02 0.  1.
        2   -1    0    0  501    0  0.00000000000E+00  0.00000000000E+00 -0.13330522570E+04  0.13330522570E+04  0.25500000920E-02 0. -1.
    10030    2    1    2    0    0  0.00000000000E+00  0.00000000000E+00  0.15142242467E+04  0.41803287608E+04  0.38964436964E+04 0.  0.
        1    1    3    3  502    0 -0.56838226440E+03  0.17776616696E+04  0.13567895131E+04  0.23073831916E+04  0.50400001928E-02 0.  1.
       -1    1    3    3    0  502  0.56838226440E+03 -0.17776616696E+04  0.15743473368E+03  0.18729455692E+04  0.50400001928E-02 0. -1.
</event>
<event>
 5   0  0.7675750E-08  0.3687442E+04  0.7818609E-02  0.8070751E-01
        1   -1    0    0  501    0  0.00000000000E+00  0.00000000000E+00  0.18125146122E+04  0.18125146122E+04  0.50400001928E-02 0.  1.
       -1   -1    0    0    0  501  0.00000000000E+00  0.00000000000E+00 -0.18754645755E+04  0.18754645755E+04  0.50400001928E-02 0. -1.
    10030    2    1    2    0    0  0.00000000000E+00  0.00000000000E+00 -0.62949963321E+02  0.36879791877E+04  0.36874419034E+04 0.  0.
        4    1    3    3  502    0 -0.85139126052E+03 -0.42243507220E+03 -0.16115744349E+04  0.18709602457E+04  0.12699999809E+01 0. -1.
       -4    1    3    3    0  502  0.85139126052E+03  0.42243507220E+03  0.15486244716E+04  0.18170189420E+04  0.12699999809E+01 0.  1.
</event>
<event>
 5   0  0.2395572E-07  0.3864779E+04  0.7818609E-02  0.8032395E-01
        2   -1    0    0  501    0  0.00000000000E+00  0.00000000000E+00  0.24218659444E+04  0.24218659444E+04  0.25500000920E-02 0.  1.
       -2   -1    0    0    0  501  0.00000000000E+00  0.00000000000E+00 -0.15418393889E+04  0.15418393889E+04  0.25500000920E-02 0. -1.
    10030    2    1    2    0    0  0.00000000000E+00  0.00000000000E+00  0.88002655551E+03  0.39637053334E+04  0.38647785488E+04 0.  0.
        3    1    3    3  502    0 -0.42260424753E+03 -0.58262164348E+03 -0.13992359048E+04  0.15735003835E+04  0.10100000352E+00 0. -1.
       -3    1    3    3    0  502  0.42260424753E+03  0.58262164348E+03  0.22792624603E+04  0.23902049499E+04  0.10100000352E+00 0.  1.
</event>
<event>
 5   0  0.2486268E-07  0.3917459E+04  0.7818609E-02  0.8021408E-01
        2   -1    0    0  501    0  0.00000000000E+00  0.00000000000E+00  0.27676915669E+04  0.27676915669E+04  0.25500000920E-02 0. -1.
       -2   -1    0    0    0  501  0.00000000000E+00  0.00000000000E+00 -0.13862170430E+04  0.13862170430E+04  0.25500000920E-02 0.  1.
    10030    2    1    2    0    0  0.00000000000E+00  0.00000000000E+00  0.13814745239E+04  0.41539086099E+04  0.39174589824E+04 0.  0.
        5    1    3    3  502    0 -0.13236252153E+04  0.10458757499E+04 -0.36471006900E+03  0.17259418644E+04  0.46999998093E+01 0. -1.
       -5    1    3    3    0  502  0.13236252153E+04 -0.10458757499E+04  0.17461845929E+04  0.24279667455E+04  0.46999998093E+01 0.  1.
</event>
<event>
 5   0  0.7731706E-08  0.3892509E+04  0.7818609E-02  0.8026589E-01
       -1   -1    0    0    0  501  0.00000000000E+00  0.00000000000E+00  0.21996121168E+04  0.21996121168E+04  0.50400001928E-02 0.  1.
        1   -1    0    0  501    0  0.00000000000E+00  0.00000000000E+00 -0.17220793802E+04  0.17220793803E+04  0.50400001928E-02 0. -1.
    10030    2    1    2    0    0  0.00000000000E+00  0.00000000000E+00  0.47753273656E+03  0.39216914971E+04  0.38925090473E+04 0.  0.
        3    1    3    3  502    0  0.14201270972E+04 -0.62412425031E+03  0.14229996279E+04  0.21050463185E+04  0.10100000352E+00 0.  1.
       -3    1    3    3    0  502 -0.14201270972E+04  0.62412425031E+03 -0.94546689131E+03  0.18166451785E+04  0.10100000352E+00 0. -1.
</event>
<event>
 5   0  0.7675750E-08  0.3898229E+04  0.7818609E-02  0.8025398E-01
       -1   -1    0    0    0  501  0.00000000000E+00  0.00000000000E+00  0.19547701159E+04  0.19547701159E+04  0.50400001928E-02 0.  1.
        1   -1    0    0  501    0  0.00000000000E+00  0.00000000000E+00 -0.19434757187E+04  0.19434757187E+04  0.50400001928E-02 0. -1.
    10030    2    1    2    0    0  0.00000000000E+00  0.00000000000E+00  0.11294397197E+02  0.38982458347E+04  0.38982294730E+04 0.  0.
        4    1    3    3  502    0  0.16427710823E+04  0.81759125086E+03 -0.65154226137E+03  0.19472188407E+04  0.12699999809E+01 0. -1.
       -4    1    3    3    0  502 -0.16427710823E+04 -0.81759125086E+03  0.66283665857E+03  0.19510269940E+04  0.12699999809E+01 0.  1.
</event>
<event>
 5   0  0.2384787E-07  0.3880818E+04  0.7818609E-02  0.8029031E-01
        2   -1    0    0  501    0  0.00000000000E+00  0.00000000000E+00  0.15855817006E+04  0.15855817006E+04  0.25500000920E-02 0.  1.
       -2   -1    0    0    0  501  0.00000000000E+00  0.00000000000E+00 -0.23746409276E+04  0.23746409276E+04  0.25500000920E-02 0. -1.
    10030    2    1    2    0    0  0.00000000000E+00  0.00000000000E+00 -0.78905922697E+03  0.39602226282E+04  0.38808180582E+04 0.  0.
        4    1    3    3  502    0 -0.11902369080E+04 -0.15323397404E+04 -0.37272396289E+03  0.19757666215E+04  0.12699999809E+01 0.  1.
       -4    1    3    3    0  502  0.11902369080E+04  0.15323397404E+04 -0.41633526408E+03  0.19844560067E+04  0.12699999809E+01 0. -1.
</event>
<event>
 5   0  0.7731706E-08  0.3807622E+04  0.7818609E-02  0.8044521E-01
        1   -1    0    0  501    0  0.00000000000E+00  0.00000000000E+00  0.23058860037E+04  0.23058860037E+04  0.50400001928E-02 0.  1.
       -1   -1    0    0    0  501  0.00000000000E+00  0.00000000000E+00 -0.15718452822E+04  0.15718452822E+04  0.50400001928E-02 0. -1.
    10030    2    1    2    0    0  0.00000000000E+00  0.00000000000E+00  0.73404072148E+03  0.38777312860E+04  0.38076218491E+04 0.  0.
        3    1    3    3  502    0 -0.82892516730E+02  0.18893060588E+04  0.14355477533E+03  0.18965644036E+04  0.10100000352E+00 0.  1.
       -3    1    3    3    0  502  0.82892516730E+02 -0.18893060588E+04  0.59048594616E+03  0.19811668824E+04  0.10100000352E+00 0. -1.
</event>
<event>
 5   0  0.2486268E-07  0.3926223E+04  0.7818609E-02  0.8019597E-01
       -2   -1    0    0    0  501  0.00000000000E+00  0.00000000000E+00  0.20834755052E+04  0.20834755052E+04  0.25500000920E-02 0.  1.
        2   -1    0    0  501    0  0.00000000000E+00  0.00000000000E+00 -0.18497010840E+04  0.18497010840E+04  0.25500000920E-02 0. -1.
    10030    2    1    2    0    0  0.00000000000E+00  0.00000000000E+00  0.23377442116E+03  0.39331765892E+04  0.39262230708E+04 0.  0.
        5    1    3    3  502    0 -0.17523206290E+04 -0.15273485158E+03 -0.75633845092E+03  0.19146867796E+04  0.46999998093E+01 0. -1.
       -5    1    3    3    0  502  0.17523206290E+04  0.15273485158E+03  0.99011287209E+03  0.20184898096E+04  0.46999998093E+01 0.  1.
</event>
<event>
 5   0  0.2473224E-07  0.3905919E+04  0.7818609E-02  0.8023799E-01
        2   -1    0    0  501    0  0.00000000000E+00  0.00000000000E+00  0.17515730431E+04  0.17515730431E+04  0.25500000920E-02 0. -1.
       -2   -1    0    0    0  501  0.00000000000E+00  0.00000000000E+00 -0.21774997457E+04  0.21774997457E+04  0.25500000920E-02 0.  1.
    10030    2    1    2    0    0  0.00000000000E+00  0.00000000000E+00 -0.42592670259E+03  0.39290727889E+04  0.39059185123E+04 0.  0.
        2    1    3    3  502    0 -0.19243133066E+04 -0.11396351588E+03  0.10207118580E+03  0.19303854309E+04  0.25500000920E-02 0.  1.
       -2    1    3    3    0  502  0.19243133066E+04  0.11396351588E+03 -0.52799788840E+03  0.19986873580E+04  0.25500000920E-02 0. -1.
</event>
<event>
 5   0  0.2486268E-07  0.3913242E+04  0.7818609E-02  0.8022281E-01
        2   -1    0    0  501    0  0.00000000000E+00  0.00000000000E+00  0.17381654945E+04  0.17381654945E+04  0.25500000920E-02 0.  1.
       -2   -1    0    0    0  501  0.00000000000E+00  0.00000000000E+00 -0.22025322865E+04  0.22025322865E+04  0.25500000920E-02 0. -1.
    10030    2    1    2    0    0  0.00000000000E+00  0.00000000000E+00 -0.46436679202E+03  0.39406977810E+04  0.39132419403E+04 0.  0.
        5    1    3    3  502    0  0.10130340215E+03  0.74253721036E+03  0.15879045014E+04  0.17558720579E+04  0.46999998093E+01 0.  1.
       -5    1    3    3    0  502 -0.10130340215E+03 -0.74253721036E+03 -0.20522712935E+04  0.21848257230E+04  0.46999998093E+01 0. -1.
</event>
<event>
 5   0  0.7675750E-08  0.3907577E+04  0.7818609E-02  0.8023455E-01
       -1   -1    0    0    0  501  0.00000000000E+00  0.00000000000E+00  0.19891531288E+04  0.19891531288E+04  0.50400001928E-02 0.  1.
        1   -1    0    0  501    0  0.00000000000E+00  0.00000000000E+00 -0.19190522500E+04  0.19190522500E+04  0.50400001928E-02 0. -1.
    10030    2    1    2    0    0  0.00000000000E+00  0.00000000000E+00  0.70100878770E+02  0.39082053788E+04  0.39075766339E+04 0.  0.
        5    1    3    3  502    0 -0.12702774304E+03  0.52471434198E+03  0.19130654109E+04  0.19877883551E+04  0.46999998093E+01 0.  1.
       -5    1    3    3    0  502  0.12702774304E+03 -0.52471434198E+03 -0.18429645322E+04  0.19204170237E+04  0.46999998093E+01 0. -1.
</event>
<event>
 5   0  0.7675750E-08  0.3891192E+04  0.7818609E-02  0.8026864E-01
       -1   -1    0    0    0  501  0.00000000000E+00  0.00000000000E+00  0.22558486048E+04  0.22558486048E+04  0.50400001928E-02 0.  1.
        1   -1    0    0  501    0  0.00000000000E+00  0.00000000000E+00 -0.16780129230E+04  0.16780129230E+04  0.50400001928E-02 0. -1.
    10030    2    1    2    0    0  0.00000000000E+00  0.00000000000E+00  0.57783568178E+03  0.39338615278E+04  0.38911916484E+04 0.  0.
        4    1    3    3  502    0 -0.11494102133E+03  0.11835007227E+04  0.18457578795E+04  0.21956113412E+04  0.12699999809E+01 0.  1.
       -4    1    3    3    0  502  0.11494102133E+03 -0.11835007227E+04 -0.12679221977E+04  0.17382501866E+04  0.12699999809E+01 0. -1.
</event>
<event>
 5   0  0.2395572E-07  0.3929825E+04  0.7818609E-02  0.8018855E-01
        2   -1    0    0  501    0  0.00000000000E+00  0.00000000000E+00  0.15283282275E+04  0.15283282275E+04  0.25500000920E-02 0. -1.
       -2   -1    0    0    0  501  0.00000000000E+00  0.00000000000E+00 -0.25262117366E+04  0.25262117366E+04  0.25500000920E-02 0.  1.
    10030    2    1    2    0    0  0.00000000000E+00  0.00000000000E+00 -0.99788350908E+03  0.40545399641E+04  0.39298247827E+04 0.  0.
        3    1    3    3  502    0 -0.90887935246E+02  0.44131043407E+02 -0.25235299099E+04  0.25255516986E+04  0.10100000352E+00 0.  1.
       -3    1    3    3    0  502  0.90887935246E+02 -0.44131043407E+02  0.15256464008E+04  0.15289882656E+04  0.10100000352E+00 0. -1.
</event>
<event>
 5   0  0.7675750E-08  0.3794103E+04  0.7818609E-02  0.8047422E-01
        1   -1    0    0  501    0  0.00000000000E+00  0.00000000000E+00  0.23074489343E+04  0.23074489343E+04  0.50400001928E-02 0.  1.
       -1   -1    0    0    0  501  0.00000000000E+00  0.00000000000E+00 -0.15596462043E+04  0.15596462043E+04  0.50400001928E-02 0. -1.
    10030    2    1    2    0    0  0.00000000000E+00  0.00000000000E+00  0.74780272998E+03  0.38670951386E+04  0.37941027777E+04 0.  0.
        2    1    3    3  502    0  0.62648537922E+03 -0.16059535197E+04 -0.43331569321E+03  0.17774513011E+04  0.25500000920E-02 0. -1.
       -2    1    3    3    0  502 -0.62648537922E+03  0.16059535197E+04  0.11811184232E+04  0.20896438375E+04  0.25500000920E-02 0.  1.
</event>
<event>
 5   0  0.2384787E-07  0.3187247E+04  0.7818609E-02  0.8192193E-01
       -2   -1    0    0    0  501  0.00000000000E+00  0.00000000000E+00  0.16055811901E+04  0.16055811901E+04  0.25500000920E-02 0.  1.
        2   -1    0    0  501    0  0.00000000000E+00  0.00000000000E+00 -0.15817552506E+04  0.15817552506E+04  0.25500000920E-02 0. -1.
    10030    2    1    2    0    0  0.00000000000E+00  0.00000000000E+00  0.23825939506E+02  0.31873364408E+04  0.31872473878E+04 0.  0.
        4    1    3    3  502    0  0.55257514463E+03  0.43283396083E+03  0.14426696659E+04  0.16043633958E+04  0.12699999809E+01 0.  1.
       -4    1    3    3    0  502 -0.55257514463E+03 -0.43283396083E+03 -0.14188437264E+04  0.15829730449E+04  0.12699999809E+01 0. -1.
</event>
<event>
 5   0  0.7675750E-08  0.3861256E+04  0.7818609E-02  0.8033136E-01
       -1   -1    0    0    0  501  0.00000000000E+00  0.00000000000E+00  0.16718371047E+04  0.16718371047E+04  0.50400001928E-02 0.  1.
        1   -1    0    0  501    0  0.00000000000E+00  0.00000000000E+00 -0.22294777228E+04  0.22294777228E+04  0.50400001928E-02 0. -1.
    10030    2    1    2    0    0  0.00000000000E+00  0.00000000000E+00 -0.55764061811E+03  0.39013148275E+04  0.38612555373E+04 0.  0.
        4    1    3    3  502    0 -0.13694713823E+03 -0.19213307630E+04 -0.41077210401E+03  0.19695181527E+04  0.12699999809E+01 0. -1.
       -4    1    3    3    0  502  0.13694713823E+03  0.19213307630E+04 -0.14686851410E+03  0.19317966748E+04  0.12699999809E+01 0.  1.
</event>
<event>
 5   0  0.7675750E-08  0.3993851E+04  0.7818609E-02  0.8005788E-01
       -1   -1    0    0    0  501  0.00000000000E+00  0.00000000000E+00  0.19405002741E+04  0.19405002741E+04  0.50400001928E-02 0. -1.
        1   -1    0    0  501    0  0.00000000000E+00  0.00000000000E+00 -0.20549909576E+04  0.20549909576E+04  0.50400001928E-02 0.  1.
    10030    2    1    2    0    0  0.00000000000E+00  0.00000000000E+00 -0.11449068352E+03  0.39954912317E+04  0.39938505313E+04 0.  0.
        1    1    3    3  502    0 -0.93162670930E+03 -0.18362243305E+03 -0.18146869670E+04  0.20481050538E+04  0.50400001928E-02 0.  1.
       -1    1    3    3    0  502  0.93162670930E+03  0.18362243305E+03  0.17001962835E+04  0.19473861779E+04  0.50400001928E-02 0. -1.
</event>
<event>
 5   0  0.7675750E-08  0.3820275E+04  0.7818609E-02  0.8041818E-01
       -1   -1    0    0    0  501  0.00000000000E+00  0.00000000000E+00  0.13743831886E+04  0.13743831886E+04  0.50400001928E-02 0. -1.
        1   -1    0    0  501    0  0.00000000000E+00  0.00000000000E+00 -0.26547365498E+04  0.26547365498E+04  0.50400001928E-02 0.  1.
    10030    2    1    2    0    0  0.00000000000E+00  0.00000000000E+00 -0.12803533612E+04  0.40291197384E+04  0.38202750080E+04 0.  0.
        5    1    3    3  502    0 -0.16126682828E+04 -0.51052909713E+03  0.29560773978E+03  0.17171910130E+04  0.46999998093E+01 0. -1.
       -5    1    3    3    0  502  0.16126682828E+04  0.51052909713E+03 -0.15759611010E+04  0.23119287254E+04  0.46999998093E+01 0.  1.
</event>
<event>
 5   0  0.7731706E-08  0.3851616E+04  0.7818609E-02  0.8035168E-01
        1   -1    0    0  501    0  0.00000000000E+00  0.00000000000E+00  0.16697675667E+04  0.16697675667E+04  0.50400001928E-02 0.  1.
       -1   -1    0    0    0  501  0.00000000000E+00  0.00000000000E+00 -0.22211094763E+04  0.22211094763E+04  0.50400001928E-02 0. -1.
    10030    2    1    2    0    0  0.00000000000E+00  0.00000000000E+00 -0.55134190957E+03  0.38908770430E+04  0.38516160586E+04 0.  0.
        3    1    3    3  502    0 -0.17830629694E+04  0.56516537567E+03 -0.73861195281E+03  0.20110378121E+04  0.10100000352E+00 0. -1.
       -3    1    3    3    0  502  0.17830629694E+04 -0.56516537567E+03  0.18727004323E+03  0.18798392309E+04  0.10100000352E+00 0.  1.
</event>
<event>
 5   0  0.2473224E-07  0.3994360E+04  0.7818609E-02  0.8005685E-01
        2   -1    0    0  501    0  0.00000000000E+00  0.00000000000E+00  0.16870872368E+04  0.16870872368E+04  0.25500000920E-02 0. -1.
       -2   -1    0    0    0  501  0.00000000000E+00  0.00000000000E+00 -0.23642687720E+04  0.23642687720E+04  0.25500000920E-02 0.  1.
    10030    2    1    2    0    0  0.00000000000E+00  0.00000000000E+00 -0.67718153516E+03  0.40513560088E+04  0.39943598584E+04 0.  0.
        2    1    3    3  502    0 -0.91750783577E+03 -0.52086185996E+03 -0.20585502227E+04  0.23131681143E+04  0.25500000920E-02 0.  1.
       -2    1    3    3    0  502  0.91750783577E+03  0.52086185996E+03  0.13813686875E+04  0.17381878945E+04  0.25500000920E-02 0. -1.
</event>
<event>
 5   0  0.7675750E-08  0.3872286E+04  0.7818609E-02  0.8030818E-01
       -1   -1    0    0    0  501  0.00000000000E+00  0.00000000000E+00  0.25675685826E+04  0.25675685826E+04  0.50400001928E-02 0. -1.
        1   -1    0    0  501    0  0.00000000000E+00  0.00000000000E+00 -0.14600000658E+04  0.14600000658E+04  0.50400001928E-02 0.  1.
    10030    2    1    2    0    0  0.00000000000E+00  0.00000000000E+00  0.11075685168E+04  0.40275686485E+04  0.38722863013E+04 0.  0.
        4    1    3    3  502    0  0.11567450329E+04 -0.11853770203E+04  0.15967264870E+04  0.23005901066E+04  0.12699999809E+01 0. -1.
       -4    1    3    3    0  502 -0.11567450329E+04  0.11853770203E+04 -0.48915797019E+03  0.17269785419E+04  0.12699999809E+01 0.  1.
</event>
<event>
 5   0  0.2395572E-07  0.3909560E+04  0.7818609E-02  0.8023044E-01
        2   -1    0    0  501    0  0.00000000000E+00  0.00000000000E+00  0.21056474977E+04  0.21056474977E+04  0.25500000920E-02 0.  1.
       -2   -1    0    0    0  501  0.00000000000E+00  0.00000000000E+00 -0.18147219025E+04  0.18147219025E+04  0.25500000920E-02 0. -1.
    10030    2    1    2    0    0  0.00000000000E+00  0.00000000000E+00  0.29092559525E+03  0.39203694002E+04  0.39095598898E+04 0.  0.
        3    1    3    3  502    0 -0.17576911378E+04 -0.69010290751E+03  0.65227535601E+03  0.19977946114E+04  0.10100000352E+00 0.  1.
       -3    1    3    3    0  502  0.17576911378E+04  0.69010290751E+03 -0.36134976075E+03  0.19225747888E+04  0.10100000352E+00 0. -1.
</event>
<event>
 5   0  0.2384787E-07  0.3901578E+04  0.7818609E-02  0.8024701E-01
       -2   -1    0    0    0  501  0.00000000000E+00  0.00000000000E+00  0.25044277482E+04  0.25044277482E+04  0.25500000920E-02 0. -1.
        2   -1    0    0  501    0  0.00000000000E+00  0.00000000000E+00 -0.15195401338E+04  0.15195401338E+04  0.25500000920E-02 0.  1.
    10030    2    1    2    0    0  0.00000000000E+00  0.00000000000E+00  0.98488761445E+03  0.40239678820E+04  0.39015783860E+04 0.  0.
        4    1    3    3  502    0  0.14056119944E+04 -0.12058972114E+04  0.11245677254E+04  0.21666996435E+04  0.12699999809E+01 0. -1.
       -4    1    3    3    0  502 -0.14056119944E+04  0.12058972114E+04 -0.13968011091E+03  0.18572682385E+04  0.12699999809E+01 0.  1.
</event>
<event>
 5   0  0.7731706E-08  0.3948306E+04  0.7818609E-02  0.8015057E-01
       -1   -1    0    0    0  501  0.00000000000E+00  0.00000000000E+00  0.18675594296E+04  0.18675594296E+04  0.50400001928E-02 0. -1.
        1   -1    0    0  501    0  0.00000000000E+00  0.00000000000E+00 -0.20868301248E+04  0.20868301248E+04  0.50400001928E-02 0.  1.
    10030    2    1    2    0    0  0.00000000000E+00  0.00000000000E+00 -0.21927069523E+03  0.39543895544E+04  0.39483055999E+04 0.  0.
        3    1    3    3  502    0  0.20030442471E+03  0.76080655553E+03 -0.19230414662E+04  0.20777480522E+04  0.10100000352E+00 0.  1.
       -3    1    3    3    0  502 -0.20030442471E+03 -0.76080655553E+03  0.17037707710E+04  0.18766415022E+04  0.10100000352E+00 0. -1.
</event>
<event>
 5   0  0.2486268E-07  0.3791453E+04  0.7818609E-02  0.8047991E-01
        2   -1    0    0  501    0  0.00000000000E+00  0.00000000000E+00  0.18510219690E+04  0.18510219690E+04  0.25500000920E-02 0.  1.
       -2   -1    0    0    0  501  0.00000000000E+00  0.00000000000E+00 -0.19415108787E+04  0.19415108787E+04  0.25500000920E-02 0. -1.
    10030    2    1    2    0    0  0.00000000000E+00  0.00000000000E+00 -0.90488909669E+02  0.37925328478E+04  0.37914531724E+04 0.  0.
        5    1    3    3  502    0 -0.16083314802E+04  0.97497203403E+03 -0.28291805591E+03  0.19019372581E+04  0.46999998093E+01 0. -1.
       -5    1    3    3    0  502  0.16083314802E+04 -0.97497203403E+03  0.19242914624E+03  0.18905955897E+04  0.46999998093E+01 0.  1.
</event>
<event>
 5   0  0.2446281E-07  0.3912669E+04  0.7818609E-02  0.8022399E-01
        2   -1    0    0  501    0  0.00000000000E+00  0.00000000000E+00  0.13980657958E+04  0.13980657958E+04  0.25500000920E-02 0. -1.
       -2   -1    0    0    0  501  0.00000000000E+00  0.00000000000E+00 -0.27375286184E+04  0.27375286184E+04  0.25500000920E-02 0.  1.
    10030    2    1    2    0    0  0.00000000000E+00  0.00000000000E+00 -0.13394628226E+04  0.41355944141E+04  0.39126692302E+04 0.  0.
        1    1    3    3  502    0  0.46327119032E+03  0.16360742575E+04  0.35279908587E+03  0.17366134766E+04  0.50400001928E-02 0. -1.
       -1    1    3    3    0  502 -0.46327119032E+03 -0.16360742575E+04 -0.16922619085E+04  0.23989809376E+04  0.50400001928E-02 0.  1.
</event>
<event>
 5   0  0.2395572E-07  0.3914607E+04  0.7818609E-02  0.8021998E-01
       -2   -1    0    0    0  501  0.00000000000E+00  0.00000000000E+00  0.24241986702E+04  0.24241986702E+04  0.25500000920E-02 0. -1.
        2   -1    0    0  501    0  0.00000000000E+00  0.00000000000E+00 -0.15803316144E+04  0.15803316144E+04  0.25500000920E-02 0.  1.
    10030    2    1    2    0    0  0.00000000000E+00  0.00000000000E+00  0.84386705575E+03  0.40045302846E+04  0.39146074123E+04 0.  0.
        3    1    3    3  502    0  0.86547791355E+03  0.10171653843E+04 -0.10417949164E+04  0.16938164292E+04  0.10100000352E+00 0.  1.
       -3    1    3    3    0  502 -0.86547791355E+03 -0.10171653843E+04  0.18856619722E+04  0.23107138554E+04  0.10100000352E+00 0. -1.
</event>
<event>
 5   0  0.7675750E-08  0.3873917E+04  0.7818609E-02  0.8030476E-01
       -1   -1    0    0    0  501  0.00000000000E+00  0.00000000000E+00  0.15969688830E+04  0.15969688830E+04  0.50400001928E-02 0.  1.
        1   -1    0    0  501    0  0.00000000000E+00  0.00000000000E+00 -0.23493307875E+04  0.23493307875E+04  0.50400001928E-02 0. -1.
    10030    2    1    2    0    0  0.00000000000E+00  0.00000000000E+00 -0.75236190449E+03  0.39462996705E+04  0.38739169653E+04 0.  0.
        1    1    3    3  502    0 -0.13349864462E+04  0.10238238713E+02 -0.18057967814E+04  0.22457060468E+04  0.50400001928E-02 0. -1.
       -1    1    3    3    0  502  0.13349864462E+04 -0.10238238713E+02  0.10534348769E+04  0.17005936237E+04  0.50400001928E-02 0.  1.
</event>
<event>
 5   0  0.7675750E-08  0.3675823E+04  0.7818609E-02  0.8073341E-01
        1   -1    0    0  501    0  0.00000000000E+00  0.00000000000E+00  0.22773617725E+04  0.22773617725E+04  0.50400001928E-02 0.  1.
       -1   -1    0    0    0  501  0.00000000000E+00  0.00000000000E+00 -0.14832594598E+04  0.14832594598E+04  0.50400001928E-02 0. -1.
    10030    2    1    2    0    0  0.00000000000E+00  0.00000000000E+00  0.79410231267E+03  0.37606212323E+04  0.36758228426E+04 0.  0.
        2    1    3    3  502    0  0.29940319444E+03 -0.56592393276E+03 -0.13654825252E+04  0.15081295359E+04  0.25500000920E-02 0. -1.
       -2    1    3    3    0  502 -0.29940319444E+03  0.56592393276E+03  0.21595848378E+04  0.22524916964E+04  0.25500000920E-02 0.  1.
</event>
<event>
 5   0  0.2446281E-07  0.3805445E+04  0.7818609E-02  0.8044987E-01
       -2   -1    0    0    0  501  0.00000000000E+00  0.00000000000E+00  0.16874087261E+04  0.16874087261E+04  0.25500000920E-02 0. -1.
        2   -1    0    0  501    0  0.00000000000E+00  0.00000000000E+00 -0.21455107432E+04  0.21455107432E+04  0.25500000920E-02 0.  1.
    10030    2    1    2    0    0  0.00000000000E+00  0.00000000000E+00 -0.45810201710E+03  0.38329194693E+04  0.38054453353E+04 0.  0.
        1    1    3    3  502    0  0.14451925704E+04  0.61872353046E+03 -0.13086820732E+04  0.20454948402E+04  0.50400001928E-02 0.  1.
       -1    1    3    3    0  502 -0.14451925704E+04 -0.61872353046E+03  0.85058005607E+03  0.17874246291E+04  0.50400001928E-02 0. -1.
</event>
<event>
 5   0  0.2395572E-07  0.3915672E+04  0.7818609E-02  0.8021778E-01
        2   -1    0    0  501    0  0.00000000000E+00  0.00000000000E+00  0.15476942458E+04  0.15476942458E+04  0.25500000920E-02 0. -1.
       -2   -1    0    0    0  501  0.00000000000E+00  0.00000000000E+00 -0.24766656519E+04  0.24766656519E+04  0.25500000920E-02 0.  1.
    10030    2    1    2    0    0  0.00000000000E+00  0.00000000000E+00 -0.92897140609E+03  0.40243598976E+04  0.39156716808E+04 0.  0.
        3    1    3    3  502    0 -0.10927119426E+03  0.26268579247E+03 -0.24553066863E+04  0.24717352111E+04  0.10100000352E+00 0.  1.
       -3    1    3    3    0  502  0.10927119426E+03 -0.26268579247E+03  0.15263352802E+04  0.15526246866E+04  0.10100000352E+00 0. -1.
</event>
<event>
 5   0  0.7675750E-08  0.3879699E+04  0.7818609E-02  0.8029265E-01
        1   -1    0    0  501    0  0.00000000000E+00  0.00000000000E+00  0.16471781867E+04  0.16471781867E+04  0.50400001928E-02 0.  1.
       -1   -1    0    0    0  501  0.00000000000E+00  0.00000000000E+00 -0.22845232217E+04  0.22845232218E+04  0.50400001928E-02 0. -1.
    10030    2    1    2    0    0  0.00000000000E+00  0.00000000000E+00 -0.63734503508E+03  0.39317014084E+04  0.38796993790E+04 0.  0.
        5    1    3    3  502    0 -0.33181415665E+03 -0.13775037669E+04  0.10239926188E+04  0.17481991408E+04  0.46999998093E+01 0.  1.
       -5    1    3    3    0  502  0.33181415665E+03  0.13775037669E+04 -0.16613376539E+04  0.21835022676E+04  0.46999998093E+01 0. -1.
</event>
<event>
 5   0  0.2395572E-07  0.3868303E+04  0.7818609E-02  0.8031654E-01
       -2   -1    0    0    0  501  0.00000000000E+00  0.00000000000E+00  0.14104534510E+04  0.14104534510E+04  0.25500000920E-02 0.  1.
        2   -1    0    0  501    0  0.00000000000E+00  0.00000000000E+00 -0.26522976613E+04  0.26522976613E+04  0.25500000920E-02 0. -1.
    10030    2    1    2    0    0  0.00000000000E+00  0.00000000000E+00 -0.12418442103E+04  0.40627511123E+04  0.38683031885E+04 0.  0.
        3    1    3    3  502    0  0.10826122344E+04  0.75277985958E+03  0.86520218935E+03  0.15771181331E+04  0.10100000352E+00 0.  1.
       -3    1    3    3    0  502 -0.10826122344E+04 -0.75277985958E+03 -0.21070463997E+04  0.24856329793E+04  0.10100000352E+00 0. -1.
</event>
<event>
 5   0  0.7675750E-08  0.3873840E+04  0.7818609E-02  0.8030492E-01
       -1   -1    0    0    0  501  0.00000000000E+00  0.00000000000E+00  0.16537142625E+04  0.16537142625E+04  0.50400001928E-02 0. -1.
        1   -1    0    0  501    0  0.00000000000E+00  0.00000000000E+00 -0.22686256379E+04  0.22686256379E+04  0.50400001928E-02 0.  1.
    10030    2    1    2    0    0  0.00000000000E+00  0.00000000000E+00 -0.61491137537E+03  0.39223399004E+04  0.38738397353E+04 0.  0.
        4    1    3    3  502    0 -0.65960945720E+03 -0.15690440755E+04  0.62860406403E+03  0.18144223954E+04  0.12699999809E+01 0. -1.
       -4    1    3    3    0  502  0.65960945720E+03  0.15690440755E+04 -0.12435154394E+04  0.21079175050E+04  0.12699999809E+01 0.  1.
</event>
<event>
 5   0  0.7675750E-08  0.3897137E+04  0.7818609E-02  0.8025625E-01
        1   -1    0    0  501    0  0.00000000000E+00  0.00000000000E+00  0.26025326174E+04  0.26025326174E+04  0.50400001928E-02 0. -1.
       -1   -1    0    0    0  501  0.00000000000E+00  0.00000000000E+00 -0.14589325298E+04  0.14589325298E+04  0.50400001928E-02 0.  1.
    10030    2    1    2    0    0  0.00000000000E+00  0.00000000000E+00  0.11436000877E+04  0.40614651472E+04  0.38971371520E+04 0.  0.
        4    1    3    3  502    0  0.18550395316E+04  0.54942380491E+03  0.81370770888E+03  0.20988473098E+04  0.12699999809E+01 0. -1.
       -4    1    3    3    0  502 -0.18550395316E+04 -0.54942380491E+03  0.32989237877E+03  0.19626178374E+04  0.12699999809E+01 0.  1.
</event>
<event>
 5   0  0.2395572E-07  0.3966132E+04  0.7818609E-02  0.8011414E-01
       -2   -1    0    0    0  501  0.00000000000E+00  0.00000000000E+00  0.18613910960E+04  0.18613910960E+04  0.25500000920E-02 0. -1.
        2   -1    0    0  501    0  0.00000000000E+00  0.00000000000E+00 -0.21126945549E+04  0.21126945549E+04  0.25500000920E-02 0.  1.
    10030    2    1    2    0    0  0.00000000000E+00  0.00000000000E+00 -0.25130345891E+03  0.39740856510E+04  0.39661320367E+04 0.  0.
        3    1    3    3  502    0 -0.10017700064E+04  0.12547649606E+04 -0.12918467785E+04  0.20607878011E+04  0.10100000352E+00 0.  1.
       -3    1    3    3    0  502  0.10017700064E+04 -0.12547649606E+04  0.10405433196E+04  0.19132978498E+04  0.10100000352E+00 0. -1.
</event>
<event>
 5   0  0.7675750E-08  0.3930681E+04  0.7818609E-02  0.8018678E-01
       -1   -1    0    0    0  501  0.00000000000E+00  0.00000000000E+00  0.15296416530E+04  0.15296416530E+04  0.50400001928E-02 0.  1.
        1   -1    0    0  501    0  0.00000000000E+00  0.00000000000E+00 -0.25251430235E+04  0.25251430235E+04  0.50400001928E-02 0. -1.
    10030    2    1    2    0    0  0.00000000000E+00  0.00000000000E+00 -0.99550137050E+03  0.40547846764E+04  0.39306813396E+04 0.  0.
        5    1    3    3  502    0  0.97636095811E+03 -0.93610101760E+02 -0.22546070899E+04  0.24587230002E+04  0.46999998093E+01 0. -1.
       -5    1    3    3    0  502 -0.97636095811E+03  0.93610101760E+02  0.12591057194E+04  0.15960616762E+04  0.46999998093E+01 0.  1.
</event>
<event>
 5   0  0.7675750E-08  0.3924395E+04  0.7818609E-02  0.8019975E-01
        1   -1    0    0  501    0  0.00000000000E+00  0.00000000000E+00  0.23268699213E+04  0.23268699213E+04  0.50400001928E-02 0. -1.
       -1   -1    0    0    0  501  0.00000000000E+00  0.00000000000E+00 -0.16546774881E+04  0.16546774881E+04  0.50400001928E-02 0.  1.
    10030    2    1    2    0    0  0.00000000000E+00  0.00000000000E+00  0.67219243320E+03  0.39815474094E+04  0.39243951262E+04 0.  0.
        1    1    3    3  502    0 -0.17953982787E+02  0.83194738638E+03 -0.14667918166E+04  0.16863976496E+04  0.50400001928E-02 0.  1.
       -1    1    3    3    0  502  0.17953982787E+02 -0.83194738638E+03  0.21389842498E+04  0.22951497599E+04  0.50400001928E-02 0. -1.
</event>
<event>
 5   0  0.7675750E-08  0.3289751E+04  0.7818609E-02  0.8165508E-01
        1   -1    0    0  501    0  0.00000000000E+00  0.00000000000E+00  0.21669042775E+04  0.21669042775E+04  0.50400001928E-02 0. -1.
       -1   -1    0    0    0  501  0.00000000000E+00  0.00000000000E+00 -0.12486083826E+04  0.12486083826E+04  0.50400001928E-02 0.  1.
    10030    2    1    2    0    0  0.00000000000E+00  0.00000000000E+00  0.91829589484E+03  0.34155126601E+04  0.32897506564E+04 0.  0.
        4    1    3    3  502    0 -0.71432751349E+03  0.72003102613E+03 -0.88530966843E+03  0.13462849984E+04  0.12699999809E+01 0.  1.
       -4    1    3    3    0  502  0.71432751349E+03 -0.72003102613E+03  0.18036055633E+04  0.20692276617E+04  0.12699999809E+01 0. -1.
</event>
<event>
 5   0  0.2473224E-07  0.3898906E+04  0.7818609E-02  0.8025257E-01
       -2   -1    0    0    0  501  0.00000000000E+00  0.00000000000E+00  0.14806427012E+04  0.14806427012E+04  0.25500000920E-02 0. -1.
        2   -1    0    0  501    0  0.00000000000E+00  0.00000000000E+00 -0.25667008913E+04  0.25667008913E+04  0.25500000920E-02 0.  1.
    10030    2    1    2    0    0  0.00000000000E+00  0.00000000000E+00 -0.10860581900E+04  0.40473435925E+04  0.38989059701E+04 0.  0.
        2    1    3    3  502    0  0.40009041698E+03 -0.17099561764E+04  0.33556498106E+03  0.17879111621E+04  0.25500000920E-02 0. -1.
       -2    1    3    3    0  502 -0.40009041698E+03  0.17099561764E+04 -0.14216231711E+04  0.22594324304E+04  0.25500000920E-02 0.  1.
</event>
<event>
 5   0  0.2473224E-07  0.3957330E+04  0.7818609E-02  0.8013210E-01
        2   -1    0    0  501    0  0.00000000000E+00  0.00000000000E+00  0.20652168334E+04  0.20652168334E+04  0.25500000920E-02 0.  1.
       -2   -1    0    0    0  501  0.00000000000E+00  0.00000000000E+00 -0.18957405639E+04  0.18957405639E+04  0.25500000920E-02 0. -1.
    10030    2    1    2    0    0  0.00000000000E+00  0.00000000000E+00  0.16947626949E+03  0.39609573973E+04  0.39573300718E+04 0.  0.
        2    1    3    3  502    0 -0.18943747755E+03  0.96511525391E+03  0.18032222682E+04  0.20540069523E+04  0.25500000920E-02 0.  1.
       -2    1    3    3    0  502  0.18943747755E+03 -0.96511525391E+03 -0.16337459988E+04  0.19069504450E+04  0.25500000920E-02 0. -1.
</event>
<event>
 5   0  0.2473224E-07  0.3896373E+04  0.7818609E-02  0.8025784E-01
       -2   -1    0    0    0  501  0.00000000000E+00  0.00000000000E+00  0.24579495758E+04  0.24579495758E+04  0.25500000920E-02 0. -1.
        2   -1    0    0  501    0  0.00000000000E+00  0.00000000000E+00 -0.15441452732E+04  0.15441452732E+04  0.25500000920E-02 0.  1.
    10030    2    1    2    0    0  0.00000000000E+00  0.00000000000E+00  0.91380430259E+03  0.40020948491E+04  0.38963732980E+04 0.  0.
        2    1    3    3  502    0  0.86026647219E+03  0.16762128449E+04 -0.52211392036E+02  0.18848007677E+04  0.25500000920E-02 0.  1.
       -2    1    3    3    0  502 -0.86026647219E+03 -0.16762128449E+04  0.96601569463E+03  0.21172940813E+04  0.25500000920E-02 0. -1.
</event>
<event>
 5   0  0.7675750E-08  0.4082841E+04  0.7818609E-02  0.7988040E-01
       -1   -1    0    0    0  501  0.00000000000E+00  0.00000000000E+00  0.27299531558E+04  0.27299531558E+04  0.50400001928E-02 0.  1.
        1   -1    0    0  501    0  0.00000000000E+00  0.00000000000E+00 -0.15265458439E+04  0.15265458439E+04  0.50400001928E-02 0. -1.
    10030    2    1    2    0    0  0.00000000000E+00  0.00000000000E+00  0.12034073119E+04  0.42564989997E+04  0.40828414830E+04 0.  0.
        2    1    3    3  502    0  0.82377462152E+03  0.60500436433E+03  0.24440003834E+04  0.26491079219E+04  0.25500000920E-02 0.  1.
       -2    1    3    3    0  502 -0.82377462152E+03 -0.60500436433E+03 -0.12405930714E+04  0.16073910778E+04  0.25500000920E-02 0. -1.
</event>
<event>
 5   0  0.7675750E-08  0.3861785E+04  0.7818609E-02  0.8033025E-01
       -1   -1    0    0    0  501  0.00000000000E+00  0.00000000000E+00  0.16413563552E+04  0.16413563553E+04  0.50400001928E-02 0. -1.
        1   -1    0    0  501    0  0.00000000000E+00  0.00000000000E+00 -0.22715025745E+04  0.22715025745E+04  0.50400001928E-02 0.  1.
    10030    2    1    2    0    0  0.00000000000E+00  0.00000000000E+00 -0.63014621925E+03  0.39128589298E+04  0.38617846582E+04 0.  0.
        4    1    3    3  502    0 -0.54442406604E+03 -0.10262312815E+04 -0.18778057372E+04  0.22080996821E+04  0.12699999809E+01 0.  1.
       -4    1    3    3    0  502  0.54442406604E+03  0.10262312815E+04  0.12476595179E+04  0.17047592476E+04  0.12699999809E+01 0. -1.
</event>
<event>
 5   0  0.7731706E-08  0.3900419E+04  0.7818609E-02  0.8024942E-01
       -1   -1    0    0    0  501  0.00000000000E+00  0.00000000000E+00  0.27125464827E+04  0.27125464827E+04  0.50400001928E-02 0. -1.
        1   -1    0    0  501    0  0.00000000000E+00  0.00000000000E+00 -0.14021206337E+04  0.14021206337E+04  0.50400001928E-02 0.  1.
    10030    2    1    2    0    0  0.00000000000E+00  0.00000000000E+00  0.13104258490E+04  0.41146671164E+04  0.39004191535E+04 0.  0.
        3    1    3    3  502    0 -0.62410808697E+03 -0.13448653722E+04  0.19917480360E+04  0.24829889293E+04  0.10100000352E+00 0. -1.
       -3    1    3    3    0  502  0.62410808697E+03  0.13448653722E+04 -0.68132218701E+03  0.16316781871E+04  0.10100000352E+00 0.  1.
</event>
<event>
 5   0  0.2486268E-07  0.3896674E+04  0.7818609E-02  0.8025721E-01
        2   -1    0    0  501    0  0.00000000000E+00  0.00000000000E+00  0.30867274506E+04  0.30867274506E+04  0.25500000920E-02 0.  1.
       -2   -1    0    0    0  501  0.00000000000E+00  0.00000000000E+00 -0.12297866392E+04  0.12297866392E+04  0.25500000920E-02 0. -1.
    10030    2    1    2    0    0  0.00000000000E+00  0.00000000000E+00  0.18569408114E+04  0.43165140897E+04  0.38966735442E+04 0.  0.
        5    1    3    3  502    0  0.17054221639E+03 -0.19396488081E+04  0.10041864319E+04  0.21908296663E+04  0.46999998093E+01 0.  1.
       -5    1    3    3    0  502 -0.17054221639E+03  0.19396488081E+04  0.85275437948E+03  0.21256844235E+04  0.46999998093E+01 0. -1.
</event>
<event>
 5   0  0.7675750E-08  0.3920411E+04  0.7818609E-02  0.8020797E-01
       -1   -1    0    0    0  501  0.00000000000E+00  0.00000000000E+00  0.15533951700E+04  0.15533951700E+04  0.50400001928E-02 0. -1.
        1   -1    0    0  501    0  0.00000000000E+00  0.00000000000E+00 -0.24735538176E+04  0.24735538176E+04  0.50400001928E-02 0.  1.
    10030    2    1    2    0    0  0.00000000000E+00  0.00000000000E+00 -0.92015864756E+03  0.40269489876E+04  0.39204114850E+04 0.  0.
        4    1    3    3  502    0 -0.18638138492E+04 -0.48756677021E+03 -0.83168611348E+03  0.20983867194E+04  0.12699999809E+01 0. -1.
       -4    1    3    3    0  502  0.18638138492E+04  0.48756677021E+03 -0.88472534083E+02  0.19285622682E+04  0.12699999809E+01 0.  1.
</event>
<event>
 5   0  0.2486268E-07  0.3645782E+04  0.7818609E-02  0.8080085E-01
        2   -1    0    0  501    0  0.00000000000E+00  0.00000000000E+00  0.23978963868E+04  0.23978963869E+04  0.25500000920E-02 0.  1.
       -2   -1    0    0    0  501  0.00000000000E+00  0.00000000000E+00 -0.13857694128E+04  0.13857694128E+04  0.25500000920E-02 0. -1.
    10030    2    1    2    0    0  0.00000000000E+00  0.00000000000E+00  0.10121269741E+04  0.37836657996E+04  0.36457819287E+04 0.  0.
        5    1    3    3  502    0 -0.20100563219E+03  0.18046966970E+04  0.34009030056E+03  0.18474352315E+04  0.46999998093E+01 0. -1.
       -5    1    3    3    0  502  0.20100563219E+03 -0.18046966970E+04  0.67203667351E+03  0.19362305681E+04  0.46999998093E+01 0.  1.
</event>
<event>
 5   0  0.7675750E-08  0.3900534E+04  0.7818609E-02  0.8024918E-01
        1   -1    0    0  501    0  0.00000000000E+00  0.00000000000E+00  0.20877768326E+04  0.20877768326E+04  0.50400001928E-02 0.  1.
       -1   -1    0    0    0  501  0.00000000000E+00  0.00000000000E+00 -0.18218143587E+04  0.18218143588E+04  0.50400001928E-02 0. -1.
    10030    2    1    2    0    0  0.00000000000E+00  0.00000000000E+00  0.26596247383E+03  0.39095911913E+04  0.39005342257E+04 0.  0.
        4    1    3    3  502    0 -0.57651426447E+03  0.13041900888E+04  0.14665817304E+04  0.20455180444E+04  0.12699999809E+01 0.  1.
       -4    1    3    3    0  502  0.57651426447E+03 -0.13041900888E+04 -0.12006192566E+04  0.18640731470E+04  0.12699999809E+01 0. -1.
</event>
<event>
 5   0  0.7675750E-08  0.3893476E+04  0.7818609E-02  0.8026388E-01
       -3   -1    0    0    0  501  0.00000000000E+00  0.00000000000E+00  0.15688662539E+04  0.15688662571E+04  0.10100000352E+00 0. -1.
        3   -1    0    0  501    0  0.00000000000E+00  0.00000000000E+00 -0.24156222402E+04  0.24156222423E+04  0.10100000352E+00 0.  1.
    10030    2    1    2    0    0  0.00000000000E+00  0.00000000000E+00 -0.84675598635E+03  0.39844884995E+04  0.38934756840E+04 0.  0.
        5    1    3    3  502    0  0.57558608772E+03 -0.10853247924E+04 -0.19688233762E+04  0.23206716325E+04  0.46999998093E+01 0.  1.
       -5    1    3    3    0  502 -0.57558608772E+03  0.10853247924E+04  0.11220673898E+04  0.16638168670E+04  0.46999998093E+01 0. -1.
</event>
<event>
 5   0  0.7731706E-08  0.3893240E+04  0.7818609E-02  0.8026437E-01
        1   -1    0    0  501    0  0.00000000000E+00  0.00000000000E+00  0.13958405034E+04  0.13958405034E+04  0.50400001928E-02 0.  1.
       -1   -1    0    0    0  501  0.00000000000E+00  0.00000000000E+00 -0.27147290285E+04  0.27147290285E+04  0.50400001928E-02 0. -1.
    10030    2    1    2    0    0  0.00000000000E+00  0.00000000000E+00 -0.13188885251E+04  0.41105695319E+04  0.38932396452E+04 0.  0.
        3    1    3    3  502    0 -0.15356589121E+04  0.73996383471E+03 -0.16518802024E+04  0.23737108047E+04  0.10100000352E+00 0. -1.
       -3    1    3    3    0  502  0.15356589121E+04 -0.73996383471E+03  0.33299167727E+03  0.17368587272E+04  0.10100000352E+00 0.  1.
</event>
<event>
 5   0  0.7731706E-08  0.3355873E+04  0.7818609E-02  0.8148822E-01
        1   -1    0    0  501    0  0.00000000000E+00  0.00000000000E+00  0.17182438150E+04  0.17182438150E+04  0.50400001928E-02 0. -1.
       -1   -1    0    0    0  501  0.00000000000E+00  0.00000000000E+00 -0.16385744526E+04  0.16385744526E+04  0.50400001928E-02 0.  1.
    10030    2    1    2    0    0  0.00000000000E+00  0.00000000000E+00  0.79669362335E+02  0.33568182676E+04  0.33558727143E+04 0.  0.
        3    1    3    3  502    0  0.96756693625E+03 -0.99414460685E+03 -0.90433865011E+03  0.16560005072E+04  0.10100000352E+00 0.  1.
       -3    1    3    3    0  502 -0.96756693625E+03  0.99414460685E+03  0.98400801245E+03  0.17008177604E+04  0.10100000352E+00 0. -1.
</event>
<event>
 5   0  0.2384787E-07  0.3901650E+04  0.7818609E-02  0.8024686E-01
        2   -1    0    0  501    0  0.00000000000E+00  0.00000000000E+00  0.13666265580E+04  0.13666265580E+04  0.25500000920E-02 0. -1.
       -2   -1    0    0    0  501  0.00000000000E+00  0.00000000000E+00 -0.27847535860E+04  0.27847535860E+04  0.25500000920E-02 0.  1.
    10030    2    1    2    0    0  0.00000000000E+00  0.00000000000E+00 -0.14181270280E+04  0.41513801440E+04  0.39016500141E+04 0.  0.
        4    1    3    3  502    0  0.35441854795E+03  0.17178665223E+04 -0.16175521210E+04  0.23860331877E+04  0.12699999809E+01 0. -1.
       -4    1    3    3    0  502 -0.35441854795E+03 -0.17178665223E+04  0.19942509294E+03  0.17653469564E+04  0.12699999809E+01 0.  1.
</event>
<event>
 5   0  0.2473224E-07  0.3879679E+04  0.7818609E-02  0.8029269E-01
        2   -1    0    0  501    0  0.00000000000E+00  0.00000000000E+00  0.13596995565E+04  0.13596995565E+04  0.25500000920E-02 0. -1.
       -2   -1    0    0    0  501  0.00000000000E+00  0.00000000000E+00 -0.27675058877E+04  0.27675058877E+04  0.25500000920E-02 0.  1.
    10030    2    1    2    0    0  0.00000000000E+00  0.00000000000E+00 -0.14078063312E+04  0.41272054442E+04  0.38796786094E+04 0.  0.
        2    1    3    3  502    0 -0.35189213400E+03 -0.11118970045E+04 -0.23529089421E+04  0.26260852066E+04  0.25500000920E-02 0.  1.
       -2    1    3    3    0  502  0.35189213400E+03  0.11118970045E+04  0.94510261092E+03  0.15011202376E+04  0.25500000920E-02 0. -1.
</event>
<event>
 5   0  0.7731706E-08  0.3790099E+04  0.7818609E-02  0.8048283E-01
        1   -1    0    0  501    0  0.00000000000E+00  0.00000000000E+00  0.15120989276E+04  0.15120989276E+04  0.50400001928E-02 0.  1.
       -1   -1    0    0    0  501  0.00000000000E+00  0.00000000000E+00 -0.23749849443E+04  0.23749849443E+04  0.50400001928E-02 0. -1.
    10030    2    1    2    0    0  0.00000000000E+00  0.00000000000E+00 -0.86288601673E+03  0.38870838719E+04  0.37900987783E+04 0.  0.
        3    1    3    3  502    0 -0.10990923764E+04  0.53197122000E+03 -0.19177387534E+04  0.22734817719E+04  0.10100000352E+00 0. -1.
       -3    1    3    3    0  502  0.10990923764E+04 -0.53197122000E+03  0.10548527367E+04  0.16136021000E+04  0.10100000352E+00 0.  1.
</event>
<event>
 5   0  0.2395572E-07  0.3930013E+04  0.7818609E-02  0.8018816E-01
        2   -1    0    0  501    0  0.00000000000E+00  0.00000000000E+00  0.17065081330E+04  0.17065081330E+04  0.25500000920E-02 0. -1.
       -2   -1    0    0    0  501  0.00000000000E+00  0.00000000000E+00 -0.22626620541E+04  0.22626620541E+04  0.25500000920E-02 0.  1.
    10030    2    1    2    0    0  0.00000000000E+00  0.00000000000E+00 -0.55615392109E+03  0.39691701871E+04  0.39300133321E+04 0.  0.
        3    1    3    3  502    0  0.18186591428E+04 -0.28639380402E+03  0.41557663151E+03  0.18873914367E+04  0.10100000352E+00 0. -1.
       -3    1    3    3    0  502 -0.18186591428E+04  0.28639380402E+03 -0.97173055260E+03  0.20817787504E+04  0.10100000352E+00 0.  1.
</event>
<event>
 5   0  0.7675750E-08  0.3949149E+04  0.7818609E-02  0.8014884E-01
        1   -1    0    0  501    0  0.00000000000E+00  0.00000000000E+00  0.19079434157E+04  0.19079434158E+04  0.50400001928E-02 0.  1.
       -1   -1    0    0    0  501  0.00000000000E+00  0.00000000000E+00 -0.20435322823E+04  0.20435322823E+04  0.50400001928E-02 0. -1.
    10030    2    1    2    0    0  0.00000000000E+00  0.00000000000E+00 -0.13558886651E+03  0.39514756980E+04  0.39491487502E+04 0.  0.
        1    1    3    3  502    0 -0.81888879354E+03  0.95963837639E+03  0.14521329769E+04  0.19235838563E+04  0.50400001928E-02 0.  1.
       -1    1    3    3    0  502  0.81888879354E+03 -0.95963837639E+03 -0.15877218434E+04  0.20278918417E+04  0.50400001928E-02 0. -1.
</event>
<event>
 5   0  0.7675750E-08  0.3825522E+04  0.7818609E-02  0.8040700E-01
        1   -1    0    0  501    0  0.00000000000E+00  0.00000000000E+00  0.25698733881E+04  0.25698733881E+04  0.50400001928E-02 0. -1.
       -1   -1    0    0    0  501  0.00000000000E+00  0.00000000000E+00 -0.14236708341E+04  0.14236708341E+04  0.50400001928E-02 0.  1.
    10030    2    1    2    0    0  0.00000000000E+00  0.00000000000E+00  0.11462025539E+04  0.39935442222E+04  0.38255215540E+04 0.  0.
        4    1    3    3  502    0 -0.15755343847E+04  0.93706726488E+03  0.29934625355E+01  0.18331432650E+04  0.12699999809E+01 0.  1.
       -4    1    3    3    0  502  0.15755343847E+04 -0.93706726488E+03  0.11432090914E+04  0.21604009572E+04  0.12699999809E+01 0. -1.
</event>
<event>
 5   0  0.7675750E-08  0.3911514E+04  0.7818609E-02  0.8022639E-01
       -1   -1    0    0    0  501  0.00000000000E+00  0.00000000000E+00  0.14994886481E+04  0.14994886482E+04  0.50400001928E-02 0.  1.
        1   -1    0    0  501    0  0.00000000000E+00  0.00000000000E+00 -0.25508604054E+04  0.25508604054E+04  0.50400001928E-02 0. -1.
    10030    2    1    2    0    0  0.00000000000E+00  0.00000000000E+00 -0.10513717573E+04  0.40503490536E+04  0.39115143978E+04 0.  0.
        5    1    3    3  502    0 -0.38367727970E+03 -0.10304721623E+04 -0.22004616763E+04  0.24599054475E+04  0.46999998093E+01 0. -1.
       -5    1    3    3    0  502  0.38367727970E+03  0.10304721623E+04  0.11490899190E+04  0.15904436061E+04  0.46999998093E+01 0.  1.
</event>
<event>
 5   0  0.2395572E-07  0.3778415E+04  0.7818609E-02  0.8050803E-01
       -2   -1    0    0    0  501  0.00000000000E+00  0.00000000000E+00  0.20566666312E+04  0.20566666312E+04  0.25500000920E-02 0. -1.
        2   -1    0    0  501    0  0.00000000000E+00  0.00000000000E+00 -0.17353833340E+04  0.17353833340E+04  0.25500000920E-02 0.  1.
    10030    2    1    2    0    0  0.00000000000E+00  0.00000000000E+00  0.32128329716E+03  0.37920499652E+04  0.37784150091E+04 0.  0.
        3    1    3    3  502    0 -0.16365500112E+04 -0.86453046755E+03  0.54068495549E+03  0.19282243386E+04  0.10100000352E+00 0. -1.
       -3    1    3    3    0  502  0.16365500112E+04  0.86453046755E+03 -0.21940165833E+03  0.18638256266E+04  0.10100000352E+00 0.  1.
</event>
<event>
 5   0  0.7675750E-08  0.3920070E+04  0.7818609E-02  0.8020868E-01
        1   -1    0    0  501    0  0.00000000000E+00  0.00000000000E+00  0.24778059749E+04  0.24778059749E+04  0.50400001928E-02 0.  1.
       -1   -1    0    0    0  501  0.00000000000E+00  0.00000000000E+00 -0.15504594564E+04  0.15504594564E+04  0.50400001928E-02 0. -1.
    10030    2    1    2    0    0  0.00000000000E+00  0.00000000000E+00  0.92734651849E+03  0.40282654313E+04  0.39200702570E+04 0.  0.
        1    1    3    3  502    0  0.22964224501E+02 -0.56839532951E+03 -0.14637655909E+04  0.15704172412E+04  0.50400001928E-02 0. -1.
       -1    1    3    3    0  502 -0.22964224501E+02  0.56839532951E+03  0.23911121094E+04  0.24578481902E+04  0.50400001928E-02 0.  1.
</event>
<event>
 5   0  0.2446281E-07  0.3893086E+04  0.7818609E-02  0.8026469E-01
       -2   -1    0    0    0  501  0.00000000000E+00  0.00000000000E+00  0.37316937363E+04  0.37316937363E+04  0.25500000920E-02 0.  1.
        2   -1    0    0  501    0  0.00000000000E+00  0.00000000000E+00 -0.10153646636E+04  0.10153646636E+04  0.25500000920E-02 0. -1.
    10030    2    1    2    0    0  0.00000000000E+00  0.00000000000E+00  0.27163290727E+04  0.47470583999E+04  0.38930861564E+04 0.  0.
        1    1    3    3  502    0  0.42643889056E+03 -0.11137844530E+04  0.32340178023E+04  0.34469170400E+04  0.50400001928E-02 0.  1.
       -1    1    3    3    0  502 -0.42643889056E+03  0.11137844530E+04 -0.51768872955E+03  0.13001413600E+04  0.50400001928E-02 0. -1.
</event>
<event>
 5   0  0.7675750E-08  0.3905977E+04  0.7818609E-02  0.8023787E-01
        1   -1    0    0  501    0  0.00000000000E+00  0.00000000000E+00  0.24390457498E+04  0.24390457498E+04  0.50400001928E-02 0.  1.
       -1   -1    0    0    0  501  0.00000000000E+00  0.00000000000E+00 -0.15637933059E+04  0.15637933059E+04  0.50400001928E-02 0. -1.
    10030    2    1    2    0    0  0.00000000000E+00  0.00000000000E+00  0.87525244399E+03  0.40028390557E+04  0.39059766596E+04 0.  0.
        4    1    3    3  502    0  0.96127647384E+03 -0.14095017063E+04  0.14116778158E+04  0.22144036189E+04  0.12699999809E+01 0.  1.
       -4    1    3    3    0  502 -0.96127647384E+03  0.14095017063E+04 -0.53642537180E+03  0.17884354368E+04  0.12699999809E+01 0. -1.
</event>
<event>
 5   0  0.7675750E-08  0.3688708E+04  0.7818609E-02  0.8070469E-01
       -1   -1    0    0    0  501  0.00000000000E+00  0.00000000000E+00  0.16783372853E+04  0.16783372853E+04  0.50400001928E-02 0.  1.
        1   -1    0    0  501    0  0.00000000000E+00  0.00000000000E+00 -0.20267926977E+04  0.20267926977E+04  0.50400001928E-02 0. -1.
    10030    2    1    2    0    0  0.00000000000E+00  0.00000000000E+00 -0.34845541234E+03  0.37051299830E+04  0.36887080417E+04 0.  0.
        5    1    3    3  502    0  0.60778315418E+03 -0.61595967694E+03  0.14617692175E+04  0.16987048070E+04  0.46999998093E+01 0.  1.
       -5    1    3    3    0  502 -0.60778315418E+03  0.61595967694E+03 -0.18102246299E+04  0.20064251760E+04  0.46999998093E+01 0. -1.
</event>
<event>
 5   0  0.7675750E-08  0.3854460E+04  0.7818609E-02  0.8034568E-01
       -1   -1    0    0    0  501  0.00000000000E+00  0.00000000000E+00  0.23710310327E+04  0.23710310327E+04  0.50400001928E-02 0.  1.
        1   -1    0    0  501    0  0.00000000000E+00  0.00000000000E+00 -0.15664979904E+04  0.15664979904E+04  0.50400001928E-02 0. -1.
    10030    2    1    2    0    0  0.00000000000E+00  0.00000000000E+00  0.80453304228E+03  0.39375290230E+04  0.38544599351E+04 0.  0.
        2    1    3    3  502    0  0.66865449463E+03 -0.15618377639E+04  0.13316982981E+04  0.21586700514E+04  0.25500000920E-02 0.  1.
       -2    1    3    3    0  502 -0.66865449463E+03  0.15618377639E+04 -0.52716525579E+03  0.17788589716E+04  0.25500000920E-02 0. -1.
</event>
<event>
 5   0  0.7675750E-08  0.3830567E+04  0.7818609E-02  0.8039627E-01
       -1   -1    0    0    0  501  0.00000000000E+00  0.00000000000E+00  0.19295472073E+04  0.19295472073E+04  0.50400001928E-02 0. -1.
        1   -1    0    0  501    0  0.00000000000E+00  0.00000000000E+00 -0.19011256022E+04  0.19011256022E+04  0.50400001928E-02 0.  1.
    10030    2    1    2    0    0  0.00000000000E+00  0.00000000000E+00  0.28421605162E+02  0.38306728095E+04  0.38305673712E+04 0.  0.
        4    1    3    3  502    0  0.16907972104E+02 -0.19107061599E+04 -0.11704095121E+03  0.19143625848E+04  0.12699999809E+01 0.  1.
       -4    1    3    3    0  502 -0.16907972104E+02  0.19107061599E+04  0.14546255637E+03  0.19163102247E+04  0.12699999809E+01 0. -1.
</event>
<event>
 5   0  0.7675750E-08  0.3897693E+04  0.7818609E-02  0.8025509E-01
       -1   -1    0    0    0  501  0.00000000000E+00  0.00000000000E+00  0.25307040764E+04  0.25307040764E+04  0.50400001928E-02 0.  1.
        1   -1    0    0  501    0  0.00000000000E+00  0.00000000000E+00 -0.15007693398E+04  0.15007693398E+04  0.50400001928E-02 0. -1.
    10030    2    1    2    0    0  0.00000000000E+00  0.00000000000E+00  0.10299347366E+04  0.40314734162E+04  0.38976932080E+04 0.  0.
        5    1    3    3  502    0  0.12414510335E+04 -0.93353029843E+03 -0.70241862820E+03  0.17047268127E+04  0.46999998093E+01 0. -1.
       -5    1    3    3    0  502 -0.12414510335E+04  0.93353029843E+03  0.17323533648E+04  0.23267466035E+04  0.46999998093E+01 0.  1.
</event>
<event>
 5   0  0.2473224E-07  0.3884024E+04  0.7818609E-02  0.8028360E-01
       -2   -1    0    0    0  501  0.00000000000E+00  0.00000000000E+00  0.18173561918E+04  0.18173561918E+04  0.25500000920E-02 0. -1.
        2   -1    0    0  501    0  0.00000000000E+00  0.00000000000E+00 -0.20752177037E+04  0.20752177037E+04  0.25500000920E-02 0.  1.
    10030    2    1    2    0    0  0.00000000000E+00  0.00000000000E+00 -0.25786151182E+03  0.38925738955E+04  0.38840235546E+04 0.  0.
        2    1    3    3  502    0  0.16711437938E+04  0.37148615220E+03 -0.10478386250E+04  0.20071595166E+04  0.25500000920E-02 0.  1.
       -2    1    3    3    0  502 -0.16711437938E+04 -0.37148615220E+03  0.78997711322E+03  0.18854143789E+04  0.25500000920E-02 0. -1.
</event>
<event>
 5   0  0.7675750E-08  0.3959490E+04  0.7818609E-02  0.8012769E-01
        1   -1    0    0  501    0  0.00000000000E+00  0.00000000000E+00  0.26734634727E+04  0.26734634727E+04  0.50400001928E-02 0.  1.
       -1   -1    0    0    0  501  0.00000000000E+00  0.00000000000E+00 -0.14660343881E+04  0.14660343881E+04  0.50400001928E-02 0. -1.
    10030    2    1    2    0    0  0.00000000000E+00  0.00000000000E+00  0.12074290845E+04  0.41394978608E+04  0.39594895562E+04 0.  0.
        1    1    3    3  502    0 -0.20467082649E+03  0.16934872517E+04 -0.44675428124E+03  0.17633430202E+04  0.50400001928E-02 0. -1.
       -1    1    3    3    0  502  0.20467082649E+03 -0.16934872517E+04  0.16541833658E+04  0.23761548406E+04  0.50400001928E-02 0.  1.
</event>
<event>
 5   0  0.7675750E-08  0.3865137E+04  0.7818609E-02  0.8032319E-01
        1   -1    0    0  501    0  0.00000000000E+00  0.00000000000E+00  0.24578229435E+04  0.24578229435E+04  0.50400001928E-02 0. -1.
       -1   -1    0    0    0  501  0.00000000000E+00  0.00000000000E+00 -0.15195644669E+04  0.15195644669E+04  0.50400001928E-02 0.  1.
    10030    2    1    2    0    0  0.00000000000E+00  0.00000000000E+00  0.93825847654E+03  0.39773874104E+04  0.38651366914E+04 0.  0.
        1    1    3    3  502    0 -0.91620566186E+03 -0.11689890151E+04 -0.80324773156E+03  0.16885422856E+04  0.50400001928E-02 0.  1.
       -1    1    3    3    0  502  0.91620566186E+03  0.11689890151E+04  0.17415062081E+04  0.22888451247E+04  0.50400001928E-02 0. -1.
</event>
<event>
 5   0  0.7731706E-08  0.3806977E+04  0.7818609E-02  0.8044659E-01
        1   -1    0    0  501    0  0.00000000000E+00  0.00000000000E+00  0.25759548759E+04  0.25759548759E+04  0.50400001928E-02 0. -1.
       -1   -1    0    0    0  501  0.00000000000E+00  0.00000000000E+00 -0.14065727895E+04  0.14065727896E+04  0.50400001928E-02 0.  1.
    10030    2    1    2    0    0  0.00000000000E+00  0.00000000000E+00  0.11693820863E+04  0.39825276654E+04  0.38069767719E+04 0.  0.
        3    1    3    3  502    0  0.32927222281E+03  0.13547451090E+04  0.19404120526E+04  0.23893416355E+04  0.10100000352E+00 0. -1.
       -3    1    3    3    0  502 -0.32927222281E+03 -0.13547451090E+04 -0.77102996625E+03  0.15931860300E+04  0.10100000352E+00 0.  1.
</event>
<event>
 5   0  0.2384787E-07  0.3911923E+04  0.7818609E-02  0.8022554E-01
        2   -1    0    0  501    0  0.00000000000E+00  0.00000000000E+00  0.14346607323E+04  0.14346607323E+04  0.25500000920E-02 0.  1.
       -2   -1    0    0    0  501  0.00000000000E+00  0.00000000000E+00 -0.26666827815E+04  0.26666827815E+04  0.25500000920E-02 0. -1.
    10030    2    1    2    0    0  0.00000000000E+00  0.00000000000E+00 -0.12320220492E+04  0.41013435139E+04  0.39119228378E+04 0.  0.
        4    1    3    3  502    0 -0.12993768271E+04 -0.72958502289E+03  0.71226438591E+03  0.16516648004E+04  0.12699999809E+01 0.  1.
       -4    1    3    3    0  502  0.12993768271E+04  0.72958502289E+03 -0.19442864351E+04  0.24496787135E+04  0.12699999809E+01 0. -1.
</event>
<event>
 5   0  0.7731706E-08  0.3689655E+04  0.7818609E-02  0.8070258E-01
        1   -1    0    0  501    0  0.00000000000E+00  0.00000000000E+00  0.20071882666E+04  0.20071882666E+04  0.50400001928E-02 0. -1.
       -1   -1    0    0    0  501  0.00000000000E+00  0.00000000000E+00 -0.16955999116E+04  0.16955999116E+04  0.50400001928E-02 0.  1.
    10030    2    1    2    0    0  0.00000000000E+00  0.00000000000E+00  0.31158835503E+03  0.37027881782E+04  0.36896548605E+04 0.  0.
        3    1    3    3  502    0 -0.44355590407E+02 -0.18225704339E+04  0.43903599155E+03  0.18752287906E+04  0.10100000352E+00 0. -1.
       -3    1    3    3    0  502  0.44355590407E+02  0.18225704339E+04 -0.12744763653E+03  0.18275593876E+04  0.10100000352E+00 0.  1.
</event>
<event>
 5   0  0.2384787E-07  0.3969727E+04  0.7818609E-02  0.8010682E-01
        2   -1    0    0  501    0  0.00000000000E+00  0.00000000000E+00  0.21134967134E+04  0.21134967134E+04  0.25500000920E-02 0.  1.
       -2   -1    0    0    0  501  0.00000000000E+00  0.00000000000E+00 -0.18640591116E+04  0.18640591116E+04  0.25500000920E-02 0. -1.
    10030    2    1    2    0    0  0.00000000000E+00  0.00000000000E+00  0.24943760186E+03  0.39775558250E+04  0.39697268450E+04 0.  0.
        4    1    3    3  502    0  0.16225760987E+04  0.91888455069E+03 -0.55675427203E+03  0.19460418664E+04  0.12699999809E+01 0. -1.
       -4    1    3    3    0  502 -0.16225760987E+04 -0.91888455069E+03  0.80619187389E+03  0.20315139586E+04  0.12699999809E+01 0.  1.
</event>
<event>
 5   0  0.2395572E-07  0.3906117E+04  0.7818609E-02  0.8023758E-01
       -2   -1    0    0    0  501  0.00000000000E+00  0.00000000000E+00  0.27948162703E+04  0.27948162703E+04  0.25500000920E-02 0.  1.
        2   -1    0    0  501    0  0.00000000000E+00  0.00000000000E+00 -0.13648259383E+04  0.13648259383E+04  0.25500000920E-02 0. -1.
    10030    2    1    2    0    0  0.00000000000E+00  0.00000000000E+00  0.14299903320E+04  0.41596422086E+04  0.39061171199E+04 0.  0.
        3    1    3    3  502    0 -0.86720076125E+03 -0.53472496564E+03  0.24894182996E+04  0.26898273978E+04  0.10100000352E+00 0.  1.
       -3    1    3    3    0  502  0.86720076125E+03  0.53472496564E+03 -0.10594279677E+04  0.14698148108E+04  0.10100000352E+00 0. -1.
</event>
<event>
 5   0  0.2446281E-07  0.3318305E+04  0.7818609E-02  0.8158253E-01
       -2   -1    0    0    0  501  0.00000000000E+00  0.00000000000E+00  0.10394212672E+04  0.10394212672E+04  0.25500000920E-02 0.  1.
        2   -1    0    0  501    0  0.00000000000E+00  0.00000000000E+00 -0.26483842207E+04  0.26483842207E+04  0.25500000920E-02 0. -1.
    10030    2    1    2    0    0  0.00000000000E+00  0.00000000000E+00 -0.16089629535E+04  0.36878054878E+04  0.33183049182E+04 0.  0.
        1    1    3    3  502    0  0.14194050400E+02 -0.73126417752E+02 -0.26465248550E+04  0.26475729928E+04  0.50400001928E-02 0. -1.
       -1    1    3    3    0  502 -0.14194050400E+02  0.73126417752E+02  0.10375619016E+04  0.10402324950E+04  0.50400001928E-02 0.  1.
</event>
<event>
 5   0  0.2384787E-07  0.3914228E+04  0.7818609E-02  0.8022077E-01
        2   -1    0    0  501    0  0.00000000000E+00  0.00000000000E+00  0.16456982455E+04  0.16456982455E+04  0.25500000920E-02 0.  1.
       -2   -1    0    0    0  501  0.00000000000E+00  0.00000000000E+00 -0.23274590425E+04  0.23274590425E+04  0.25500000920E-02 0. -1.
    10030    2    1    2    0    0  0.00000000000E+00  0.00000000000E+00 -0.68176079701E+03  0.39731572881E+04  0.39142280275E+04 0.  0.
        4    1    3    3  502    0 -0.90372205764E+03 -0.23266206946E+03 -0.20870845878E+04  0.22862127822E+04  0.12699999809E+01 0. -1.
       -4    1    3    3    0  502  0.90372205764E+03  0.23266206946E+03  0.14053237908E+04  0.16869445059E+04  0.12699999809E+01 0.  1.
</event>
<event>
 5   0  0.7731706E-08  0.3833703E+04  0.7818609E-02  0.8038961E-01
        1   -1    0    0  501    0  0.00000000000E+00  0.00000000000E+00  0.27051056671E+04  0.27051056671E+04  0.50400001928E-02 0. -1.
       -1   -1    0    0    0  501  0.00000000000E+00  0.00000000000E+00 -0.13582905610E+04  0.13582905610E+04  0.50400001928E-02 0.  1.
    10030    2    1    2    0    0  0.00000000000E+00  0.00000000000E+00  0.13468151061E+04  0.40633962282E+04  0.38337029067E+04 0.  0.
        3    1    3    3  502    0 -0.16063277352E+04  0.10231850031E+04  0.44332280393E+03  0.19554363866E+04  0.10100000352E+00 0.  1.
       -3    1    3    3    0  502  0.16063277352E+04 -0.10231850031E+04  0.90349230217E+03  0.21079598416E+04  0.10100000352E+00 0. -1.
</event>
<event>
 5   0  0.2395572E-07  0.3822306E+04  0.7818609E-02  0.8041385E-01
        2   -1    0    0  501    0  0.00000000000E+00  0.00000000000E+00  0.23909989923E+04  0.23909989923E+04  0.25500000920E-02 0. -1.
       -2   -1    0    0    0  501  0.00000000000E+00  0.00000000000E+00 -0.15276064074E+04  0.15276064074E+04  0.25500000920E-02 0.  1.
    10030    2    1    2    0    0  0.00000000000E+00  0.00000000000E+00  0.86339258484E+03  0.39186053997E+04  0.38223057862E+04 0.  0.
        3    1    3    3  502    0  0.10727950921E+04 -0.44726855480E+03 -0.11236170812E+04  0.16166180208E+04  0.10100000352E+00 0.  1.
       -3    1    3    3    0  502 -0.10727950921E+04  0.44726855480E+03  0.19870096661E+04  0.23019873790E+04  0.10100000352E+00 0. -1.
</event>
<event>
 5   0  0.7731706E-08  0.3887250E+04  0.7818609E-02  0.8027686E-01
       -1   -1    0    0    0  501  0.00000000000E+00  0.00000000000E+00  0.21983073929E+04  0.21983073929E+04  0.50400001928E-02 0.  1.
        1   -1    0    0  501    0  0.00000000000E+00  0.00000000000E+00 -0.17184483481E+04  0.17184483481E+04  0.50400001928E-02 0. -1.
    10030    2    1    2    0    0  0.00000000000E+00  0.00000000000E+00  0.47985904482E+03  0.39167557410E+04  0.38872497774E+04 0.  0.
        3    1    3    3  502    0 -0.23725878619E+03 -0.16134602808E+04  0.13053733506E+04  0.20889100996E+04  0.10100000352E+00 0.  1.
       -3    1    3    3    0  502  0.23725878619E+03  0.16134602808E+04 -0.82551430581E+03  0.18278456414E+04  0.10100000352E+00 0. -1.
</event>
<event>
 5   0  0.2384787E-07  0.3843660E+04  0.7818609E-02  0.8036850E-01
        2   -1    0    0  501    0  0.00000000000E+00  0.00000000000E+00  0.21889509352E+04  0.21889509352E+04  0.25500000920E-02 0. -1.
       -2   -1    0    0    0  501  0.00000000000E+00  0.00000000000E+00 -0.16873062519E+04  0.16873062519E+04  0.25500000920E-02 0.  1.
    10030    2    1    2    0    0  0.00000000000E+00  0.00000000000E+00  0.50164468332E+03  0.38762571870E+04  0.38436600255E+04 0.  0.
        4    1    3    3  502    0 -0.19175596328E+03 -0.63887965288E+03  0.20684648876E+04  0.21733582688E+04  0.12699999809E+01 0. -1.
       -4    1    3    3    0  502  0.19175596328E+03  0.63887965288E+03 -0.15668202043E+04  0.17028989183E+04  0.12699999809E+01 0.  1.
</event>
<event>
 5   0  0.2473224E-07  0.4080766E+04  0.7818609E-02  0.7988449E-01
        2   -1    0    0  501    0  0.00000000000E+00  0.00000000000E+00  0.27143110801E+04  0.27143110801E+04  0.25500000920E-02 0. -1.
       -2   -1    0    0    0  501  0.00000000000E+00  0.00000000000E+00 -0.15337826858E+04  0.15337826858E+04  0.25500000920E-02 0.  1.
    10030    2    1    2    0    0  0.00000000000E+00  0.00000000000E+00  0.11805283942E+04  0.42480937659E+04  0.40807662705E+04 0.  0.
        2    1    3    3  502    0 -0.11318418579E+04 -0.87347786934E+02  0.23552088488E+04  0.26145179955E+04  0.25500000920E-02 0. -1.
       -2    1    3    3    0  502  0.11318418579E+04  0.87347786934E+02 -0.11746804546E+04  0.16335757704E+04  0.25500000920E-02 0.  1.
</event>
<event>
 5   0  0.2446281E-07  0.3912838E+04  0.7818609E-02  0.8022364E-01
       -2   -1    0    0    0  501  0.00000000000E+00  0.00000000000E+00  0.19739352824E+04  0.19739352824E+04  0.25500000920E-02 0. -1.
        2   -1    0    0  501    0  0.00000000000E+00  0.00000000000E+00 -0.19390585606E+04  0.19390585606E+04  0.25500000920E-02 0.  1.
    10030    2    1    2    0    0  0.00000000000E+00  0.00000000000E+00  0.34876721864E+02  0.39129938430E+04  0.39128384109E+04 0.  0.
        1    1    3    3  502    0 -0.67435434426E+03 -0.76694784195E+03 -0.16513439999E+04  0.19416229757E+04  0.50400001928E-02 0.  1.
       -1    1    3    3    0  502  0.67435434426E+03  0.76694784195E+03  0.16862207217E+04  0.19713708673E+04  0.50400001928E-02 0. -1.
</event>
<event>
 5   0  0.2395572E-07  0.3913519E+04  0.7818609E-02  0.8022223E-01
       -2   -1    0    0    0  501  0.00000000000E+00  0.00000000000E+00  0.16180627706E+04  0.16180627706E+04  0.25500000920E-02 0. -1.
        2   -1    0    0  501    0  0.00000000000E+00  0.00000000000E+00 -0.23663527869E+04  0.23663527869E+04  0.25500000920E-02 0.  1.
    10030    2    1    2    0    0  0.00000000000E+00  0.00000000000E+00 -0.74829001628E+03  0.39844155575E+04  0.39135187986E+04 0.  0.
        3    1    3    3  502    0 -0.15212172756E+04 -0.12025917338E+04 -0.10752602780E+03  0.19421356118E+04  0.10100000352E+00 0.  1.
       -3    1    3    3    0  502  0.15212172756E+04  0.12025917338E+04 -0.64076398848E+03  0.20422799458E+04  0.10100000352E+00 0. -1.
</event>
<event>
 5   0  0.2473224E-07  0.3835029E+04  0.7818609E-02  0.8038679E-01
        2   -1    0    0  501    0  0.00000000000E+00  0.00000000000E+00  0.14230600921E+04  0.14230600921E+04  0.25500000920E-02 0. -1.
       -2   -1    0    0    0  501  0.00000000000E+00  0.00000000000E+00 -0.25837710286E+04  0.25837710286E+04  0.25500000920E-02 0.  1.
    10030    2    1    2    0    0  0.00000000000E+00  0.00000000000E+00 -0.11607109365E+04  0.40068311207E+04  0.38350287811E+04 0.  0.
        2    1    3    3  502    0 -0.58964183151E+03 -0.18231471297E+04 -0.65655049995E+03  0.20254879672E+04  0.25500000920E-02 0.  1.
       -2    1    3    3    0  502  0.58964183151E+03  0.18231471297E+04 -0.50416043653E+03  0.19813431535E+04  0.25500000920E-02 0. -1.
</event>
<event>
 5   0  0.7675750E-08  0.3910373E+04  0.7818609E-02  0.8022875E-01
        1   -1    0    0  501    0  0.00000000000E+00  0.00000000000E+00  0.20053672581E+04  0.20053672581E+04  0.50400001928E-02 0.  1.
       -1   -1    0    0    0  501  0.00000000000E+00  0.00000000000E+00 -0.19062613205E+04  0.19062613205E+04  0.50400001928E-02 0. -1.
    10030    2    1    2    0    0  0.00000000000E+00  0.00000000000E+00  0.99105937548E+02  0.39116285786E+04  0.39103728914E+04 0.  0.
        2    1    3    3  502    0  0.53612338315E+03  0.50783523245E+03  0.18605014348E+04  0.20016969037E+04  0.25500000920E-02 0.  1.
       -2    1    3    3    0  502 -0.53612338315E+03 -0.50783523245E+03 -0.17613954972E+04  0.19099316749E+04  0.25500000920E-02 0. -1.
</event>
<event>
 5   0  0.7675750E-08  0.3870424E+04  0.7818609E-02  0.8031209E-01
        1   -1    0    0  501    0  0.00000000000E+00  0.00000000000E+00  0.18292919437E+04  0.18292919437E+04  0.50400001928E-02 0. -1.
       -1   -1    0    0    0  501  0.00000000000E+00  0.00000000000E+00 -0.20472654587E+04  0.20472654587E+04  0.50400001928E-02 0.  1.
    10030    2    1    2    0    0  0.00000000000E+00  0.00000000000E+00 -0.21797351494E+03  0.38765574024E+04  0.38704243748E+04 0.  0.
        2    1    3    3  502    0 -0.14445882778E+03 -0.10443157059E+04  0.15164164118E+04  0.18468845065E+04  0.25500000920E-02 0. -1.
       -2    1    3    3    0  502  0.14445882778E+03  0.10443157059E+04 -0.17343899267E+04  0.20296728959E+04  0.25500000920E-02 0.  1.
</event>
<event>
 5   0  0.7675750E-08  0.3831503E+04  0.7818609E-02  0.8039428E-01
       -1   -1    0    0    0  501  0.00000000000E+00  0.00000000000E+00  0.13137104928E+04  0.13137104928E+04  0.50400001928E-02 0.  1.
        1   -1    0    0  501    0  0.00000000000E+00  0.00000000000E+00 -0.27936931428E+04  0.27936931428E+04  0.50400001928E-02 0. -1.
    10030    2    1    2    0    0  0.00000000000E+00  0.00000000000E+00 -0.14799826500E+04  0.41074036356E+04  0.38315030969E+04 0.  0.
        4    1    3    3  502    0 -0.13217869383E+04  0.30990978984E+03  0.70898089320E+03  0.15316070997E+04  0.12699999809E+01 0.  1.
       -4    1    3    3    0  502  0.13217869383E+04 -0.30990978984E+03 -0.21889635432E+04  0.25757965359E+04  0.12699999809E+01 0. -1.
</event>
<event>
 5   0  0.7675750E-08  0.3904833E+04  0.7818609E-02  0.8024025E-01
        1   -1    0    0  501    0  0.00000000000E+00  0.00000000000E+00  0.22070258700E+04  0.22070258700E+04  0.50400001928E-02 0.  1.
       -1   -1    0    0    0  501  0.00000000000E+00  0.00000000000E+00 -0.17271799561E+04  0.17271799561E+04  0.50400001928E-02 0. -1.
    10030    2    1    2    0    0  0.00000000000E+00  0.00000000000E+00  0.47984591382E+03  0.39342058261E+04  0.39048333359E+04 0.  0.
        5    1    3    3  502    0  0.57036564673E+03 -0.17925370110E+04 -0.28688956881E+03  0.19028488173E+04  0.46999998093E+01 0. -1.
       -5    1    3    3    0  502 -0.57036564673E+03  0.17925370110E+04  0.76673548263E+03  0.20313570088E+04  0.46999998093E+01 0.  1.
</event>
<event>
 5   0  0.7675750E-08  0.3950152E+04  0.7818609E-02  0.8014679E-01
       -1   -1    0    0    0  501  0.00000000000E+00  0.00000000000E+00  0.26529506626E+04  0.26529506626E+04  0.50400001928E-02 0.  1.
        1   -1    0    0  501    0  0.00000000000E+00  0.00000000000E+00 -0.14704099665E+04  0.14704099665E+04  0.50400001928E-02 0. -1.
    10030    2    1    2    0    0  0.00000000000E+00  0.00000000000E+00  0.11825406961E+04  0.41233606291E+04  0.39501519439E+04 0.  0.
        5    1    3    3  502    0  0.18036235799E+04 -0.23898918253E+03 -0.21102028628E+03  0.18315909747E+04  0.46999998093E+01 0.  1.
       -5    1    3    3    0  502 -0.18036235799E+04  0.23898918253E+03  0.13935609824E+04  0.22917696544E+04  0.46999998093E+01 0. -1.
</event>
<event>
 5   0  0.2395572E-07  0.3364858E+04  0.7818609E-02  0.8146586E-01
       -2   -1    0    0    0  501  0.00000000000E+00  0.00000000000E+00  0.13258040583E+04  0.13258040583E+04  0.25500000920E-02 0. -1.
        2   -1    0    0  501    0  0.00000000000E+00  0.00000000000E+00 -0.21349810482E+04  0.21349810482E+04  0.25500000920E-02 0.  1.
    10030    2    1    2    0    0  0.00000000000E+00  0.00000000000E+00 -0.80917698995E+03  0.34607851065E+04  0.33648575234E+04 0.  0.
        3    1    3    3  502    0  0.53747191810E+03 -0.10737354758E+04  0.80747420248E+03  0.14469963830E+04  0.10100000352E+00 0. -1.
       -3    1    3    3    0  502 -0.53747191810E+03  0.10737354758E+04 -0.16166511924E+04  0.20137887235E+04  0.10100000352E+00 0.  1.
</event>
<event>
 5   0  0.2395572E-07  0.3905321E+04  0.7818609E-02  0.8023923E-01
        2   -1    0    0  501    0  0.00000000000E+00  0.00000000000E+00  0.17395343896E+04  0.17395343896E+04  0.25500000920E-02 0. -1.
       -2   -1    0    0    0  501  0.00000000000E+00  0.00000000000E+00 -0.21918987531E+04  0.21918987531E+04  0.25500000920E-02 0.  1.
    10030    2    1    2    0    0  0.00000000000E+00  0.00000000000E+00 -0.45236436355E+03  0.39314331427E+04  0.39053211184E+04 0.  0.
        3    1    3    3  502    0  0.14438140447E+04  0.12849807592E+04  0.53359028671E+02  0.19335515880E+04  0.10100000352E+00 0.  1.
       -3    1    3    3    0  502 -0.14438140447E+04 -0.12849807592E+04 -0.50572339222E+03  0.19978815547E+04  0.10100000352E+00 0. -1.
</event>
<event>
 5   0  0.7675750E-08  0.3825443E+04  0.7818609E-02  0.8040717E-01
        3   -1    0    0  501    0  0.00000000000E+00  0.00000000000E+00  0.25661299392E+04  0.25661299411E+04  0.10100000352E+00 0. -1.
       -3   -1    0    0    0  501  0.00000000000E+00  0.00000000000E+00 -0.14256894331E+04  0.14256894367E+04  0.10100000352E+00 0.  1.
    10030    2    1    2    0    0  0.00000000000E+00  0.00000000000E+00  0.11404405060E+04  0.39918193778E+04  0.38254434250E+04 0.  0.
        5    1    3    3  502    0 -0.78172476157E+03  0.31526295259E+03  0.23618682381E+04  0.25077735137E+04  0.46999998093E+01 0. -1.
       -5    1    3    3    0  502  0.78172476157E+03 -0.31526295259E+03 -0.12214277321E+04  0.14840458641E+04  0.46999998093E+01 0.  1.
</event>
<event>
 5   0  0.2446281E-07  0.3885226E+04  0.7818609E-02  0.8028109E-01
        2   -1    0    0  501    0  0.00000000000E+00  0.00000000000E+00  0.12946900650E+04  0.12946900650E+04  0.25500000920E-02 0. -1.
       -2   -1    0    0    0  501  0.00000000000E+00  0.00000000000E+00 -0.29147861402E+04  0.29147861402E+04  0.25500000920E-02 0.  1.
    10030    2    1    2    0    0  0.00000000000E+00  0.00000000000E+00 -0.16200960752E+04  0.42094762051E+04  0.38852256857E+04 0.  0.
        1    1    3    3  502    0  0.80320635076E+03 -0.10166475008E+04 -0.23782686066E+04  0.27082972784E+04  0.50400001928E-02 0.  1.
       -1    1    3    3    0  502 -0.80320635076E+03  0.10166475008E+04  0.75817253136E+03  0.15011789268E+04  0.50400001928E-02 0. -1.
</event>
<event>
 5   0  0.7675750E-08  0.3916950E+04  0.7818609E-02  0.8021513E-01
       -1   -1    0    0    0  501  0.00000000000E+00  0.00000000000E+00  0.15911450429E+04  0.15911450429E+04  0.50400001928E-02 0. -1.
        1   -1    0    0  501    0  0.00000000000E+00  0.00000000000E+00 -0.24106066381E+04  0.24106066381E+04  0.50400001928E-02 0.  1.
    10030    2    1    2    0    0  0.00000000000E+00  0.00000000000E+00 -0.81946159515E+03  0.40017516810E+04  0.39169502436E+04 0.  0.
        2    1    3    3  502    0  0.19272970905E+03 -0.19407170053E+04 -0.59276748175E+03  0.20383573099E+04  0.25500000920E-02 0. -1.
       -2    1    3    3    0  502 -0.19272970905E+03  0.19407170053E+04 -0.22669411341E+03  0.19633943711E+04  0.25500000920E-02 0.  1.
</event>
<event>
 5   0  0.2395572E-07  0.3876005E+04  0.7818609E-02  0.8030038E-01
       -2   -1    0    0    0  501  0.00000000000E+00  0.00000000000E+00  0.23154263351E+04  0.23154263351E+04  0.25500000920E-02 0. -1.
        2   -1    0    0  501    0  0.00000000000E+00  0.00000000000E+00 -0.16221001102E+04  0.16221001102E+04  0.25500000920E-02 0.  1.
    10030    2    1    2    0    0  0.00000000000E+00  0.00000000000E+00  0.69332622494E+03  0.39375264453E+04  0.38760048056E+04 0.  0.
        3    1    3    3  502    0 -0.47788425974E+03  0.18706027178E+04  0.17569021369E+03  0.19386580294E+04  0.10100000352E+00 0.  1.
       -3    1    3    3    0  502  0.47788425974E+03 -0.18706027178E+04  0.51763601125E+03  0.19988684159E+04  0.10100000352E+00 0. -1.
</event>
<event>
 5   0  0.2384787E-07  0.3946767E+04  0.7818609E-02  0.8015372E-01
       -2   -1    0    0    0  501  0.00000000000E+00  0.00000000000E+00  0.26759736436E+04  0.26759736436E+04  0.25500000920E-02 0. -1.
        2   -1    0    0  501    0  0.00000000000E+00  0.00000000000E+00 -0.14552617090E+04  0.14552617090E+04  0.25500000920E-02 0.  1.
    10030    2    1    2    0    0  0.00000000000E+00  0.00000000000E+00  0.12207119346E+04  0.41312353526E+04  0.39467667668E+04 0.  0.
        4    1    3    3  502    0  0.75256697300E+03  0.13653852712E+04 -0.65598489517E+03  0.16914348298E+04  0.12699999809E+01 0.  1.
       -4    1    3    3    0  502 -0.75256697300E+03 -0.13653852712E+04  0.18766968297E+04  0.24398005229E+04  0.12699999809E+01 0. -1.
</event>
<event>
 5   0  0.2486268E-07  0.3231387E+04  0.7818609E-02  0.8180577E-01
       -2   -1    0    0    0  501  0.00000000000E+00  0.00000000000E+00  0.89747675461E+03  0.89747675462E+03  0.25500000920E-02 0.  1.
        2   -1    0    0  501    0  0.00000000000E+00  0.00000000000E+00 -0.29086722083E+04  0.29086722083E+04  0.25500000920E-02 0. -1.
    10030    2    1    2    0    0  0.00000000000E+00  0.00000000000E+00 -0.20111954537E+04  0.38061489629E+04  0.32313871286E+04 0.  0.
        5    1    3    3  502    0 -0.37049798504E+03 -0.80140232084E+03 -0.25993931020E+04  0.27452469881E+04  0.46999998093E+01 0. -1.
       -5    1    3    3    0  502  0.37049798504E+03  0.80140232084E+03  0.58819764831E+03  0.10609019749E+04  0.46999998093E+01 0.  1.
</event>
<event>
 5   0  0.7675750E-08  0.3921031E+04  0.7818609E-02  0.8020669E-01
       -1   -1    0    0    0  501  0.00000000000E+00  0.00000000000E+00  0.13309274680E+04  0.13309274680E+04  0.50400001928E-02 0.  1.
        1   -1    0    0  501    0  0.00000000000E+00  0.00000000000E+00 -0.28879270937E+04  0.28879270937E+04  0.50400001928E-02 0. -1.
    10030    2    1    2    0    0  0.00000000000E+00  0.00000000000E+00 -0.15569996257E+04  0.42188545617E+04  0.39210312391E+04 0.  0.
        1    1    3    3  502    0  0.27072059776E+03  0.12431208303E+04 -0.23834351778E+04  0.27017406033E+04  0.50400001928E-02 0.  1.
       -1    1    3    3    0  502 -0.27072059776E+03 -0.12431208303E+04  0.82643555218E+03  0.15171139584E+04  0.50400001928E-02 0. -1.
</event>
<event>
 5   0  0.7731706E-08  0.3911589E+04  0.7818609E-02  0.8022623E-01
        1   -1    0    0  501    0  0.00000000000E+00  0.00000000000E+00  0.18947852770E+04  0.18947852770E+04  0.50400001928E-02 0. -1.
       -1   -1    0    0    0  501  0.00000000000E+00  0.00000000000E+00 -0.20187678143E+04  0.20187678143E+04  0.50400001928E-02 0.  1.
    10030    2    1    2    0    0  0.00000000000E+00  0.00000000000E+00 -0.12398253732E+03  0.39135530914E+04  0.39115886963E+04 0.  0.
        3    1    3    3  502    0  0.48941890127E+03 -0.13337222677E+04  0.12828510122E+04  0.19141715383E+04  0.10100000352E+00 0. -1.
       -3    1    3    3    0  502 -0.48941890127E+03  0.13337222677E+04 -0.14068335496E+04  0.19993815530E+04  0.10100000352E+00 0.  1.
</event>
<event>
 5   0  0.7675750E-08  0.3882805E+04  0.7818609E-02  0.8028615E-01
       -1   -1    0    0    0  501  0.00000000000E+00  0.00000000000E+00  0.17724521357E+04  0.17724521357E+04  0.50400001928E-02 0. -1.
        1   -1    0    0  501    0  0.00000000000E+00  0.00000000000E+00 -0.21264568012E+04  0.21264568013E+04  0.50400001928E-02 0.  1.
    10030    2    1    2    0    0  0.00000000000E+00  0.00000000000E+00 -0.35400466555E+03  0.38989089370E+04  0.38828046043E+04 0.  0.
        4    1    3    3  502    0  0.72427785438E+03  0.12183324136E+04 -0.15092034878E+04  0.20704127755E+04  0.12699999809E+01 0.  1.
       -4    1    3    3    0  502 -0.72427785438E+03 -0.12183324136E+04  0.11551988223E+04  0.18284961614E+04  0.12699999809E+01 0. -1.
</event>
<event>
 5   0  0.7675750E-08  0.3899945E+04  0.7818609E-02  0.8025041E-01
       -1   -1    0    0    0  501  0.00000000000E+00  0.00000000000E+00  0.29586530088E+04  0.29586530088E+04  0.50400001928E-02 0.  1.
        1   -1    0    0  501    0  0.00000000000E+00  0.00000000000E+00 -0.12851768677E+04  0.12851768677E+04  0.50400001928E-02 0. -1.
    10030    2    1    2    0    0  0.00000000000E+00  0.00000000000E+00  0.16734761411E+04  0.42438298765E+04  0.38999448234E+04 0.  0.
        5    1    3    3  502    0  0.39394475254E+03 -0.15084511738E+04 -0.43775490887E+03  0.16193421078E+04  0.46999998093E+01 0. -1.
       -5    1    3    3    0  502 -0.39394475254E+03  0.15084511738E+04  0.21112310499E+04  0.26244877687E+04  0.46999998093E+01 0.  1.
</event>
<event>
 5   0  0.2395572E-07  0.3918633E+04  0.7818609E-02  0.8021165E-01
        2   -1    0    0  501    0  0.00000000000E+00  0.00000000000E+00  0.22832436557E+04  0.22832436557E+04  0.25500000920E-02 0. -1.
       -2   -1    0    0    0  501  0.00000000000E+00  0.00000000000E+00 -0.16813455565E+04  0.16813455565E+04  0.25500000920E-02 0.  1.
    10030    2    1    2    0    0  0.00000000000E+00  0.00000000000E+00  0.60189809919E+03  0.39645892123E+04  0.39186332184E+04 0.  0.
        3    1    3    3  502    0  0.17693305241E+04 -0.77612389991E+03  0.63037902849E+03  0.20323081807E+04  0.10100000352E+00 0. -1.
       -3    1    3    3    0  502 -0.17693305241E+04  0.77612389991E+03 -0.28480929294E+02  0.19322810316E+04  0.10100000352E+00 0.  1.
</event>
<event>
 5   0  0.7675750E-08  0.3874454E+04  0.7818609E-02  0.8030363E-01
       -1   -1    0    0    0  501  0.00000000000E+00  0.00000000000E+00  0.17699646946E+04  0.17699646946E+04  0.50400001928E-02 0. -1.
        1   -1    0    0  501    0  0.00000000000E+00  0.00000000000E+00 -0.21202957721E+04  0.21202957722E+04  0.50400001928E-02 0.  1.
    10030    2    1    2    0    0  0.00000000000E+00  0.00000000000E+00 -0.35033107752E+03  0.38902604668E+04  0.38744541081E+04 0.  0.
        2    1    3    3  502    0 -0.23112608106E+03 -0.15198894039E+04 -0.13586877931E+04  0.20517104046E+04  0.25500000920E-02 0.  1.
       -2    1    3    3    0  502  0.23112608106E+03  0.15198894039E+04  0.10083567156E+04  0.18385500622E+04  0.25500000920E-02 0. -1.
</event>
<event>
 5   0  0.7675750E-08  0.3881441E+04  0.7818609E-02  0.8028900E-01
       -1   -1    0    0    0  501  0.00000000000E+00  0.00000000000E+00  0.14286077055E+04  0.14286077056E+04  0.50400001928E-02 0.  1.
        1   -1    0    0  501    0  0.00000000000E+00  0.00000000000E+00 -0.26364097523E+04  0.26364097523E+04  0.50400001928E-02 0. -1.
    10030    2    1    2    0    0  0.00000000000E+00  0.00000000000E+00 -0.12078020467E+04  0.40650174578E+04  0.38814406022E+04 0.  0.
        4    1    3    3  502    0 -0.16960962854E+03  0.46178208314E+03 -0.25700256984E+04  0.26166856559E+04  0.12699999809E+01 0. -1.
       -4    1    3    3    0  502  0.16960962854E+03 -0.46178208314E+03  0.13622236517E+04  0.14483318019E+04  0.12699999809E+01 0.  1.
</event>
<event>
 5   0  0.7731706E-08  0.3909511E+04  0.7818609E-02  0.8023054E-01
       -1   -1    0    0    0  501  0.00000000000E+00  0.00000000000E+00  0.25273542225E+04  0.25273542225E+04  0.50400001928E-02 0.  1.
        1   -1    0    0  501    0  0.00000000000E+00  0.00000000000E+00 -0.15118849585E+04  0.15118849585E+04  0.50400001928E-02 0. -1.
    10030    2    1    2    0    0  0.00000000000E+00  0.00000000000E+00  0.10154692640E+04  0.40392391810E+04  0.39095108818E+04 0.  0.
        3    1    3    3  502    0 -0.11510184258E+04 -0.31433556497E+03 -0.10920041583E+04  0.16174434630E+04  0.10100000352E+00 0. -1.
       -3    1    3    3    0  502  0.11510184258E+04  0.31433556497E+03  0.21074734223E+04  0.24217957180E+04  0.10100000352E+00 0.  1.
</event>
<event>
 5   0  0.7675750E-08  0.3856101E+04  0.7818609E-02  0.8034222E-01
       -1   -1    0    0    0  501  0.00000000000E+00  0.00000000000E+00  0.18764103585E+04  0.18764103585E+04  0.50400001928E-02 0. -1.
        1   -1    0    0  501    0  0.00000000000E+00  0.00000000000E+00 -0.19811115813E+04  0.19811115813E+04  0.50400001928E-02 0.  1.
    10030    2    1    2    0    0  0.00000000000E+00  0.00000000000E+00 -0.10470122273E+03  0.38575219398E+04  0.38561007728E+04 0.  0.
        4    1    3    3  502    0 -0.13192953181E+04  0.25587394272E+03  0.13306801896E+04  0.18912226180E+04  0.12699999809E+01 0. -1.
       -4    1    3    3    0  502  0.13192953181E+04 -0.25587394272E+03 -0.14353814123E+04  0.19662993218E+04  0.12699999809E+01 0.  1.
</event>
<event>
 5   0  0.2473224E-07  0.3815375E+04  0.7818609E-02  0.8042864E-01
       -2   -1    0    0    0  501  0.00000000000E+00  0.00000000000E+00  0.18296382862E+04  0.18296382862E+04  0.25500000920E-02 0.  1.
        2   -1    0    0  501    0  0.00000000000E+00  0.00000000000E+00 -0.19890657259E+04  0.19890657259E+04  0.25500000920E-02 0. -1.
    10030    2    1    2    0    0  0.00000000000E+00  0.00000000000E+00 -0.15942743965E+03  0.38187040121E+04  0.38153745849E+04 0.  0.
        2    1    3    3  502    0 -0.91497962759E+02  0.36501733042E+03 -0.19515492627E+04  0.19874994475E+04  0.25500000920E-02 0. -1.
       -2    1    3    3    0  502  0.91497962759E+02 -0.36501733042E+03  0.17921218231E+04  0.18312045646E+04  0.25500000920E-02 0.  1.
</event>
<event>
 5   0  0.2486268E-07  0.3753653E+04  0.7818609E-02  0.8056175E-01
       -2   -1    0    0    0  501  0.00000000000E+00  0.00000000000E+00  0.14746023112E+04  0.14746023113E+04  0.25500000920E-02 0.  1.
        2   -1    0    0  501    0  0.00000000000E+00  0.00000000000E+00 -0.23887640490E+04  0.23887640490E+04  0.25500000920E-02 0. -1.
    10030    2    1    2    0    0  0.00000000000E+00  0.00000000000E+00 -0.91416173775E+03  0.38633663603E+04  0.37536526146E+04 0.  0.
        5    1    3    3  502    0 -0.10809390378E+04 -0.11414010280E+04 -0.15123435084E+04  0.21813827008E+04  0.46999998093E+01 0. -1.
       -5    1    3    3    0  502  0.10809390378E+04  0.11414010280E+04  0.59818177063E+03  0.16819836595E+04  0.46999998093E+01 0.  1.
</event>
<event>
 5   0  0.2395572E-07  0.3917797E+04  0.7818609E-02  0.8021338E-01
       -2   -1    0    0    0  501  0.00000000000E+00  0.00000000000E+00  0.19790080016E+04  0.19790080016E+04  0.25500000920E-02 0. -1.
        2   -1    0    0  501    0  0.00000000000E+00  0.00000000000E+00 -0.19389934667E+04  0.19389934667E+04  0.25500000920E-02 0.  1.
    10030    2    1    2    0    0  0.00000000000E+00  0.00000000000E+00  0.40014534880E+02  0.39180014683E+04  0.39177971289E+04 0.  0.
        3    1    3    3  502    0 -0.48122945598E+03 -0.14037182362E+04 -0.12588388865E+04  0.19459398830E+04  0.10100000352E+00 0.  1.
       -3    1    3    3    0  502  0.48122945598E+03  0.14037182362E+04  0.12988534213E+04  0.19720615853E+04  0.10100000352E+00 0. -1.
</event>
<event>
 5   0  0.2486268E-07  0.3886307E+04  0.7818609E-02  0.8027883E-01
        2   -1    0    0  501    0  0.00000000000E+00  0.00000000000E+00  0.19542832080E+04  0.19542832080E+04  0.25500000920E-02 0. -1.
       -2   -1    0    0    0  501  0.00000000000E+00  0.00000000000E+00 -0.19320868572E+04  0.19320868572E+04  0.25500000920E-02 0.  1.
    10030    2    1    2    0    0  0.00000000000E+00  0.00000000000E+00  0.22196350776E+02  0.38863700652E+04  0.38863066793E+04 0.  0.
        5    1    3    3  502    0  0.11884422277E+04 -0.11337508764E+04 -0.10272042849E+04  0.19372549423E+04  0.46999998093E+01 0.  1.
       -5    1    3    3    0  502 -0.11884422277E+04  0.11337508764E+04  0.10494006356E+04  0.19491151229E+04  0.46999998093E+01 0. -1.
</event>
<event>
 5   0  0.7675750E-08  0.3886952E+04  0.7818609E-02  0.8027748E-01
       -1   -1    0    0    0  501  0.00000000000E+00  0.00000000000E+00  0.18176884359E+04  0.18176884359E+04  0.50400001928E-02 0. -1.
        1   -1    0    0  501    0  0.00000000000E+00  0.00000000000E+00 -0.20779680161E+04  0.20779680161E+04  0.50400001928E-02 0.  1.
    10030    2    1    2    0    0  0.00000000000E+00  0.00000000000E+00 -0.26027958020E+03  0.38956564519E+04  0.38869517275E+04 0.  0.
        4    1    3    3  502    0  0.84129906266E+02 -0.93480183138E+03 -0.18357630797E+04  0.20617856345E+04  0.12699999809E+01 0.  1.
       -4    1    3    3    0  502 -0.84129906266E+02  0.93480183138E+03  0.15754834995E+04  0.18338708174E+04  0.12699999809E+01 0. -1.
</event>
<event>
 5   0  0.7675750E-08  0.3869087E+04  0.7818609E-02  0.8031489E-01
       -1   -1    0    0    0  501  0.00000000000E+00  0.00000000000E+00  0.23164767768E+04  0.23164767768E+04  0.50400001928E-02 0. -1.
        1   -1    0    0  501    0  0.00000000000E+00  0.00000000000E+00 -0.16155819096E+04  0.16155819096E+04  0.50400001928E-02 0.  1.
    10030    2    1    2    0    0  0.00000000000E+00  0.00000000000E+00  0.70089486724E+03  0.39320586864E+04  0.38690867008E+04 0.  0.
        5    1    3    3  502    0  0.14938636051E+04  0.63323647246E+03 -0.72017811780E+03  0.17751888666E+04  0.46999998093E+01 0.  1.
       -5    1    3    3    0  502 -0.14938636051E+04 -0.63323647246E+03  0.14210729850E+04  0.21568698198E+04  0.46999998093E+01 0. -1.
</event>
<event>
 5   0  0.7731706E-08  0.3974535E+04  0.7818609E-02  0.8009703E-01
       -1   -1    0    0    0  501  0.00000000000E+00  0.00000000000E+00  0.19412663144E+04  0.19412663144E+04  0.50400001928E-02 0.  1.
        1   -1    0    0  501    0  0.00000000000E+00  0.00000000000E+00 -0.20343586069E+04  0.20343586069E+04  0.50400001928E-02 0. -1.
    10030    2    1    2    0    0  0.00000000000E+00  0.00000000000E+00 -0.93092292500E+02  0.39756249213E+04  0.39745348584E+04 0.  0.
        3    1    3    3  502    0 -0.98693710573E+03 -0.10373708818E+04 -0.14249838284E+04  0.20200896313E+04  0.10100000352E+00 0. -1.
       -3    1    3    3    0  502  0.98693710573E+03  0.10373708818E+04  0.13318915359E+04  0.19555352901E+04  0.10100000352E+00 0.  1.
</event>
<event>
 5   0  0.7675750E-08  0.3926666E+04  0.7818609E-02  0.8019506E-01
       -1   -1    0    0    0  501  0.00000000000E+00  0.00000000000E+00  0.22492370210E+04  0.22492370210E+04  0.50400001928E-02 0.  1.
        1   -1    0    0  501    0  0.00000000000E+00  0.00000000000E+00 -0.17137706581E+04  0.17137706581E+04  0.50400001928E-02 0. -1.
    10030    2    1    2    0    0  0.00000000000E+00  0.00000000000E+00  0.53546636288E+03  0.39630076792E+04  0.39266659699E+04 0.  0.
        5    1    3    3  502    0  0.77028718443E+02 -0.10705995140E+04 -0.13914213053E+04  0.17573252635E+04  0.46999998093E+01 0. -1.
       -5    1    3    3    0  502 -0.77028718443E+02  0.10705995140E+04  0.19268876682E+04  0.22056824157E+04  0.46999998093E+01 0.  1.
</event>
<event>
 5   0  0.2473224E-07  0.3864511E+04  0.7818609E-02  0.8032451E-01
        2   -1    0    0  501    0  0.00000000000E+00  0.00000000000E+00  0.14611666082E+04  0.14611666082E+04  0.25500000920E-02 0.  1.
       -2   -1    0    0    0  501  0.00000000000E+00  0.00000000000E+00 -0.25552268199E+04  0.25552268199E+04  0.25500000920E-02 0. -1.
    10030    2    1    2    0    0  0.00000000000E+00  0.00000000000E+00 -0.10940602117E+04  0.40163934282E+04  0.38645114081E+04 0.  0.
        2    1    3    3  502    0  0.18195109627E+03 -0.10970563879E+04 -0.21893153600E+04  0.24555530264E+04  0.25500000920E-02 0. -1.
       -2    1    3    3    0  502 -0.18195109627E+03  0.10970563879E+04  0.10952551484E+04  0.15608404018E+04  0.25500000920E-02 0.  1.
</event>
<event>
 5   0  0.2395572E-07  0.3868212E+04  0.7818609E-02  0.8031673E-01
       -2   -1    0    0    0  501  0.00000000000E+00  0.00000000000E+00  0.32134630788E+04  0.32134630788E+04  0.25500000920E-02 0.  1.
        2   -1    0    0  501    0  0.00000000000E+00  0.00000000000E+00 -0.11640917389E+04  0.11640917389E+04  0.25500000920E-02 0. -1.
    10030    2    1    2    0    0  0.00000000000E+00  0.00000000000E+00  0.20493713399E+04  0.43775548178E+04  0.38682118988E+04 0.  0.
        3    1    3    3  502    0  0.75934037323E+03  0.12716241527E+04  0.24323079994E+04  0.28477619287E+04  0.10100000352E+00 0.  1.
       -3    1    3    3    0  502 -0.75934037323E+03 -0.12716241527E+04 -0.38293665955E+03  0.15297928891E+04  0.10100000352E+00 0. -1.
</event>
<event>
 5   0  0.2395572E-07  0.3773468E+04  0.7818609E-02  0.8051873E-01
       -2   -1    0    0    0  501  0.00000000000E+00  0.00000000000E+00  0.15329453000E+04  0.15329453000E+04  0.25500000920E-02 0.  1.
        2   -1    0    0  501    0  0.00000000000E+00  0.00000000000E+00 -0.23221742533E+04  0.23221742533E+04  0.25500000920E-02 0. -1.
    10030    2    1    2    0    0  0.00000000000E+00  0.00000000000E+00 -0.78922895334E+03  0.38551195532E+04  0.37734684879E+04 0.  0.
        3    1    3    3  502    0  0.35111535723E+03  0.14184054989E+04 -0.16140114392E+04  0.21771975311E+04  0.10100000352E+00 0. -1.
       -3    1    3    3    0  502 -0.35111535723E+03 -0.14184054989E+04  0.82478248584E+03  0.16779220222E+04  0.10100000352E+00 0.  1.
</event>
<event>
 5   0  0.7675750E-08  0.3880801E+04  0.7818609E-02  0.8029034E-01
        1   -1    0    0  501    0  0.00000000000E+00  0.00000000000E+00  0.18489647135E+04  0.18489647135E+04  0.50400001928E-02 0.  1.
       -1   -1    0    0    0  501  0.00000000000E+00  0.00000000000E+00 -0.20363578059E+04  0.20363578059E+04  0.50400001928E-02 0. -1.
    10030    2    1    2    0    0  0.00000000000E+00  0.00000000000E+00 -0.18739309242E+03  0.38853225195E+04  0.38808008077E+04 0.  0.
        2    1    3    3  502    0  0.15241477194E+04 -0.26406076947E+03  0.10791629210E+04  0.18860930440E+04  0.25500000920E-02 0.  1.
       -2    1    3    3    0  502 -0.15241477194E+04  0.26406076947E+03 -0.12665560134E+04  0.19992294755E+04  0.25500000920E-02 0. -1.
</event>
<event>
 5   0  0.2384787E-07  0.3853949E+04  0.7818609E-02  0.8034676E-01
        2   -1    0    0  501    0  0.00000000000E+00  0.00000000000E+00  0.13527413929E+04  0.13527413929E+04  0.25500000920E-02 0. -1.
       -2   -1    0    0    0  501  0.00000000000E+00  0.00000000000E+00 -0.27449674910E+04  0.27449674910E+04  0.25500000920E-02 0.  1.
    10030    2    1    2    0    0  0.00000000000E+00  0.00000000000E+00 -0.13922260981E+04  0.40977088838E+04  0.38539492198E+04 0.  0.
        4    1    3    3  502    0  0.78401769538E+03 -0.92305139274E+03  0.89752776199E+03  0.15074035016E+04  0.12699999809E+01 0.  1.
       -4    1    3    3    0  502 -0.78401769538E+03  0.92305139274E+03 -0.22897538601E+04  0.25903053822E+04  0.12699999809E+01 0. -1.
</event>
<event>
 5   0  0.2395572E-07  0.3889232E+04  0.7818609E-02  0.8027273E-01
       -2   -1    0    0    0  501  0.00000000000E+00  0.00000000000E+00  0.17021334316E+04  0.17021334316E+04  0.25500000920E-02 0.  1.
        2   -1    0    0  501    0  0.00000000000E+00  0.00000000000E+00 -0.22216419338E+04  0.22216419338E+04  0.25500000920E-02 0. -1.
    10030    2    1    2    0    0  0.00000000000E+00  0.00000000000E+00 -0.51950850216E+03  0.39237753654E+04  0.38892318052E+04 0.  0.
        3    1    3    3  502    0 -0.66739645942E+03  0.42268375715E+03 -0.20524584895E+04  0.21992420180E+04  0.10100000352E+00 0. -1.
       -3    1    3    3    0  502  0.66739645942E+03 -0.42268375715E+03  0.15329499873E+04  0.17245333474E+04  0.10100000352E+00 0.  1.
</event>
<event>
 5   0  0.2395572E-07  0.3672855E+04  0.7818609E-02  0.8074004E-01
        2   -1    0    0  501    0  0.00000000000E+00  0.00000000000E+00  0.12843112259E+04  0.12843112259E+04  0.25500000920E-02 0. -1.
       -2   -1    0    0    0  501  0.00000000000E+00  0.00000000000E+00 -0.26258943945E+04  0.26258943945E+04  0.25500000920E-02 0.  1.
    10030    2    1    2    0    0  0.00000000000E+00  0.00000000000E+00 -0.13415831685E+04  0.39102056204E+04  0.36728548291E+04 0.  0.
        3    1    3    3  502    0  0.17847370376E+03  0.96302616617E+03 -0.23246255046E+04  0.25225296840E+04  0.10100000352E+00 0.  1.
       -3    1    3    3    0  502 -0.17847370376E+03 -0.96302616617E+03  0.98304233609E+03  0.13876759364E+04  0.10100000352E+00 0. -1.
</event>
<event>
 5   0  0.2395572E-07  0.3607479E+04  0.7818609E-02  0.8088781E-01
        2   -1    0    0  501    0  0.00000000000E+00  0.00000000000E+00  0.24110913603E+04  0.24110913603E+04  0.25500000920E-02 0.  1.
       -2   -1    0    0    0  501  0.00000000000E+00  0.00000000000E+00 -0.13493789317E+04  0.13493789317E+04  0.25500000920E-02 0. -1.
    10030    2    1    2    0    0  0.00000000000E+00  0.00000000000E+00  0.10617124286E+04  0.37604702920E+04  0.36074788338E+04 0.  0.
        3    1    3    3  502    0 -0.13923214926E+04  0.11037533870E+04  0.85491851062E+03  0.19717292786E+04  0.10100000352E+00 0.  1.
       -3    1    3    3    0  502  0.13923214926E+04 -0.11037533870E+04  0.20679391797E+03  0.17887410134E+04  0.10100000352E+00 0. -1.
</event>
<event>
 5   0  0.2486268E-07  0.3873116E+04  0.7818609E-02  0.8030644E-01
       -2   -1    0    0    0  501  0.00000000000E+00  0.00000000000E+00  0.12456592480E+04  0.12456592480E+04  0.25500000920E-02 0. -1.
        2   -1    0    0  501    0  0.00000000000E+00  0.00000000000E+00 -0.30106596066E+04  0.30106596066E+04  0.25500000920E-02 0.  1.
    10030    2    1    2    0    0  0.00000000000E+00  0.00000000000E+00 -0.17650003586E+04  0.42563188546E+04  0.38731155322E+04 0.  0.
        5    1    3    3  502    0  0.92052050004E+03  0.70627643752E+03  0.82140493067E+03  0.14215880371E+04  0.46999998093E+01 0. -1.
       -5    1    3    3    0  502 -0.92052050004E+03 -0.70627643752E+03 -0.25864052892E+04  0.28347308174E+04  0.46999998093E+01 0.  1.
</event>
<event>
 5   0  0.7731706E-08  0.3909093E+04  0.7818609E-02  0.8023141E-01
        1   -1    0    0  501    0  0.00000000000E+00  0.00000000000E+00  0.21456541082E+04  0.21456541082E+04  0.50400001928E-02 0.  1.
       -1   -1    0    0    0  501  0.00000000000E+00  0.00000000000E+00 -0.17804600322E+04  0.17804600322E+04  0.50400001928E-02 0. -1.
    10030    2    1    2    0    0  0.00000000000E+00  0.00000000000E+00  0.36519407606E+03  0.39261141404E+04  0.39090926735E+04 0.  0.
        3    1    3    3  502    0 -0.16097468449E+04  0.28401938329E+03 -0.89365635768E+03  0.18629475598E+04  0.10100000352E+00 0. -1.
       -3    1    3    3    0  502  0.16097468449E+04 -0.28401938329E+03  0.12588504337E+04  0.20631665806E+04  0.10100000352E+00 0.  1.
</event>
<event>
 5   0  0.7675750E-08  0.3840486E+04  0.7818609E-02  0.8037522E-01
        1   -1    0    0  501    0  0.00000000000E+00  0.00000000000E+00  0.17835795813E+04  0.17835795813E+04  0.50400001928E-02 0.  1.
       -1   -1    0    0    0  501  0.00000000000E+00  0.00000000000E+00 -0.20673778710E+04  0.20673778710E+04  0.50400001928E-02 0. -1.
    10030    2    1    2    0    0  0.00000000000E+00  0.00000000000E+00 -0.28379828971E+03  0.38509574524E+04  0.38404858847E+04 0.  0.
        2    1    3    3  502    0  0.31490195231E+03 -0.12479180445E+04  0.12870725893E+04  0.18201699194E+04  0.25500000920E-02 0.  1.
       -2    1    3    3    0  502 -0.31490195231E+03  0.12479180445E+04 -0.15708708790E+04  0.20307875329E+04  0.25500000920E-02 0. -1.
</event>
<event>
 5   0  0.7675750E-08  0.3850564E+04  0.7818609E-02  0.8035390E-01
       -1   -1    0    0    0  501  0.00000000000E+00  0.00000000000E+00  0.12493414767E+04  0.12493414767E+04  0.50400001928E-02 0.  1.
        1   -1    0    0  501    0  0.00000000000E+00  0.00000000000E+00 -0.29669321747E+04  0.29669321747E+04  0.50400001928E-02 0. -1.
    10030    2    1    2    0    0  0.00000000000E+00  0.00000000000E+00 -0.17175906980E+04  0.42162736514E+04  0.38505643349E+04 0.  0.
        4    1    3    3  502    0 -0.66237538169E+03 -0.15107447406E+04  0.22827822528E+03  0.16652937814E+04  0.12699999809E+01 0.  1.
       -4    1    3    3    0  502  0.66237538169E+03  0.15107447406E+04 -0.19458689233E+04  0.25509798700E+04  0.12699999809E+01 0. -1.
</event>
<event>
 5   0  0.2395572E-07  0.3903948E+04  0.7818609E-02  0.8024209E-01
        2   -1    0    0  501    0  0.00000000000E+00  0.00000000000E+00  0.22573489799E+04  0.22573489799E+04  0.25500000920E-02 0.  1.
       -2   -1    0    0    0  501  0.00000000000E+00  0.00000000000E+00 -0.16879106049E+04  0.16879106049E+04  0.25500000920E-02 0. -1.
    10030    2    1    2    0    0  0.00000000000E+00  0.00000000000E+00  0.56943837492E+03  0.39452595848E+04  0.39039484024E+04 0.  0.
        3    1    3    3  502    0  0.17973613427E+04 -0.50294089120E+03 -0.29294655288E+03  0.18892525055E+04  0.10100000352E+00 0. -1.
       -3    1    3    3    0  502 -0.17973613427E+04  0.50294089120E+03  0.86238492780E+03  0.20560070793E+04  0.10100000352E+00 0.  1.
</event>
<event>
 5   0  0.2395572E-07  0.3915232E+04  0.7818609E-02  0.8021869E-01
        2   -1    0    0  501    0  0.00000000000E+00  0.00000000000E+00  0.22443009540E+04  0.22443009540E+04  0.25500000920E-02 0.  1.
       -2   -1    0    0    0  501  0.00000000000E+00  0.00000000000E+00 -0.17075518189E+04  0.17075518189E+04  0.25500000920E-02 0. -1.
    10030    2    1    2    0    0  0.00000000000E+00  0.00000000000E+00  0.53674913509E+03  0.39518527728E+04  0.39152318838E+04 0.  0.
        3    1    3    3  502    0  0.73966081441E+03 -0.17088915069E+04 -0.34130487541E+03  0.18931184144E+04  0.10100000352E+00 0. -1.
       -3    1    3    3    0  502 -0.73966081441E+03  0.17088915069E+04  0.87805401049E+03  0.20587343584E+04  0.10100000352E+00 0.  1.
</event>
<event>
 5   0  0.2446281E-07  0.3923183E+04  0.7818609E-02  0.8020225E-01
       -2   -1    0    0    0  501  0.00000000000E+00  0.00000000000E+00  0.20716565631E+04  0.20716565631E+04  0.25500000920E-02 0.  1.
        2   -1    0    0  501    0  0.00000000000E+00  0.00000000000E+00 -0.18573738775E+04  0.18573738775E+04  0.25500000920E-02 0. -1.
    10030    2    1    2    0    0  0.00000000000E+00  0.00000000000E+00  0.21428268565E+03  0.39290304406E+04  0.39231827811E+04 0.  0.
        1    1    3    3  502    0 -0.69316265863E+03 -0.14842723725E+04  0.11877778679E+04  0.20234513116E+04  0.50400001928E-02 0.  1.
       -1    1    3    3    0  502  0.69316265863E+03  0.14842723725E+04 -0.97349518220E+03  0.19055791290E+04  0.50400001928E-02 0. -1.
</event>
<event>
 5   0  0.7675750E-08  0.3917889E+04  0.7818609E-02  0.8021319E-01
       -1   -1    0    0    0  501  0.00000000000E+00  0.00000000000E+00  0.22641023656E+04  0.22641023656E+04  0.50400001928E-02 0. -1.
        1   -1    0    0  501    0  0.00000000000E+00  0.00000000000E+00 -0.16949160447E+04  0.16949160447E+04  0.50400001928E-02 0.  1.
    10030    2    1    2    0    0  0.00000000000E+00  0.00000000000E+00  0.56918632091E+03  0.39590184104E+04  0.39178889348E+04 0.  0.
        1    1    3    3  502    0  0.14853775521E+04  0.60327634775E+03 -0.85291266882E+03  0.18159704966E+04  0.50400001928E-02 0.  1.
       -1    1    3    3    0  502 -0.14853775521E+04 -0.60327634775E+03  0.14220989897E+04  0.21430479137E+04  0.50400001928E-02 0. -1.
</event>
<event>
 5   0  0.2473224E-07  0.3891773E+04  0.7818609E-02  0.8026742E-01
        2   -1    0    0  501    0  0.00000000000E+00  0.00000000000E+00  0.15430990089E+04  0.15430990089E+04  0.25500000920E-02 0.  1.
       -2   -1    0    0    0  501  0.00000000000E+00  0.00000000000E+00 -0.24538120630E+04  0.24538120630E+04  0.25500000920E-02 0. -1.
    10030    2    1    2    0    0  0.00000000000E+00  0.00000000000E+00 -0.91071305409E+03  0.39969110719E+04  0.38917733554E+04 0.  0.
        2    1    3    3  502    0 -0.17782138246E+04  0.69345452991E+03 -0.66239156612E+02  0.19097935011E+04  0.25500000920E-02 0.  1.
       -2    1    3    3    0  502  0.17782138246E+04 -0.69345452991E+03 -0.84447389748E+03  0.20871175708E+04  0.25500000920E-02 0. -1.
</event>
<event>
 5   0  0.2395572E-07  0.3892456E+04  0.7818609E-02  0.8026600E-01
        2   -1    0    0  501    0  0.00000000000E+00  0.00000000000E+00  0.21217194270E+04  0.21217194270E+04  0.25500000920E-02 0.  1.
       -2   -1    0    0    0  501  0.00000000000E+00  0.00000000000E+00 -0.17852521700E+04  0.17852521700E+04  0.25500000920E-02 0. -1.
    10030    2    1    2    0    0  0.00000000000E+00  0.00000000000E+00  0.33646725702E+03  0.39069715971E+04  0.38924564025E+04 0.  0.
        3    1    3    3  502    0 -0.10289907118E+04  0.48624632892E+03 -0.14164339034E+04  0.18170146918E+04  0.10100000352E+00 0. -1.
       -3    1    3    3    0  502  0.10289907118E+04 -0.48624632892E+03  0.17529011604E+04  0.20899569053E+04  0.10100000352E+00 0.  1.
</event>
<event>
 5   0  0.7675750E-08  0.3909567E+04  0.7818609E-02  0.8023042E-01
       -1   -1    0    0    0  501  0.00000000000E+00  0.00000000000E+00  0.31076070853E+04  0.31076070853E+04  0.50400001928E-02 0.  1.
        1   -1    0    0  501    0  0.00000000000E+00  0.00000000000E+00 -0.12296210605E+04  0.12296210606E+04  0.50400001928E-02 0. -1.
    10030    2    1    2    0    0  0.00000000000E+00  0.00000000000E+00  0.18779860247E+04  0.43372281458E+04  0.39095673008E+04 0.  0.
        1    1    3    3  502    0  0.84356895717E+03  0.76490521009E+03  0.27016607221E+04  0.29318354700E+04  0.50400001928E-02 0.  1.
       -1    1    3    3    0  502 -0.84356895717E+03 -0.76490521009E+03 -0.82367469741E+03  0.14053926758E+04  0.50400001928E-02 0. -1.
</event>
<event>
 5   0  0.2384787E-07  0.3928758E+04  0.7818609E-02  0.8019074E-01
       -2   -1    0    0    0  501  0.00000000000E+00  0.00000000000E+00  0.26756431620E+04  0.26756431620E+04  0.25500000920E-02 0.  1.
        2   -1    0    0  501    0  0.00000000000E+00  0.00000000000E+00 -0.14421898934E+04  0.14421898934E+04  0.25500000920E-02 0. -1.
    10030    2    1    2    0    0  0.00000000000E+00  0.00000000000E+00  0.12334532686E+04  0.41178330554E+04  0.39287583416E+04 0.  0.
        4    1    3    3  502    0 -0.68770395688E+03 -0.17926120486E+04  0.10519061833E+04  0.21892699515E+04  0.12699999809E+01 0. -1.
       -4    1    3    3    0  502  0.68770395688E+03  0.17926120486E+04  0.18154708523E+03  0.19285631040E+04  0.12699999809E+01 0.  1.
</event>
<event>
 5   0  0.2486268E-07  0.3895952E+04  0.7818609E-02  0.8025872E-01
        2   -1    0    0  501    0  0.00000000000E+00  0.00000000000E+00  0.24808048232E+04  0.24808048232E+04  0.25500000920E-02 0. -1.
       -2   -1    0    0    0  501  0.00000000000E+00  0.00000000000E+00 -0.15295884184E+04  0.15295884184E+04  0.25500000920E-02 0.  1.
    10030    2    1    2    0    0  0.00000000000E+00  0.00000000000E+00  0.95121640480E+03  0.40103932416E+04  0.38959519124E+04 0.  0.
        5    1    3    3  502    0  0.19216462647E+04 -0.28540959845E+03  0.32856528074E+03  0.19703198317E+04  0.46999998093E+01 0. -1.
       -5    1    3    3    0  502 -0.19216462647E+04  0.28540959845E+03  0.62265112406E+03  0.20400734099E+04  0.46999998093E+01 0.  1.
</event>
<event>
 5   0  0.2384787E-07  0.3792107E+04  0.7818609E-02  0.8047851E-01
       -2   -1    0    0    0  501  0.00000000000E+00  0.00000000000E+00  0.26730681280E+04  0.26730681280E+04  0.25500000920E-02 0. -1.
        2   -1    0    0  501    0  0.00000000000E+00  0.00000000000E+00 -0.13449038413E+04  0.13449038413E+04  0.25500000920E-02 0.  1.
    10030    2    1    2    0    0  0.00000000000E+00  0.00000000000E+00  0.13281642867E+04  0.40179719693E+04  0.37921073789E+04 0.  0.
        4    1    3    3  502    0  0.18645965112E+04  0.16812924381E+03  0.34615995598E+03  0.19038949341E+04  0.12699999809E+01 0.  1.
       -4    1    3    3    0  502 -0.18645965112E+04 -0.16812924381E+03  0.98200433072E+03  0.21140770351E+04  0.12699999809E+01 0. -1.
</event>
<event>
 5   0  0.2395572E-07  0.3891904E+04  0.7818609E-02  0.8026715E-01
        2   -1    0    0  501    0  0.00000000000E+00  0.00000000000E+00  0.26747821361E+04  0.26747821361E+04  0.25500000920E-02 0.  1.
       -2   -1    0    0    0  501  0.00000000000E+00  0.00000000000E+00 -0.14157146953E+04  0.14157146953E+04  0.25500000920E-02 0. -1.
    10030    2    1    2    0    0  0.00000000000E+00  0.00000000000E+00  0.12590674409E+04  0.40904968314E+04  0.38919035840E+04 0.  0.
        3    1    3    3  502    0  0.99452883662E+03  0.16700442629E+04  0.72696184966E+03  0.20752370920E+04  0.10100000352E+00 0.  1.
       -3    1    3    3    0  502 -0.99452883662E+03 -0.16700442629E+04  0.53210559122E+03  0.20152597394E+04  0.10100000352E+00 0. -1.
</event>
<event>
 5   0  0.2395572E-07  0.3888058E+04  0.7818609E-02  0.8027517E-01
        2   -1    0    0  501    0  0.00000000000E+00  0.00000000000E+00  0.14767009014E+04  0.14767009014E+04  0.25500000920E-02 0. -1.
       -2   -1    0    0    0  501  0.00000000000E+00  0.00000000000E+00 -0.25592519528E+04  0.25592519528E+04  0.25500000920E-02 0.  1.
    10030    2    1    2    0    0  0.00000000000E+00  0.00000000000E+00 -0.10825510514E+04  0.40359528542E+04  0.38880584695E+04 0.  0.
        3    1    3    3  502    0  0.11916172940E+04 -0.81012346186E+03  0.81335340870E+03  0.16546285313E+04  0.10100000352E+00 0. -1.
       -3    1    3    3    0  502 -0.11916172940E+04  0.81012346186E+03 -0.18959044601E+04  0.23813243229E+04  0.10100000352E+00 0.  1.
</event>
<event>
 5   0  0.2384787E-07  0.3926635E+04  0.7818609E-02  0.8019512E-01
       -2   -1    0    0    0  501  0.00000000000E+00  0.00000000000E+00  0.18353939427E+04  0.18353939427E+04  0.25500000920E-02 0. -1.
        2   -1    0    0  501    0  0.00000000000E+00  0.00000000000E+00 -0.21001568904E+04  0.21001568904E+04  0.25500000920E-02 0.  1.
    10030    2    1    2    0    0  0.00000000000E+00  0.00000000000E+00 -0.26476294763E+03  0.39355508331E+04  0.39266348113E+04 0.  0.
        4    1    3    3  502    0 -0.20044803975E+03 -0.13919101690E+04  0.12407733191E+04  0.18753968587E+04  0.12699999809E+01 0. -1.
       -4    1    3    3    0  502  0.20044803975E+03  0.13919101690E+04 -0.15055362668E+04  0.20601539745E+04  0.12699999809E+01 0.  1.
</event>
<event>
 5   0  0.2395572E-07  0.3818642E+04  0.7818609E-02  0.8042166E-01
        2   -1    0    0  501    0  0.00000000000E+00  0.00000000000E+00  0.19204237669E+04  0.19204237670E+04  0.25500000920E-02 0.  1.
       -2   -1    0    0    0  501  0.00000000000E+00  0.00000000000E+00 -0.18982825072E+04  0.18982825072E+04  0.25500000920E-02 0. -1.
    10030    2    1    2    0    0  0.00000000000E+00  0.00000000000E+00  0.22141259731E+02  0.38187062742E+04  0.38186420850E+04 0.  0.
        3    1    3    3  502    0  0.11220593255E+04  0.69999430236E+03  0.13882276429E+04  0.19173380380E+04  0.10100000352E+00 0.  1.
       -3    1    3    3    0  502 -0.11220593255E+04 -0.69999430236E+03 -0.13660863832E+04  0.19013682362E+04  0.10100000352E+00 0. -1.
</event>
<event>
 5   0  0.7675750E-08  0.3765135E+04  0.7818609E-02  0.8053678E-01
        1   -1    0    0  501    0  0.00000000000E+00  0.00000000000E+00  0.11167940684E+04  0.11167940684E+04  0.50400001928E-02 0. -1.
       -1   -1    0    0    0  501  0.00000000000E+00  0.00000000000E+00 -0.31734237319E+04  0.31734237319E+04  0.50400001928E-02 0.  1.
    10030    2    1    2    0    0  0.00000000000E+00  0.00000000000E+00 -0.20566296636E+04  0.42902178003E+04  0.37651352168E+04 0.  0.
        5    1    3    3  502    0 -0.18649522839E+04 -0.19700018569E+03 -0.12161791865E+04  0.22351666601E+04  0.46999998093E+01 0.  1.
       -5    1    3    3    0  502  0.18649522839E+04  0.19700018569E+03 -0.84045047701E+03  0.20550511402E+04  0.46999998093E+01 0. -1.
</event>
<event>
 5   0  0.2446281E-07  0.3914654E+04  0.7818609E-02  0.8021988E-01
       -2   -1    0    0    0  501  0.00000000000E+00  0.00000000000E+00  0.15035620259E+04  0.15035620259E+04  0.25500000920E-02 0.  1.
        2   -1    0    0  501    0  0.00000000000E+00  0.00000000000E+00 -0.25480347856E+04  0.25480347856E+04  0.25500000920E-02 0. -1.
    10030    2    1    2    0    0  0.00000000000E+00  0.00000000000E+00 -0.10444727597E+04  0.40515968116E+04  0.39146536728E+04 0.  0.
        1    1    3    3  502    0  0.55231500382E+03 -0.18680343002E+04 -0.32443740863E+03  0.19748072418E+04  0.50400001928E-02 0.  1.
       -1    1    3    3    0  502 -0.55231500382E+03  0.18680343002E+04 -0.72003535108E+03  0.20767895698E+04  0.50400001928E-02 0. -1.
</event>
<event>
 5   0  0.7731706E-08  0.3869214E+04  0.7818609E-02  0.8031463E-01
       -1   -1    0    0    0  501  0.00000000000E+00  0.00000000000E+00  0.15060295773E+04  0.15060295773E+04  0.50400001928E-02 0. -1.
        1   -1    0    0  501    0  0.00000000000E+00  0.00000000000E+00 -0.24851461655E+04  0.24851461655E+04  0.50400001928E-02 0.  1.
    10030    2    1    2    0    0  0.00000000000E+00  0.00000000000E+00 -0.97911658823E+03  0.39911757428E+04  0.38692136819E+04 0.  0.
        3    1    3    3  502    0 -0.33719553098E+03 -0.84340438648E+03 -0.22515195648E+04  0.24278328085E+04  0.10100000352E+00 0.  1.
       -3    1    3    3    0  502  0.33719553098E+03  0.84340438648E+03  0.12724029765E+04  0.15633429343E+04  0.10100000352E+00 0. -1.
</event>
<event>
 5   0  0.2384787E-07  0.3875086E+04  0.7818609E-02  0.8030231E-01
       -2   -1    0    0    0  501  0.00000000000E+00  0.00000000000E+00  0.19667738968E+04  0.19667738968E+04  0.25500000920E-02 0. -1.
        2   -1    0    0  501    0  0.00000000000E+00  0.00000000000E+00 -0.19087469751E+04  0.19087469751E+04  0.25500000920E-02 0.  1.
    10030    2    1    2    0    0  0.00000000000E+00  0.00000000000E+00  0.58026921717E+02  0.38755208719E+04  0.38750864383E+04 0.  0.
        4    1    3    3  502    0 -0.18995794723E+04  0.13562427837E+03 -0.32778415126E+03  0.19324182206E+04  0.12699999809E+01 0.  1.
       -4    1    3    3    0  502  0.18995794723E+04 -0.13562427837E+03  0.38581107298E+03  0.19431026513E+04  0.12699999809E+01 0. -1.
</event>
<event>
 5   0  0.2384787E-07  0.3890093E+04  0.7818609E-02  0.8027093E-01
       -2   -1    0    0    0  501  0.00000000000E+00  0.00000000000E+00  0.21526042437E+04  0.21526042437E+04  0.25500000920E-02 0.  1.
        2   -1    0    0  501    0  0.00000000000E+00  0.00000000000E+00 -0.17575018389E+04  0.17575018389E+04  0.25500000920E-02 0. -1.
    10030    2    1    2    0    0  0.00000000000E+00  0.00000000000E+00  0.39510240482E+03  0.39101060826E+04  0.38900930152E+04 0.  0.
        4    1    3    3  502    0  0.71286880738E+02 -0.95515962320E+02 -0.17538275692E+04  0.17578731109E+04  0.12699999809E+01 0. -1.
       -4    1    3    3    0  502 -0.71286880738E+02  0.95515962320E+02  0.21489299741E+04  0.21522329718E+04  0.12699999809E+01 0.  1.
</event>
<event>
 5   0  0.2384787E-07  0.3879705E+04  0.7818609E-02  0.8029264E-01
        2   -1    0    0  501    0  0.00000000000E+00  0.00000000000E+00  0.21811960495E+04  0.21811960495E+04  0.25500000920E-02 0. -1.
       -2   -1    0    0    0  501  0.00000000000E+00  0.00000000000E+00 -0.17252127556E+04  0.17252127556E+04  0.25500000920E-02 0.  1.
    10030    2    1    2    0    0  0.00000000000E+00  0.00000000000E+00  0.45598329395E+03  0.39064088051E+04  0.38797047553E+04 0.  0.
        4    1    3    3  502    0 -0.13925280328E+04 -0.81136924611E+03 -0.85905561862E+03  0.18263166605E+04  0.12699999809E+01 0.  1.
       -4    1    3    3    0  502  0.13925280328E+04  0.81136924611E+03  0.13150389126E+04  0.20800921446E+04  0.12699999809E+01 0. -1.
</event>
<event>
 5   0  0.2446281E-07  0.3906419E+04  0.7818609E-02  0.8023695E-01
       -2   -1    0    0    0  501  0.00000000000E+00  0.00000000000E+00  0.11881042053E+04  0.11881042053E+04  0.25500000920E-02 0. -1.
        2   -1    0    0  501    0  0.00000000000E+00  0.00000000000E+00 -0.32110211624E+04  0.32110211624E+04  0.25500000920E-02 0.  1.
    10030    2    1    2    0    0  0.00000000000E+00  0.00000000000E+00 -0.20229169571E+04  0.43991253677E+04  0.39064192025E+04 0.  0.
        1    1    3    3  502    0 -0.13591526126E+04  0.62702689032E+03 -0.24245437469E+04  0.28493632492E+04  0.50400001928E-02 0.  1.
       -1    1    3    3    0  502  0.13591526126E+04 -0.62702689032E+03  0.40162678978E+03  0.15497621185E+04  0.50400001928E-02 0. -1.
</event>
<event>
 5   0  0.7675750E-08  0.3896409E+04  0.7818609E-02  0.8025776E-01
        1   -1    0    0  501    0  0.00000000000E+00  0.00000000000E+00  0.18184441032E+04  0.18184441032E+04  0.50400001928E-02 0. -1.
       -1   -1    0    0    0  501  0.00000000000E+00  0.00000000000E+00 -0.20872243269E+04  0.20872243269E+04  0.50400001928E-02 0.  1.
    10030    2    1    2    0    0  0.00000000000E+00  0.00000000000E+00 -0.26878022366E+03  0.39056684301E+04  0.38964089977E+04 0.  0.
        4    1    3    3  502    0 -0.81546636463E+02  0.19260106279E+04  0.14793923993E+03  0.19334048785E+04  0.12699999809E+01 0. -1.
       -4    1    3    3    0  502  0.81546636463E+02 -0.19260106279E+04 -0.41671946359E+03  0.19722635516E+04  0.12699999809E+01 0.  1.
</event>
<event>
 5   0  0.7675750E-08  0.3660698E+04  0.7818609E-02  0.8076728E-01
        1   -1    0    0  501    0  0.00000000000E+00  0.00000000000E+00  0.23312053194E+04  0.23312053194E+04  0.50400001928E-02 0.  1.
       -1   -1    0    0    0  501  0.00000000000E+00  0.00000000000E+00 -0.14371010719E+04  0.14371010719E+04  0.50400001928E-02 0. -1.
    10030    2    1    2    0    0  0.00000000000E+00  0.00000000000E+00  0.89410424750E+03  0.37683063912E+04  0.36606981100E+04 0.  0.
        5    1    3    3  502    0  0.90033332756E+03 -0.14743883654E+04 -0.17548493499E+03  0.17364441267E+04  0.46999998093E+01 0. -1.
       -5    1    3    3    0  502 -0.90033332756E+03  0.14743883654E+04  0.10695891825E+04  0.20318622645E+04  0.46999998093E+01 0.  1.
</event>
<event>
 5   0  0.2384787E-07  0.3949694E+04  0.7818609E-02  0.8014772E-01
        2   -1    0    0  501    0  0.00000000000E+00  0.00000000000E+00  0.14553911604E+04  0.14553911604E+04  0.25500000920E-02 0. -1.
       -2   -1    0    0    0  501  0.00000000000E+00  0.00000000000E+00 -0.26797067520E+04  0.26797067520E+04  0.25500000920E-02 0.  1.
    10030    2    1    2    0    0  0.00000000000E+00  0.00000000000E+00 -0.12243155916E+04  0.41350979124E+04  0.39496944284E+04 0.  0.
        4    1    3    3  502    0  0.13654294776E+04  0.74857925879E+02 -0.21038262389E+04  0.25092006344E+04  0.12699999809E+01 0.  1.
       -4    1    3    3    0  502 -0.13654294776E+04 -0.74857925879E+02  0.87951064727E+03  0.16258972781E+04  0.12699999809E+01 0. -1.
</event>
<event>
 5   0  0.2446281E-07  0.3889972E+04  0.7818609E-02  0.8027118E-01
       -2   -1    0    0    0  501  0.00000000000E+00  0.00000000000E+00  0.19458006803E+04  0.19458006803E+04  0.25500000920E-02 0. -1.
        2   -1    0    0  501    0  0.00000000000E+00  0.00000000000E+00 -0.19441715301E+04  0.19441715301E+04  0.25500000920E-02 0.  1.
    10030    2    1    2    0    0  0.00000000000E+00  0.00000000000E+00  0.16291502208E+01  0.38899722103E+04  0.38899718692E+04 0.  0.
        1    1    3    3  502    0  0.20328089688E+03  0.14226322044E+04  0.13114499458E+04  0.19455350093E+04  0.50400001928E-02 0. -1.
       -1    1    3    3    0  502 -0.20328089688E+03 -0.14226322044E+04 -0.13098207956E+04  0.19444372010E+04  0.50400001928E-02 0.  1.
</event>
<event>
 5   0  0.2473224E-07  0.3784779E+04  0.7818609E-02  0.8049429E-01
       -2   -1    0    0    0  501  0.00000000000E+00  0.00000000000E+00  0.15906243236E+04  0.15906243236E+04  0.25500000920E-02 0. -1.
        2   -1    0    0  501    0  0.00000000000E+00  0.00000000000E+00 -0.22514036827E+04  0.22514036827E+04  0.25500000920E-02 0.  1.
    10030    2    1    2    0    0  0.00000000000E+00  0.00000000000E+00 -0.66077935911E+03  0.38420280063E+04  0.37847787042E+04 0.  0.
        2    1    3    3  502    0 -0.12278301173E+04  0.13245865827E+04 -0.90377070442E+03  0.20196281584E+04  0.25500000920E-02 0.  1.
       -2    1    3    3    0  502  0.12278301173E+04 -0.13245865827E+04  0.24299134531E+03  0.18223998479E+04  0.25500000920E-02 0. -1.
</event>
<event>
 5   0  0.2486268E-07  0.3968362E+04  0.7818609E-02  0.8010959E-01
       -2   -1    0    0    0  501  0.00000000000E+00  0.00000000000E+00  0.30497260301E+04  0.30497260301E+04  0.25500000920E-02 0.  1.
        2   -1    0    0  501    0  0.00000000000E+00  0.00000000000E+00 -0.12909273698E+04  0.12909273698E+04  0.25500000920E-02 0. -1.
    10030    2    1    2    0    0  0.00000000000E+00  0.00000000000E+00  0.17587986603E+04  0.43406534000E+04  0.39683622832E+04 0.  0.
        5    1    3    3  502    0  0.66243572343E+03 -0.18282308429E+04  0.13110109587E+04  0.23452123414E+04  0.46999998093E+01 0.  1.
       -5    1    3    3    0  502 -0.66243572343E+03  0.18282308429E+04  0.44778770162E+03  0.19954410586E+04  0.46999998093E+01 0. -1.
</event>
<event>
 5   0  0.2473224E-07  0.3967456E+04  0.7818609E-02  0.8011144E-01
       -2   -1    0    0    0  501  0.00000000000E+00  0.00000000000E+00  0.13498205017E+04  0.13498205017E+04  0.25500000920E-02 0. -1.
        2   -1    0    0  501    0  0.00000000000E+00  0.00000000000E+00 -0.29153340266E+04  0.29153340266E+04  0.25500000920E-02 0.  1.
    10030    2    1    2    0    0  0.00000000000E+00  0.00000000000E+00 -0.15655135249E+04  0.42651545283E+04  0.39674564337E+04 0.  0.
        2    1    3    3  502    0 -0.84336360105E+03 -0.17801464701E+04 -0.53065241385E+03  0.20400430395E+04  0.25500000920E-02 0. -1.
       -2    1    3    3    0  502  0.84336360105E+03  0.17801464701E+04 -0.10348611111E+04  0.22251114888E+04  0.25500000920E-02 0.  1.
</event>
<event>
 5   0  0.7731706E-08  0.3770719E+04  0.7818609E-02  0.8052468E-01
        1   -1    0    0  501    0  0.00000000000E+00  0.00000000000E+00  0.27550766298E+04  0.27550766298E+04  0.50400001928E-02 0. -1.
       -1   -1    0    0    0  501  0.00000000000E+00  0.00000000000E+00 -0.12901929266E+04  0.12901929266E+04  0.50400001928E-02 0.  1.
    10030    2    1    2    0    0  0.00000000000E+00  0.00000000000E+00  0.14648837032E+04  0.40452695563E+04  0.37707189659E+04 0.  0.
        3    1    3    3  502    0 -0.15946868293E+04  0.99875384247E+03  0.85958264623E+03  0.20686753388E+04  0.10100000352E+00 0. -1.
       -3    1    3    3    0  502  0.15946868293E+04 -0.99875384247E+03  0.60530105695E+03  0.19765942176E+04  0.10100000352E+00 0.  1.
</event>
<event>
 5   0  0.2446281E-07  0.3912287E+04  0.7818609E-02  0.8022479E-01
       -2   -1    0    0    0  501  0.00000000000E+00  0.00000000000E+00  0.15633511935E+04  0.15633511935E+04  0.25500000920E-02 0. -1.
        2   -1    0    0  501    0  0.00000000000E+00  0.00000000000E+00 -0.24476250088E+04  0.24476250088E+04  0.25500000920E-02 0.  1.
    10030    2    1    2    0    0  0.00000000000E+00  0.00000000000E+00 -0.88427381528E+03  0.40109762022E+04  0.39122870440E+04 0.  0.
        1    1    3    3  502    0  0.12177119998E+04  0.15168579242E+04 -0.22999449620E+03  0.19587184445E+04  0.50400001928E-02 0. -1.
       -1    1    3    3    0  502 -0.12177119998E+04 -0.15168579242E+04 -0.65427931908E+03  0.20522577577E+04  0.50400001928E-02 0.  1.
</event>
<event>
 5   0  0.7675750E-08  0.3873981E+04  0.7818609E-02  0.8030463E-01
        1   -1    0    0  501    0  0.00000000000E+00  0.00000000000E+00  0.17325589756E+04  0.17325589756E+04  0.50400001928E-02 0.  1.
       -1   -1    0    0    0  501  0.00000000000E+00  0.00000000000E+00 -0.21655431813E+04  0.21655431813E+04  0.50400001928E-02 0. -1.
    10030    2    1    2    0    0  0.00000000000E+00  0.00000000000E+00 -0.43298420572E+03  0.38981021569E+04  0.38739805243E+04 0.  0.
        4    1    3    3  502    0  0.79731298864E+02 -0.13678179849E+04 -0.15941947123E+04  0.21020802824E+04  0.12699999809E+01 0. -1.
       -4    1    3    3    0  502 -0.79731298864E+02  0.13678179849E+04  0.11612105066E+04  0.17960218745E+04  0.12699999809E+01 0.  1.
</event>
<event>
 5   0  0.7675750E-08  0.3890628E+04  0.7818609E-02  0.8026981E-01
       -1   -1    0    0    0  501  0.00000000000E+00  0.00000000000E+00  0.29770326223E+04  0.29770326223E+04  0.50400001928E-02 0. -1.
        1   -1    0    0  501    0  0.00000000000E+00  0.00000000000E+00 -0.12711472989E+04  0.12711472990E+04  0.50400001928E-02 0.  1.
    10030    2    1    2    0    0  0.00000000000E+00  0.00000000000E+00  0.17058853234E+04  0.42481799213E+04  0.38906282150E+04 0.  0.
        4    1    3    3  502    0  0.98479510794E+03  0.16457423238E+04  0.12083662781E+04  0.22668127130E+04  0.12699999809E+01 0. -1.
       -4    1    3    3    0  502 -0.98479510794E+03 -0.16457423238E+04  0.49751904532E+03  0.19813672083E+04  0.12699999809E+01 0.  1.
</event>
<event>
 5   0  0.2395572E-07  0.3863394E+04  0.7818609E-02  0.8032686E-01
        2   -1    0    0  501    0  0.00000000000E+00  0.00000000000E+00  0.26780809940E+04  0.26780809940E+04  0.25500000920E-02 0.  1.
       -2   -1    0    0    0  501  0.00000000000E+00  0.00000000000E+00 -0.13933308318E+04  0.13933308318E+04  0.25500000920E-02 0. -1.
    10030    2    1    2    0    0  0.00000000000E+00  0.00000000000E+00  0.12847501622E+04  0.40714118258E+04  0.38633937511E+04 0.  0.
        3    1    3    3  502    0 -0.10002365857E+04  0.16159027496E+04  0.27755970946E+03  0.19205869743E+04  0.10100000352E+00 0. -1.
       -3    1    3    3    0  502  0.10002365857E+04 -0.16159027496E+04  0.10071904528E+04  0.21508248515E+04  0.10100000352E+00 0.  1.
</event>
<event>
 5   0  0.2486268E-07  0.3915000E+04  0.7818609E-02  0.8021917E-01
        2   -1    0    0  501    0  0.00000000000E+00  0.00000000000E+00  0.22076777293E+04  0.22076777293E+04  0.25500000920E-02 0.  1.
       -2   -1    0    0    0  501  0.00000000000E+00  0.00000000000E+00 -0.17356724065E+04  0.17356724065E+04  0.25500000920E-02 0. -1.
    10030    2    1    2    0    0  0.00000000000E+00  0.00000000000E+00  0.47200532278E+03  0.39433501358E+04  0.39149995235E+04 0.  0.
        5    1    3    3  502    0 -0.26710377644E+03  0.86579882037E+03 -0.15117373589E+04  0.17624766544E+04  0.46999998093E+01 0. -1.
       -5    1    3    3    0  502  0.26710377644E+03 -0.86579882037E+03  0.19837426817E+04  0.21808734814E+04  0.46999998093E+01 0.  1.
</event>
<event>
 5   0  0.2486268E-07  0.3844389E+04  0.7818609E-02  0.8036696E-01
        2   -1    0    0  501    0  0.00000000000E+00  0.00000000000E+00  0.22110251995E+04  0.22110251995E+04  0.25500000920E-02 0. -1.
       -2   -1    0    0    0  501  0.00000000000E+00  0.00000000000E+00 -0.16710946434E+04  0.16710946434E+04  0.25500000920E-02 0.  1.
    10030    2    1    2    0    0  0.00000000000E+00  0.00000000000E+00  0.53993055610E+03  0.38821198430E+04  0.38443893494E+04 0.  0.
        5    1    3    3  502    0 -0.15789071765E+04 -0.33766169993E+03  0.13232007525E+04  0.20875453569E+04  0.46999998093E+01 0. -1.
       -5    1    3    3    0  502  0.15789071765E+04  0.33766169993E+03 -0.78327019638E+03  0.17945744861E+04  0.46999998093E+01 0.  1.
</event>
<event>
 5   0  0.2446281E-07  0.3926699E+04  0.7818609E-02  0.8019499E-01
       -2   -1    0    0    0  501  0.00000000000E+00  0.00000000000E+00  0.18951368553E+04  0.18951368553E+04  0.25500000920E-02 0. -1.
        2   -1    0    0  501    0  0.00000000000E+00  0.00000000000E+00 -0.20340171880E+04  0.20340171880E+04  0.25500000920E-02 0.  1.
    10030    2    1    2    0    0  0.00000000000E+00  0.00000000000E+00 -0.13888033276E+03  0.39291540433E+04  0.39266988361E+04 0.  0.
        1    1    3    3  502    0  0.18424917882E+04  0.55349970833E+03 -0.46160743219E+03  0.19784386111E+04  0.50400001928E-02 0. -1.
       -1    1    3    3    0  502 -0.18424917882E+04 -0.55349970833E+03  0.32272709943E+03  0.19507154322E+04  0.50400001928E-02 0.  1.
</event>
<event>
 5   0  0.7675750E-08  0.3921169E+04  0.7818609E-02  0.8020641E-01
        1   -1    0    0  501    0  0.00000000000E+00  0.00000000000E+00  0.25717046521E+04  0.25717046521E+04  0.50400001928E-02 0.  1.
       -1   -1    0    0    0  501  0.00000000000E+00  0.00000000000E+00 -0.14946858750E+04  0.14946858750E+04  0.50400001928E-02 0. -1.
    10030    2    1    2    0    0  0.00000000000E+00  0.00000000000E+00  0.10770187771E+04  0.40663905271E+04  0.39211685086E+04 0.  0.
        1    1    3    3  502    0  0.94517399477E+03 -0.11082231307E+04  0.18995085033E+04  0.23936676757E+04  0.50400001928E-02 0.  1.
       -1    1    3    3    0  502 -0.94517399477E+03  0.11082231307E+04 -0.82248972615E+03  0.16727228514E+04  0.50400001928E-02 0. -1.
</event>
<event>
 5   0  0.2486268E-07  0.3870779E+04  0.7818609E-02  0.8031134E-01
       -2   -1    0    0    0  501  0.00000000000E+00  0.00000000000E+00  0.15636772401E+04  0.15636772401E+04  0.25500000920E-02 0.  1.
        2   -1    0    0  501    0  0.00000000000E+00  0.00000000000E+00 -0.23954633861E+04  0.23954633861E+04  0.25500000920E-02 0. -1.
    10030    2    1    2    0    0  0.00000000000E+00  0.00000000000E+00 -0.83178614599E+03  0.39591406262E+04  0.38707785141E+04 0.  0.
        5    1    3    3  502    0  0.61683175287E+03  0.76238964366E+03 -0.21225115762E+04  0.23381182308E+04  0.46999998093E+01 0. -1.
       -5    1    3    3    0  502 -0.61683175287E+03 -0.76238964366E+03  0.12907254302E+04  0.16210223954E+04  0.46999998093E+01 0.  1.
</event>
<event>
 5   0  0.2473224E-07  0.4052512E+04  0.7818609E-02  0.7994036E-01
       -2   -1    0    0    0  501  0.00000000000E+00  0.00000000000E+00  0.14597143894E+04  0.14597143894E+04  0.25500000920E-02 0.  1.
        2   -1    0    0  501    0  0.00000000000E+00  0.00000000000E+00 -0.28126828408E+04  0.28126828408E+04  0.25500000920E-02 0. -1.
    10030    2    1    2    0    0  0.00000000000E+00  0.00000000000E+00 -0.13529684515E+04  0.42723972302E+04  0.40525121174E+04 0.  0.
        2    1    3    3  502    0 -0.14554118914E+04 -0.77926396340E+03  0.56209621294E+03  0.17439691084E+04  0.25500000920E-02 0.  1.
       -2    1    3    3    0  502  0.14554118914E+04  0.77926396340E+03 -0.19150646644E+04  0.25284281218E+04  0.25500000920E-02 0. -1.
</event>
<event>
 5   0  0.2395572E-07  0.3848720E+04  0.7818609E-02  0.8035780E-01
       -2   -1    0    0    0  501  0.00000000000E+00  0.00000000000E+00  0.17963309714E+04  0.17963309714E+04  0.25500000920E-02 0.  1.
        2   -1    0    0  501    0  0.00000000000E+00  0.00000000000E+00 -0.20615139533E+04  0.20615139533E+04  0.25500000920E-02 0. -1.
    10030    2    1    2    0    0  0.00000000000E+00  0.00000000000E+00 -0.26518298190E+03  0.38578449247E+04  0.38487199754E+04 0.  0.
        3    1    3    3  502    0 -0.15408905147E+03  0.16324034450E+04 -0.11422914552E+04  0.19983278565E+04  0.10100000352E+00 0. -1.
       -3    1    3    3    0  502  0.15408905147E+03 -0.16324034450E+04  0.87710847330E+03  0.18595170683E+04  0.10100000352E+00 0.  1.
</event>
<event>
 5   0  0.7675750E-08  0.3315491E+04  0.7818609E-02  0.8158965E-01
        1   -1    0    0  501    0  0.00000000000E+00  0.00000000000E+00  0.35108746751E+04  0.35108746751E+04  0.50400001928E-02 0. -1.
       -1   -1    0    0    0  501  0.00000000000E+00  0.00000000000E+00 -0.78274504740E+03  0.78274504742E+03  0.50400001928E-02 0.  1.
    10030    2    1    2    0    0  0.00000000000E+00  0.00000000000E+00  0.27281296277E+04  0.42936197226E+04  0.33154907716E+04 0.  0.
        1    1    3    3  502    0 -0.87179300334E+03  0.76815342066E+03 -0.16714637389E+03  0.11738912337E+04  0.50400001928E-02 0.  1.
       -1    1    3    3    0  502  0.87179300334E+03 -0.76815342066E+03  0.28952760016E+04  0.31197284888E+04  0.50400001928E-02 0. -1.
</event>
<event>
 5   0  0.2395572E-07  0.3891386E+04  0.7818609E-02  0.8026823E-01
        2   -1    0    0  501    0  0.00000000000E+00  0.00000000000E+00  0.12945973214E+04  0.12945973214E+04  0.25500000920E-02 0. -1.
       -2   -1    0    0    0  501  0.00000000000E+00  0.00000000000E+00 -0.29242461065E+04  0.29242461065E+04  0.25500000920E-02 0.  1.
    10030    2    1    2    0    0  0.00000000000E+00  0.00000000000E+00 -0.16296487851E+04  0.42188434279E+04  0.38913859621E+04 0.  0.
        3    1    3    3  502    0 -0.92471546051E+03  0.36607285073E+03 -0.26278556761E+04  0.28097568364E+04  0.10100000352E+00 0.  1.
       -3    1    3    3    0  502  0.92471546051E+03 -0.36607285073E+03  0.99820689098E+03  0.14090865915E+04  0.10100000352E+00 0. -1.
</event>
<event>
 5   0  0.2486268E-07  0.3889370E+04  0.7818609E-02  0.8027244E-01
        2   -1    0    0  501    0  0.00000000000E+00  0.00000000000E+00  0.22299990401E+04  0.22299990401E+04  0.25500000920E-02 0.  1.
       -2   -1    0    0    0  501  0.00000000000E+00  0.00000000000E+00 -0.16958754880E+04  0.16958754880E+04  0.25500000920E-02 0. -1.
    10030    2    1    2    0    0  0.00000000000E+00  0.00000000000E+00  0.53412355215E+03  0.39258745281E+04  0.38893704942E+04 0.  0.
        5    1    3    3  502    0 -0.97903984517E+02 -0.38026326956E+03  0.21895619787E+04  0.22244974922E+04  0.46999998093E+01 0.  1.
       -5    1    3    3    0  502  0.97903984517E+02  0.38026326956E+03 -0.16554384265E+04  0.17013770359E+04  0.46999998093E+01 0. -1.
</event>
<event>
 5   0  0.7675750E-08  0.3868634E+04  0.7818609E-02  0.8031584E-01
       -1   -1    0    0    0  501  0.00000000000E+00  0.00000000000E+00  0.19541801029E+04  0.19541801029E+04  0.50400001928E-02 0.  1.
        1   -1    0    0  501    0  0.00000000000E+00  0.00000000000E+00 -0.19146562119E+04  0.19146562119E+04  0.50400001928E-02 0. -1.
    10030    2    1    2    0    0  0.00000000000E+00  0.00000000000E+00  0.39523891001E+02  0.38688363148E+04  0.38686344222E+04 0.  0.
        1    1    3    3  502    0  0.26646667362E+03 -0.17418027459E+04 -0.77821564589E+03  0.19262660474E+04  0.50400001928E-02 0. -1.
       -1    1    3    3    0  502 -0.26646667362E+03  0.17418027459E+04  0.81773953689E+03  0.19425702674E+04  0.50400001928E-02 0.  1.
</event>
<event>
 5   0  0.7675750E-08  0.3913531E+04  0.7818609E-02  0.8022221E-01
        1   -1    0    0  501    0  0.00000000000E+00  0.00000000000E+00  0.16633898333E+04  0.16633898333E+04  0.50400001928E-02 0. -1.
       -1   -1    0    0    0  501  0.00000000000E+00  0.00000000000E+00 -0.23018844996E+04  0.23018844996E+04  0.50400001928E-02 0.  1.
    10030    2    1    2    0    0  0.00000000000E+00  0.00000000000E+00 -0.63849466634E+03  0.39652743329E+04  0.39135310266E+04 0.  0.
        2    1    3    3  502    0 -0.81989247120E+03 -0.65141470610E+03  0.13555950127E+04  0.17129514360E+04  0.25500000920E-02 0. -1.
       -2    1    3    3    0  502  0.81989247120E+03  0.65141470610E+03 -0.19940896791E+04  0.22523228969E+04  0.25500000920E-02 0.  1.
</event>
<event>
 5   0  0.2384787E-07  0.4007450E+04  0.7818609E-02  0.8003045E-01
       -2   -1    0    0    0  501  0.00000000000E+00  0.00000000000E+00  0.20363018084E+04  0.20363018084E+04  0.25500000920E-02 0.  1.
        2   -1    0    0  501    0  0.00000000000E+00  0.00000000000E+00 -0.19716694714E+04  0.19716694714E+04  0.25500000920E-02 0. -1.
    10030    2    1    2    0    0  0.00000000000E+00  0.00000000000E+00  0.64632337035E+02  0.40079712798E+04  0.40074501171E+04 0.  0.
        4    1    3    3  502    0  0.10538513465E+04 -0.11521207155E+04 -0.12236049574E+04  0.19837327210E+04  0.12699999809E+01 0. -1.
       -4    1    3    3    0  502 -0.10538513465E+04  0.11521207155E+04  0.12882372945E+04  0.20242385589E+04  0.12699999809E+01 0.  1.
</event>
<event>
 5   0  0.2384787E-07  0.3760746E+04  0.7818609E-02  0.8054632E-01
       -2   -1    0    0    0  501  0.00000000000E+00  0.00000000000E+00  0.19290037233E+04  0.19290037233E+04  0.25500000920E-02 0.  1.
        2   -1    0    0  501    0  0.00000000000E+00  0.00000000000E+00 -0.18329678083E+04  0.18329678083E+04  0.25500000920E-02 0. -1.
    10030    2    1    2    0    0  0.00000000000E+00  0.00000000000E+00  0.96035915049E+02  0.37619715316E+04  0.37607455255E+04 0.  0.
        4    1    3    3  502    0  0.71236052369E+03  0.18161448095E+03  0.17792926543E+04  0.19251818870E+04  0.12699999809E+01 0.  1.
       -4    1    3    3    0  502 -0.71236052369E+03 -0.18161448095E+03 -0.16832567392E+04  0.18367896446E+04  0.12699999809E+01 0. -1.
</event>
<event>
 5   0  0.2473224E-07  0.3911438E+04  0.7818609E-02  0.8022654E-01
       -2   -1    0    0    0  501  0.00000000000E+00  0.00000000000E+00  0.14979640980E+04  0.14979640980E+04  0.25500000920E-02 0. -1.
        2   -1    0    0  501    0  0.00000000000E+00  0.00000000000E+00 -0.25533573545E+04  0.25533573545E+04  0.25500000920E-02 0.  1.
    10030    2    1    2    0    0  0.00000000000E+00  0.00000000000E+00 -0.10553932565E+04  0.40513214525E+04  0.39114384292E+04 0.  0.
        2    1    3    3  502    0 -0.18654362230E+04 -0.11602295841E+03  0.68676001809E+02  0.18703021206E+04  0.25500000920E-02 0. -1.
       -2    1    3    3    0  502  0.18654362230E+04  0.11602295841E+03 -0.11240692583E+04  0.21810193320E+04  0.25500000920E-02 0.  1.
</event>
<event>
 5   0  0.2446281E-07  0.3903463E+04  0.7818609E-02  0.8024309E-01
       -2   -1    0    0    0  501  0.00000000000E+00  0.00000000000E+00  0.14228749990E+04  0.14228749990E+04  0.25500000920E-02 0.  1.
        2   -1    0    0  501    0  0.00000000000E+00  0.00000000000E+00 -0.26771541609E+04  0.26771541609E+04  0.25500000920E-02 0. -1.
    10030    2    1    2    0    0  0.00000000000E+00  0.00000000000E+00 -0.12542791620E+04  0.41000291599E+04  0.39034629364E+04 0.  0.
        1    1    3    3  502    0 -0.12624347457E+04  0.10449184646E+04 -0.17405474240E+04  0.23906278297E+04  0.50400001928E-02 0.  1.
       -1    1    3    3    0  502  0.12624347457E+04 -0.10449184646E+04  0.48626826206E+03  0.17094013302E+04  0.50400001928E-02 0. -1.
</event>
<event>
 5   0  0.2384787E-07  0.3749728E+04  0.7818609E-02  0.8057030E-01
        2   -1    0    0  501    0  0.00000000000E+00  0.00000000000E+00  0.15568816579E+04  0.15568816579E+04  0.25500000920E-02 0. -1.
       -2   -1    0    0    0  501  0.00000000000E+00  0.00000000000E+00 -0.22577920873E+04  0.22577920873E+04  0.25500000920E-02 0.  1.
    10030    2    1    2    0    0  0.00000000000E+00  0.00000000000E+00 -0.70091042941E+03  0.38146737451E+04  0.37497280370E+04 0.  0.
        4    1    3    3  502    0 -0.17743552945E+04 -0.68764701819E+02 -0.96258119758E+03  0.20198092658E+04  0.12699999809E+01 0. -1.
       -4    1    3    3    0  502  0.17743552945E+04  0.68764701819E+02  0.26167076817E+03  0.17948644793E+04  0.12699999809E+01 0.  1.
</event>
<event>
 5   0  0.2395572E-07  0.3898373E+04  0.7818609E-02  0.8025368E-01
       -2   -1    0    0    0  501  0.00000000000E+00  0.00000000000E+00  0.33402668787E+04  0.33402668787E+04  0.25500000920E-02 0.  1.
        2   -1    0    0  501    0  0.00000000000E+00  0.00000000000E+00 -0.11374326819E+04  0.11374326819E+04  0.25500000920E-02 0. -1.
    10030    2    1    2    0    0  0.00000000000E+00  0.00000000000E+00  0.22028341968E+04  0.44776995605E+04  0.38983733602E+04 0.  0.
        3    1    3    3  502    0  0.15400994651E+04  0.64492271922E+03  0.22566081744E+04  0.28071537434E+04  0.10100000352E+00 0.  1.
       -3    1    3    3    0  502 -0.15400994651E+04 -0.64492271922E+03 -0.53773977594E+02  0.16705458171E+04  0.10100000352E+00 0. -1.
</event>
<event>
 5   0  0.7731706E-08  0.3944933E+04  0.7818609E-02  0.8015748E-01
       -1   -1    0    0    0  501  0.00000000000E+00  0.00000000000E+00  0.28815865613E+04  0.28815865613E+04  0.50400001928E-02 0. -1.
        1   -1    0    0  501    0  0.00000000000E+00  0.00000000000E+00 -0.13501676298E+04  0.13501676298E+04  0.50400001928E-02 0.  1.
    10030    2    1    2    0    0  0.00000000000E+00  0.00000000000E+00  0.15314189315E+04  0.42317541911E+04  0.39449334075E+04 0.  0.
        3    1    3    3  502    0 -0.17590064591E+04 -0.28341080294E+03 -0.14210637688E+03  0.17873498927E+04  0.10100000352E+00 0.  1.
       -3    1    3    3    0  502  0.17590064591E+04  0.28341080294E+03  0.16735253083E+04  0.24444042984E+04  0.10100000352E+00 0. -1.
</event>
<event>
 5   0  0.7731706E-08  0.3895939E+04  0.7818609E-02  0.8025874E-01
        1   -1    0    0  501    0  0.00000000000E+00  0.00000000000E+00  0.30753059780E+04  0.30753059780E+04  0.50400001928E-02 0. -1.
       -1   -1    0    0    0  501  0.00000000000E+00  0.00000000000E+00 -0.12338888054E+04  0.12338888054E+04  0.50400001928E-02 0.  1.
    10030    2    1    2    0    0  0.00000000000E+00  0.00000000000E+00  0.18414171726E+04  0.43091947834E+04  0.38959392292E+04 0.  0.
        3    1    3    3  502    0  0.12705308412E+04 -0.14665236591E+04  0.11111503653E+04  0.22359775056E+04  0.10100000352E+00 0. -1.
       -3    1    3    3    0  502 -0.12705308412E+04  0.14665236591E+04  0.73026680739E+03  0.20732172779E+04  0.10100000352E+00 0.  1.
</event>
<event>
 5   0  0.7675750E-08  0.3924703E+04  0.7818609E-02  0.8019911E-01
       -1   -1    0    0    0  501  0.00000000000E+00  0.00000000000E+00  0.22024110937E+04  0.22024110937E+04  0.50400001928E-02 0. -1.
        1   -1    0    0  501    0  0.00000000000E+00  0.00000000000E+00 -0.17484581711E+04  0.17484581711E+04  0.50400001928E-02 0.  1.
    10030    2    1    2    0    0  0.00000000000E+00  0.00000000000E+00  0.45395292256E+03  0.39508692648E+04  0.39247031342E+04 0.  0.
        4    1    3    3  502    0 -0.16030171442E+04 -0.44443792833E+03 -0.82094072400E+03  0.18550294666E+04  0.12699999809E+01 0.  1.
       -4    1    3    3    0  502  0.16030171442E+04  0.44443792833E+03  0.12748936466E+04  0.20958397982E+04  0.12699999809E+01 0. -1.
</event>
<event>
 5   0  0.7675750E-08  0.3912417E+04  0.7818609E-02  0.8022452E-01
       -1   -1    0    0    0  501  0.00000000000E+00  0.00000000000E+00  0.32881908805E+04  0.32881908805E+04  0.50400001928E-02 0.  1.
        1   -1    0    0  501    0  0.00000000000E+00  0.00000000000E+00 -0.11637862615E+04  0.11637862615E+04  0.50400001928E-02 0. -1.
    10030    2    1    2    0    0  0.00000000000E+00  0.00000000000E+00  0.21244046191E+04  0.44519771420E+04  0.39124168346E+04 0.  0.
        1    1    3    3  502    0 -0.44639354023E+03  0.37878201715E+03 -0.10617629124E+04  0.12124699961E+04  0.50400001928E-02 0. -1.
       -1    1    3    3    0  502  0.44639354023E+03 -0.37878201715E+03  0.31861675315E+04  0.32395071459E+04  0.50400001928E-02 0.  1.
</event>
<event>
 5   0  0.2446281E-07  0.3832578E+04  0.7818609E-02  0.8039200E-01
        2   -1    0    0  501    0  0.00000000000E+00  0.00000000000E+00  0.11592746617E+04  0.11592746617E+04  0.25500000920E-02 0.  1.
       -2   -1    0    0    0  501  0.00000000000E+00  0.00000000000E+00 -0.31676381206E+04  0.31676381206E+04  0.25500000920E-02 0. -1.
    10030    2    1    2    0    0  0.00000000000E+00  0.00000000000E+00 -0.20083634590E+04  0.43269127823E+04  0.38325775194E+04 0.  0.
        1    1    3    3  502    0  0.93449874402E+03 -0.82422819511E+03  0.63945644032E+03  0.14005515197E+04  0.50400001928E-02 0.  1.
       -1    1    3    3    0  502 -0.93449874402E+03  0.82422819511E+03 -0.26478198993E+04  0.29263612626E+04  0.50400001928E-02 0. -1.
</event>
<event>
 5   0  0.2384787E-07  0.3973700E+04  0.7818609E-02  0.8009873E-01
        2   -1    0    0  501    0  0.00000000000E+00  0.00000000000E+00  0.21508212428E+04  0.21508212428E+04  0.25500000920E-02 0. -1.
       -2   -1    0    0    0  501  0.00000000000E+00  0.00000000000E+00 -0.18353789489E+04  0.18353789489E+04  0.25500000920E-02 0.  1.
    10030    2    1    2    0    0  0.00000000000E+00  0.00000000000E+00  0.31544229387E+03  0.39862001917E+04  0.39736995517E+04 0.  0.
        4    1    3    3  502    0  0.11007826877E+04 -0.15377808305E+04 -0.45335690886E+03  0.19447433013E+04  0.12699999809E+01 0.  1.
       -4    1    3    3    0  502 -0.11007826877E+04  0.15377808305E+04  0.76879920273E+03  0.20414568904E+04  0.12699999809E+01 0. -1.
</event>
<event>
 5   0  0.2473224E-07  0.3869455E+04  0.7818609E-02  0.8031412E-01
        2   -1    0    0  501    0  0.00000000000E+00  0.00000000000E+00  0.19487032667E+04  0.19487032667E+04  0.25500000920E-02 0.  1.
       -2   -1    0    0    0  501  0.00000000000E+00  0.00000000000E+00 -0.19208522184E+04  0.19208522184E+04  0.25500000920E-02 0. -1.
    10030    2    1    2    0    0  0.00000000000E+00  0.00000000000E+00  0.27851048305E+02  0.38695554851E+04  0.38694552552E+04 0.  0.
        2    1    3    3  502    0 -0.18740212835E+04  0.23426710428E+03 -0.40600694767E+03  0.19317552870E+04  0.25500000920E-02 0. -1.
       -2    1    3    3    0  502  0.18740212835E+04 -0.23426710428E+03  0.43385799597E+03  0.19378001982E+04  0.25500000920E-02 0.  1.
</event>
<event>
 5   0  0.7675750E-08  0.3880899E+04  0.7818609E-02  0.8029014E-01
       -3   -1    0    0    0  501  0.00000000000E+00  0.00000000000E+00  0.16107700822E+04  0.16107700854E+04  0.10100000352E+00 0.  1.
        3   -1    0    0  501    0  0.00000000000E+00  0.00000000000E+00 -0.23376052097E+04  0.23376052119E+04  0.10100000352E+00 0. -1.
    10030    2    1    2    0    0  0.00000000000E+00  0.00000000000E+00 -0.72683512748E+03  0.39483752973E+04  0.38808991465E+04 0.  0.
        1    1    3    3  502    0  0.93539430597E+03  0.13365645303E+04  0.70555396954E+03  0.17774064406E+04  0.50400001928E-02 0. -1.
       -1    1    3    3    0  502 -0.93539430597E+03 -0.13365645303E+04 -0.14323890970E+04  0.21709688566E+04  0.50400001928E-02 0.  1.
</event>
<event>
 5   0  0.7731706E-08  0.3802027E+04  0.7818609E-02  0.8045720E-01
        1   -1    0    0  501    0  0.00000000000E+00  0.00000000000E+00  0.15506485834E+04  0.15506485834E+04  0.50400001928E-02 0.  1.
       -1   -1    0    0    0  501  0.00000000000E+00  0.00000000000E+00 -0.23305424967E+04  0.23305424967E+04  0.50400001928E-02 0. -1.
    10030    2    1    2    0    0  0.00000000000E+00  0.00000000000E+00 -0.77989391325E+03  0.38811910801E+04  0.38020270494E+04 0.  0.
        3    1    3    3  502    0 -0.92558023853E+03  0.99621195355E+03  0.96613880856E+03  0.16681010887E+04  0.10100000352E+00 0.  1.
       -3    1    3    3    0  502  0.92558023853E+03 -0.99621195355E+03 -0.17460327218E+04  0.22130899914E+04  0.10100000352E+00 0. -1.
</event>
<event>
 5   0  0.2446281E-07  0.3910227E+04  0.7818609E-02  0.8022906E-01
        2   -1    0    0  501    0  0.00000000000E+00  0.00000000000E+00  0.18199863523E+04  0.18199863523E+04  0.25500000920E-02 0.  1.
       -2   -1    0    0    0  501  0.00000000000E+00  0.00000000000E+00 -0.21002730807E+04  0.21002730807E+04  0.25500000920E-02 0. -1.
    10030    2    1    2    0    0  0.00000000000E+00  0.00000000000E+00 -0.28028672836E+03  0.39202594330E+04  0.39102267674E+04 0.  0.
        1    1    3    3  502    0 -0.13962689296E+03 -0.12087550179E+04  0.13941045873E+04  0.18504356143E+04  0.50400001928E-02 0.  1.
       -1    1    3    3    0  502  0.13962689296E+03  0.12087550179E+04 -0.16743913156E+04  0.20698238187E+04  0.50400001928E-02 0. -1.
</event>
<event>
 5   0  0.7675750E-08  0.3697801E+04  0.7818609E-02  0.8068449E-01
        1   -1    0    0  501    0  0.00000000000E+00  0.00000000000E+00  0.22619739106E+04  0.22619739106E+04  0.50400001928E-02 0.  1.
       -1   -1    0    0    0  501  0.00000000000E+00  0.00000000000E+00 -0.15112612239E+04  0.15112612240E+04  0.50400001928E-02 0. -1.
    10030    2    1    2    0    0  0.00000000000E+00  0.00000000000E+00  0.75071268663E+03  0.37732351345E+04  0.36978012173E+04 0.  0.
        4    1    3    3  502    0 -0.11852024396E+04 -0.40789561108E+03  0.17622548770E+04  0.21625511593E+04  0.12699999809E+01 0.  1.
       -4    1    3    3    0  502  0.11852024396E+04  0.40789561108E+03 -0.10115421903E+04  0.16106839752E+04  0.12699999809E+01 0. -1.
</event>
<event>
 5   0  0.7731706E-08  0.3873159E+04  0.7818609E-02  0.8030635E-01
       -1   -1    0    0    0  501  0.00000000000E+00  0.00000000000E+00  0.20969149058E+04  0.20969149058E+04  0.50400001928E-02 0.  1.
        1   -1    0    0  501    0  0.00000000000E+00  0.00000000000E+00 -0.17885034855E+04  0.17885034855E+04  0.50400001928E-02 0. -1.
    10030    2    1    2    0    0  0.00000000000E+00  0.00000000000E+00  0.30841142032E+03  0.38854183914E+04  0.38731587202E+04 0.  0.
        3    1    3    3  502    0 -0.15122431928E+04  0.56615895679E+03  0.12266659628E+04  0.20278374770E+04  0.10100000352E+00 0. -1.
       -3    1    3    3    0  502  0.15122431928E+04 -0.56615895679E+03 -0.91825454246E+03  0.18575809144E+04  0.10100000352E+00 0.  1.
</event>
<event>
 5   0  0.7675750E-08  0.3888961E+04  0.7818609E-02  0.8027329E-01
        1   -1    0    0  501    0  0.00000000000E+00  0.00000000000E+00  0.17802531764E+04  0.17802531764E+04  0.50400001928E-02 0. -1.
       -1   -1    0    0    0  501  0.00000000000E+00  0.00000000000E+00 -0.21238572135E+04  0.21238572135E+04  0.50400001928E-02 0.  1.
    10030    2    1    2    0    0  0.00000000000E+00  0.00000000000E+00 -0.34360403709E+03  0.39041103899E+04  0.38889605555E+04 0.  0.
        1    1    3    3  502    0  0.89540743842E+03 -0.13086979431E+04  0.95799707720E+03  0.18526206268E+04  0.50400001928E-02 0. -1.
       -1    1    3    3    0  502 -0.89540743842E+03  0.13086979431E+04 -0.13016011143E+04  0.20514897630E+04  0.50400001928E-02 0.  1.
</event>
<event>
 5   0  0.7675750E-08  0.3918010E+04  0.7818609E-02  0.8021294E-01
        3   -1    0    0  501    0  0.00000000000E+00  0.00000000000E+00  0.15292749812E+04  0.15292749846E+04  0.10100000352E+00 0.  1.
       -3   -1    0    0    0  501  0.00000000000E+00  0.00000000000E+00 -0.25094901801E+04  0.25094901821E+04  0.10100000352E+00 0. -1.
    10030    2    1    2    0    0  0.00000000000E+00  0.00000000000E+00 -0.98021519887E+03  0.40387651667E+04  0.39180099841E+04 0.  0.
        1    1    3    3  502    0 -0.13916513989E+04 -0.49721449651E+03 -0.18157382796E+04  0.23411154119E+04  0.50400001928E-02 0. -1.
       -1    1    3    3    0  502  0.13916513989E+04  0.49721449651E+03  0.83552308071E+03  0.16976497548E+04  0.50400001928E-02 0.  1.
</event>
<event>
 5   0  0.7731706E-08  0.3858109E+04  0.7818609E-02  0.8033799E-01
       -1   -1    0    0    0  501  0.00000000000E+00  0.00000000000E+00  0.18476750240E+04  0.18476750240E+04  0.50400001928E-02 0. -1.
        1   -1    0    0  501    0  0.00000000000E+00  0.00000000000E+00 -0.20140179546E+04  0.20140179546E+04  0.50400001928E-02 0.  1.
    10030    2    1    2    0    0  0.00000000000E+00  0.00000000000E+00 -0.16634293062E+03  0.38616929786E+04  0.38581086934E+04 0.  0.
        3    1    3    3  502    0  0.87976731757E+03  0.70998985711E+02 -0.18000548661E+04  0.20048014666E+04  0.10100000352E+00 0.  1.
       -3    1    3    3    0  502 -0.87976731757E+03 -0.70998985711E+02  0.16337119355E+04  0.18568915120E+04  0.10100000352E+00 0. -1.
</event>
<event>
 5   0  0.2384787E-07  0.3893660E+04  0.7818609E-02  0.8026349E-01
       -2   -1    0    0    0  501  0.00000000000E+00  0.00000000000E+00  0.18843274566E+04  0.18843274566E+04  0.25500000920E-02 0.  1.
        2   -1    0    0  501    0  0.00000000000E+00  0.00000000000E+00 -0.20114058581E+04  0.20114058581E+04  0.25500000920E-02 0. -1.
    10030    2    1    2    0    0  0.00000000000E+00  0.00000000000E+00 -0.12707840147E+03  0.38957333146E+04  0.38936601211E+04 0.  0.
        4    1    3    3  502    0  0.55258187111E+03 -0.44070201893E+03 -0.18785008461E+04  0.20070705109E+04  0.12699999809E+01 0. -1.
       -4    1    3    3    0  502 -0.55258187111E+03  0.44070201893E+03  0.17514224447E+04  0.18886628038E+04  0.12699999809E+01 0.  1.
</event>
<event>
 5   0  0.2446281E-07  0.3885184E+04  0.7818609E-02  0.8028118E-01
        2   -1    0    0  501    0  0.00000000000E+00  0.00000000000E+00  0.22750911846E+04  0.22750911846E+04  0.25500000920E-02 0. -1.
       -2   -1    0    0    0  501  0.00000000000E+00  0.00000000000E+00 -0.16586868008E+04  0.16586868008E+04  0.25500000920E-02 0.  1.
    10030    2    1    2    0    0  0.00000000000E+00  0.00000000000E+00  0.61640438375E+03  0.39337779854E+04  0.38851840206E+04 0.  0.
        1    1    3    3  502    0  0.72664712576E+03  0.15307463086E+04  0.12700648252E+04  0.21176083129E+04  0.50400001928E-02 0. -1.
       -1    1    3    3    0  502 -0.72664712576E+03 -0.15307463086E+04 -0.65366044145E+03  0.18161696725E+04  0.50400001928E-02 0.  1.
</event>
<event>
 5   0  0.7675750E-08  0.3885322E+04  0.7818609E-02  0.8028089E-01
        1   -1    0    0  501    0  0.00000000000E+00  0.00000000000E+00  0.22026483020E+04  0.22026483020E+04  0.50400001928E-02 0.  1.
       -1   -1    0    0    0  501  0.00000000000E+00  0.00000000000E+00 -0.17133606749E+04  0.17133606749E+04  0.50400001928E-02 0. -1.
    10030    2    1    2    0    0  0.00000000000E+00  0.00000000000E+00  0.48928762715E+03  0.39160089769E+04  0.38853215987E+04 0.  0.
        4    1    3    3  502    0 -0.17127024200E+04  0.84153061722E+02  0.11648157855E+04  0.20729758185E+04  0.12699999809E+01 0.  1.
       -4    1    3    3    0  502  0.17127024200E+04 -0.84153061722E+02 -0.67552815832E+03  0.18430331584E+04  0.12699999809E+01 0. -1.
</event>
<event>
 5   0  0.2486268E-07  0.3921465E+04  0.7818609E-02  0.8020580E-01
        2   -1    0    0  501    0  0.00000000000E+00  0.00000000000E+00  0.24860953457E+04  0.24860953457E+04  0.25500000920E-02 0. -1.
       -2   -1    0    0    0  501  0.00000000000E+00  0.00000000000E+00 -0.15463897154E+04  0.15463897154E+04  0.25500000920E-02 0.  1.
    10030    2    1    2    0    0  0.00000000000E+00  0.00000000000E+00  0.93970563029E+03  0.40324850611E+04  0.39214651721E+04 0.  0.
        5    1    3    3  502    0  0.13941239230E+04 -0.84956281671E+02  0.18849112920E+04  0.23459990945E+04  0.46999998093E+01 0. -1.
       -5    1    3    3    0  502 -0.13941239230E+04  0.84956281671E+02 -0.94520566174E+03  0.16864859666E+04  0.46999998093E+01 0.  1.
</event>
<event>
 5   0  0.7675750E-08  0.3904278E+04  0.7818609E-02  0.8024140E-01
       -1   -1    0    0    0  501  0.00000000000E+00  0.00000000000E+00  0.13240188480E+04  0.13240188480E+04  0.50400001928E-02 0. -1.
        1   -1    0    0  501    0  0.00000000000E+00  0.00000000000E+00 -0.28782420804E+04  0.28782420804E+04  0.50400001928E-02 0.  1.
    10030    2    1    2    0    0  0.00000000000E+00  0.00000000000E+00 -0.15542232324E+04  0.42022609284E+04  0.39042780452E+04 0.  0.
        4    1    3    3  502    0  0.96753772085E+03 -0.63470246143E+02  0.10465120979E+04  0.14266558440E+04  0.12699999809E+01 0. -1.
       -4    1    3    3    0  502 -0.96753772085E+03  0.63470246143E+02 -0.26007353303E+04  0.27756050844E+04  0.12699999809E+01 0.  1.
</event>
<event>
 5   0  0.7675750E-08  0.3909023E+04  0.7818609E-02  0.8023155E-01
       -1   -1    0    0    0  501  0.00000000000E+00  0.00000000000E+00  0.27574995304E+04  0.27574995304E+04  0.50400001928E-02 0. -1.
        1   -1    0    0  501    0  0.00000000000E+00  0.00000000000E+00 -0.13853545365E+04  0.13853545365E+04  0.50400001928E-02 0.  1.
    10030    2    1    2    0    0  0.00000000000E+00  0.00000000000E+00  0.13721449939E+04  0.41428540670E+04  0.39090226318E+04 0.  0.
        1    1    3    3  502    0 -0.31113533178E+03 -0.18548190466E+04  0.12498277381E+04  0.22581470867E+04  0.50400001928E-02 0. -1.
       -1    1    3    3    0  502  0.31113533178E+03  0.18548190466E+04  0.12231725577E+03  0.18847069802E+04  0.50400001928E-02 0.  1.
</event>
<event>
 5   0  0.7731706E-08  0.3914931E+04  0.7818609E-02  0.8021931E-01
        1   -1    0    0  501    0  0.00000000000E+00  0.00000000000E+00  0.29050724856E+04  0.29050724856E+04  0.50400001928E-02 0.  1.
       -1   -1    0    0    0  501  0.00000000000E+00  0.00000000000E+00 -0.13189588147E+04  0.13189588147E+04  0.50400001928E-02 0. -1.
    10030    2    1    2    0    0  0.00000000000E+00  0.00000000000E+00  0.15861136709E+04  0.42240313004E+04  0.39149308869E+04 0.  0.
        3    1    3    3  502    0  0.10734141994E+03 -0.20330728057E+02 -0.13156668194E+04  0.13201949511E+04  0.10100000352E+00 0. -1.
       -3    1    3    3    0  502 -0.10734141994E+03  0.20330728057E+02  0.29017804904E+04  0.29038363493E+04  0.10100000352E+00 0.  1.
</event>
<event>
 5   0  0.7731706E-08  0.3892244E+04  0.7818609E-02  0.8026644E-01
        1   -1    0    0  501    0  0.00000000000E+00  0.00000000000E+00  0.22945364774E+04  0.22945364774E+04  0.50400001928E-02 0.  1.
       -1   -1    0    0    0  501  0.00000000000E+00  0.00000000000E+00 -0.16506124383E+04  0.16506124383E+04  0.50400001928E-02 0. -1.
    10030    2    1    2    0    0  0.00000000000E+00  0.00000000000E+00  0.64392403907E+03  0.39451489157E+04  0.38922438000E+04 0.  0.
        3    1    3    3  502    0  0.12040280976E+04  0.73182319101E+03 -0.10387236815E+04  0.17504844300E+04  0.10100000352E+00 0. -1.
       -3    1    3    3    0  502 -0.12040280976E+04 -0.73182319101E+03  0.16826477206E+04  0.21946644857E+04  0.10100000352E+00 0.  1.
</event>
<event>
 5   0  0.2486268E-07  0.3875059E+04  0.7818609E-02  0.8030236E-01
       -2   -1    0    0    0  501  0.00000000000E+00  0.00000000000E+00  0.23836146921E+04  0.23836146921E+04  0.25500000920E-02 0.  1.
        2   -1    0    0  501    0  0.00000000000E+00  0.00000000000E+00 -0.15749279779E+04  0.15749279779E+04  0.25500000920E-02 0. -1.
    10030    2    1    2    0    0  0.00000000000E+00  0.00000000000E+00  0.80868671419E+03  0.39585426700E+04  0.38750594664E+04 0.  0.
        5    1    3    3  502    0  0.18612184099E+04 -0.52032223985E+03  0.54563498420E+03  0.20081356599E+04  0.46999998093E+01 0. -1.
       -5    1    3    3    0  502 -0.18612184099E+04  0.52032223985E+03  0.26305172999E+03  0.19504070101E+04  0.46999998093E+01 0.  1.
</event>
<event>
 5   0  0.2446281E-07  0.3927587E+04  0.7818609E-02  0.8019316E-01
        2   -1    0    0  501    0  0.00000000000E+00  0.00000000000E+00  0.13164809682E+04  0.13164809682E+04  0.25500000920E-02 0. -1.
       -2   -1    0    0    0  501  0.00000000000E+00  0.00000000000E+00 -0.29293895561E+04  0.29293895561E+04  0.25500000920E-02 0.  1.
    10030    2    1    2    0    0  0.00000000000E+00  0.00000000000E+00 -0.16129085878E+04  0.42458705243E+04  0.39275873506E+04 0.  0.
        1    1    3    3  502    0  0.74190875636E+03  0.17833153334E+04 -0.42296243705E+03  0.19772555233E+04  0.50400001928E-02 0. -1.
       -1    1    3    3    0  502 -0.74190875636E+03 -0.17833153334E+04 -0.11899461508E+04  0.22686150010E+04  0.50400001928E-02 0.  1.
</event>
<event>
 5   0  0.7675750E-08  0.3932925E+04  0.7818609E-02  0.8018216E-01
       -1   -1    0    0    0  501  0.00000000000E+00  0.00000000000E+00  0.26134364726E+04  0.26134364726E+04  0.50400001928E-02 0. -1.
        1   -1    0    0  501    0  0.00000000000E+00  0.00000000000E+00 -0.14796510459E+04  0.14796510459E+04  0.50400001928E-02 0.  1.
    10030    2    1    2    0    0  0.00000000000E+00  0.00000000000E+00  0.11337854267E+04  0.40930875185E+04  0.39329246167E+04 0.  0.
        4    1    3    3  502    0  0.41657231430E+03  0.31470238699E+03  0.25399911434E+04  0.25930921131E+04  0.12699999809E+01 0. -1.
       -4    1    3    3    0  502 -0.41657231430E+03 -0.31470238699E+03 -0.14062057168E+04  0.14999954054E+04  0.12699999809E+01 0.  1.
</event>
<event>
 5   0  0.7731706E-08  0.3890037E+04  0.7818609E-02  0.8027104E-01
       -1   -1    0    0    0  501  0.00000000000E+00  0.00000000000E+00  0.20911807324E+04  0.20911807324E+04  0.50400001928E-02 0.  1.
        1   -1    0    0  501    0  0.00000000000E+00  0.00000000000E+00 -0.18090726097E+04  0.18090726097E+04  0.50400001928E-02 0. -1.
    10030    2    1    2    0    0  0.00000000000E+00  0.00000000000E+00  0.28210812272E+03  0.39002533421E+04  0.38900374214E+04 0.  0.
        3    1    3    3  502    0  0.78422049883E+03  0.50420006831E+03 -0.15704374176E+04  0.18263332644E+04  0.10100000352E+00 0. -1.
       -3    1    3    3    0  502 -0.78422049883E+03 -0.50420006831E+03  0.18525455404E+04  0.20739200778E+04  0.10100000352E+00 0.  1.
</event>
<event>
 5   0  0.2486268E-07  0.3921283E+04  0.7818609E-02  0.8020617E-01
        2   -1    0    0  501    0  0.00000000000E+00  0.00000000000E+00  0.25309716730E+04  0.25309716730E+04  0.25500000920E-02 0.  1.
       -2   -1    0    0    0  501  0.00000000000E+00  0.00000000000E+00 -0.15188294197E+04  0.15188294197E+04  0.25500000920E-02 0. -1.
    10030    2    1    2    0    0  0.00000000000E+00  0.00000000000E+00  0.10121422533E+04  0.40498010927E+04  0.39212825644E+04 0.  0.
        5    1    3    3  502    0  0.60782667044E+03 -0.15426184146E+04  0.15867735674E+04  0.22949939605E+04  0.46999998093E+01 0.  1.
       -5    1    3    3    0  502 -0.60782667044E+03  0.15426184146E+04 -0.57463131419E+03  0.17548071323E+04  0.46999998093E+01 0. -1.
</event>
<event>
 5   0  0.7675750E-08  0.3889933E+04  0.7818609E-02  0.8027126E-01
       -1   -1    0    0    0  501  0.00000000000E+00  0.00000000000E+00  0.17591432679E+04  0.17591432679E+04  0.50400001928E-02 0.  1.
        1   -1    0    0  501    0  0.00000000000E+00  0.00000000000E+00 -0.21504182790E+04  0.21504182790E+04  0.50400001928E-02 0. -1.
    10030    2    1    2    0    0  0.00000000000E+00  0.00000000000E+00 -0.39127501112E+03  0.39095615469E+04  0.38899325643E+04 0.  0.
        5    1    3    3  502    0 -0.12257838330E+04 -0.15049535263E+04 -0.32052485599E+03  0.19672796941E+04  0.46999998093E+01 0. -1.
       -5    1    3    3    0  502  0.12257838330E+04  0.15049535263E+04 -0.70750155129E+02  0.19422818529E+04  0.46999998093E+01 0.  1.
</event>
<event>
 5   0  0.7731706E-08  0.3810855E+04  0.7818609E-02  0.8043829E-01
       -1   -1    0    0    0  501  0.00000000000E+00  0.00000000000E+00  0.29776627086E+04  0.29776627086E+04  0.50400001928E-02 0.  1.
        1   -1    0    0  501    0  0.00000000000E+00  0.00000000000E+00 -0.12192967480E+04  0.12192967480E+04  0.50400001928E-02 0. -1.
    10030    2    1    2    0    0  0.00000000000E+00  0.00000000000E+00  0.17583659606E+04  0.41969594566E+04  0.38108552621E+04 0.  0.
        3    1    3    3  502    0 -0.68872999127E+03 -0.49231116404E+03  0.27591587924E+04  0.28861179004E+04  0.10100000352E+00 0.  1.
       -3    1    3    3    0  502  0.68872999127E+03  0.49231116404E+03 -0.10007928318E+04  0.13108415562E+04  0.10100000352E+00 0. -1.
</event>
<event>
 5   0  0.2384787E-07  0.3910874E+04  0.7818609E-02  0.8022771E-01
        2   -1    0    0  501    0  0.00000000000E+00  0.00000000000E+00  0.20917700177E+04  0.20917700177E+04  0.25500000920E-02 0.  1.
       -2   -1    0    0    0  501  0.00000000000E+00  0.00000000000E+00 -0.18279898355E+04  0.18279898355E+04  0.25500000920E-02 0. -1.
    10030    2    1    2    0    0  0.00000000000E+00  0.00000000000E+00  0.26378018224E+03  0.39197598532E+04  0.39108742401E+04 0.  0.
        4    1    3    3  502    0 -0.97125075139E+03 -0.98495162087E+03  0.15171573055E+04  0.20531014636E+04  0.12699999809E+01 0.  1.
       -4    1    3    3    0  502  0.97125075139E+03  0.98495162087E+03 -0.12533771232E+04  0.18666583896E+04  0.12699999809E+01 0. -1.
</event>
<event>
 5   0  0.2473224E-07  0.3873885E+04  0.7818609E-02  0.8030483E-01
        2   -1    0    0  501    0  0.00000000000E+00  0.00000000000E+00  0.16474314036E+04  0.16474314036E+04  0.25500000920E-02 0.  1.
       -2   -1    0    0    0  501  0.00000000000E+00  0.00000000000E+00 -0.22773305695E+04  0.22773305695E+04  0.25500000920E-02 0. -1.
    10030    2    1    2    0    0  0.00000000000E+00  0.00000000000E+00 -0.62989916583E+03  0.39247619731E+04  0.38738848184E+04 0.  0.
        2    1    3    3  502    0  0.12857677760E+04  0.15846834303E+03  0.11439043890E+04  0.17282442653E+04  0.25500000920E-02 0.  1.
       -2    1    3    3    0  502 -0.12857677760E+04 -0.15846834303E+03 -0.17738035548E+04  0.21965177078E+04  0.25500000920E-02 0. -1.
</event>
<event>
 5   0  0.7675750E-08  0.3900885E+04  0.7818609E-02  0.8024845E-01
       -1   -1    0    0    0  501  0.00000000000E+00  0.00000000000E+00  0.28260844983E+04  0.28260844983E+04  0.50400001928E-02 0.  1.
        1   -1    0    0  501    0  0.00000000000E+00  0.00000000000E+00 -0.13461120215E+04  0.13461120215E+04  0.50400001928E-02 0. -1.
    10030    2    1    2    0    0  0.00000000000E+00  0.00000000000E+00  0.14799724768E+04  0.41721965197E+04  0.39008851902E+04 0.  0.
        2    1    3    3  502    0  0.27980972714E+03 -0.17010768266E+04 -0.23575313269E+03  0.17399814346E+04  0.25500000920E-02 0. -1.
       -2    1    3    3    0  502 -0.27980972714E+03  0.17010768266E+04  0.17157256095E+04  0.24322150851E+04  0.25500000920E-02 0.  1.
</event>
<event>
 5   0  0.2473224E-07  0.3789423E+04  0.7818609E-02  0.8048429E-01
       -2   -1    0    0    0  501  0.00000000000E+00  0.00000000000E+00  0.17424078787E+04  0.17424078787E+04  0.25500000920E-02 0.  1.
        2   -1    0    0  501    0  0.00000000000E+00  0.00000000000E+00 -0.20603278817E+04  0.20603278817E+04  0.25500000920E-02 0. -1.
    10030    2    1    2    0    0  0.00000000000E+00  0.00000000000E+00 -0.31792000297E+03  0.38027357604E+04  0.37894229291E+04 0.  0.
        2    1    3    3  502    0  0.87061202419E+03  0.82278212245E+02  0.15277771182E+04  0.17603516477E+04  0.25500000920E-02 0.  1.
       -2    1    3    3    0  502 -0.87061202419E+03 -0.82278212245E+02 -0.18456971211E+04  0.20423841127E+04  0.25500000920E-02 0. -1.
</event>
<event>
 5   0  0.7675750E-08  0.3993840E+04  0.7818609E-02  0.8005790E-01
       -1   -1    0    0    0  501  0.00000000000E+00  0.00000000000E+00  0.12426852206E+04  0.12426852206E+04  0.50400001928E-02 0.  1.
        1   -1    0    0  501    0  0.00000000000E+00  0.00000000000E+00 -0.32089292470E+04  0.32089292470E+04  0.50400001928E-02 0. -1.
    10030    2    1    2    0    0  0.00000000000E+00  0.00000000000E+00 -0.19662440265E+04  0.44516144676E+04  0.39938397310E+04 0.  0.
        2    1    3    3  502    0 -0.24716538532E+03 -0.17144428508E+04  0.12438872757E+03  0.17366282193E+04  0.25500000920E-02 0.  1.
       -2    1    3    3    0  502  0.24716538532E+03  0.17144428508E+04 -0.20906327540E+04  0.27149862483E+04  0.25500000920E-02 0. -1.
</event>
<event>
 5   0  0.7675750E-08  0.3870475E+04  0.7818609E-02  0.8031198E-01
        1   -1    0    0  501    0  0.00000000000E+00  0.00000000000E+00  0.28252965678E+04  0.28252965678E+04  0.50400001928E-02 0.  1.
       -1   -1    0    0    0  501  0.00000000000E+00  0.00000000000E+00 -0.13255753720E+04  0.13255753720E+04  0.50400001928E-02 0. -1.
    10030    2    1    2    0    0  0.00000000000E+00  0.00000000000E+00  0.14997211958E+04  0.41508719398E+04  0.38704746732E+04 0.  0.
        1    1    3    3  502    0  0.46409278980E+03  0.55610804242E+03  0.26744456685E+04  0.27707937322E+04  0.50400001928E-02 0.  1.
       -1    1    3    3    0  502 -0.46409278980E+03 -0.55610804242E+03 -0.11747244727E+04  0.13800782077E+04  0.50400001928E-02 0. -1.
</event>
<event>
 5   0  0.2473224E-07  0.3905537E+04  0.7818609E-02  0.8023879E-01
       -2   -1    0    0    0  501  0.00000000000E+00  0.00000000000E+00  0.15954546409E+04  0.15954546409E+04  0.25500000920E-02 0.  1.
        2   -1    0    0  501    0  0.00000000000E+00  0.00000000000E+00 -0.23901056018E+04  0.23901056018E+04  0.25500000920E-02 0. -1.
    10030    2    1    2    0    0  0.00000000000E+00  0.00000000000E+00 -0.79465096089E+03  0.39855602427E+04  0.39055371332E+04 0.  0.
        2    1    3    3  502    0  0.39345012372E+03 -0.17006465112E+04  0.49599854965E+03  0.18146669439E+04  0.25500000920E-02 0.  1.
       -2    1    3    3    0  502 -0.39345012372E+03  0.17006465112E+04 -0.12906495105E+04  0.21708932988E+04  0.25500000920E-02 0. -1.
</event>
<event>
 5   0  0.2384787E-07  0.3903537E+04  0.7818609E-02  0.8024294E-01
       -2   -1    0    0    0  501  0.00000000000E+00  0.00000000000E+00  0.23171846767E+04  0.23171846767E+04  0.25500000920E-02 0. -1.
        2   -1    0    0  501    0  0.00000000000E+00  0.00000000000E+00 -0.16439780261E+04  0.16439780261E+04  0.25500000920E-02 0.  1.
    10030    2    1    2    0    0  0.00000000000E+00  0.00000000000E+00  0.67320665060E+03  0.39611627029E+04  0.39035372118E+04 0.  0.
        4    1    3    3  502    0 -0.59295549075E+03 -0.17811529255E+04 -0.20541385347E+03  0.18884645673E+04  0.12699999809E+01 0.  1.
       -4    1    3    3    0  502  0.59295549075E+03  0.17811529255E+04  0.87862050407E+03  0.20726981355E+04  0.12699999809E+01 0. -1.
</event>
<event>
 5   0  0.2446281E-07  0.4290961E+04  0.7818609E-02  0.7948292E-01
        2   -1    0    0  501    0  0.00000000000E+00  0.00000000000E+00  0.26739034047E+04  0.26739034047E+04  0.25500000920E-02 0.  1.
       -2   -1    0    0    0  501  0.00000000000E+00  0.00000000000E+00 -0.17214858544E+04  0.17214858544E+04  0.25500000920E-02 0. -1.
    10030    2    1    2    0    0  0.00000000000E+00  0.00000000000E+00  0.95241755035E+03  0.43953892591E+04  0.42909611451E+04 0.  0.
        1    1    3    3  502    0  0.12143730217E+04 -0.15696461338E+04  0.13112763942E+04  0.23786417560E+04  0.50400001928E-02 0.  1.
       -1    1    3    3    0  502 -0.12143730217E+04  0.15696461338E+04 -0.35885884380E+03  0.20167475031E+04  0.50400001928E-02 0. -1.
</event>
<event>
 5   0  0.2446281E-07  0.3945624E+04  0.7818609E-02  0.8015607E-01
       -2   -1    0    0    0  501  0.00000000000E+00  0.00000000000E+00  0.27146872005E+04  0.27146872005E+04  0.25500000920E-02 0. -1.
        2   -1    0    0  501    0  0.00000000000E+00  0.00000000000E+00 -0.14336781802E+04  0.14336781802E+04  0.25500000920E-02 0.  1.
    10030    2    1    2    0    0  0.00000000000E+00  0.00000000000E+00  0.12810090203E+04  0.41483653807E+04  0.39456243133E+04 0.  0.
        1    1    3    3  502    0 -0.66407263104E+03 -0.18174846637E+04  0.10446311091E+04  0.21989763792E+04  0.50400001928E-02 0. -1.
       -1    1    3    3    0  502  0.66407263104E+03  0.18174846637E+04  0.23637791118E+03  0.19493890015E+04  0.50400001928E-02 0.  1.
</event>
<event>
 5   0  0.7675750E-08  0.3855501E+04  0.7818609E-02  0.8034348E-01
       -1   -1    0    0    0  501  0.00000000000E+00  0.00000000000E+00  0.15359965330E+04  0.15359965330E+04  0.50400001928E-02 0. -1.
        1   -1    0    0  501    0  0.00000000000E+00  0.00000000000E+00 -0.24194208737E+04  0.24194208737E+04  0.50400001928E-02 0.  1.
    10030    2    1    2    0    0  0.00000000000E+00  0.00000000000E+00 -0.88342434071E+03  0.39554174067E+04  0.38555010434E+04 0.  0.
        2    1    3    3  502    0 -0.16387693535E+04 -0.91234270330E+03  0.15123041477E+02  0.18756766535E+04  0.25500000920E-02 0. -1.
       -2    1    3    3    0  502  0.16387693535E+04  0.91234270330E+03 -0.89854738219E+03  0.20797407531E+04  0.25500000920E-02 0.  1.
</event>
<event>
 5   0  0.7675750E-08  0.3859081E+04  0.7818609E-02  0.8033594E-01
        1   -1    0    0  501    0  0.00000000000E+00  0.00000000000E+00  0.15380685448E+04  0.15380685448E+04  0.50400001928E-02 0. -1.
       -1   -1    0    0    0  501  0.00000000000E+00  0.00000000000E+00 -0.24206504455E+04  0.24206504455E+04  0.50400001928E-02 0.  1.
    10030    2    1    2    0    0  0.00000000000E+00  0.00000000000E+00 -0.88258190072E+03  0.39587189903E+04  0.38590808792E+04 0.  0.
        2    1    3    3  502    0 -0.10371791416E+04  0.36296306444E+03  0.11857382452E+04  0.16166192947E+04  0.25500000920E-02 0. -1.
       -2    1    3    3    0  502  0.10371791416E+04 -0.36296306444E+03 -0.20683201459E+04  0.23420996955E+04  0.25500000920E-02 0.  1.
</event>
<event>
 5   0  0.2446281E-07  0.3883280E+04  0.7818609E-02  0.8028516E-01
        2   -1    0    0  501    0  0.00000000000E+00  0.00000000000E+00  0.10773361569E+04  0.10773361569E+04  0.25500000920E-02 0.  1.
       -2   -1    0    0    0  501  0.00000000000E+00  0.00000000000E+00 -0.34993404911E+04  0.34993404911E+04  0.25500000920E-02 0. -1.
    10030    2    1    2    0    0  0.00000000000E+00  0.00000000000E+00 -0.24220043342E+04  0.45766766480E+04  0.38832800757E+04 0.  0.
        1    1    3    3  502    0  0.10134084201E+04  0.11160146604E+04  0.23121988033E+03  0.15251058918E+04  0.50400001928E-02 0.  1.
       -1    1    3    3    0  502 -0.10134084201E+04 -0.11160146604E+04 -0.26532242145E+04  0.30515707563E+04  0.50400001928E-02 0. -1.
</event>
<event>
 5   0  0.2486268E-07  0.3905603E+04  0.7818609E-02  0.8023865E-01
        2   -1    0    0  501    0  0.00000000000E+00  0.00000000000E+00  0.29373682149E+04  0.29373682149E+04  0.25500000920E-02 0.  1.
       -2   -1    0    0    0  501  0.00000000000E+00  0.00000000000E+00 -0.12982486913E+04  0.12982486913E+04  0.25500000920E-02 0. -1.
    10030    2    1    2    0    0  0.00000000000E+00  0.00000000000E+00  0.16391195235E+04  0.42356169062E+04  0.39056033802E+04 0.  0.
        5    1    3    3  502    0  0.68164266305E+03 -0.14578691408E+04  0.20190910103E+04  0.25820088594E+04  0.46999998093E+01 0.  1.
       -5    1    3    3    0  502 -0.68164266305E+03  0.14578691408E+04 -0.37997148679E+03  0.16536080468E+04  0.46999998093E+01 0. -1.
</event>
<event>
 5   0  0.2384787E-07  0.3904957E+04  0.7818609E-02  0.8023999E-01
        2   -1    0    0  501    0  0.00000000000E+00  0.00000000000E+00  0.21832151531E+04  0.21832151531E+04  0.25500000920E-02 0.  1.
       -2   -1    0    0    0  501  0.00000000000E+00  0.00000000000E+00 -0.17461274838E+04  0.17461274838E+04  0.25500000920E-02 0. -1.
    10030    2    1    2    0    0  0.00000000000E+00  0.00000000000E+00  0.43708766933E+03  0.39293426369E+04  0.39049568407E+04 0.  0.
        4    1    3    3  502    0  0.13052797922E+04  0.23695142084E+03 -0.12229766262E+04  0.18043211335E+04  0.12699999809E+01 0. -1.
       -4    1    3    3    0  502 -0.13052797922E+04 -0.23695142084E+03  0.16600642955E+04  0.21250215034E+04  0.12699999809E+01 0.  1.
</event>
<event>
 5   0  0.7675750E-08  0.3670728E+04  0.7818609E-02  0.8074480E-01
       -1   -1    0    0    0  501  0.00000000000E+00  0.00000000000E+00  0.14423379773E+04  0.14423379774E+04  0.50400001928E-02 0. -1.
        1   -1    0    0  501    0  0.00000000000E+00  0.00000000000E+00 -0.23354864369E+04  0.23354864369E+04  0.50400001928E-02 0.  1.
    10030    2    1    2    0    0  0.00000000000E+00  0.00000000000E+00 -0.89314845953E+03  0.37778244142E+04  0.36707278752E+04 0.  0.
        1    1    3    3  502    0 -0.39519599946E+03  0.79507708515E+01 -0.22911598717E+04  0.23250068065E+04  0.50400001928E-02 0.  1.
       -1    1    3    3    0  502  0.39519599946E+03 -0.79507708515E+01  0.13980114122E+04  0.14528176077E+04  0.50400001928E-02 0. -1.
</event>
<event>
 5   0  0.2395572E-07  0.3902212E+04  0.7818609E-02  0.8024569E-01
       -2   -1    0    0    0  501  0.00000000000E+00  0.00000000000E+00  0.19934671056E+04  0.19934671056E+04  0.25500000920E-02 0. -1.
        2   -1    0    0  501    0  0.00000000000E+00  0.00000000000E+00 -0.19096445903E+04  0.19096445903E+04  0.25500000920E-02 0.  1.
    10030    2    1    2    0    0  0.00000000000E+00  0.00000000000E+00  0.83822515350E+02  0.39031116959E+04  0.39022115135E+04 0.  0.
        3    1    3    3  502    0 -0.13867609797E+04  0.12574623746E+04  0.59203452044E+03  0.19633701948E+04  0.10100000352E+00 0. -1.
       -3    1    3    3    0  502  0.13867609797E+04 -0.12574623746E+04 -0.50821200509E+03  0.19397415010E+04  0.10100000352E+00 0.  1.
</event>
<event>
 5   0  0.2446281E-07  0.3931469E+04  0.7818609E-02  0.8018516E-01
       -2   -1    0    0    0  501  0.00000000000E+00  0.00000000000E+00  0.11926119110E+04  0.11926119110E+04  0.25500000920E-02 0. -1.
        2   -1    0    0  501    0  0.00000000000E+00  0.00000000000E+00 -0.32400408416E+04  0.32400408416E+04  0.25500000920E-02 0.  1.
    10030    2    1    2    0    0  0.00000000000E+00  0.00000000000E+00 -0.20474289306E+04  0.44326527527E+04  0.39314685806E+04 0.  0.
        1    1    3    3  502    0 -0.36163644306E+03  0.67939761937E+03  0.10156690651E+04  0.12743412777E+04  0.50400001928E-02 0. -1.
       -1    1    3    3    0  502  0.36163644306E+03 -0.67939761937E+03 -0.30630979957E+04  0.31583114750E+04  0.50400001928E-02 0.  1.
</event>
<event>
 5   0  0.7675750E-08  0.4042266E+04  0.7818609E-02  0.7996074E-01
       -1   -1    0    0    0  501  0.00000000000E+00  0.00000000000E+00  0.14715870611E+04  0.14715870612E+04  0.50400001928E-02 0.  1.
        1   -1    0    0  501    0  0.00000000000E+00  0.00000000000E+00 -0.27758993987E+04  0.27758993987E+04  0.50400001928E-02 0. -1.
    10030    2    1    2    0    0  0.00000000000E+00  0.00000000000E+00 -0.13043123376E+04  0.42474864599E+04  0.40422655223E+04 0.  0.
        4    1    3    3  502    0  0.76828348484E+03  0.76298496225E+03  0.11411126039E+04  0.15730687059E+04  0.12699999809E+01 0.  1.
       -4    1    3    3    0  502 -0.76828348484E+03 -0.76298496225E+03 -0.24454249415E+04  0.26744177540E+04  0.12699999809E+01 0. -1.
</event>
<event>
 5   0  0.2395572E-07  0.3865037E+04  0.7818609E-02  0.8032340E-01
       -2   -1    0    0    0  501  0.00000000000E+00  0.00000000000E+00  0.31950273090E+04  0.31950273090E+04  0.25500000920E-02 0.  1.
        2   -1    0    0  501    0  0.00000000000E+00  0.00000000000E+00 -0.11688873964E+04  0.11688873964E+04  0.25500000920E-02 0. -1.
    10030    2    1    2    0    0  0.00000000000E+00  0.00000000000E+00  0.20261399126E+04  0.43639147054E+04  0.38650366895E+04 0.  0.
        3    1    3    3  502    0  0.68179416338E+02  0.18600810841E+04  0.15998380488E+04  0.24543903245E+04  0.10100000352E+00 0.  1.
       -3    1    3    3    0  502 -0.68179416338E+02 -0.18600810841E+04  0.42630186379E+03  0.19095243810E+04  0.10100000352E+00 0. -1.
</event>
<event>
 5   0  0.2446281E-07  0.3920489E+04  0.7818609E-02  0.8020781E-01
        2   -1    0    0  501    0  0.00000000000E+00  0.00000000000E+00  0.18713138730E+04  0.18713138730E+04  0.25500000920E-02 0. -1.
       -2   -1    0    0    0  501  0.00000000000E+00  0.00000000000E+00 -0.20534015656E+04  0.20534015656E+04  0.25500000920E-02 0.  1.
    10030    2    1    2    0    0  0.00000000000E+00  0.00000000000E+00 -0.18208769252E+03  0.39247154386E+04  0.39204891718E+04 0.  0.
        1    1    3    3  502    0 -0.12556077259E+04 -0.55650116184E+03 -0.14912347615E+04  0.20273197622E+04  0.50400001928E-02 0.  1.
       -1    1    3    3    0  502  0.12556077259E+04  0.55650116184E+03  0.13091470690E+04  0.18973956764E+04  0.50400001928E-02 0. -1.
</event>
<event>
 5   0  0.7675750E-08  0.4137337E+04  0.7818609E-02  0.7977400E-01
        1   -1    0    0  501    0  0.00000000000E+00  0.00000000000E+00  0.23154226230E+04  0.23154226230E+04  0.50400001928E-02 0. -1.
       -1   -1    0    0    0  501  0.00000000000E+00  0.00000000000E+00 -0.18482107464E+04  0.18482107465E+04  0.50400001928E-02 0.  1.
    10030    2    1    2    0    0  0.00000000000E+00  0.00000000000E+00  0.46721187654E+03  0.41636333694E+04  0.41373368122E+04 0.  0.
        2    1    3    3  502    0  0.11572756046E+04 -0.15719563090E+04 -0.45562335129E+03  0.20044765154E+04  0.25500000920E-02 0. -1.
       -2    1    3    3    0  502 -0.11572756046E+04  0.15719563090E+04  0.92283522782E+03  0.21591568540E+04  0.25500000920E-02 0.  1.
</event>
<event>
 5   0  0.2486268E-07  0.3530293E+04  0.7818609E-02  0.8106648E-01
       -2   -1    0    0    0  501  0.00000000000E+00  0.00000000000E+00  0.27847669837E+04  0.27847669837E+04  0.25500000920E-02 0. -1.
        2   -1    0    0  501    0  0.00000000000E+00  0.00000000000E+00 -0.11188521221E+04  0.11188521221E+04  0.25500000920E-02 0.  1.
    10030    2    1    2    0    0  0.00000000000E+00  0.00000000000E+00  0.16659148617E+04  0.39036191058E+04  0.35302931602E+04 0.  0.
        5    1    3    3  502    0  0.80691892382E+03 -0.15563608097E+04  0.60542217161E+03  0.18547062343E+04  0.46999998093E+01 0.  1.
       -5    1    3    3    0  502 -0.80691892382E+03  0.15563608097E+04  0.10604926901E+04  0.20489128716E+04  0.46999998093E+01 0. -1.
</event>
<event>
 5   0  0.7675750E-08  0.3926708E+04  0.7818609E-02  0.8019497E-01
        1   -1    0    0  501    0  0.00000000000E+00  0.00000000000E+00  0.13123501833E+04  0.13123501833E+04  0.50400001928E-02 0.  1.
       -1   -1    0    0    0  501  0.00000000000E+00  0.00000000000E+00 -0.29372941773E+04  0.29372941773E+04  0.50400001928E-02 0. -1.
    10030    2    1    2    0    0  0.00000000000E+00  0.00000000000E+00 -0.16249439940E+04  0.42496443606E+04  0.39267078079E+04 0.  0.
        1    1    3    3  502    0 -0.21519395002E+03  0.61324800767E+03  0.11925608523E+04  0.13581542407E+04  0.50400001928E-02 0.  1.
       -1    1    3    3    0  502  0.21519395002E+03 -0.61324800767E+03 -0.28175048463E+04  0.28914901200E+04  0.50400001928E-02 0. -1.
</event>
<event>
 5   0  0.2446281E-07  0.3832942E+04  0.7818609E-02  0.8039122E-01
       -2   -1    0    0    0  501  0.00000000000E+00  0.00000000000E+00  0.17343630705E+04  0.17343630705E+04  0.25500000920E-02 0.  1.
        2   -1    0    0  501    0  0.00000000000E+00  0.00000000000E+00 -0.21177000249E+04  0.21177000249E+04  0.25500000920E-02 0. -1.
    10030    2    1    2    0    0  0.00000000000E+00  0.00000000000E+00 -0.38333695443E+03  0.38520630954E+04  0.38329418036E+04 0.  0.
        1    1    3    3  502    0 -0.11935205524E+04 -0.13828179552E+03 -0.16921833904E+04  0.20753548590E+04  0.50400001928E-02 0. -1.
       -1    1    3    3    0  502  0.11935205524E+04  0.13828179552E+03  0.13088464360E+04  0.17767082363E+04  0.50400001928E-02 0.  1.
</event>
<event>
 5   0  0.2473224E-07  0.3736977E+04  0.7818609E-02  0.8059816E-01
       -2   -1    0    0    0  501  0.00000000000E+00  0.00000000000E+00  0.14041779495E+04  0.14041779495E+04  0.25500000920E-02 0. -1.
        2   -1    0    0  501    0  0.00000000000E+00  0.00000000000E+00 -0.24863296001E+04  0.24863296001E+04  0.25500000920E-02 0.  1.
    10030    2    1    2    0    0  0.00000000000E+00  0.00000000000E+00 -0.10821516507E+04  0.38905075496E+04  0.37369769598E+04 0.  0.
        2    1    3    3  502    0 -0.59399064363E+03 -0.39563110148E+03 -0.23388386887E+04  0.24453047387E+04  0.25500000920E-02 0.  1.
       -2    1    3    3    0  502  0.59399064363E+03  0.39563110148E+03  0.12566870380E+04  0.14452028109E+04  0.25500000920E-02 0. -1.
</event>
<event>
 5   0  0.7675750E-08  0.3920078E+04  0.7818609E-02  0.8020866E-01
        3   -1    0    0  501    0  0.00000000000E+00  0.00000000000E+00  0.15896192341E+04  0.15896192374E+04  0.10100000352E+00 0. -1.
       -3   -1    0    0    0  501  0.00000000000E+00  0.00000000000E+00 -0.24167759983E+04  0.24167760004E+04  0.10100000352E+00 0.  1.
    10030    2    1    2    0    0  0.00000000000E+00  0.00000000000E+00 -0.82715676411E+03  0.40063952377E+04  0.39200783778E+04 0.  0.
        3    1    3    3  502    0  0.30585804002E+03 -0.62841707856E+03 -0.22851007194E+04  0.23895904405E+04  0.10100000352E+00 0.  1.
       -3    1    3    3    0  502 -0.30585804002E+03  0.62841707856E+03  0.14579439553E+04  0.16168047972E+04  0.10100000352E+00 0. -1.
</event>
<event>
 5   0  0.7731706E-08  0.3912328E+04  0.7818609E-02  0.8022470E-01
       -1   -1    0    0    0  501  0.00000000000E+00  0.00000000000E+00  0.28971776584E+04  0.28971776584E+04  0.50400001928E-02 0. -1.
        1   -1    0    0  501    0  0.00000000000E+00  0.00000000000E+00 -0.13207948825E+04  0.13207948825E+04  0.50400001928E-02 0.  1.
    10030    2    1    2    0    0  0.00000000000E+00  0.00000000000E+00  0.15763827759E+04  0.42179725409E+04  0.39123279131E+04 0.  0.
        3    1    3    3  502    0  0.16552182301E+04 -0.52001616264E+03 -0.18595340440E+03  0.17449191607E+04  0.10100000352E+00 0.  1.
       -3    1    3    3    0  502 -0.16552182301E+04  0.52001616264E+03  0.17623361803E+04  0.24730533802E+04  0.10100000352E+00 0. -1.
</event>
<event>
 5   0  0.2395572E-07  0.3933620E+04  0.7818609E-02  0.8018073E-01
        2   -1    0    0  501    0  0.00000000000E+00  0.00000000000E+00  0.15254118284E+04  0.15254118284E+04  0.25500000920E-02 0.  1.
       -2   -1    0    0    0  501  0.00000000000E+00  0.00000000000E+00 -0.25359321632E+04  0.25359321632E+04  0.25500000920E-02 0. -1.
    10030    2    1    2    0    0  0.00000000000E+00  0.00000000000E+00 -0.10105203348E+04  0.40613439916E+04  0.39336196652E+04 0.  0.
        3    1    3    3  502    0  0.17977648190E+04  0.68987611645E+03 -0.91687322254E+02  0.19277691708E+04  0.10100000352E+00 0.  1.
       -3    1    3    3    0  502 -0.17977648190E+04 -0.68987611645E+03 -0.91883301257E+03  0.21335748208E+04  0.10100000352E+00 0. -1.
</event>
<event>
 5   0  0.2486268E-07  0.3879128E+04  0.7818609E-02  0.8029384E-01
       -2   -1    0    0    0  501  0.00000000000E+00  0.00000000000E+00  0.16950826217E+04  0.16950826217E+04  0.25500000920E-02 0.  1.
        2   -1    0    0  501    0  0.00000000000E+00  0.00000000000E+00 -0.22193071979E+04  0.22193071979E+04  0.25500000920E-02 0. -1.
    10030    2    1    2    0    0  0.00000000000E+00  0.00000000000E+00 -0.52422457614E+03  0.39143898196E+04  0.38791282853E+04 0.  0.
        5    1    3    3  502    0 -0.54446894452E+02  0.18905690172E+04  0.17152801017E+03  0.18991207496E+04  0.46999998093E+01 0.  1.
       -5    1    3    3    0  502  0.54446894452E+02 -0.18905690172E+04 -0.69575258631E+03  0.20152690700E+04  0.46999998093E+01 0. -1.
</event>
<event>
 5   0  0.7675750E-08  0.3858937E+04  0.7818609E-02  0.8033624E-01
        3   -1    0    0  501    0  0.00000000000E+00  0.00000000000E+00  0.13894084570E+04  0.13894084607E+04  0.10100000352E+00 0. -1.
       -3   -1    0    0    0  501  0.00000000000E+00  0.00000000000E+00 -0.26794481097E+04  0.26794481116E+04  0.10100000352E+00 0.  1.
    10030    2    1    2    0    0  0.00000000000E+00  0.00000000000E+00 -0.12900396527E+04  0.40688565723E+04  0.38589365764E+04 0.  0.
        3    1    3    3  502    0  0.45496486898E+03  0.10306632307E+04 -0.22966224804E+04  0.25580724295E+04  0.10100000352E+00 0.  1.
       -3    1    3    3    0  502 -0.45496486898E+03 -0.10306632307E+04  0.10065828277E+04  0.15107841428E+04  0.10100000352E+00 0. -1.
</event>
<event>
 5   0  0.2446281E-07  0.3897114E+04  0.7818609E-02  0.8025630E-01
        2   -1    0    0  501    0  0.00000000000E+00  0.00000000000E+00  0.20723677195E+04  0.20723677195E+04  0.25500000920E-02 0. -1.
       -2   -1    0    0    0  501  0.00000000000E+00  0.00000000000E+00 -0.18321435409E+04  0.18321435409E+04  0.25500000920E-02 0.  1.
    10030    2    1    2    0    0  0.00000000000E+00  0.00000000000E+00  0.24022417853E+03  0.39045112604E+04  0.38971143846E+04 0.  0.
        1    1    3    3  502    0  0.13013278327E+04  0.13330701425E+04 -0.45223833278E+03  0.19170418990E+04  0.50400001928E-02 0.  1.
       -1    1    3    3    0  502 -0.13013278327E+04 -0.13330701425E+04  0.69246251132E+03  0.19874693614E+04  0.50400001928E-02 0. -1.
</event>
<event>
 5   0  0.7675750E-08  0.3662172E+04  0.7818609E-02  0.8076397E-01
        1   -1    0    0  501    0  0.00000000000E+00  0.00000000000E+00  0.11417043993E+04  0.11417043993E+04  0.50400001928E-02 0. -1.
       -1   -1    0    0    0  501  0.00000000000E+00  0.00000000000E+00 -0.29367278020E+04  0.29367278020E+04  0.50400001928E-02 0.  1.
    10030    2    1    2    0    0  0.00000000000E+00  0.00000000000E+00 -0.17950234027E+04  0.40784322013E+04  0.36621715149E+04 0.  0.
        1    1    3    3  502    0  0.17506755395E+04  0.26890568456E+03 -0.14147367847E+04  0.22668602255E+04  0.50400001928E-02 0. -1.
       -1    1    3    3    0  502 -0.17506755395E+04 -0.26890568456E+03 -0.38028661797E+03  0.18115719758E+04  0.50400001928E-02 0.  1.
</event>
<event>
 5   0  0.2395572E-07  0.3904027E+04  0.7818609E-02  0.8024192E-01
        2   -1    0    0  501    0  0.00000000000E+00  0.00000000000E+00  0.13469804656E+04  0.13469804656E+04  0.25500000920E-02 0. -1.
       -2   -1    0    0    0  501  0.00000000000E+00  0.00000000000E+00 -0.28288140321E+04  0.28288140321E+04  0.25500000920E-02 0.  1.
    10030    2    1    2    0    0  0.00000000000E+00  0.00000000000E+00 -0.14818335665E+04  0.41757944977E+04  0.39040272756E+04 0.  0.
        3    1    3    3  502    0  0.11195978905E+04  0.14563521066E+04 -0.14471008006E+04  0.23384955917E+04  0.10100000352E+00 0. -1.
       -3    1    3    3    0  502 -0.11195978905E+04 -0.14563521066E+04 -0.34732765827E+02  0.18372989061E+04  0.10100000352E+00 0.  1.
</event>
<event>
 5   0  0.2384787E-07  0.3897565E+04  0.7818609E-02  0.8025536E-01
        2   -1    0    0  501    0  0.00000000000E+00  0.00000000000E+00  0.25706563022E+04  0.25706563022E+04  0.25500000920E-02 0.  1.
       -2   -1    0    0    0  501  0.00000000000E+00  0.00000000000E+00 -0.14773476100E+04  0.14773476100E+04  0.25500000920E-02 0. -1.
    10030    2    1    2    0    0  0.00000000000E+00  0.00000000000E+00  0.10933086922E+04  0.40480039123E+04  0.38975648522E+04 0.  0.
        4    1    3    3  502    0 -0.57866941932E+02 -0.15873163311E+04 -0.62600979476E+03  0.17072819316E+04  0.12699999809E+01 0. -1.
       -4    1    3    3    0  502  0.57866941932E+02  0.15873163311E+04  0.17193184870E+04  0.23407219806E+04  0.12699999809E+01 0.  1.
</event>
<event>
 5   0  0.2473224E-07  0.3887152E+04  0.7818609E-02  0.8027707E-01
       -2   -1    0    0    0  501  0.00000000000E+00  0.00000000000E+00  0.13902178669E+04  0.13902178669E+04  0.25500000920E-02 0.  1.
        2   -1    0    0  501    0  0.00000000000E+00  0.00000000000E+00 -0.27171906561E+04  0.27171906561E+04  0.25500000920E-02 0. -1.
    10030    2    1    2    0    0  0.00000000000E+00  0.00000000000E+00 -0.13269727893E+04  0.41074085230E+04  0.38871516553E+04 0.  0.
        2    1    3    3  502    0 -0.53746604093E+03  0.13954289411E+04 -0.19753643480E+04  0.24775302182E+04  0.25500000920E-02 0. -1.
       -2    1    3    3    0  502  0.53746604093E+03 -0.13954289411E+04  0.64839155873E+03  0.16298783047E+04  0.25500000920E-02 0.  1.
</event>
<event>
 5   0  0.2473224E-07  0.3926919E+04  0.7818609E-02  0.8019454E-01
        2   -1    0    0  501    0  0.00000000000E+00  0.00000000000E+00  0.21853524766E+04  0.21853524766E+04  0.25500000920E-02 0. -1.
       -2   -1    0    0    0  501  0.00000000000E+00  0.00000000000E+00 -0.17640968520E+04  0.17640968520E+04  0.25500000920E-02 0.  1.
    10030    2    1    2    0    0  0.00000000000E+00  0.00000000000E+00  0.42125562465E+03  0.39494493286E+04  0.39269191102E+04 0.  0.
        2    1    3    3  502    0 -0.91920495325E+03  0.11676093519E+04  0.15013161340E+04  0.21123918857E+04  0.25500000920E-02 0. -1.
       -2    1    3    3    0  502  0.91920495325E+03 -0.11676093519E+04 -0.10800605093E+04  0.18370574429E+04  0.25500000920E-02 0.  1.
</event>
<event>
 5   0  0.2446281E-07  0.3885821E+04  0.7818609E-02  0.8027985E-01
        2   -1    0    0  501    0  0.00000000000E+00  0.00000000000E+00  0.14051456476E+04  0.14051456476E+04  0.25500000920E-02 0.  1.
       -2   -1    0    0    0  501  0.00000000000E+00  0.00000000000E+00 -0.26864840849E+04  0.26864840849E+04  0.25500000920E-02 0. -1.
    10030    2    1    2    0    0  0.00000000000E+00  0.00000000000E+00 -0.12813384373E+04  0.40916297326E+04  0.38858211072E+04 0.  0.
        1    1    3    3  502    0 -0.14042635117E+04  0.12293196260E+04 -0.71952975162E+02  0.18677151773E+04  0.50400001928E-02 0.  1.
       -1    1    3    3    0  502  0.14042635117E+04 -0.12293196260E+04 -0.12093854622E+04  0.22239145552E+04  0.50400001928E-02 0. -1.
</event>
<event>
 5   0  0.7675750E-08  0.3179941E+04  0.7818609E-02  0.8194135E-01
       -3   -1    0    0    0  501  0.00000000000E+00  0.00000000000E+00  0.13108784573E+04  0.13108784612E+04  0.10100000352E+00 0. -1.
        3   -1    0    0  501    0  0.00000000000E+00  0.00000000000E+00 -0.19284825974E+04  0.19284826001E+04  0.10100000352E+00 0.  1.
    10030    2    1    2    0    0  0.00000000000E+00  0.00000000000E+00 -0.61760414016E+03  0.32393610612E+04  0.31799410704E+04 0.  0.
        3    1    3    3  502    0  0.56602741645E+03 -0.11498656931E+04  0.64975273103E+03  0.14369261533E+04  0.10100000352E+00 0. -1.
       -3    1    3    3    0  502 -0.56602741645E+03  0.11498656931E+04 -0.12673568712E+04  0.18024349080E+04  0.10100000352E+00 0.  1.
</event>
<event>
 5   0  0.7675750E-08  0.3888732E+04  0.7818609E-02  0.8027377E-01
        1   -1    0    0  501    0  0.00000000000E+00  0.00000000000E+00  0.19117096511E+04  0.19117096511E+04  0.50400001928E-02 0. -1.
       -1   -1    0    0    0  501  0.00000000000E+00  0.00000000000E+00 -0.19775801290E+04  0.19775801290E+04  0.50400001928E-02 0.  1.
    10030    2    1    2    0    0  0.00000000000E+00  0.00000000000E+00 -0.65870477903E+02  0.38892897801E+04  0.38887319365E+04 0.  0.
        1    1    3    3  502    0 -0.43506136783E+03 -0.18948535962E+04 -0.61408140712E+02  0.19451271179E+04  0.50400001928E-02 0.  1.
       -1    1    3    3    0  502  0.43506136783E+03  0.18948535962E+04 -0.44623371909E+01  0.19441626623E+04  0.50400001928E-02 0. -1.
</event>
<event>
 5   0  0.2446281E-07  0.3899718E+04  0.7818609E-02  0.8025088E-01
        2   -1    0    0  501    0  0.00000000000E+00  0.00000000000E+00  0.14697509036E+04  0.14697509036E+04  0.25500000920E-02 0. -1.
       -2   -1    0    0    0  501  0.00000000000E+00  0.00000000000E+00 -0.25867986815E+04  0.25867986815E+04  0.25500000920E-02 0.  1.
    10030    2    1    2    0    0  0.00000000000E+00  0.00000000000E+00 -0.11170477779E+04  0.40565495850E+04  0.38997177844E+04 0.  0.
        1    1    3    3  502    0  0.39658705831E+03  0.12145826902E+04 -0.20906663992E+04  0.24501792585E+04  0.50400001928E-02 0.  1.
       -1    1    3    3    0  502 -0.39658705831E+03 -0.12145826902E+04  0.97361862132E+03  0.16063703265E+04  0.50400001928E-02 0. -1.
</event>
<event>
 5   0  0.7675750E-08  0.3873463E+04  0.7818609E-02  0.8030571E-01
       -1   -1    0    0    0  501  0.00000000000E+00  0.00000000000E+00  0.20005337784E+04  0.20005337784E+04  0.50400001928E-02 0.  1.
        1   -1    0    0  501    0  0.00000000000E+00  0.00000000000E+00 -0.18749639380E+04  0.18749639380E+04  0.50400001928E-02 0. -1.
    10030    2    1    2    0    0  0.00000000000E+00  0.00000000000E+00  0.12556984037E+03  0.38754977164E+04  0.38734628906E+04 0.  0.
        2    1    3    3  502    0 -0.13958623662E+04  0.36605524956E+03  0.13551679786E+04  0.19796233079E+04  0.25500000920E-02 0.  1.
       -2    1    3    3    0  502  0.13958623662E+04 -0.36605524956E+03 -0.12295981383E+04  0.18958744084E+04  0.25500000920E-02 0. -1.
</event>
<event>
 5   0  0.7675750E-08  0.3916782E+04  0.7818609E-02  0.8021548E-01
       -1   -1    0    0    0  501  0.00000000000E+00  0.00000000000E+00  0.14355147731E+04  0.14355147731E+04  0.50400001928E-02 0.  1.
        1   -1    0    0  501    0  0.00000000000E+00  0.00000000000E+00 -0.26717212800E+04  0.26717212800E+04  0.50400001928E-02 0. -1.
    10030    2    1    2    0    0  0.00000000000E+00  0.00000000000E+00 -0.12362065069E+04  0.41072360532E+04  0.39167820298E+04 0.  0.
        5    1    3    3  502    0  0.92378214510E+03  0.79042142007E+03 -0.22280532152E+04  0.25381849209E+04  0.46999998093E+01 0. -1.
       -5    1    3    3    0  502 -0.92378214510E+03 -0.79042142007E+03  0.99184670831E+03  0.15690511323E+04  0.46999998093E+01 0.  1.
</event>
<event>
 5   0  0.7675750E-08  0.3903829E+04  0.7818609E-02  0.8024233E-01
       -1   -1    0    0    0  501  0.00000000000E+00  0.00000000000E+00  0.25610588842E+04  0.25610588842E+04  0.50400001928E-02 0.  1.
        1   -1    0    0  501    0  0.00000000000E+00  0.00000000000E+00 -0.14876546035E+04  0.14876546035E+04  0.50400001928E-02 0. -1.
    10030    2    1    2    0    0  0.00000000000E+00  0.00000000000E+00  0.10734042807E+04  0.40487134877E+04  0.39038294219E+04 0.  0.
        4    1    3    3  502    0 -0.16047399304E+04  0.71411297153E+03  0.14196638058E+04  0.22584495821E+04  0.12699999809E+01 0.  1.
       -4    1    3    3    0  502  0.16047399304E+04 -0.71411297153E+03 -0.34625952509E+03  0.17902639056E+04  0.12699999809E+01 0. -1.
</event>
<event>
 5   0  0.2446281E-07  0.3861363E+04  0.7818609E-02  0.8033113E-01
        2   -1    0    0  501    0  0.00000000000E+00  0.00000000000E+00  0.17524177579E+04  0.17524177579E+04  0.25500000920E-02 0.  1.
       -2   -1    0    0    0  501  0.00000000000E+00  0.00000000000E+00 -0.21270785273E+04  0.21270785273E+04  0.25500000920E-02 0. -1.
    10030    2    1    2    0    0  0.00000000000E+00  0.00000000000E+00 -0.37466076939E+03  0.38794962852E+04  0.38613625490E+04 0.  0.
        1    1    3    3  502    0  0.26701973578E+03 -0.50572564419E+03  0.16653665190E+04  0.17608246958E+04  0.50400001928E-02 0.  1.
       -1    1    3    3    0  502 -0.26701973578E+03  0.50572564419E+03 -0.20400272884E+04  0.21186715895E+04  0.50400001928E-02 0. -1.
</event>
<event>
 5   0  0.7675750E-08  0.3886402E+04  0.7818609E-02  0.8027863E-01
        1   -1    0    0  501    0  0.00000000000E+00  0.00000000000E+00  0.23356779290E+04  0.23356779290E+04  0.50400001928E-02 0.  1.
       -1   -1    0    0    0  501  0.00000000000E+00  0.00000000000E+00 -0.16166739967E+04  0.16166739967E+04  0.50400001928E-02 0. -1.
    10030    2    1    2    0    0  0.00000000000E+00  0.00000000000E+00  0.71900393234E+03  0.39523519257E+04  0.38864018178E+04 0.  0.
        2    1    3    3  502    0 -0.27531393676E+03 -0.89628616091E+02  0.23136184185E+04  0.23316649071E+04  0.25500000920E-02 0.  1.
       -2    1    3    3    0  502  0.27531393676E+03  0.89628616091E+02 -0.15946144862E+04  0.16206870186E+04  0.25500000920E-02 0. -1.
</event>
<event>
 5   0  0.7675750E-08  0.3910553E+04  0.7818609E-02  0.8022838E-01
       -1   -1    0    0    0  501  0.00000000000E+00  0.00000000000E+00  0.17562756340E+04  0.17562756340E+04  0.50400001928E-02 0.  1.
        1   -1    0    0  501    0  0.00000000000E+00  0.00000000000E+00 -0.21768259180E+04  0.21768259180E+04  0.50400001928E-02 0. -1.
    10030    2    1    2    0    0  0.00000000000E+00  0.00000000000E+00 -0.42055028395E+03  0.39331015520E+04  0.39105530653E+04 0.  0.
        5    1    3    3  502    0  0.10561145894E+04  0.70519814762E+03 -0.17055897871E+04  0.21264385872E+04  0.46999998093E+01 0. -1.
       -5    1    3    3    0  502 -0.10561145894E+04 -0.70519814762E+03  0.12850395031E+04  0.18066629647E+04  0.46999998093E+01 0.  1.
</event>
<event>
 5   0  0.7675750E-08  0.4133444E+04  0.7818609E-02  0.7978155E-01
        1   -1    0    0  501    0  0.00000000000E+00  0.00000000000E+00  0.28483872221E+04  0.28483872221E+04  0.50400001928E-02 0. -1.
       -1   -1    0    0    0  501  0.00000000000E+00  0.00000000000E+00 -0.14995639736E+04  0.14995639736E+04  0.50400001928E-02 0.  1.
    10030    2    1    2    0    0  0.00000000000E+00  0.00000000000E+00  0.13488232485E+04  0.43479511956E+04  0.41334435334E+04 0.  0.
        5    1    3    3  502    0  0.14335631783E+04  0.14036691870E+04  0.11960566248E+04  0.23358005293E+04  0.46999998093E+01 0. -1.
       -5    1    3    3    0  502 -0.14335631783E+04 -0.14036691870E+04  0.15276662364E+03  0.20121506663E+04  0.46999998093E+01 0.  1.
</event>
<event>
 5   0  0.2446281E-07  0.3869640E+04  0.7818609E-02  0.8031373E-01
       -2   -1    0    0    0  501  0.00000000000E+00  0.00000000000E+00  0.15002847053E+04  0.15002847053E+04  0.25500000920E-02 0. -1.
        2   -1    0    0  501    0  0.00000000000E+00  0.00000000000E+00 -0.24952118854E+04  0.24952118854E+04  0.25500000920E-02 0.  1.
    10030    2    1    2    0    0  0.00000000000E+00  0.00000000000E+00 -0.99492718002E+03  0.39954965907E+04  0.38696398945E+04 0.  0.
        1    1    3    3  502    0 -0.54799966307E+03  0.23330413688E+03 -0.23982038911E+04  0.24710557165E+04  0.50400001928E-02 0.  1.
       -1    1    3    3    0  502  0.54799966307E+03 -0.23330413688E+03  0.14032767111E+04  0.15244408742E+04  0.50400001928E-02 0. -1.
</event>
<event>
 5   0  0.7675750E-08  0.3962308E+04  0.7818609E-02  0.8012194E-01
       -1   -1    0    0    0  501  0.00000000000E+00  0.00000000000E+00  0.21856053326E+04  0.21856053326E+04  0.50400001928E-02 0. -1.
        1   -1    0    0  501    0  0.00000000000E+00  0.00000000000E+00 -0.17958282432E+04  0.17958282432E+04  0.50400001928E-02 0.  1.
    10030    2    1    2    0    0  0.00000000000E+00  0.00000000000E+00  0.38977708937E+03  0.39814335758E+04  0.39623083095E+04 0.  0.
        5    1    3    3  502    0 -0.52333700127E+01 -0.16295465075E+04 -0.93727103372E+03  0.18798798603E+04  0.46999998093E+01 0.  1.
       -5    1    3    3    0  502  0.52333700127E+01  0.16295465075E+04  0.13270481231E+04  0.21015537156E+04  0.46999998093E+01 0. -1.
</event>
<event>
 5   0  0.2473224E-07  0.3932919E+04  0.7818609E-02  0.8018217E-01
        2   -1    0    0  501    0  0.00000000000E+00  0.00000000000E+00  0.19916564987E+04  0.19916564987E+04  0.25500000920E-02 0.  1.
       -2   -1    0    0    0  501  0.00000000000E+00  0.00000000000E+00 -0.19415815222E+04  0.19415815222E+04  0.25500000920E-02 0. -1.
    10030    2    1    2    0    0  0.00000000000E+00  0.00000000000E+00  0.50074976508E+02  0.39332380209E+04  0.39329192499E+04 0.  0.
        2    1    3    3  502    0  0.95203703339E+03  0.24677613396E+03 -0.16779482879E+04  0.19449378988E+04  0.25500000920E-02 0. -1.
       -2    1    3    3    0  502 -0.95203703339E+03 -0.24677613396E+03  0.17280232644E+04  0.19883001221E+04  0.25500000920E-02 0.  1.
</event>
<event>
 5   0  0.7675750E-08  0.3869635E+04  0.7818609E-02  0.8031374E-01
        1   -1    0    0  501    0  0.00000000000E+00  0.00000000000E+00  0.16491016371E+04  0.16491016371E+04  0.50400001928E-02 0.  1.
       -1   -1    0    0    0  501  0.00000000000E+00  0.00000000000E+00 -0.22700352707E+04  0.22700352707E+04  0.50400001928E-02 0. -1.
    10030    2    1    2    0    0  0.00000000000E+00  0.00000000000E+00 -0.62093363362E+03  0.39191369078E+04  0.38696350635E+04 0.  0.
        2    1    3    3  502    0 -0.14698478268E+02 -0.19297001513E+04 -0.45211357893E+03  0.19820104458E+04  0.25500000920E-02 0.  1.
       -2    1    3    3    0  502  0.14698478268E+02  0.19297001513E+04 -0.16882005469E+03  0.19371264620E+04  0.25500000920E-02 0. -1.
</event>
<event>
 5   0  0.2486268E-07  0.4003831E+04  0.7818609E-02  0.8003774E-01
       -2   -1    0    0    0  501  0.00000000000E+00  0.00000000000E+00  0.28640338184E+04  0.28640338184E+04  0.25500000920E-02 0.  1.
        2   -1    0    0  501    0  0.00000000000E+00  0.00000000000E+00 -0.13993080177E+04  0.13993080177E+04  0.25500000920E-02 0. -1.
    10030    2    1    2    0    0  0.00000000000E+00  0.00000000000E+00  0.14647258007E+04  0.42633418360E+04  0.40038309080E+04 0.  0.
        5    1    3    3  502    0  0.18658732670E+04  0.68984187453E+02  0.15012464654E+04  0.23958307341E+04  0.46999998093E+01 0.  1.
       -5    1    3    3    0  502 -0.18658732670E+04 -0.68984187453E+02 -0.36520664716E+02  0.18675111019E+04  0.46999998093E+01 0. -1.
</event>
<event>
 5   0  0.2384787E-07  0.3856117E+04  0.7818609E-02  0.8034219E-01
        2   -1    0    0  501    0  0.00000000000E+00  0.00000000000E+00  0.24523757086E+04  0.24523757086E+04  0.25500000920E-02 0. -1.
       -2   -1    0    0    0  501  0.00000000000E+00  0.00000000000E+00 -0.15158398206E+04  0.15158398207E+04  0.25500000920E-02 0.  1.
    10030    2    1    2    0    0  0.00000000000E+00  0.00000000000E+00  0.93653588790E+03  0.39682155292E+04  0.38561165720E+04 0.  0.
        4    1    3    3  502    0  0.11021909923E+04 -0.13343961215E+04 -0.40612051723E+03  0.17777439298E+04  0.12699999809E+01 0.  1.
       -4    1    3    3    0  502 -0.11021909923E+04  0.13343961215E+04  0.13426564051E+04  0.21904715994E+04  0.12699999809E+01 0. -1.
</event>
<event>
 5   0  0.2384787E-07  0.4006194E+04  0.7818609E-02  0.8003298E-01
       -2   -1    0    0    0  501  0.00000000000E+00  0.00000000000E+00  0.17976927820E+04  0.17976927820E+04  0.25500000920E-02 0. -1.
        2   -1    0    0  501    0  0.00000000000E+00  0.00000000000E+00 -0.22319703115E+04  0.22319703115E+04  0.25500000920E-02 0.  1.
    10030    2    1    2    0    0  0.00000000000E+00  0.00000000000E+00 -0.43427752941E+03  0.40296630935E+04  0.40061936641E+04 0.  0.
        4    1    3    3  502    0  0.18253253511E+04 -0.81649942729E+03 -0.33577612933E+03  0.20276171173E+04  0.12699999809E+01 0. -1.
       -4    1    3    3    0  502 -0.18253253511E+04  0.81649942729E+03 -0.98501400082E+02  0.20020459762E+04  0.12699999809E+01 0.  1.
</event>
<event>
 5   0  0.7675750E-08  0.3905871E+04  0.7818609E-02  0.8023809E-01
       -3   -1    0    0    0  501  0.00000000000E+00  0.00000000000E+00  0.16696617578E+04  0.16696617609E+04  0.10100000352E+00 0. -1.
        3   -1    0    0  501    0  0.00000000000E+00  0.00000000000E+00 -0.22842695800E+04  0.22842695822E+04  0.10100000352E+00 0.  1.
    10030    2    1    2    0    0  0.00000000000E+00  0.00000000000E+00 -0.61460782218E+03  0.39539313431E+04  0.39058712588E+04 0.  0.
        3    1    3    3  502    0 -0.59178266705E+03 -0.28274600110E+03 -0.21694506369E+04  0.22664218721E+04  0.10100000352E+00 0.  1.
       -3    1    3    3    0  502  0.59178266705E+03  0.28274600110E+03  0.15548428147E+04  0.16875094710E+04  0.10100000352E+00 0. -1.
</event>
<event>
 5   0  0.7675750E-08  0.3907101E+04  0.7818609E-02  0.8023554E-01
       -3   -1    0    0    0  501  0.00000000000E+00  0.00000000000E+00  0.17379387387E+04  0.17379387416E+04  0.10100000352E+00 0.  1.
        3   -1    0    0  501    0  0.00000000000E+00  0.00000000000E+00 -0.21959114700E+04  0.21959114723E+04  0.10100000352E+00 0. -1.
    10030    2    1    2    0    0  0.00000000000E+00  0.00000000000E+00 -0.45797273130E+03  0.39338502140E+04  0.39071010332E+04 0.  0.
        4    1    3    3  502    0 -0.77231820171E+03 -0.17918579018E+04 -0.13279242046E+03  0.19557263573E+04  0.12699999809E+01 0. -1.
       -4    1    3    3    0  502  0.77231820171E+03  0.17918579018E+04 -0.32518031084E+03  0.19781238567E+04  0.12699999809E+01 0.  1.
</event>
<event>
 5   0  0.2384787E-07  0.3879175E+04  0.7818609E-02  0.8029374E-01
       -2   -1    0    0    0  501  0.00000000000E+00  0.00000000000E+00  0.14942351609E+04  0.14942351609E+04  0.25500000920E-02 0. -1.
        2   -1    0    0  501    0  0.00000000000E+00  0.00000000000E+00 -0.25176753423E+04  0.25176753423E+04  0.25500000920E-02 0.  1.
    10030    2    1    2    0    0  0.00000000000E+00  0.00000000000E+00 -0.10234401814E+04  0.40119105032E+04  0.38791746649E+04 0.  0.
        4    1    3    3  502    0  0.63939229194E+03  0.18154628273E+04 -0.75921944966E+03  0.20690924499E+04  0.12699999809E+01 0. -1.
       -4    1    3    3    0  502 -0.63939229194E+03 -0.18154628273E+04 -0.26422073175E+03  0.19428180534E+04  0.12699999809E+01 0.  1.
</event>
<event>
 5   0  0.2486268E-07  0.3862392E+04  0.7818609E-02  0.8032897E-01
       -2   -1    0    0    0  501  0.00000000000E+00  0.00000000000E+00  0.21173352029E+04  0.21173352029E+04  0.25500000920E-02 0.  1.
        2   -1    0    0  501    0  0.00000000000E+00  0.00000000000E+00 -0.17614208834E+04  0.17614208834E+04  0.25500000920E-02 0. -1.
    10030    2    1    2    0    0  0.00000000000E+00  0.00000000000E+00  0.35591431954E+03  0.38787560863E+04  0.38623922346E+04 0.  0.
        5    1    3    3  502    0 -0.13665110154E+04 -0.11706117173E+04 -0.52630725721E+03  0.18747548018E+04  0.46999998093E+01 0. -1.
       -5    1    3    3    0  502  0.13665110154E+04  0.11706117173E+04  0.88222157675E+03  0.20040012845E+04  0.46999998093E+01 0.  1.
</event>
<event>
 5   0  0.7675750E-08  0.4077325E+04  0.7818609E-02  0.7989127E-01
       -1   -1    0    0    0  501  0.00000000000E+00  0.00000000000E+00  0.22780398757E+04  0.22780398758E+04  0.50400001928E-02 0.  1.
        1   -1    0    0  501    0  0.00000000000E+00  0.00000000000E+00 -0.18244393445E+04  0.18244393446E+04  0.50400001928E-02 0. -1.
    10030    2    1    2    0    0  0.00000000000E+00  0.00000000000E+00  0.45360053120E+03  0.41024792203E+04  0.40773253870E+04 0.  0.
        5    1    3    3  502    0  0.13098047462E+04  0.98850802637E+03  0.14439684719E+04  0.21858187549E+04  0.46999998093E+01 0.  1.
       -5    1    3    3    0  502 -0.13098047462E+04 -0.98850802637E+03 -0.99036794074E+03  0.19166604654E+04  0.46999998093E+01 0. -1.
</event>
<event>
 5   0  0.2384787E-07  0.3913218E+04  0.7818609E-02  0.8022286E-01
       -2   -1    0    0    0  501  0.00000000000E+00  0.00000000000E+00  0.12315215036E+04  0.12315215037E+04  0.25500000920E-02 0.  1.
        2   -1    0    0  501    0  0.00000000000E+00  0.00000000000E+00 -0.31086093774E+04  0.31086093774E+04  0.25500000920E-02 0. -1.
    10030    2    1    2    0    0  0.00000000000E+00  0.00000000000E+00 -0.18770878738E+04  0.43401308811E+04  0.39132182637E+04 0.  0.
        4    1    3    3  502    0 -0.14760679346E+04 -0.50330119925E+03 -0.22490743000E+04  0.27368641662E+04  0.12699999809E+01 0. -1.
       -4    1    3    3    0  502  0.14760679346E+04  0.50330119925E+03  0.37198642622E+03  0.16032667148E+04  0.12699999809E+01 0.  1.
</event>
<event>
 5   0  0.2446281E-07  0.3901522E+04  0.7818609E-02  0.8024713E-01
       -2   -1    0    0    0  501  0.00000000000E+00  0.00000000000E+00  0.14043848668E+04  0.14043848668E+04  0.25500000920E-02 0. -1.
        2   -1    0    0  501    0  0.00000000000E+00  0.00000000000E+00 -0.27097042728E+04  0.27097042728E+04  0.25500000920E-02 0.  1.
    10030    2    1    2    0    0  0.00000000000E+00  0.00000000000E+00 -0.13053194061E+04  0.41140891396E+04  0.39015215874E+04 0.  0.
        1    1    3    3  502    0 -0.16080329068E+04  0.11040711335E+04 -0.62427124301E+03  0.20480374709E+04  0.50400001928E-02 0. -1.
       -1    1    3    3    0  502  0.16080329068E+04 -0.11040711335E+04 -0.68104816308E+03  0.20660516687E+04  0.50400001928E-02 0.  1.
</event>
<event>
 5   0  0.7731706E-08  0.3424767E+04  0.7818609E-02  0.8131854E-01
        1   -1    0    0  501    0  0.00000000000E+00  0.00000000000E+00  0.20824599553E+04  0.20824599553E+04  0.50400001928E-02 0. -1.
       -1   -1    0    0    0  501  0.00000000000E+00  0.00000000000E+00 -0.14080735793E+04  0.14080735794E+04  0.50400001928E-02 0.  1.
    10030    2    1    2    0    0  0.00000000000E+00  0.00000000000E+00  0.67438637591E+03  0.34905335346E+04  0.34247667617E+04 0.  0.
        3    1    3    3  502    0  0.83980042524E+03 -0.84117433446E+03 -0.91912434952E+03  0.15025407133E+04  0.10100000352E+00 0.  1.
       -3    1    3    3    0  502 -0.83980042524E+03  0.84117433446E+03  0.15935107254E+04  0.19879928213E+04  0.10100000352E+00 0. -1.
</event>
<event>
 5   0  0.2395572E-07  0.4085007E+04  0.7818609E-02  0.7987614E-01
       -2   -1    0    0    0  501  0.00000000000E+00  0.00000000000E+00  0.19744992558E+04  0.19744992558E+04  0.25500000920E-02 0.  1.
        2   -1    0    0  501    0  0.00000000000E+00  0.00000000000E+00 -0.21128494143E+04  0.21128494143E+04  0.25500000920E-02 0. -1.
    10030    2    1    2    0    0  0.00000000000E+00  0.00000000000E+00 -0.13835015849E+03  0.40873486701E+04  0.40850065342E+04 0.  0.
        3    1    3    3  502    0 -0.59385600321E+03  0.19217065138E+04  0.28627317494E+03  0.20316429851E+04  0.10100000352E+00 0. -1.
       -3    1    3    3    0  502  0.59385600321E+03 -0.19217065138E+04 -0.42462333342E+03  0.20557056850E+04  0.10100000352E+00 0.  1.
</event>
<event>
 5   0  0.7731706E-08  0.3701218E+04  0.7818609E-02  0.8067692E-01
        1   -1    0    0  501    0  0.00000000000E+00  0.00000000000E+00  0.11946202489E+04  0.11946202489E+04  0.50400001928E-02 0. -1.
       -1   -1    0    0    0  501  0.00000000000E+00  0.00000000000E+00 -0.28668134488E+04  0.28668134488E+04  0.50400001928E-02 0.  1.
    10030    2    1    2    0    0  0.00000000000E+00  0.00000000000E+00 -0.16721931999E+04  0.40614336977E+04  0.37012178514E+04 0.  0.
        3    1    3    3  502    0 -0.72374228675E+03 -0.79369519290E+03  0.81755165366E+03  0.13498687616E+04  0.10100000352E+00 0. -1.
       -3    1    3    3    0  502  0.72374228675E+03  0.79369519290E+03 -0.24897448536E+04  0.27115649362E+04  0.10100000352E+00 0.  1.
</event>
<event>
 5   0  0.7675750E-08  0.3856619E+04  0.7818609E-02  0.8034113E-01
        1   -1    0    0  501    0  0.00000000000E+00  0.00000000000E+00  0.19921609573E+04  0.19921609573E+04  0.50400001928E-02 0. -1.
       -1   -1    0    0    0  501  0.00000000000E+00  0.00000000000E+00 -0.18665046813E+04  0.18665046813E+04  0.50400001928E-02 0.  1.
    10030    2    1    2    0    0  0.00000000000E+00  0.00000000000E+00  0.12565627602E+03  0.38586656386E+04  0.38566191166E+04 0.  0.
        5    1    3    3  502    0  0.71205403652E+03 -0.12801592260E+04  0.13174979908E+04  0.19701907625E+04  0.46999998093E+01 0. -1.
       -5    1    3    3    0  502 -0.71205403652E+03  0.12801592260E+04 -0.11918417148E+04  0.18884748761E+04  0.46999998093E+01 0.  1.
</event>
<event>
 5   0  0.7675750E-08  0.3823403E+04  0.7818609E-02  0.8041151E-01
       -1   -1    0    0    0  501  0.00000000000E+00  0.00000000000E+00  0.22550181376E+04  0.22550181376E+04  0.50400001928E-02 0. -1.
        1   -1    0    0  501    0  0.00000000000E+00  0.00000000000E+00 -0.16206536070E+04  0.16206536070E+04  0.50400001928E-02 0.  1.
    10030    2    1    2    0    0  0.00000000000E+00  0.00000000000E+00  0.63436453067E+03  0.38756717446E+04  0.38234033418E+04 0.  0.
        1    1    3    3  502    0 -0.18513426534E+04 -0.40913614332E+03  0.69420598930E+02  0.18972825893E+04  0.50400001928E-02 0.  1.
       -1    1    3    3    0  502  0.18513426534E+04  0.40913614332E+03  0.56494393174E+03  0.19783891553E+04  0.50400001928E-02 0. -1.
</event>
<event>
 5   0  0.7675750E-08  0.3887895E+04  0.7818609E-02  0.8027551E-01
       -1   -1    0    0    0  501  0.00000000000E+00  0.00000000000E+00  0.31159781986E+04  0.31159781987E+04  0.50400001928E-02 0.  1.
        1   -1    0    0  501    0  0.00000000000E+00  0.00000000000E+00 -0.12127596483E+04  0.12127596483E+04  0.50400001928E-02 0. -1.
    10030    2    1    2    0    0  0.00000000000E+00  0.00000000000E+00  0.19032185503E+04  0.43287378470E+04  0.38878953815E+04 0.  0.
        1    1    3    3  502    0 -0.12263471111E+04  0.52459588713E+03 -0.62288284143E+03  0.14721111085E+04  0.50400001928E-02 0. -1.
       -1    1    3    3    0  502  0.12263471111E+04 -0.52459588713E+03  0.25261013917E+04  0.28566267385E+04  0.50400001928E-02 0.  1.
</event>
<event>
 5   0  0.2395572E-07  0.3674640E+04  0.7818609E-02  0.8073605E-01
        2   -1    0    0  501    0  0.00000000000E+00  0.00000000000E+00  0.21171874299E+04  0.21171874299E+04  0.25500000920E-02 0. -1.
       -2   -1    0    0    0  501  0.00000000000E+00  0.00000000000E+00 -0.15944476232E+04  0.15944476232E+04  0.25500000920E-02 0.  1.
    10030    2    1    2    0    0  0.00000000000E+00  0.00000000000E+00  0.52273980671E+03  0.37116350530E+04  0.36746398274E+04 0.  0.
        3    1    3    3  502    0  0.14161799904E+04  0.45287726177E+03  0.13516260066E+04  0.20093671769E+04  0.10100000352E+00 0. -1.
       -3    1    3    3    0  502 -0.14161799904E+04 -0.45287726177E+03 -0.82888619993E+03  0.17022678761E+04  0.10100000352E+00 0.  1.
</event>
<event>
 5   0  0.7675750E-08  0.3862096E+04  0.7818609E-02  0.8032959E-01
       -1   -1    0    0    0  501  0.00000000000E+00  0.00000000000E+00  0.18426802781E+04  0.18426802781E+04  0.50400001928E-02 0. -1.
        1   -1    0    0  501    0  0.00000000000E+00  0.00000000000E+00 -0.20236532442E+04  0.20236532442E+04  0.50400001928E-02 0.  1.
    10030    2    1    2    0    0  0.00000000000E+00  0.00000000000E+00 -0.18097296614E+03  0.38663335223E+04  0.38620957641E+04 0.  0.
        1    1    3    3  502    0 -0.80465239722E+02 -0.24835895293E+03 -0.20059047787E+04  0.20228224849E+04  0.50400001928E-02 0.  1.
       -1    1    3    3    0  502  0.80465239722E+02  0.24835895293E+03  0.18249318126E+04  0.18435110373E+04  0.50400001928E-02 0. -1.
</event>
<event>
 5   0  0.7675750E-08  0.3891487E+04  0.7818609E-02  0.8026802E-01
        1   -1    0    0  501    0  0.00000000000E+00  0.00000000000E+00  0.23852430354E+04  0.23852430354E+04  0.50400001928E-02 0.  1.
       -1   -1    0    0    0  501  0.00000000000E+00  0.00000000000E+00 -0.15872249040E+04  0.15872249040E+04  0.50400001928E-02 0. -1.
    10030    2    1    2    0    0  0.00000000000E+00  0.00000000000E+00  0.79801813134E+03  0.39724679394E+04  0.38914866814E+04 0.  0.
        2    1    3    3  502    0 -0.86341744933E+03 -0.69513241807E+03  0.20314172399E+04  0.23141639469E+04  0.25500000920E-02 0.  1.
       -2    1    3    3    0  502  0.86341744933E+03  0.69513241807E+03 -0.12333991086E+04  0.16583039925E+04  0.25500000920E-02 0. -1.
</event>
<event>
 5   0  0.7675750E-08  0.3895472E+04  0.7818609E-02  0.8025972E-01
       -1   -1    0    0    0  501  0.00000000000E+00  0.00000000000E+00  0.36577022171E+04  0.36577022171E+04  0.50400001928E-02 0. -1.
        1   -1    0    0  501    0  0.00000000000E+00  0.00000000000E+00 -0.10371743470E+04  0.10371743470E+04  0.50400001928E-02 0.  1.
    10030    2    1    2    0    0  0.00000000000E+00  0.00000000000E+00  0.26205278701E+04  0.46948765642E+04  0.38954716832E+04 0.  0.
        5    1    3    3  502    0  0.11147836168E+04  0.14682764183E+04  0.20678007045E+04  0.27702707442E+04  0.46999998093E+01 0.  1.
       -5    1    3    3    0  502 -0.11147836168E+04 -0.14682764183E+04  0.55272716560E+03  0.19246058200E+04  0.46999998093E+01 0. -1.
</event>
<event>
 5   0  0.2384787E-07  0.3750392E+04  0.7818609E-02  0.8056885E-01
       -2   -1    0    0    0  501  0.00000000000E+00  0.00000000000E+00  0.35855262813E+04  0.35855262813E+04  0.25500000920E-02 0. -1.
        2   -1    0    0  501    0  0.00000000000E+00  0.00000000000E+00 -0.98070972868E+03  0.98070972868E+03  0.25500000920E-02 0.  1.
    10030    2    1    2    0    0  0.00000000000E+00  0.00000000000E+00  0.26048165526E+04  0.45662360100E+04  0.37503922496E+04 0.  0.
        4    1    3    3  502    0 -0.11296239460E+04 -0.66829562395E+02  0.31229568060E+04  0.33216527927E+04  0.12699999809E+01 0. -1.
       -4    1    3    3    0  502  0.11296239460E+04  0.66829562395E+02 -0.51814025341E+03  0.12445832173E+04  0.12699999809E+01 0.  1.
</event>
<event>
 5   0  0.2395572E-07  0.3899891E+04  0.7818609E-02  0.8025052E-01
       -2   -1    0    0    0  501  0.00000000000E+00  0.00000000000E+00  0.17476129521E+04  0.17476129521E+04  0.25500000920E-02 0. -1.
        2   -1    0    0  501    0  0.00000000000E+00  0.00000000000E+00 -0.21757034995E+04  0.21757034995E+04  0.25500000920E-02 0.  1.
    10030    2    1    2    0    0  0.00000000000E+00  0.00000000000E+00 -0.42809054734E+03  0.39233164516E+04  0.38998910834E+04 0.  0.
        3    1    3    3  502    0  0.10630816013E+04 -0.12050557685E+04  0.89711890659E+03  0.18404141488E+04  0.10100000352E+00 0. -1.
       -3    1    3    3    0  502 -0.10630816013E+04  0.12050557685E+04 -0.13252094539E+04  0.20829023028E+04  0.10100000352E+00 0.  1.
</event>
<event>
 5   0  0.7675750E-08  0.3403110E+04  0.7818609E-02  0.8137143E-01
        1   -1    0    0  501    0  0.00000000000E+00  0.00000000000E+00  0.19116218540E+04  0.19116218540E+04  0.50400001928E-02 0.  1.
       -1   -1    0    0    0  501  0.00000000000E+00  0.00000000000E+00 -0.15145721970E+04  0.15145721970E+04  0.50400001928E-02 0. -1.
    10030    2    1    2    0    0  0.00000000000E+00  0.00000000000E+00  0.39704965697E+03  0.34261940510E+04  0.34031099372E+04 0.  0.
        1    1    3    3  502    0 -0.12270899330E+03  0.11212317909E+04 -0.10841150782E+04  0.15644563684E+04  0.50400001928E-02 0. -1.
       -1    1    3    3    0  502  0.12270899330E+03 -0.11212317909E+04  0.14811647352E+04  0.18617376826E+04  0.50400001928E-02 0.  1.
</event>
<event>
 5   0  0.7675750E-08  0.3567150E+04  0.7818609E-02  0.8098058E-01
       -1   -1    0    0    0  501  0.00000000000E+00  0.00000000000E+00  0.17494633080E+04  0.17494633080E+04  0.50400001928E-02 0.  1.
        1   -1    0    0  501    0  0.00000000000E+00  0.00000000000E+00 -0.18183514720E+04  0.18183514720E+04  0.50400001928E-02 0. -1.
    10030    2    1    2    0    0  0.00000000000E+00  0.00000000000E+00 -0.68888163989E+02  0.35678147800E+04  0.35671496640E+04 0.  0.
        2    1    3    3  502    0  0.17894163829E+03  0.66435727315E+02 -0.18081064435E+04  0.18181536587E+04  0.25500000920E-02 0. -1.
       -2    1    3    3    0  502 -0.17894163829E+03 -0.66435727315E+02  0.17392182795E+04  0.17496611213E+04  0.25500000920E-02 0.  1.
</event>
<event>
 5   0  0.7675750E-08  0.3897413E+04  0.7818609E-02  0.8025567E-01
       -1   -1    0    0    0  501  0.00000000000E+00  0.00000000000E+00  0.20124086273E+04  0.20124086273E+04  0.50400001928E-02 0. -1.
        1   -1    0    0  501    0  0.00000000000E+00  0.00000000000E+00 -0.18870211340E+04  0.18870211340E+04  0.50400001928E-02 0.  1.
    10030    2    1    2    0    0  0.00000000000E+00  0.00000000000E+00  0.12538749331E+03  0.38994297613E+04  0.38974133011E+04 0.  0.
        4    1    3    3  502    0 -0.60036645653E+03 -0.14638512797E+03 -0.17863932620E+04  0.18902568575E+04  0.12699999809E+01 0.  1.
       -4    1    3    3    0  502  0.60036645653E+03  0.14638512797E+03  0.19117807553E+04  0.20091729038E+04  0.12699999809E+01 0. -1.
</event>
<event>
 5   0  0.7731706E-08  0.3918911E+04  0.7818609E-02  0.8021108E-01
       -1   -1    0    0    0  501  0.00000000000E+00  0.00000000000E+00  0.22721037202E+04  0.22721037202E+04  0.50400001928E-02 0. -1.
        1   -1    0    0  501    0  0.00000000000E+00  0.00000000000E+00 -0.16898282470E+04  0.16898282470E+04  0.50400001928E-02 0.  1.
    10030    2    1    2    0    0  0.00000000000E+00  0.00000000000E+00  0.58227547326E+03  0.39619319672E+04  0.39189105866E+04 0.  0.
        3    1    3    3  502    0  0.19189950943E+04  0.36249970555E+03  0.12964425417E+03  0.19572316806E+04  0.10100000352E+00 0.  1.
       -3    1    3    3    0  502 -0.19189950943E+04 -0.36249970555E+03  0.45263121909E+03  0.20047002866E+04  0.10100000352E+00 0. -1.
</event>
<event>
 5   0  0.7675750E-08  0.3770604E+04  0.7818609E-02  0.8052493E-01
       -1   -1    0    0    0  501  0.00000000000E+00  0.00000000000E+00  0.16153733428E+04  0.16153733428E+04  0.50400001928E-02 0.  1.
        1   -1    0    0  501    0  0.00000000000E+00  0.00000000000E+00 -0.22003358826E+04  0.22003358826E+04  0.50400001928E-02 0. -1.
    10030    2    1    2    0    0  0.00000000000E+00  0.00000000000E+00 -0.58496253976E+03  0.38157092254E+04  0.37706041585E+04 0.  0.
        1    1    3    3  502    0 -0.12369354379E+04 -0.10205853611E+04 -0.12956826108E+04  0.20616491420E+04  0.50400001928E-02 0. -1.
       -1    1    3    3    0  502  0.12369354379E+04  0.10205853611E+04  0.71072007104E+03  0.17540600834E+04  0.50400001928E-02 0.  1.
</event>
<event>
 5   0  0.2384787E-07  0.3898727E+04  0.7818609E-02  0.8025294E-01
        2   -1    0    0  501    0  0.00000000000E+00  0.00000000000E+00  0.24567147754E+04  0.24567147754E+04  0.25500000920E-02 0. -1.
       -2   -1    0    0    0  501  0.00000000000E+00  0.00000000000E+00 -0.15467886590E+04  0.15467886590E+04  0.25500000920E-02 0.  1.
    10030    2    1    2    0    0  0.00000000000E+00  0.00000000000E+00  0.90992611641E+03  0.40035034345E+04  0.38987272554E+04 0.  0.
        4    1    3    3  502    0 -0.18313377047E+04  0.39578744604E+03 -0.97617016870E+02  0.18761599574E+04  0.12699999809E+01 0.  1.
       -4    1    3    3    0  502  0.18313377047E+04 -0.39578744604E+03  0.10075431333E+04  0.21273434770E+04  0.12699999809E+01 0. -1.
</event>
<event>
 5   0  0.2384787E-07  0.3862583E+04  0.7818609E-02  0.8032857E-01
       -2   -1    0    0    0  501  0.00000000000E+00  0.00000000000E+00  0.21047241689E+04  0.21047241689E+04  0.25500000920E-02 0.  1.
        2   -1    0    0  501    0  0.00000000000E+00  0.00000000000E+00 -0.17721495209E+04  0.17721495209E+04  0.25500000920E-02 0. -1.
    10030    2    1    2    0    0  0.00000000000E+00  0.00000000000E+00  0.33257464798E+03  0.38768736897E+04  0.38625825182E+04 0.  0.
        4    1    3    3  502    0 -0.50797287082E+03  0.99201433965E+03  0.17493850400E+04  0.20742416731E+04  0.12699999809E+01 0.  1.
       -4    1    3    3    0  502  0.50797287082E+03 -0.99201433965E+03 -0.14168103920E+04  0.18026320166E+04  0.12699999809E+01 0. -1.
</event>
<event>
 5   0  0.7731706E-08  0.3153188E+04  0.7818609E-02  0.8201291E-01
        1   -1    0    0  501    0  0.00000000000E+00  0.00000000000E+00  0.12479870872E+04  0.12479870872E+04  0.50400001928E-02 0. -1.
       -1   -1    0    0    0  501  0.00000000000E+00  0.00000000000E+00 -0.19917257260E+04  0.19917257260E+04  0.50400001928E-02 0.  1.
    10030    2    1    2    0    0  0.00000000000E+00  0.00000000000E+00 -0.74373863880E+03  0.32397128132E+04  0.31531875854E+04 0.  0.
        3    1    3    3  502    0 -0.82234396209E+02  0.57990868107E+03  0.11320563931E+04  0.12746012168E+04  0.10100000352E+00 0. -1.
       -3    1    3    3    0  502  0.82234396209E+02 -0.57990868107E+03 -0.18757950319E+04  0.19651115964E+04  0.10100000352E+00 0.  1.
</event>
<event>
 5   0  0.7675750E-08  0.3893608E+04  0.7818609E-02  0.8026360E-01
        1   -1    0    0  501    0  0.00000000000E+00  0.00000000000E+00  0.15039568371E+04  0.15039568371E+04  0.50400001928E-02 0. -1.
       -1   -1    0    0    0  501  0.00000000000E+00  0.00000000000E+00 -0.25200494212E+04  0.25200494212E+04  0.50400001928E-02 0.  1.
    10030    2    1    2    0    0  0.00000000000E+00  0.00000000000E+00 -0.10160925840E+04  0.40240062583E+04  0.38936078677E+04 0.  0.
        4    1    3    3  502    0 -0.67384984742E+03 -0.89240229096E+03 -0.21550254780E+04  0.24278780631E+04  0.12699999809E+01 0.  1.
       -4    1    3    3    0  502  0.67384984742E+03  0.89240229096E+03  0.11389328939E+04  0.15961281952E+04  0.12699999809E+01 0. -1.
</event>
<event>
 5   0  0.2384787E-07  0.3898925E+04  0.7818609E-02  0.8025253E-01
       -2   -1    0    0    0  501  0.00000000000E+00  0.00000000000E+00  0.22038407618E+04  0.22038407618E+04  0.25500000920E-02 0. -1.
        2   -1    0    0  501    0  0.00000000000E+00  0.00000000000E+00 -0.17244455527E+04  0.17244455527E+04  0.25500000920E-02 0.  1.
    10030    2    1    2    0    0  0.00000000000E+00  0.00000000000E+00  0.47939520906E+03  0.39282863145E+04  0.38989246726E+04 0.  0.
        4    1    3    3  502    0 -0.15321562579E+04 -0.11731130921E+04 -0.39344134824E+02  0.19300898164E+04  0.12699999809E+01 0.  1.
       -4    1    3    3    0  502  0.15321562579E+04  0.11731130921E+04  0.51873934389E+03  0.19981964981E+04  0.12699999809E+01 0. -1.
</event>
<event>
 5   0  0.2384787E-07  0.3847832E+04  0.7818609E-02  0.8035967E-01
        2   -1    0    0  501    0  0.00000000000E+00  0.00000000000E+00  0.14197299273E+04  0.14197299273E+04  0.25500000920E-02 0.  1.
       -2   -1    0    0    0  501  0.00000000000E+00  0.00000000000E+00 -0.26071532793E+04  0.26071532793E+04  0.25500000920E-02 0. -1.
    10030    2    1    2    0    0  0.00000000000E+00  0.00000000000E+00 -0.11874233520E+04  0.40268832066E+04  0.38478323954E+04 0.  0.
        4    1    3    3  502    0 -0.40021909076E+03 -0.66014207881E+03 -0.24379535873E+04  0.25572606812E+04  0.12699999809E+01 0. -1.
       -4    1    3    3    0  502  0.40021909076E+03  0.66014207881E+03  0.12505302353E+04  0.14696225254E+04  0.12699999809E+01 0.  1.
</event>
<event>
 5   0  0.2486268E-07  0.3871442E+04  0.7818609E-02  0.8030995E-01
        2   -1    0    0  501    0  0.00000000000E+00  0.00000000000E+00  0.17503804095E+04  0.17503804095E+04  0.25500000920E-02 0. -1.
       -2   -1    0    0    0  501  0.00000000000E+00  0.00000000000E+00 -0.21406864861E+04  0.21406864861E+04  0.25500000920E-02 0.  1.
    10030    2    1    2    0    0  0.00000000000E+00  0.00000000000E+00 -0.39030607662E+03  0.38910668955E+04  0.38714419474E+04 0.  0.
        5    1    3    3  502    0 -0.73972994517E+03  0.43938928951E+03  0.15476294202E+04  0.17707180046E+04  0.46999998093E+01 0. -1.
       -5    1    3    3    0  502  0.73972994517E+03 -0.43938928951E+03 -0.19379354968E+04  0.21203488909E+04  0.46999998093E+01 0.  1.
</event>
<event>
 5   0  0.2446281E-07  0.3900372E+04  0.7818609E-02  0.8024952E-01
       -2   -1    0    0    0  501  0.00000000000E+00  0.00000000000E+00  0.27679638265E+04  0.27679638265E+04  0.25500000920E-02 0. -1.
        2   -1    0    0  501    0  0.00000000000E+00  0.00000000000E+00 -0.13740154858E+04  0.13740154858E+04  0.25500000920E-02 0.  1.
    10030    2    1    2    0    0  0.00000000000E+00  0.00000000000E+00  0.13939483407E+04  0.41419793123E+04  0.39003718601E+04 0.  0.
        1    1    3    3  502    0 -0.42207206814E+03  0.95728194744E+03  0.24447337521E+04  0.26591834604E+04  0.50400001928E-02 0. -1.
       -1    1    3    3    0  502  0.42207206814E+03 -0.95728194744E+03 -0.10507854114E+04  0.14827958519E+04  0.50400001928E-02 0.  1.
</event>
<event>
 5   0  0.7675750E-08  0.3931223E+04  0.7818609E-02  0.8018567E-01
       -3   -1    0    0    0  501  0.00000000000E+00  0.00000000000E+00  0.17032674288E+04  0.17032674317E+04  0.10100000352E+00 0.  1.
        3   -1    0    0  501    0  0.00000000000E+00  0.00000000000E+00 -0.22683631146E+04  0.22683631169E+04  0.10100000352E+00 0. -1.
    10030    2    1    2    0    0  0.00000000000E+00  0.00000000000E+00 -0.56509568587E+03  0.39716305486E+04  0.39312232295E+04 0.  0.
        3    1    3    3  502    0  0.16948087610E+04 -0.74948812416E+03 -0.94466180252E+03  0.20800228642E+04  0.10100000352E+00 0. -1.
       -3    1    3    3    0  502 -0.16948087610E+04  0.74948812416E+03  0.37956611665E+03  0.18916076844E+04  0.10100000352E+00 0.  1.
</event>
<event>
 5   0  0.2486268E-07  0.3863809E+04  0.7818609E-02  0.8032599E-01
        2   -1    0    0  501    0  0.00000000000E+00  0.00000000000E+00  0.19742219676E+04  0.19742219676E+04  0.25500000920E-02 0. -1.
       -2   -1    0    0    0  501  0.00000000000E+00  0.00000000000E+00 -0.18904936514E+04  0.18904936514E+04  0.25500000920E-02 0.  1.
    10030    2    1    2    0    0  0.00000000000E+00  0.00000000000E+00  0.83728316277E+02  0.38647156190E+04  0.38638085337E+04 0.  0.
        5    1    3    3  502    0  0.10772904554E+04  0.11572462799E+04  0.11522861822E+04  0.19564148878E+04  0.46999998093E+01 0. -1.
       -5    1    3    3    0  502 -0.10772904554E+04 -0.11572462799E+04 -0.10685578659E+04  0.19083007312E+04  0.46999998093E+01 0.  1.
</event>
<event>
 5   0  0.7675750E-08  0.3836063E+04  0.7818609E-02  0.8038460E-01
        1   -1    0    0  501    0  0.00000000000E+00  0.00000000000E+00  0.13812438045E+04  0.13812438045E+04  0.50400001928E-02 0. -1.
       -1   -1    0    0    0  501  0.00000000000E+00  0.00000000000E+00 -0.26634290224E+04  0.26634290224E+04  0.50400001928E-02 0.  1.
    10030    2    1    2    0    0  0.00000000000E+00  0.00000000000E+00 -0.12821852179E+04  0.40446728270E+04  0.38360630006E+04 0.  0.
        2    1    3    3  502    0  0.11006776337E+04 -0.10609110819E+04 -0.18624562870E+04  0.24095159260E+04  0.25500000920E-02 0.  1.
       -2    1    3    3    0  502 -0.11006776337E+04  0.10609110819E+04  0.58027106911E+03  0.16351569009E+04  0.25500000920E-02 0. -1.
</event>
<event>
 5   0  0.2486268E-07  0.3940497E+04  0.7818609E-02  0.8016659E-01
        2   -1    0    0  501    0  0.00000000000E+00  0.00000000000E+00  0.21616533652E+04  0.21616533652E+04  0.25500000920E-02 0. -1.
       -2   -1    0    0    0  501  0.00000000000E+00  0.00000000000E+00 -0.17957914077E+04  0.17957914077E+04  0.25500000920E-02 0.  1.
    10030    2    1    2    0    0  0.00000000000E+00  0.00000000000E+00  0.36586195749E+03  0.39574447729E+04  0.39404966893E+04 0.  0.
        5    1    3    3  502    0 -0.17754086836E+04 -0.20990081920E+03  0.10145759577E+04  0.20556071637E+04  0.46999998093E+01 0. -1.
       -5    1    3    3    0  502  0.17754086836E+04  0.20990081920E+03 -0.64871400019E+03  0.19018376092E+04  0.46999998093E+01 0.  1.
</event>
<event>
 5   0  0.7731706E-08  0.4335283E+04  0.7818609E-02  0.7940126E-01
       -1   -1    0    0    0  501  0.00000000000E+00  0.00000000000E+00  0.15989491640E+04  0.15989491640E+04  0.50400001928E-02 0. -1.
        1   -1    0    0  501    0  0.00000000000E+00  0.00000000000E+00 -0.29385978911E+04  0.29385978911E+04  0.50400001928E-02 0.  1.
    10030    2    1    2    0    0  0.00000000000E+00  0.00000000000E+00 -0.13396487271E+04  0.45375470551E+04  0.43352825243E+04 0.  0.
        3    1    3    3  502    0 -0.47364765217E+03  0.19365661547E+04  0.22077921349E+03  0.20058349985E+04  0.10100000352E+00 0. -1.
       -3    1    3    3    0  502  0.47364765217E+03 -0.19365661547E+04 -0.15604279405E+04  0.25317120566E+04  0.10100000352E+00 0.  1.
</event>
<event>
 5   0  0.7675750E-08  0.3870132E+04  0.7818609E-02  0.8031270E-01
       -1   -1    0    0    0  501  0.00000000000E+00  0.00000000000E+00  0.15199457485E+04  0.15199457485E+04  0.50400001928E-02 0. -1.
        1   -1    0    0  501    0  0.00000000000E+00  0.00000000000E+00 -0.24635620910E+04  0.24635620910E+04  0.50400001928E-02 0.  1.
    10030    2    1    2    0    0  0.00000000000E+00  0.00000000000E+00 -0.94361634256E+03  0.39835078395E+04  0.38701321561E+04 0.  0.
        4    1    3    3  502    0 -0.17362705623E+04  0.36808518517E+03 -0.12653385390E+04  0.21797259920E+04  0.12699999809E+01 0.  1.
       -4    1    3    3    0  502  0.17362705623E+04 -0.36808518517E+03  0.32172219643E+03  0.18037818475E+04  0.12699999809E+01 0. -1.
</event>
<event>
 5   0  0.7675750E-08  0.3880126E+04  0.7818609E-02  0.8029175E-01
       -1   -1    0    0    0  501  0.00000000000E+00  0.00000000000E+00  0.26721805924E+04  0.26721805924E+04  0.50400001928E-02 0.  1.
        1   -1    0    0  501    0  0.00000000000E+00  0.00000000000E+00 -0.14085290053E+04  0.14085290053E+04  0.50400001928E-02 0. -1.
    10030    2    1    2    0    0  0.00000000000E+00  0.00000000000E+00  0.12636515870E+04  0.40807095977E+04  0.38801257051E+04 0.  0.
        5    1    3    3  502    0  0.14773672038E+04  0.12064304810E+04  0.10047454370E+04  0.21558348368E+04  0.46999998093E+01 0.  1.
       -5    1    3    3    0  502 -0.14773672038E+04 -0.12064304810E+04  0.25890615007E+03  0.19248747609E+04  0.46999998093E+01 0. -1.
</event>
<event>
 5   0  0.7731706E-08  0.3854299E+04  0.7818609E-02  0.8034602E-01
       -1   -1    0    0    0  501  0.00000000000E+00  0.00000000000E+00  0.30269560358E+04  0.30269560358E+04  0.50400001928E-02 0. -1.
        1   -1    0    0  501    0  0.00000000000E+00  0.00000000000E+00 -0.12269436226E+04  0.12269436226E+04  0.50400001928E-02 0.  1.
    10030    2    1    2    0    0  0.00000000000E+00  0.00000000000E+00  0.18000124132E+04  0.42538996585E+04  0.38542985894E+04 0.  0.
        3    1    3    3  502    0 -0.71436974597E+03  0.23486587883E+03 -0.10583338084E+04  0.12982898656E+04  0.10100000352E+00 0.  1.
       -3    1    3    3    0  502  0.71436974597E+03 -0.23486587883E+03  0.28583462216E+04  0.29556097929E+04  0.10100000352E+00 0. -1.
</event>
<event>
 5   0  0.2473224E-07  0.3892518E+04  0.7818609E-02  0.8026587E-01
        2   -1    0    0  501    0  0.00000000000E+00  0.00000000000E+00  0.17620581997E+04  0.17620581997E+04  0.25500000920E-02 0. -1.
       -2   -1    0    0    0  501  0.00000000000E+00  0.00000000000E+00 -0.21497158618E+04  0.21497158618E+04  0.25500000920E-02 0.  1.
    10030    2    1    2    0    0  0.00000000000E+00  0.00000000000E+00 -0.38765766212E+03  0.39117740615E+04  0.38925181882E+04 0.  0.
        2    1    3    3  502    0 -0.13589887423E+04  0.96989236390E+02  0.12028908698E+04  0.18174718040E+04  0.25500000920E-02 0.  1.
       -2    1    3    3    0  502  0.13589887423E+04 -0.96989236390E+02 -0.15905485319E+04  0.20943022575E+04  0.25500000920E-02 0. -1.
</event>
<event>
 5   0  0.7675750E-08  0.3891713E+04  0.7818609E-02  0.8026755E-01
        1   -1    0    0  501    0  0.00000000000E+00  0.00000000000E+00  0.15027713885E+04  0.15027713885E+04  0.50400001928E-02 0.  1.
       -1   -1    0    0    0  501  0.00000000000E+00  0.00000000000E+00 -0.25195827176E+04  0.25195827176E+04  0.50400001928E-02 0. -1.
    10030    2    1    2    0    0  0.00000000000E+00  0.00000000000E+00 -0.10168113291E+04  0.40223541061E+04  0.38917126405E+04 0.  0.
        5    1    3    3  502    0 -0.12370539557E+04  0.54021084303E+03 -0.19569536452E+04  0.23773556536E+04  0.46999998093E+01 0. -1.
       -5    1    3    3    0  502  0.12370539557E+04 -0.54021084303E+03  0.94014231615E+03  0.16449984525E+04  0.46999998093E+01 0.  1.
</event>
<event>
 5   0  0.7675750E-08  0.3797808E+04  0.7818609E-02  0.8046625E-01
       -1   -1    0    0    0  501  0.00000000000E+00  0.00000000000E+00  0.17183892814E+04  0.17183892814E+04  0.50400001928E-02 0. -1.
        1   -1    0    0  501    0  0.00000000000E+00  0.00000000000E+00 -0.20983815121E+04  0.20983815121E+04  0.50400001928E-02 0.  1.
    10030    2    1    2    0    0  0.00000000000E+00  0.00000000000E+00 -0.37999223069E+03  0.38167707936E+04  0.37978079461E+04 0.  0.
        2    1    3    3  502    0 -0.37373913867E+03  0.17659854951E+03  0.16726246856E+04  0.17229455390E+04  0.25500000920E-02 0. -1.
       -2    1    3    3    0  502  0.37373913867E+03 -0.17659854951E+03 -0.20526169163E+04  0.20938252546E+04  0.25500000920E-02 0.  1.
</event>
<event>
 5   0  0.7731706E-08  0.3915341E+04  0.7818609E-02  0.8021846E-01
       -1   -1    0    0    0  501  0.00000000000E+00  0.00000000000E+00  0.18644147901E+04  0.18644147901E+04  0.50400001928E-02 0. -1.
        1   -1    0    0  501    0  0.00000000000E+00  0.00000000000E+00 -0.20555902815E+04  0.20555902815E+04  0.50400001928E-02 0.  1.
    10030    2    1    2    0    0  0.00000000000E+00  0.00000000000E+00 -0.19117549145E+03  0.39200050716E+04  0.39153405590E+04 0.  0.
        3    1    3    3  502    0  0.13363455447E+04 -0.23383769757E+03 -0.15086420627E+04  0.20289160572E+04  0.10100000352E+00 0.  1.
       -3    1    3    3    0  502 -0.13363455447E+04  0.23383769757E+03  0.13174665713E+04  0.18910890144E+04  0.10100000352E+00 0. -1.
</event>
<event>
 5   0  0.2446281E-07  0.3963781E+04  0.7818609E-02  0.8011893E-01
        2   -1    0    0  501    0  0.00000000000E+00  0.00000000000E+00  0.31816039443E+04  0.31816039443E+04  0.25500000920E-02 0.  1.
       -2   -1    0    0    0  501  0.00000000000E+00  0.00000000000E+00 -0.12345625632E+04  0.12345625632E+04  0.25500000920E-02 0. -1.
    10030    2    1    2    0    0  0.00000000000E+00  0.00000000000E+00  0.19470413812E+04  0.44161665075E+04  0.39637805795E+04 0.  0.
        1    1    3    3  502    0  0.16107041459E+04 -0.11077729813E+04  0.61017032227E+03  0.20478858967E+04  0.50400001928E-02 0. -1.
       -1    1    3    3    0  502 -0.16107041459E+04  0.11077729813E+04  0.13368710589E+04  0.23682806108E+04  0.50400001928E-02 0.  1.
</event>
<event>
 5   0  0.2473224E-07  0.3782502E+04  0.7818609E-02  0.8049920E-01
       -2   -1    0    0    0  501  0.00000000000E+00  0.00000000000E+00  0.15999698791E+04  0.15999698791E+04  0.25500000920E-02 0. -1.
        2   -1    0    0  501    0  0.00000000000E+00  0.00000000000E+00 -0.22355614530E+04  0.22355614530E+04  0.25500000920E-02 0.  1.
    10030    2    1    2    0    0  0.00000000000E+00  0.00000000000E+00 -0.63559157390E+03  0.38355313320E+04  0.37825023397E+04 0.  0.
        2    1    3    3  502    0 -0.16664946690E+04  0.61607591389E+03  0.33942420832E+03  0.18088567679E+04  0.25500000920E-02 0. -1.
       -2    1    3    3    0  502  0.16664946690E+04 -0.61607591389E+03 -0.97501578222E+03  0.20266745642E+04  0.25500000920E-02 0.  1.
</event>
<event>
 5   0  0.7731706E-08  0.4004699E+04  0.7818609E-02  0.8003599E-01
       -1   -1    0    0    0  501  0.00000000000E+00  0.00000000000E+00  0.17024936740E+04  0.17024936740E+04  0.50400001928E-02 0.  1.
        1   -1    0    0  501    0  0.00000000000E+00  0.00000000000E+00 -0.23550186772E+04  0.23550186772E+04  0.50400001928E-02 0. -1.
    10030    2    1    2    0    0  0.00000000000E+00  0.00000000000E+00 -0.65252500317E+03  0.40575123513E+04  0.40046994395E+04 0.  0.
        3    1    3    3  502    0  0.67203210540E+03 -0.18656680474E+04 -0.60752016109E+03  0.20739877459E+04  0.10100000352E+00 0. -1.
       -3    1    3    3    0  502 -0.67203210540E+03  0.18656680474E+04 -0.45004842086E+02  0.19835246053E+04  0.10100000352E+00 0.  1.
</event>
<event>
 5   0  0.2446281E-07  0.3193443E+04  0.7818609E-02  0.8190551E-01
       -2   -1    0    0    0  501  0.00000000000E+00  0.00000000000E+00  0.17696516819E+04  0.17696516819E+04  0.25500000920E-02 0.  1.
        2   -1    0    0  501    0  0.00000000000E+00  0.00000000000E+00 -0.14406896290E+04  0.14406896290E+04  0.25500000920E-02 0. -1.
    10030    2    1    2    0    0  0.00000000000E+00  0.00000000000E+00  0.32896205286E+03  0.32103413109E+04  0.31934425468E+04 0.  0.
        1    1    3    3  502    0 -0.54091094501E+03 -0.14539734594E+04  0.54449638928E+03  0.16441106377E+04  0.50400001928E-02 0.  1.
       -1    1    3    3    0  502  0.54091094501E+03  0.14539734594E+04 -0.21553433643E+03  0.15662306731E+04  0.50400001928E-02 0. -1.
</event>
<event>
 5   0  0.7675750E-08  0.3871163E+04  0.7818609E-02  0.8031054E-01
       -1   -1    0    0    0  501  0.00000000000E+00  0.00000000000E+00  0.33071633547E+04  0.33071633547E+04  0.50400001928E-02 0.  1.
        1   -1    0    0  501    0  0.00000000000E+00  0.00000000000E+00 -0.11328365770E+04  0.11328365770E+04  0.50400001928E-02 0. -1.
    10030    2    1    2    0    0  0.00000000000E+00  0.00000000000E+00  0.21743267777E+04  0.44399999317E+04  0.38711629334E+04 0.  0.
        1    1    3    3  502    0 -0.14170752298E+03  0.12092116368E+04 -0.63867084433E+03  0.13748360819E+04  0.50400001928E-02 0. -1.
       -1    1    3    3    0  502  0.14170752298E+03 -0.12092116368E+04  0.28129976220E+04  0.30651638498E+04  0.50400001928E-02 0.  1.
</event>
<event>
 5   0  0.7731706E-08  0.3758535E+04  0.7818609E-02  0.8055112E-01
       -1   -1    0    0    0  501  0.00000000000E+00  0.00000000000E+00  0.15273148367E+04  0.15273148367E+04  0.50400001928E-02 0. -1.
        1   -1    0    0  501    0  0.00000000000E+00  0.00000000000E+00 -0.23123233790E+04  0.23123233790E+04  0.50400001928E-02 0.  1.
    10030    2    1    2    0    0  0.00000000000E+00  0.00000000000E+00 -0.78500854233E+03  0.38396382157E+04  0.37585347166E+04 0.  0.
        3    1    3    3  502    0  0.11001572638E+04 -0.14894087893E+04 -0.72030403501E+03  0.19868373008E+04  0.10100000352E+00 0.  1.
       -3    1    3    3    0  502 -0.11001572638E+04  0.14894087893E+04 -0.64704507323E+02  0.18528009149E+04  0.10100000352E+00 0. -1.
</event>
<event>
 5   0  0.2384787E-07  0.3905871E+04  0.7818609E-02  0.8023809E-01
        2   -1    0    0  501    0  0.00000000000E+00  0.00000000000E+00  0.29170940186E+04  0.29170940186E+04  0.25500000920E-02 0.  1.
       -2   -1    0    0    0  501  0.00000000000E+00  0.00000000000E+00 -0.13074509333E+04  0.13074509333E+04  0.25500000920E-02 0. -1.
    10030    2    1    2    0    0  0.00000000000E+00  0.00000000000E+00  0.16096430853E+04  0.42245449519E+04  0.39058711178E+04 0.  0.
        4    1    3    3  502    0  0.68225686001E+03  0.63002470051E+03 -0.10533555823E+04  0.14042667631E+04  0.12699999809E+01 0. -1.
       -4    1    3    3    0  502 -0.68225686001E+03 -0.63002470051E+03  0.26629986676E+04  0.28202781889E+04  0.12699999809E+01 0.  1.
</event>
<event>
 5   0  0.2486268E-07  0.3906539E+04  0.7818609E-02  0.8023671E-01
        2   -1    0    0  501    0  0.00000000000E+00  0.00000000000E+00  0.18025884126E+04  0.18025884126E+04  0.25500000920E-02 0. -1.
       -2   -1    0    0    0  501  0.00000000000E+00  0.00000000000E+00 -0.21165464235E+04  0.21165464235E+04  0.25500000920E-02 0.  1.
    10030    2    1    2    0    0  0.00000000000E+00  0.00000000000E+00 -0.31395801090E+03  0.39191348362E+04  0.39065391629E+04 0.  0.
        5    1    3    3  502    0 -0.48735319637E+03  0.18908327064E+04 -0.10703388723E+03  0.19555663641E+04  0.46999998093E+01 0. -1.
       -5    1    3    3    0  502  0.48735319637E+03 -0.18908327064E+04 -0.20692412367E+03  0.19635684721E+04  0.46999998093E+01 0.  1.
</event>
<event>
 5   0  0.2446281E-07  0.3903762E+04  0.7818609E-02  0.8024247E-01
       -2   -1    0    0    0  501  0.00000000000E+00  0.00000000000E+00  0.27017996858E+04  0.27017996858E+04  0.25500000920E-02 0.  1.
        2   -1    0    0  501    0  0.00000000000E+00  0.00000000000E+00 -0.14101116448E+04  0.14101116448E+04  0.25500000920E-02 0. -1.
    10030    2    1    2    0    0  0.00000000000E+00  0.00000000000E+00  0.12916880410E+04  0.41119113305E+04  0.39037618773E+04 0.  0.
        1    1    3    3  502    0  0.10917059524E+03 -0.79437406660E+03 -0.12286193927E+04  0.14671243945E+04  0.50400001928E-02 0. -1.
       -1    1    3    3    0  502 -0.10917059524E+03  0.79437406660E+03  0.25203074338E+04  0.26447869361E+04  0.50400001928E-02 0.  1.
</event>
<event>
 5   0  0.2486268E-07  0.3893158E+04  0.7818609E-02  0.8026454E-01
        2   -1    0    0  501    0  0.00000000000E+00  0.00000000000E+00  0.20469607575E+04  0.20469607575E+04  0.25500000920E-02 0. -1.
       -2   -1    0    0    0  501  0.00000000000E+00  0.00000000000E+00 -0.18511198597E+04  0.18511198597E+04  0.25500000920E-02 0.  1.
    10030    2    1    2    0    0  0.00000000000E+00  0.00000000000E+00  0.19584089777E+03  0.38980806172E+04  0.38931579523E+04 0.  0.
        5    1    3    3  502    0 -0.62695279027E+03 -0.16020548578E+04 -0.81399899883E+03  0.19032251650E+04  0.46999998093E+01 0. -1.
       -5    1    3    3    0  502  0.62695279027E+03  0.16020548578E+04  0.10098398966E+04  0.19948554522E+04  0.46999998093E+01 0.  1.
</event>
<event>
 5   0  0.2384787E-07  0.3838972E+04  0.7818609E-02  0.8037843E-01
        2   -1    0    0  501    0  0.00000000000E+00  0.00000000000E+00  0.24473019806E+04  0.24473019806E+04  0.25500000920E-02 0.  1.
       -2   -1    0    0    0  501  0.00000000000E+00  0.00000000000E+00 -0.15055056260E+04  0.15055056260E+04  0.25500000920E-02 0. -1.
    10030    2    1    2    0    0  0.00000000000E+00  0.00000000000E+00  0.94179635464E+03  0.39528076066E+04  0.38389722064E+04 0.  0.
        4    1    3    3  502    0 -0.16841681604E+04 -0.58777339245E+02  0.14171416752E+04  0.22018558783E+04  0.12699999809E+01 0.  1.
       -4    1    3    3    0  502  0.16841681604E+04  0.58777339245E+02 -0.47534532058E+03  0.17509517283E+04  0.12699999809E+01 0. -1.
</event>
<event>
 5   0  0.7731706E-08  0.3883324E+04  0.7818609E-02  0.8028506E-01
       -1   -1    0    0    0  501  0.00000000000E+00  0.00000000000E+00  0.12177948309E+04  0.12177948309E+04  0.50400001928E-02 0.  1.
        1   -1    0    0  501    0  0.00000000000E+00  0.00000000000E+00 -0.30958015864E+04  0.30958015864E+04  0.50400001928E-02 0. -1.
    10030    2    1    2    0    0  0.00000000000E+00  0.00000000000E+00 -0.18780067555E+04  0.43135964172E+04  0.38833239212E+04 0.  0.
        3    1    3    3  502    0  0.95099368443E+03  0.14740850498E+04 -0.14476387856E+02  0.17542876896E+04  0.10100000352E+00 0.  1.
       -3    1    3    3    0  502 -0.95099368443E+03 -0.14740850498E+04 -0.18635303676E+04  0.25593087276E+04  0.10100000352E+00 0. -1.
</event>
<event>
 5   0  0.7731706E-08  0.3849858E+04  0.7818609E-02  0.8035539E-01
       -1   -1    0    0    0  501  0.00000000000E+00  0.00000000000E+00  0.21236856964E+04  0.21236856964E+04  0.50400001928E-02 0. -1.
        1   -1    0    0  501    0  0.00000000000E+00  0.00000000000E+00 -0.17447740865E+04  0.17447740865E+04  0.50400001928E-02 0.  1.
    10030    2    1    2    0    0  0.00000000000E+00  0.00000000000E+00  0.37891160988E+03  0.38684597829E+04  0.38498580603E+04 0.  0.
        3    1    3    3  502    0  0.93486366470E+03  0.13763667338E+04 -0.78320699664E+03  0.18389585823E+04  0.10100000352E+00 0.  1.
       -3    1    3    3    0  502 -0.93486366470E+03 -0.13763667338E+04  0.11621186065E+04  0.20295012006E+04  0.10100000352E+00 0. -1.
</event>
<event>
 5   0  0.2395572E-07  0.3835284E+04  0.7818609E-02  0.8038625E-01
        2   -1    0    0  501    0  0.00000000000E+00  0.00000000000E+00  0.11345236764E+04  0.11345236764E+04  0.25500000920E-02 0.  1.
       -2   -1    0    0    0  501  0.00000000000E+00  0.00000000000E+00 -0.32413168309E+04  0.32413168309E+04  0.25500000920E-02 0. -1.
    10030    2    1    2    0    0  0.00000000000E+00  0.00000000000E+00 -0.21067931545E+04  0.43758405073E+04  0.38352839203E+04 0.  0.
        3    1    3    3  502    0  0.15023505527E+04 -0.11375476634E+04 -0.14588390112E+04  0.23831246590E+04  0.10100000352E+00 0. -1.
       -3    1    3    3    0  502 -0.15023505527E+04  0.11375476634E+04 -0.64795414330E+03  0.19927158482E+04  0.10100000352E+00 0.  1.
</event>
<event>
 5   0  0.2384787E-07  0.3877741E+04  0.7818609E-02  0.8029675E-01
       -2   -1    0    0    0  501  0.00000000000E+00  0.00000000000E+00  0.16479716046E+04  0.16479716046E+04  0.25500000920E-02 0.  1.
        2   -1    0    0  501    0  0.00000000000E+00  0.00000000000E+00 -0.22811181655E+04  0.22811181655E+04  0.25500000920E-02 0. -1.
    10030    2    1    2    0    0  0.00000000000E+00  0.00000000000E+00 -0.63314656087E+03  0.39290897702E+04  0.38777405605E+04 0.  0.
        4    1    3    3  502    0  0.12877709885E+04  0.11297479734E+04  0.60348829476E+03  0.18162831104E+04  0.12699999809E+01 0.  1.
       -4    1    3    3    0  502 -0.12877709885E+04 -0.11297479734E+04 -0.12366348556E+04  0.21128066597E+04  0.12699999809E+01 0. -1.
</event>
<event>
 5   0  0.7675750E-08  0.3895871E+04  0.7818609E-02  0.8025889E-01
       -1   -1    0    0    0  501  0.00000000000E+00  0.00000000000E+00  0.15352126060E+04  0.15352126060E+04  0.50400001928E-02 0.  1.
        1   -1    0    0  501    0  0.00000000000E+00  0.00000000000E+00 -0.24716137418E+04  0.24716137418E+04  0.50400001928E-02 0. -1.
    10030    2    1    2    0    0  0.00000000000E+00  0.00000000000E+00 -0.93640113573E+03  0.40068263478E+04  0.38958709289E+04 0.  0.
        2    1    3    3  502    0 -0.84977713578E+01 -0.19352023247E+04 -0.69672768710E+03  0.20568202935E+04  0.25500000920E-02 0. -1.
       -2    1    3    3    0  502  0.84977713578E+01  0.19352023247E+04 -0.23967344864E+03  0.19500060543E+04  0.25500000920E-02 0.  1.
</event>
<event>
 5   0  0.7675750E-08  0.3912410E+04  0.7818609E-02  0.8022453E-01
       -1   -1    0    0    0  501  0.00000000000E+00  0.00000000000E+00  0.15798929605E+04  0.15798929605E+04  0.50400001928E-02 0. -1.
        1   -1    0    0  501    0  0.00000000000E+00  0.00000000000E+00 -0.24221499315E+04  0.24221499315E+04  0.50400001928E-02 0.  1.
    10030    2    1    2    0    0  0.00000000000E+00  0.00000000000E+00 -0.84225697100E+03  0.40020428921E+04  0.39124098079E+04 0.  0.
        1    1    3    3  502    0  0.14370833724E+04 -0.61695266107E+03 -0.16231666770E+04  0.22539985064E+04  0.50400001928E-02 0.  1.
       -1    1    3    3    0  502 -0.14370833724E+04  0.61695266107E+03  0.78090970601E+03  0.17480443857E+04  0.50400001928E-02 0. -1.
</event>
<event>
 5   0  0.7675750E-08  0.3913055E+04  0.7818609E-02  0.8022319E-01
        1   -1    0    0  501    0  0.00000000000E+00  0.00000000000E+00  0.32751774104E+04  0.32751774105E+04  0.50400001928E-02 0.  1.
       -1   -1    0    0    0  501  0.00000000000E+00  0.00000000000E+00 -0.11687918072E+04  0.11687918072E+04  0.50400001928E-02 0. -1.
    10030    2    1    2    0    0  0.00000000000E+00  0.00000000000E+00  0.21063856033E+04  0.44439692176E+04  0.39130553405E+04 0.  0.
        2    1    3    3  502    0 -0.64132113811E+03  0.14669569824E+04  0.23303857920E+04  0.28273580477E+04  0.25500000920E-02 0. -1.
       -2    1    3    3    0  502  0.64132113811E+03 -0.14669569824E+04 -0.22400018867E+03  0.16166111700E+04  0.25500000920E-02 0.  1.
</event>
<event>
 5   0  0.2384787E-07  0.4127074E+04  0.7818609E-02  0.7979391E-01
        2   -1    0    0  501    0  0.00000000000E+00  0.00000000000E+00  0.29697552630E+04  0.29697552630E+04  0.25500000920E-02 0. -1.
       -2   -1    0    0    0  501  0.00000000000E+00  0.00000000000E+00 -0.14338502064E+04  0.14338502064E+04  0.25500000920E-02 0.  1.
    10030    2    1    2    0    0  0.00000000000E+00  0.00000000000E+00  0.15359050566E+04  0.44036054694E+04  0.41270736349E+04 0.  0.
        4    1    3    3  502    0  0.21796762070E+03 -0.63105357755E+03 -0.13154247635E+04  0.14751550504E+04  0.12699999809E+01 0.  1.
       -4    1    3    3    0  502 -0.21796762070E+03  0.63105357755E+03  0.28513298200E+04  0.29284504191E+04  0.12699999809E+01 0. -1.
</event>
<event>
 5   0  0.2384787E-07  0.3519668E+04  0.7818609E-02  0.8109145E-01
        2   -1    0    0  501    0  0.00000000000E+00  0.00000000000E+00  0.29677039103E+04  0.29677039103E+04  0.25500000920E-02 0.  1.
       -2   -1    0    0    0  501  0.00000000000E+00  0.00000000000E+00 -0.10435729062E+04  0.10435729062E+04  0.25500000920E-02 0. -1.
    10030    2    1    2    0    0  0.00000000000E+00  0.00000000000E+00  0.19241310041E+04  0.40112768165E+04  0.35196678221E+04 0.  0.
        4    1    3    3  502    0 -0.63862291480E+03 -0.76321547473E+03 -0.69210358709E+03  0.12121658617E+04  0.12699999809E+01 0. -1.
       -4    1    3    3    0  502  0.63862291480E+03  0.76321547473E+03  0.26162345912E+04  0.27991109548E+04  0.12699999809E+01 0.  1.
</event>
<event>
 5   0  0.2486268E-07  0.3922542E+04  0.7818609E-02  0.8020357E-01
        2   -1    0    0  501    0  0.00000000000E+00  0.00000000000E+00  0.24668710281E+04  0.24668710281E+04  0.25500000920E-02 0. -1.
       -2   -1    0    0    0  501  0.00000000000E+00  0.00000000000E+00 -0.15592966032E+04  0.15592966032E+04  0.25500000920E-02 0.  1.
    10030    2    1    2    0    0  0.00000000000E+00  0.00000000000E+00  0.90757442486E+03  0.40261676313E+04  0.39225418364E+04 0.  0.
        5    1    3    3  502    0 -0.92078957066E+03 -0.25227766418E+02 -0.13234494864E+04  0.16124610094E+04  0.46999998093E+01 0.  1.
       -5    1    3    3    0  502  0.92078957066E+03  0.25227766418E+02  0.22310239113E+04  0.24137066219E+04  0.46999998093E+01 0. -1.
</event>
<event>
 5   0  0.7675750E-08  0.3860994E+04  0.7818609E-02  0.8033191E-01
        1   -1    0    0  501    0  0.00000000000E+00  0.00000000000E+00  0.25877498856E+04  0.25877498856E+04  0.50400001928E-02 0. -1.
       -1   -1    0    0    0  501  0.00000000000E+00  0.00000000000E+00 -0.14401774896E+04  0.14401774896E+04  0.50400001928E-02 0.  1.
    10030    2    1    2    0    0  0.00000000000E+00  0.00000000000E+00  0.11475723960E+04  0.40279273752E+04  0.38609942418E+04 0.  0.
        5    1    3    3  502    0 -0.62293113218E+03 -0.13979124255E+03 -0.13268543505E+04  0.14724636989E+04  0.46999998093E+01 0.  1.
       -5    1    3    3    0  502  0.62293113218E+03  0.13979124255E+03  0.24744267465E+04  0.25554636763E+04  0.46999998093E+01 0. -1.
</event>
<event>
 5   0  0.7675750E-08  0.3644535E+04  0.7818609E-02  0.8080366E-01
        1   -1    0    0  501    0  0.00000000000E+00  0.00000000000E+00  0.17190402683E+04  0.17190402683E+04  0.50400001928E-02 0. -1.
       -1   -1    0    0    0  501  0.00000000000E+00  0.00000000000E+00 -0.19316929447E+04  0.19316929447E+04  0.50400001928E-02 0.  1.
    10030    2    1    2    0    0  0.00000000000E+00  0.00000000000E+00 -0.21265267634E+03  0.36507332130E+04  0.36445345151E+04 0.  0.
        2    1    3    3  502    0 -0.12223470648E+04  0.13463610687E+04 -0.22415924431E+03  0.18322302915E+04  0.25500000920E-02 0.  1.
       -2    1    3    3    0  502  0.12223470648E+04 -0.13463610687E+04  0.11506567967E+02  0.18185029215E+04  0.25500000920E-02 0. -1.
</event>
<event>
 5   0  0.2446281E-07  0.3958819E+04  0.7818609E-02  0.8012906E-01
       -2   -1    0    0    0  501  0.00000000000E+00  0.00000000000E+00  0.18718850809E+04  0.18718850809E+04  0.25500000920E-02 0. -1.
        2   -1    0    0  501    0  0.00000000000E+00  0.00000000000E+00 -0.20931104023E+04  0.20931104023E+04  0.25500000920E-02 0.  1.
    10030    2    1    2    0    0  0.00000000000E+00  0.00000000000E+00 -0.22122532135E+03  0.39649954832E+04  0.39588190839E+04 0.  0.
        1    1    3    3  502    0 -0.16512729111E+04  0.66296812991E+03  0.75782326659E+03  0.19340437099E+04  0.50400001928E-02 0. -1.
       -1    1    3    3    0  502  0.16512729111E+04 -0.66296812991E+03 -0.97904858794E+03  0.20309517734E+04  0.50400001928E-02 0.  1.
</event>
<event>
 5   0  0.7675750E-08  0.4041251E+04  0.7818609E-02  0.7996276E-01
        1   -1    0    0  501    0  0.00000000000E+00  0.00000000000E+00  0.28260027154E+04  0.28260027154E+04  0.50400001928E-02 0.  1.
       -1   -1    0    0    0  501  0.00000000000E+00  0.00000000000E+00 -0.14447710144E+04  0.14447710144E+04  0.50400001928E-02 0. -1.
    10030    2    1    2    0    0  0.00000000000E+00  0.00000000000E+00  0.13812317010E+04  0.42707737299E+04  0.40412507024E+04 0.  0.
        4    1    3    3  502    0  0.11665629440E+04  0.39667542563E+02  0.24336814997E+04  0.26991202032E+04  0.12699999809E+01 0.  1.
       -4    1    3    3    0  502 -0.11665629440E+04 -0.39667542563E+02 -0.10524497987E+04  0.15716535267E+04  0.12699999809E+01 0. -1.
</event>
<event>
 5   0  0.2384787E-07  0.3262854E+04  0.7818609E-02  0.8172412E-01
        2   -1    0    0  501    0  0.00000000000E+00  0.00000000000E+00  0.17257057490E+04  0.17257057490E+04  0.25500000920E-02 0. -1.
       -2   -1    0    0    0  501  0.00000000000E+00  0.00000000000E+00 -0.15422989709E+04  0.15422989709E+04  0.25500000920E-02 0.  1.
    10030    2    1    2    0    0  0.00000000000E+00  0.00000000000E+00  0.18340677816E+03  0.32680047199E+04  0.32628540885E+04 0.  0.
        4    1    3    3  502    0  0.12425652850E+04 -0.24752326917E+03  0.11210983057E+04  0.16917740039E+04  0.12699999809E+01 0. -1.
       -4    1    3    3    0  502 -0.12425652850E+04  0.24752326917E+03 -0.93769152753E+03  0.15762307160E+04  0.12699999809E+01 0.  1.
</event>
<event>
 5   0  0.2473224E-07  0.3883700E+04  0.7818609E-02  0.8028428E-01
       -2   -1    0    0    0  501  0.00000000000E+00  0.00000000000E+00  0.20411542296E+04  0.20411542296E+04  0.25500000920E-02 0.  1.
        2   -1    0    0  501    0  0.00000000000E+00  0.00000000000E+00 -0.18473772612E+04  0.18473772612E+04  0.25500000920E-02 0. -1.
    10030    2    1    2    0    0  0.00000000000E+00  0.00000000000E+00  0.19377696839E+03  0.38885314909E+04  0.38837002513E+04 0.  0.
        2    1    3    3  502    0  0.77820994905E+03 -0.13597413472E+04 -0.10518288553E+04  0.18870217797E+04  0.25500000920E-02 0. -1.
       -2    1    3    3    0  502 -0.77820994905E+03  0.13597413472E+04  0.12456058237E+04  0.20015097112E+04  0.25500000920E-02 0.  1.
</event>
<event>
 5   0  0.7675750E-08  0.3540133E+04  0.7818609E-02  0.8104344E-01
       -1   -1    0    0    0  501  0.00000000000E+00  0.00000000000E+00  0.21955621132E+04  0.21955621132E+04  0.50400001928E-02 0. -1.
        1   -1    0    0  501    0  0.00000000000E+00  0.00000000000E+00 -0.14270307618E+04  0.14270307618E+04  0.50400001928E-02 0.  1.
    10030    2    1    2    0    0  0.00000000000E+00  0.00000000000E+00  0.76853135133E+03  0.36225928750E+04  0.35401325823E+04 0.  0.
        1    1    3    3  502    0  0.10566163834E+04  0.10688892233E+04  0.13410157998E+04  0.20142705202E+04  0.50400001928E-02 0. -1.
       -1    1    3    3    0  502 -0.10566163834E+04 -0.10688892233E+04 -0.57248444844E+03  0.16083223548E+04  0.50400001928E-02 0.  1.
</event>
<event>
 5   0  0.2384787E-07  0.3864692E+04  0.7818609E-02  0.8032413E-01
       -2   -1    0    0    0  501  0.00000000000E+00  0.00000000000E+00  0.17878120140E+04  0.17878120140E+04  0.25500000920E-02 0.  1.
        2   -1    0    0  501    0  0.00000000000E+00  0.00000000000E+00 -0.20885650418E+04  0.20885650418E+04  0.25500000920E-02 0. -1.
    10030    2    1    2    0    0  0.00000000000E+00  0.00000000000E+00 -0.30075302783E+03  0.38763770558E+04  0.38646923157E+04 0.  0.
        4    1    3    3  502    0 -0.89784940829E+02  0.11675964617E+04 -0.16921045637E+04  0.20578052144E+04  0.12699999809E+01 0. -1.
       -4    1    3    3    0  502  0.89784940829E+02 -0.11675964617E+04  0.13913515359E+04  0.18185718414E+04  0.12699999809E+01 0.  1.
</event>
<event>
 5   0  0.7675750E-08  0.3821133E+04  0.7818609E-02  0.8041635E-01
        1   -1    0    0  501    0  0.00000000000E+00  0.00000000000E+00  0.15427336754E+04  0.15427336754E+04  0.50400001928E-02 0.  1.
       -1   -1    0    0    0  501  0.00000000000E+00  0.00000000000E+00 -0.23661012231E+04  0.23661012231E+04  0.50400001928E-02 0. -1.
    10030    2    1    2    0    0  0.00000000000E+00  0.00000000000E+00 -0.82336754773E+03  0.39088348985E+04  0.38211328354E+04 0.  0.
        5    1    3    3  502    0  0.20762476515E+03 -0.15072533009E+04 -0.15937671085E+04  0.22034146778E+04  0.46999998093E+01 0. -1.
       -5    1    3    3    0  502 -0.20762476515E+03  0.15072533009E+04  0.77039956078E+03  0.17054202208E+04  0.46999998093E+01 0.  1.
</event>
<event>
 5   0  0.2486268E-07  0.3882331E+04  0.7818609E-02  0.8028714E-01
        2   -1    0    0  501    0  0.00000000000E+00  0.00000000000E+00  0.27631115757E+04  0.27631115757E+04  0.25500000920E-02 0. -1.
       -2   -1    0    0    0  501  0.00000000000E+00  0.00000000000E+00 -0.13637248987E+04  0.13637248987E+04  0.25500000920E-02 0.  1.
    10030    2    1    2    0    0  0.00000000000E+00  0.00000000000E+00  0.13993866770E+04  0.41268364744E+04  0.38823312861E+04 0.  0.
        5    1    3    3  502    0  0.16228752201E+04 -0.62911548331E+03 -0.21384520961E+03  0.17536425334E+04  0.46999998093E+01 0.  1.
       -5    1    3    3    0  502 -0.16228752201E+04  0.62911548331E+03  0.16132318867E+04  0.23731939410E+04  0.46999998093E+01 0. -1.
</event>
<event>
 5   0  0.2486268E-07  0.3903733E+04  0.7818609E-02  0.8024253E-01
        2   -1    0    0  501    0  0.00000000000E+00  0.00000000000E+00  0.25291245691E+04  0.25291245691E+04  0.25500000920E-02 0.  1.
       -2   -1    0    0    0  501  0.00000000000E+00  0.00000000000E+00 -0.15063638746E+04  0.15063638746E+04  0.25500000920E-02 0. -1.
    10030    2    1    2    0    0  0.00000000000E+00  0.00000000000E+00  0.10227606945E+04  0.40354884437E+04  0.39037325140E+04 0.  0.
        5    1    3    3  502    0  0.16560043017E+02 -0.13724474940E+04 -0.92321668327E+03  0.16541576385E+04  0.46999998093E+01 0. -1.
       -5    1    3    3    0  502 -0.16560043017E+02  0.13724474940E+04  0.19459773778E+04  0.23813308052E+04  0.46999998093E+01 0.  1.
</event>
<event>
 5   0  0.2446281E-07  0.3956464E+04  0.7818609E-02  0.8013387E-01
       -2   -1    0    0    0  501  0.00000000000E+00  0.00000000000E+00  0.14068884985E+04  0.14068884985E+04  0.25500000920E-02 0.  1.
        2   -1    0    0  501    0  0.00000000000E+00  0.00000000000E+00 -0.27815999638E+04  0.27815999638E+04  0.25500000920E-02 0. -1.
    10030    2    1    2    0    0  0.00000000000E+00  0.00000000000E+00 -0.13747114653E+04  0.41884884623E+04  0.39564635707E+04 0.  0.
        1    1    3    3  502    0 -0.94294434326E+03  0.17341213618E+04 -0.82571074774E+03  0.21396539839E+04  0.50400001928E-02 0. -1.
       -1    1    3    3    0  502  0.94294434326E+03 -0.17341213618E+04 -0.54900071752E+03  0.20488344784E+04  0.50400001928E-02 0.  1.
</event>
<event>
 5   0  0.7675750E-08  0.3901126E+04  0.7818609E-02  0.8024795E-01
        1   -1    0    0  501    0  0.00000000000E+00  0.00000000000E+00  0.15783625520E+04  0.15783625520E+04  0.50400001928E-02 0. -1.
       -1   -1    0    0    0  501  0.00000000000E+00  0.00000000000E+00 -0.24105331470E+04  0.24105331470E+04  0.50400001928E-02 0.  1.
    10030    2    1    2    0    0  0.00000000000E+00  0.00000000000E+00 -0.83217059494E+03  0.39888956990E+04  0.39011256066E+04 0.  0.
        4    1    3    3  502    0 -0.77359694565E+03  0.16461706198E+04 -0.11364671277E+04  0.21447352026E+04  0.12699999809E+01 0. -1.
       -4    1    3    3    0  502  0.77359694565E+03 -0.16461706198E+04  0.30429653273E+03  0.18441604964E+04  0.12699999809E+01 0.  1.
</event>
<event>
 5   0  0.7731706E-08  0.3901919E+04  0.7818609E-02  0.8024630E-01
        1   -1    0    0  501    0  0.00000000000E+00  0.00000000000E+00  0.18665723260E+04  0.18665723260E+04  0.50400001928E-02 0. -1.
       -1   -1    0    0    0  501  0.00000000000E+00  0.00000000000E+00 -0.20391614253E+04  0.20391614253E+04  0.50400001928E-02 0.  1.
    10030    2    1    2    0    0  0.00000000000E+00  0.00000000000E+00 -0.17258909925E+03  0.39057337513E+04  0.39019186484E+04 0.  0.
        3    1    3    3  502    0 -0.91731159673E+03 -0.14989167597E+04 -0.93448972288E+03  0.19903474748E+04  0.10100000352E+00 0.  1.
       -3    1    3    3    0  502  0.91731159673E+03  0.14989167597E+04  0.76190062363E+03  0.19153862765E+04  0.10100000352E+00 0. -1.
</event>
<event>
 5   0  0.7731706E-08  0.3630168E+04  0.7818609E-02  0.8083616E-01
        1   -1    0    0  501    0  0.00000000000E+00  0.00000000000E+00  0.20782792841E+04  0.20782792841E+04  0.50400001928E-02 0. -1.
       -1   -1    0    0    0  501  0.00000000000E+00  0.00000000000E+00 -0.15852200896E+04  0.15852200896E+04  0.50400001928E-02 0.  1.
    10030    2    1    2    0    0  0.00000000000E+00  0.00000000000E+00  0.49305919450E+03  0.36634993738E+04  0.36301680804E+04 0.  0.
        3    1    3    3  502    0  0.87655843395E+02  0.15693094846E+04 -0.66961305271E+03  0.17084488450E+04  0.10100000352E+00 0.  1.
       -3    1    3    3    0  502 -0.87655843395E+02 -0.15693094846E+04  0.11626722472E+04  0.19550505288E+04  0.10100000352E+00 0. -1.
</event>
<event>
 5   0  0.2384787E-07  0.3736838E+04  0.7818609E-02  0.8059847E-01
       -2   -1    0    0    0  501  0.00000000000E+00  0.00000000000E+00  0.13652078172E+04  0.13652078172E+04  0.25500000920E-02 0.  1.
        2   -1    0    0  501    0  0.00000000000E+00  0.00000000000E+00 -0.25571118999E+04  0.25571118999E+04  0.25500000920E-02 0. -1.
    10030    2    1    2    0    0  0.00000000000E+00  0.00000000000E+00 -0.11919040827E+04  0.39223197172E+04  0.37368377836E+04 0.  0.
        4    1    3    3  502    0 -0.18030108945E+04  0.48563526958E+03 -0.66476240452E+03  0.19820697687E+04  0.12699999809E+01 0. -1.
       -4    1    3    3    0  502  0.18030108945E+04 -0.48563526958E+03 -0.52714167817E+03  0.19402499484E+04  0.12699999809E+01 0.  1.
</event>
<event>
 5   0  0.7675750E-08  0.3896422E+04  0.7818609E-02  0.8025774E-01
        3   -1    0    0  501    0  0.00000000000E+00  0.00000000000E+00  0.20311316479E+04  0.20311316504E+04  0.10100000352E+00 0.  1.
       -3   -1    0    0    0  501  0.00000000000E+00  0.00000000000E+00 -0.18686758575E+04  0.18686758603E+04  0.10100000352E+00 0. -1.
    10030    2    1    2    0    0  0.00000000000E+00  0.00000000000E+00  0.16245579035E+03  0.38998075107E+04  0.38964222996E+04 0.  0.
        2    1    3    3  502    0  0.33154660800E+03 -0.15167141643E+04 -0.10967320411E+04  0.19008330225E+04  0.25500000920E-02 0. -1.
       -2    1    3    3    0  502 -0.33154660800E+03  0.15167141643E+04  0.12591878314E+04  0.19989744882E+04  0.25500000920E-02 0.  1.
</event>
<event>
 5   0  0.7675750E-08  0.3904122E+04  0.7818609E-02  0.8024172E-01
        1   -1    0    0  501    0  0.00000000000E+00  0.00000000000E+00  0.22911807819E+04  0.22911807819E+04  0.50400001928E-02 0. -1.
       -1   -1    0    0    0  501  0.00000000000E+00  0.00000000000E+00 -0.16631347956E+04  0.16631347956E+04  0.50400001928E-02 0.  1.
    10030    2    1    2    0    0  0.00000000000E+00  0.00000000000E+00  0.62804598629E+03  0.39543155775E+04  0.39041221710E+04 0.  0.
        1    1    3    3  502    0 -0.17780491905E+04 -0.27803353537E+03  0.10799065616E+04  0.20987995980E+04  0.50400001928E-02 0. -1.
       -1    1    3    3    0  502  0.17780491905E+04  0.27803353537E+03 -0.45186057535E+03  0.18555159795E+04  0.50400001928E-02 0.  1.
</event>
<event>
 5   0  0.7675750E-08  0.3722246E+04  0.7818609E-02  0.8063050E-01
       -1   -1    0    0    0  501  0.00000000000E+00  0.00000000000E+00  0.24564478221E+04  0.24564478221E+04  0.50400001928E-02 0.  1.
        1   -1    0    0  501    0  0.00000000000E+00  0.00000000000E+00 -0.14100760297E+04  0.14100760297E+04  0.50400001928E-02 0. -1.
    10030    2    1    2    0    0  0.00000000000E+00  0.00000000000E+00  0.10463717925E+04  0.38665238518E+04  0.37222456620E+04 0.  0.
        2    1    3    3  502    0 -0.47728323677E+03 -0.16724885299E+04  0.12112512345E+04  0.21194685003E+04  0.25500000920E-02 0.  1.
       -2    1    3    3    0  502  0.47728323677E+03  0.16724885299E+04 -0.16487944199E+03  0.17470553515E+04  0.25500000920E-02 0. -1.
</event>
<event>
 5   0  0.2395572E-07  0.3790307E+04  0.7818609E-02  0.8048238E-01
       -2   -1    0    0    0  501  0.00000000000E+00  0.00000000000E+00  0.19158716086E+04  0.19158716086E+04  0.25500000920E-02 0.  1.
        2   -1    0    0  501    0  0.00000000000E+00  0.00000000000E+00 -0.18746598479E+04  0.18746598479E+04  0.25500000920E-02 0. -1.
    10030    2    1    2    0    0  0.00000000000E+00  0.00000000000E+00  0.41211760692E+02  0.37905314565E+04  0.37903074168E+04 0.  0.
        3    1    3    3  502    0  0.14180653806E+04  0.77211256568E+03  0.10129045871E+04  0.19060542885E+04  0.10100000352E+00 0.  1.
       -3    1    3    3    0  502 -0.14180653806E+04 -0.77211256568E+03 -0.97169282640E+03  0.18844771681E+04  0.10100000352E+00 0. -1.
</event>
<event>
 5   0  0.2384787E-07  0.3896957E+04  0.7818609E-02  0.8025662E-01
        2   -1    0    0  501    0  0.00000000000E+00  0.00000000000E+00  0.24595546508E+04  0.24595546508E+04  0.25500000920E-02 0.  1.
       -2   -1    0    0    0  501  0.00000000000E+00  0.00000000000E+00 -0.15435998040E+04  0.15435998040E+04  0.25500000920E-02 0. -1.
    10030    2    1    2    0    0  0.00000000000E+00  0.00000000000E+00  0.91595484685E+03  0.40031544548E+04  0.38969568009E+04 0.  0.
        4    1    3    3  502    0  0.18052440263E+04  0.64743873593E+03  0.10438268888E+03  0.19206718278E+04  0.12699999809E+01 0. -1.
       -4    1    3    3    0  502 -0.18052440263E+04 -0.64743873593E+03  0.81157215797E+03  0.20824826270E+04  0.12699999809E+01 0.  1.
</event>
<event>
 5   0  0.2446281E-07  0.3484562E+04  0.7818609E-02  0.8117458E-01
        2   -1    0    0  501    0  0.00000000000E+00  0.00000000000E+00  0.21289242765E+04  0.21289242765E+04  0.25500000920E-02 0.  1.
       -2   -1    0    0    0  501  0.00000000000E+00  0.00000000000E+00 -0.14258579208E+04  0.14258579209E+04  0.25500000920E-02 0. -1.
    10030    2    1    2    0    0  0.00000000000E+00  0.00000000000E+00  0.70306635564E+03  0.35547821973E+04  0.34845622638E+04 0.  0.
        1    1    3    3  502    0 -0.12893122052E+04  0.30127677448E+03  0.15068070966E+04  0.20058816724E+04  0.50400001928E-02 0.  1.
       -1    1    3    3    0  502  0.12893122052E+04 -0.30127677448E+03 -0.80374074100E+03  0.15489005249E+04  0.50400001928E-02 0. -1.
</event>
<event>
 5   0  0.2395572E-07  0.3835783E+04  0.7818609E-02  0.8038519E-01
       -2   -1    0    0    0  501  0.00000000000E+00  0.00000000000E+00  0.16151314845E+04  0.16151314845E+04  0.25500000920E-02 0. -1.
        2   -1    0    0  501    0  0.00000000000E+00  0.00000000000E+00 -0.22774042506E+04  0.22774042506E+04  0.25500000920E-02 0.  1.
    10030    2    1    2    0    0  0.00000000000E+00  0.00000000000E+00 -0.66227276610E+03  0.38925357352E+04  0.38357827406E+04 0.  0.
        3    1    3    3  502    0  0.14676677955E+04  0.11629484663E+04 -0.75176815575E+03  0.20178338047E+04  0.10100000352E+00 0.  1.
       -3    1    3    3    0  502 -0.14676677955E+04 -0.11629484663E+04  0.89495389648E+02  0.18747019305E+04  0.10100000352E+00 0. -1.
</event>
<event>
 5   0  0.7675750E-08  0.3898292E+04  0.7818609E-02  0.8025384E-01
        1   -1    0    0  501    0  0.00000000000E+00  0.00000000000E+00  0.32654960055E+04  0.32654960055E+04  0.50400001928E-02 0. -1.
       -1   -1    0    0    0  501  0.00000000000E+00  0.00000000000E+00 -0.11634283345E+04  0.11634283345E+04  0.50400001928E-02 0.  1.
    10030    2    1    2    0    0  0.00000000000E+00  0.00000000000E+00  0.21020676710E+04  0.44289243399E+04  0.38982922306E+04 0.  0.
        5    1    3    3  502    0 -0.15833477778E+04 -0.57807293906E+03  0.21630327218E+04  0.27422419941E+04  0.46999998093E+01 0. -1.
       -5    1    3    3    0  502  0.15833477778E+04  0.57807293906E+03 -0.60965050825E+02  0.16866823459E+04  0.46999998093E+01 0.  1.
</event>
<event>
 5   0  0.7675750E-08  0.3248830E+04  0.7818609E-02  0.8176039E-01
        1   -1    0    0  501    0  0.00000000000E+00  0.00000000000E+00  0.27439911686E+04  0.27439911686E+04  0.50400001928E-02 0. -1.
       -1   -1    0    0    0  501  0.00000000000E+00  0.00000000000E+00 -0.96163707613E+03  0.96163707614E+03  0.50400001928E-02 0.  1.
    10030    2    1    2    0    0  0.00000000000E+00  0.00000000000E+00  0.17823540925E+04  0.37056282447E+04  0.32488297243E+04 0.  0.
        4    1    3    3  502    0  0.32954289266E+02  0.48494481477E+03 -0.87674615023E+03  0.10024683952E+04  0.12699999809E+01 0.  1.
       -4    1    3    3    0  502 -0.32954289266E+02 -0.48494481477E+03  0.26591002427E+04  0.27031598495E+04  0.12699999809E+01 0. -1.
</event>
<event>
 5   0  0.7675750E-08  0.3965252E+04  0.7818609E-02  0.8011593E-01
        1   -1    0    0  501    0  0.00000000000E+00  0.00000000000E+00  0.13757290827E+04  0.13757290827E+04  0.50400001928E-02 0. -1.
       -1   -1    0    0    0  501  0.00000000000E+00  0.00000000000E+00 -0.28572525788E+04  0.28572525788E+04  0.50400001928E-02 0.  1.
    10030    2    1    2    0    0  0.00000000000E+00  0.00000000000E+00 -0.14815234962E+04  0.42329816615E+04  0.39652518050E+04 0.  0.
        5    1    3    3  502    0  0.13164812215E+04 -0.10426717649E+04 -0.18657141485E+04  0.25102188330E+04  0.46999998093E+01 0.  1.
       -5    1    3    3    0  502 -0.13164812215E+04  0.10426717649E+04  0.38419065231E+03  0.17227628285E+04  0.46999998093E+01 0. -1.
</event>
<event>
 5   0  0.7731706E-08  0.3511205E+04  0.7818609E-02  0.8111140E-01
       -1   -1    0    0    0  501  0.00000000000E+00  0.00000000000E+00  0.16766954088E+04  0.16766954088E+04  0.50400001928E-02 0.  1.
        1   -1    0    0  501    0  0.00000000000E+00  0.00000000000E+00 -0.18382226101E+04  0.18382226101E+04  0.50400001928E-02 0. -1.
    10030    2    1    2    0    0  0.00000000000E+00  0.00000000000E+00 -0.16152720130E+03  0.35149180189E+04  0.35112045857E+04 0.  0.
        3    1    3    3  502    0 -0.72657387995E+03 -0.12774175737E+04 -0.10422137010E+04  0.18016422146E+04  0.10100000352E+00 0. -1.
       -3    1    3    3    0  502  0.72657387995E+03  0.12774175737E+04  0.88068649972E+03  0.17132758043E+04  0.10100000352E+00 0.  1.
</event>
<event>
 5   0  0.2384787E-07  0.3893347E+04  0.7818609E-02  0.8026414E-01
       -2   -1    0    0    0  501  0.00000000000E+00  0.00000000000E+00  0.14370573714E+04  0.14370573714E+04  0.25500000920E-02 0. -1.
        2   -1    0    0  501    0  0.00000000000E+00  0.00000000000E+00 -0.26370126719E+04  0.26370126719E+04  0.25500000920E-02 0.  1.
    10030    2    1    2    0    0  0.00000000000E+00  0.00000000000E+00 -0.11999553006E+04  0.40740700433E+04  0.38933474022E+04 0.  0.
        4    1    3    3  502    0  0.48401711038E+03  0.16123730997E+04  0.42290217613E+03  0.17357613429E+04  0.12699999809E+01 0. -1.
       -4    1    3    3    0  502 -0.48401711038E+03 -0.16123730997E+04 -0.16228574767E+04  0.23383087004E+04  0.12699999809E+01 0.  1.
</event>
<event>
 5   0  0.2446281E-07  0.3662988E+04  0.7818609E-02  0.8076214E-01
       -2   -1    0    0    0  501  0.00000000000E+00  0.00000000000E+00  0.20340680867E+04  0.20340680867E+04  0.25500000920E-02 0.  1.
        2   -1    0    0  501    0  0.00000000000E+00  0.00000000000E+00 -0.16490941342E+04  0.16490941342E+04  0.25500000920E-02 0. -1.
    10030    2    1    2    0    0  0.00000000000E+00  0.00000000000E+00  0.38497395245E+03  0.36831622209E+04  0.36629877151E+04 0.  0.
        1    1    3    3  502    0 -0.13401257806E+04  0.56665488981E+03  0.13109690108E+04  0.19584878400E+04  0.50400001928E-02 0.  1.
       -1    1    3    3    0  502  0.13401257806E+04 -0.56665488981E+03 -0.92599505838E+03  0.17246743809E+04  0.50400001928E-02 0. -1.
</event>
<event>
 5   0  0.2473224E-07  0.3883872E+04  0.7818609E-02  0.8028392E-01
        2   -1    0    0  501    0  0.00000000000E+00  0.00000000000E+00  0.17232802357E+04  0.17232802357E+04  0.25500000920E-02 0.  1.
       -2   -1    0    0    0  501  0.00000000000E+00  0.00000000000E+00 -0.21883352599E+04  0.21883352599E+04  0.25500000920E-02 0. -1.
    10030    2    1    2    0    0  0.00000000000E+00  0.00000000000E+00 -0.46505502424E+03  0.39116154956E+04  0.38838717293E+04 0.  0.
        2    1    3    3  502    0  0.10042849285E+04 -0.15126762095E+04  0.46111379878E+03  0.18733401901E+04  0.25500000920E-02 0. -1.
       -2    1    3    3    0  502 -0.10042849285E+04  0.15126762095E+04 -0.92616882303E+03  0.20382753055E+04  0.25500000920E-02 0.  1.
</event>
<event>
 5   0  0.7731706E-08  0.3855897E+04  0.7818609E-02  0.8034265E-01
       -1   -1    0    0    0  501  0.00000000000E+00  0.00000000000E+00  0.22840300565E+04  0.22840300565E+04  0.50400001928E-02 0.  1.
        1   -1    0    0  501    0  0.00000000000E+00  0.00000000000E+00 -0.16273800542E+04  0.16273800542E+04  0.50400001928E-02 0. -1.
    10030    2    1    2    0    0  0.00000000000E+00  0.00000000000E+00  0.65665000231E+03  0.39114101107E+04  0.38558967606E+04 0.  0.
        3    1    3    3  502    0 -0.17242768385E+04 -0.75919979835E+03 -0.86797680476E+02  0.18860139971E+04  0.10100000352E+00 0.  1.
       -3    1    3    3    0  502  0.17242768385E+04  0.75919979835E+03  0.74344768279E+03  0.20253961136E+04  0.10100000352E+00 0. -1.
</event>
<event>
 5   0  0.2395572E-07  0.4058425E+04  0.7818609E-02  0.7992863E-01
       -2   -1    0    0    0  501  0.00000000000E+00  0.00000000000E+00  0.19544797549E+04  0.19544797549E+04  0.25500000920E-02 0.  1.
        2   -1    0    0  501    0  0.00000000000E+00  0.00000000000E+00 -0.21068030231E+04  0.21068030231E+04  0.25500000920E-02 0. -1.
    10030    2    1    2    0    0  0.00000000000E+00  0.00000000000E+00 -0.15232326825E+03  0.40612827780E+04  0.40584252395E+04 0.  0.
        3    1    3    3  502    0 -0.19115169853E+02  0.19084682340E+04  0.61358956004E+03  0.20047714454E+04  0.10100000352E+00 0.  1.
       -3    1    3    3    0  502  0.19115169853E+02 -0.19084682340E+04 -0.76591282829E+03  0.20565113325E+04  0.10100000352E+00 0. -1.
</event>
<event>
 5   0  0.2486268E-07  0.3784164E+04  0.7818609E-02  0.8049562E-01
       -2   -1    0    0    0  501  0.00000000000E+00  0.00000000000E+00  0.20328752105E+04  0.20328752105E+04  0.25500000920E-02 0.  1.
        2   -1    0    0  501    0  0.00000000000E+00  0.00000000000E+00 -0.17610402928E+04  0.17610402928E+04  0.25500000920E-02 0. -1.
    10030    2    1    2    0    0  0.00000000000E+00  0.00000000000E+00  0.27183491762E+03  0.37939155033E+04  0.37841644552E+04 0.  0.
        5    1    3    3  502    0 -0.12063364952E+04 -0.43429992217E+03 -0.12591021112E+04  0.17970042789E+04  0.46999998093E+01 0. -1.
       -5    1    3    3    0  502  0.12063364952E+04  0.43429992217E+03  0.15309370288E+04  0.19969112244E+04  0.46999998093E+01 0.  1.
</event>
<event>
 5   0  0.2446281E-07  0.3908952E+04  0.7818609E-02  0.8023170E-01
       -2   -1    0    0    0  501  0.00000000000E+00  0.00000000000E+00  0.13673639884E+04  0.13673639884E+04  0.25500000920E-02 0.  1.
        2   -1    0    0  501    0  0.00000000000E+00  0.00000000000E+00 -0.27936788557E+04  0.27936788557E+04  0.25500000920E-02 0. -1.
    10030    2    1    2    0    0  0.00000000000E+00  0.00000000000E+00 -0.14263148673E+04  0.41610428441E+04  0.39089517073E+04 0.  0.
        1    1    3    3  502    0  0.97883162952E+03  0.89737003882E+03 -0.22397245482E+04  0.26037953832E+04  0.50400001928E-02 0. -1.
       -1    1    3    3    0  502 -0.97883162952E+03 -0.89737003882E+03  0.81340968091E+03  0.15572474609E+04  0.50400001928E-02 0.  1.
</event>
<event>
 5   0  0.7731706E-08  0.3881433E+04  0.7818609E-02  0.8028902E-01
       -1   -1    0    0    0  501  0.00000000000E+00  0.00000000000E+00  0.11641824628E+04  0.11641824628E+04  0.50400001928E-02 0.  1.
        1   -1    0    0  501    0  0.00000000000E+00  0.00000000000E+00 -0.32352151846E+04  0.32352151846E+04  0.50400001928E-02 0. -1.
    10030    2    1    2    0    0  0.00000000000E+00  0.00000000000E+00 -0.20710327217E+04  0.43993976474E+04  0.38814331278E+04 0.  0.
        3    1    3    3  502    0  0.31003341919E+03 -0.69106742462E+03  0.98973626882E+03  0.12463036542E+04  0.10100000352E+00 0.  1.
       -3    1    3    3    0  502 -0.31003341919E+03  0.69106742462E+03 -0.30607689906E+04  0.31530939932E+04  0.10100000352E+00 0. -1.
</event>
<event>
 5   0  0.7675750E-08  0.3911443E+04  0.7818609E-02  0.8022654E-01
        1   -1    0    0  501    0  0.00000000000E+00  0.00000000000E+00  0.22425337738E+04  0.22425337738E+04  0.50400001928E-02 0.  1.
       -1   -1    0    0    0  501  0.00000000000E+00  0.00000000000E+00 -0.17055913834E+04  0.17055913834E+04  0.50400001928E-02 0. -1.
    10030    2    1    2    0    0  0.00000000000E+00  0.00000000000E+00  0.53694239046E+03  0.39481251572E+04  0.39114428445E+04 0.  0.
        4    1    3    3  502    0  0.74060950436E+03 -0.17336987128E+04  0.79357201607E+03  0.20454759403E+04  0.12699999809E+01 0.  1.
       -4    1    3    3    0  502 -0.74060950436E+03  0.17336987128E+04 -0.25662962561E+03  0.19026492169E+04  0.12699999809E+01 0. -1.
</event>
<event>
 5   0  0.7675750E-08  0.3758902E+04  0.7818609E-02  0.8055032E-01
        1   -1    0    0  501    0  0.00000000000E+00  0.00000000000E+00  0.17473487901E+04  0.17473487901E+04  0.50400001928E-02 0. -1.
       -1   -1    0    0    0  501  0.00000000000E+00  0.00000000000E+00 -0.20215403658E+04  0.20215403658E+04  0.50400001928E-02 0.  1.
    10030    2    1    2    0    0  0.00000000000E+00  0.00000000000E+00 -0.27419157570E+03  0.37688891559E+04  0.37589020271E+04 0.  0.
        5    1    3    3  502    0 -0.18360269798E+04 -0.14652833153E+02 -0.53954015405E+03  0.19137229277E+04  0.46999998093E+01 0. -1.
       -5    1    3    3    0  502  0.18360269798E+04  0.14652833153E+02  0.26534857835E+03  0.18551662282E+04  0.46999998093E+01 0.  1.
</event>
<event>
 5   0  0.2384787E-07  0.3729198E+04  0.7818609E-02  0.8061522E-01
        2   -1    0    0  501    0  0.00000000000E+00  0.00000000000E+00  0.19132779201E+04  0.19132779201E+04  0.25500000920E-02 0. -1.
       -2   -1    0    0    0  501  0.00000000000E+00  0.00000000000E+00 -0.18171586708E+04  0.18171586708E+04  0.25500000920E-02 0.  1.
    10030    2    1    2    0    0  0.00000000000E+00  0.00000000000E+00  0.96119249241E+02  0.37304365909E+04  0.37291980704E+04 0.  0.
        4    1    3    3  502    0 -0.85354714060E+02 -0.71617259713E+03  0.17680897052E+04  0.19095369686E+04  0.12699999809E+01 0. -1.
       -4    1    3    3    0  502  0.85354714060E+02  0.71617259713E+03 -0.16719704559E+04  0.18208996223E+04  0.12699999809E+01 0.  1.
</event>
<event>
 5   0  0.2486268E-07  0.3869972E+04  0.7818609E-02  0.8031304E-01
       -2   -1    0    0    0  501  0.00000000000E+00  0.00000000000E+00  0.32565026919E+04  0.32565026919E+04  0.25500000920E-02 0. -1.
        2   -1    0    0  501    0  0.00000000000E+00  0.00000000000E+00 -0.11497521091E+04  0.11497521091E+04  0.25500000920E-02 0.  1.
    10030    2    1    2    0    0  0.00000000000E+00  0.00000000000E+00  0.21067505828E+04  0.44062548010E+04  0.38699720093E+04 0.  0.
        5    1    3    3  502    0  0.36231296982E+03  0.10523012821E+04  0.28556146095E+04  0.30648271671E+04  0.46999998093E+01 0. -1.
       -5    1    3    3    0  502 -0.36231296982E+03 -0.10523012821E+04 -0.74886402669E+03  0.13414276339E+04  0.46999998093E+01 0.  1.
</event>
<event>
 5   0  0.2473224E-07  0.3948629E+04  0.7818609E-02  0.8014991E-01
        2   -1    0    0  501    0  0.00000000000E+00  0.00000000000E+00  0.16505824740E+04  0.16505824740E+04  0.25500000920E-02 0.  1.
       -2   -1    0    0    0  501  0.00000000000E+00  0.00000000000E+00 -0.23615404831E+04  0.23615404831E+04  0.25500000920E-02 0. -1.
    10030    2    1    2    0    0  0.00000000000E+00  0.00000000000E+00 -0.71095800904E+03  0.40121229571E+04  0.39486287914E+04 0.  0.
        2    1    3    3  502    0  0.13884276740E+04  0.34088051753E+03 -0.17389854866E+04  0.22512222138E+04  0.25500000920E-02 0. -1.
       -2    1    3    3    0  502 -0.13884276740E+04 -0.34088051753E+03  0.10280274776E+04  0.17609007433E+04  0.25500000920E-02 0.  1.
</event>
<event>
 5   0  0.2395572E-07  0.3891578E+04  0.7818609E-02  0.8026783E-01
       -2   -1    0    0    0  501  0.00000000000E+00  0.00000000000E+00  0.13722317749E+04  0.13722317749E+04  0.25500000920E-02 0.  1.
        2   -1    0    0  501    0  0.00000000000E+00  0.00000000000E+00 -0.27590780848E+04  0.27590780848E+04  0.25500000920E-02 0. -1.
    10030    2    1    2    0    0  0.00000000000E+00  0.00000000000E+00 -0.13868463099E+04  0.41313098597E+04  0.38915778894E+04 0.  0.
        3    1    3    3  502    0  0.12297973141E+04 -0.45095510008E+02 -0.22934735688E+04  0.26027785268E+04  0.10100000352E+00 0. -1.
       -3    1    3    3    0  502 -0.12297973141E+04  0.45095510008E+02  0.90662725886E+03  0.15285313329E+04  0.10100000352E+00 0.  1.
</event>
<event>
 5   0  0.2473224E-07  0.3929497E+04  0.7818609E-02  0.8018922E-01
        2   -1    0    0  501    0  0.00000000000E+00  0.00000000000E+00  0.17308339898E+04  0.17308339898E+04  0.25500000920E-02 0.  1.
       -2   -1    0    0    0  501  0.00000000000E+00  0.00000000000E+00 -0.22302752709E+04  0.22302752709E+04  0.25500000920E-02 0. -1.
    10030    2    1    2    0    0  0.00000000000E+00  0.00000000000E+00 -0.49944128112E+03  0.39611092606E+04  0.39294967848E+04 0.  0.
        2    1    3    3  502    0 -0.18840600959E+04  0.28798758373E+03 -0.73065099163E+03  0.20411933188E+04  0.25500000920E-02 0. -1.
       -2    1    3    3    0  502  0.18840600959E+04 -0.28798758373E+03  0.23120971052E+03  0.19199159418E+04  0.25500000920E-02 0.  1.
</event>
<event>
 5   0  0.2395572E-07  0.3884279E+04  0.7818609E-02  0.8028307E-01
        2   -1    0    0  501    0  0.00000000000E+00  0.00000000000E+00  0.28097065644E+04  0.28097065644E+04  0.25500000920E-02 0. -1.
       -2   -1    0    0    0  501  0.00000000000E+00  0.00000000000E+00 -0.13424557437E+04  0.13424557437E+04  0.25500000920E-02 0.  1.
    10030    2    1    2    0    0  0.00000000000E+00  0.00000000000E+00  0.14672508207E+04  0.41521623081E+04  0.38842794521E+04 0.  0.
        3    1    3    3  502    0 -0.74378489218E+03  0.11448319220E+04  0.22102115901E+04  0.25978628483E+04  0.10100000352E+00 0. -1.
       -3    1    3    3    0  502  0.74378489218E+03 -0.11448319220E+04 -0.74296076947E+03  0.15542994598E+04  0.10100000352E+00 0.  1.
</event>
<event>
 5   0  0.2395572E-07  0.3894296E+04  0.7818609E-02  0.8026217E-01
        2   -1    0    0  501    0  0.00000000000E+00  0.00000000000E+00  0.17071536939E+04  0.17071536939E+04  0.25500000920E-02 0.  1.
       -2   -1    0    0    0  501  0.00000000000E+00  0.00000000000E+00 -0.22208810314E+04  0.22208810314E+04  0.25500000920E-02 0. -1.
    10030    2    1    2    0    0  0.00000000000E+00  0.00000000000E+00 -0.51372733756E+03  0.39280347253E+04  0.38942959603E+04 0.  0.
        3    1    3    3  502    0  0.36748558564E+02 -0.23551926282E+03 -0.22061085518E+04  0.22189490153E+04  0.10100000352E+00 0. -1.
       -3    1    3    3    0  502 -0.36748558564E+02  0.23551926282E+03  0.16923812143E+04  0.17090857101E+04  0.10100000352E+00 0.  1.
</event>
<event>
 5   0  0.2384787E-07  0.3903034E+04  0.7818609E-02  0.8024399E-01
       -2   -1    0    0    0  501  0.00000000000E+00  0.00000000000E+00  0.21194989121E+04  0.21194989121E+04  0.25500000920E-02 0.  1.
        2   -1    0    0  501    0  0.00000000000E+00  0.00000000000E+00 -0.17968484622E+04  0.17968484622E+04  0.25500000920E-02 0. -1.
    10030    2    1    2    0    0  0.00000000000E+00  0.00000000000E+00  0.32265044988E+03  0.39163473743E+04  0.39030338768E+04 0.  0.
        4    1    3    3  502    0 -0.53292629480E+03 -0.15545585960E+04 -0.89476379191E+03  0.18711672080E+04  0.12699999809E+01 0. -1.
       -4    1    3    3    0  502  0.53292629480E+03  0.15545585960E+04  0.12174142418E+04  0.20451801664E+04  0.12699999809E+01 0.  1.
</event>
<event>
 5   0  0.7675750E-08  0.3883319E+04  0.7818609E-02  0.8028507E-01
       -1   -1    0    0    0  501  0.00000000000E+00  0.00000000000E+00  0.15067896128E+04  0.15067896128E+04  0.50400001928E-02 0.  1.
        1   -1    0    0  501    0  0.00000000000E+00  0.00000000000E+00 -0.25020364456E+04  0.25020364456E+04  0.50400001928E-02 0. -1.
    10030    2    1    2    0    0  0.00000000000E+00  0.00000000000E+00 -0.99524683283E+03  0.40088260584E+04  0.38833194703E+04 0.  0.
        5    1    3    3  502    0 -0.17727559481E+03  0.18331870263E+04 -0.11323270431E+04  0.21619870334E+04  0.46999998093E+01 0. -1.
       -5    1    3    3    0  502  0.17727559481E+03 -0.18331870263E+04  0.13708021029E+03  0.18468390250E+04  0.46999998093E+01 0.  1.
</event>
<event>
 5   0  0.7675750E-08  0.3958810E+04  0.7818609E-02  0.8012908E-01
       -1   -1    0    0    0  501  0.00000000000E+00  0.00000000000E+00  0.15773325770E+04  0.15773325770E+04  0.50400001928E-02 0.  1.
        1   -1    0    0  501    0  0.00000000000E+00  0.00000000000E+00 -0.24839682140E+04  0.24839682140E+04  0.50400001928E-02 0. -1.
    10030    2    1    2    0    0  0.00000000000E+00  0.00000000000E+00 -0.90663563695E+03  0.40613007910E+04  0.39588099142E+04 0.  0.
        2    1    3    3  502    0 -0.85291348779E+03 -0.12753424196E+04  0.82969377867E+03  0.17442337777E+04  0.25500000920E-02 0.  1.
       -2    1    3    3    0  502  0.85291348779E+03  0.12753424196E+04 -0.17363294156E+04  0.23170670133E+04  0.25500000920E-02 0. -1.
</event>
<event>
 5   0  0.7675750E-08  0.3891705E+04  0.7818609E-02  0.8026757E-01
        1   -1    0    0  501    0  0.00000000000E+00  0.00000000000E+00  0.20394580607E+04  0.20394580607E+04  0.50400001928E-02 0.  1.
       -1   -1    0    0    0  501  0.00000000000E+00  0.00000000000E+00 -0.18565430614E+04  0.18565430615E+04  0.50400001928E-02 0. -1.
    10030    2    1    2    0    0  0.00000000000E+00  0.00000000000E+00  0.18291499929E+03  0.38960011222E+04  0.38917048767E+04 0.  0.
        2    1    3    3  502    0  0.51424667647E+03  0.14934621158E+04  0.12291375820E+04  0.20014139829E+04  0.25500000920E-02 0.  1.
       -2    1    3    3    0  502 -0.51424667647E+03 -0.14934621158E+04 -0.10462225827E+04  0.18945871393E+04  0.25500000920E-02 0. -1.
</event>
<event>
 5   0  0.7731706E-08  0.3659404E+04  0.7818609E-02  0.8077018E-01
       -1   -1    0    0    0  501  0.00000000000E+00  0.00000000000E+00  0.14429871689E+04  0.14429871689E+04  0.50400001928E-02 0.  1.
        1   -1    0    0  501    0  0.00000000000E+00  0.00000000000E+00 -0.23200544880E+04  0.23200544880E+04  0.50400001928E-02 0. -1.
    10030    2    1    2    0    0  0.00000000000E+00  0.00000000000E+00 -0.87706731912E+03  0.37630416569E+04  0.36594036986E+04 0.  0.
        3    1    3    3  502    0 -0.59432322648E+03  0.57464736568E+03 -0.21170512693E+04  0.22727397078E+04  0.10100000352E+00 0. -1.
       -3    1    3    3    0  502  0.59432322648E+03 -0.57464736568E+03  0.12399839502E+04  0.14903019491E+04  0.10100000352E+00 0.  1.
</event>
<event>
 5   0  0.2446281E-07  0.3955807E+04  0.7818609E-02  0.8013522E-01
        2   -1    0    0  501    0  0.00000000000E+00  0.00000000000E+00  0.19081422835E+04  0.19081422835E+04  0.25500000920E-02 0. -1.
       -2   -1    0    0    0  501  0.00000000000E+00  0.00000000000E+00 -0.20502149994E+04  0.20502149994E+04  0.25500000920E-02 0.  1.
    10030    2    1    2    0    0  0.00000000000E+00  0.00000000000E+00 -0.14207271586E+03  0.39583572829E+04  0.39558068358E+04 0.  0.
        1    1    3    3  502    0 -0.32916111487E+03 -0.11626438562E+04 -0.16379367927E+04  0.20354175770E+04  0.50400001928E-02 0.  1.
       -1    1    3    3    0  502  0.32916111487E+03  0.11626438562E+04  0.14958640768E+04  0.19229397058E+04  0.50400001928E-02 0. -1.
</event>
<event>
 5   0  0.7731706E-08  0.3904048E+04  0.7818609E-02  0.8024188E-01
        1   -1    0    0  501    0  0.00000000000E+00  0.00000000000E+00  0.14978844372E+04  0.14978844372E+04  0.50400001928E-02 0. -1.
       -1   -1    0    0    0  501  0.00000000000E+00  0.00000000000E+00 -0.25438530908E+04  0.25438530908E+04  0.50400001928E-02 0.  1.
    10030    2    1    2    0    0  0.00000000000E+00  0.00000000000E+00 -0.10459686536E+04  0.40417375281E+04  0.39040481326E+04 0.  0.
        3    1    3    3  502    0  0.17259826204E+03 -0.16927494039E+04 -0.15133889687E+04  0.22771773943E+04  0.10100000352E+00 0.  1.
       -3    1    3    3    0  502 -0.17259826204E+03  0.16927494039E+04  0.46742031505E+03  0.17645601338E+04  0.10100000352E+00 0. -1.
</event>
<event>
 5   0  0.2395572E-07  0.3900080E+04  0.7818609E-02  0.8025012E-01
       -2   -1    0    0    0  501  0.00000000000E+00  0.00000000000E+00  0.15314705449E+04  0.15314705449E+04  0.25500000920E-02 0. -1.
        2   -1    0    0  501    0  0.00000000000E+00  0.00000000000E+00 -0.24830101426E+04  0.24830101426E+04  0.25500000920E-02 0.  1.
    10030    2    1    2    0    0  0.00000000000E+00  0.00000000000E+00 -0.95153959774E+03  0.40144806875E+04  0.39000804587E+04 0.  0.
        3    1    3    3  502    0 -0.92872323494E+03  0.10906800727E+04  0.88612228760E+03  0.16844353911E+04  0.10100000352E+00 0. -1.
       -3    1    3    3    0  502  0.92872323494E+03 -0.10906800727E+04 -0.18376618853E+04  0.23300452964E+04  0.10100000352E+00 0.  1.
</event>
<event>
 5   0  0.7675750E-08  0.3898120E+04  0.7818609E-02  0.8025420E-01
        1   -1    0    0  501    0  0.00000000000E+00  0.00000000000E+00  0.17050096310E+04  0.17050096310E+04  0.50400001928E-02 0. -1.
       -1   -1    0    0    0  501  0.00000000000E+00  0.00000000000E+00 -0.22280426950E+04  0.22280426950E+04  0.50400001928E-02 0.  1.
    10030    2    1    2    0    0  0.00000000000E+00  0.00000000000E+00 -0.52303306399E+03  0.39330523260E+04  0.38981196766E+04 0.  0.
        1    1    3    3  502    0 -0.60070766307E+03 -0.16935893402E+04  0.50005867758E+03  0.18652488388E+04  0.50400001928E-02 0. -1.
       -1    1    3    3    0  502  0.60070766307E+03  0.16935893402E+04 -0.10230917416E+04  0.20678034871E+04  0.50400001928E-02 0.  1.
</event>
<event>
 5   0  0.2384787E-07  0.3889962E+04  0.7818609E-02  0.8027120E-01
        2   -1    0    0  501    0  0.00000000000E+00  0.00000000000E+00  0.21022530188E+04  0.21022530188E+04  0.25500000920E-02 0. -1.
       -2   -1    0    0    0  501  0.00000000000E+00  0.00000000000E+00 -0.17994742281E+04  0.17994742281E+04  0.25500000920E-02 0.  1.
    10030    2    1    2    0    0  0.00000000000E+00  0.00000000000E+00  0.30277879068E+03  0.39017272469E+04  0.38899615054E+04 0.  0.
        4    1    3    3  502    0 -0.15949178257E+04  0.29534603316E+03 -0.92514923177E+03  0.18673229137E+04  0.12699999809E+01 0.  1.
       -4    1    3    3    0  502  0.15949178257E+04 -0.29534603316E+03  0.12279280224E+04  0.20344043333E+04  0.12699999809E+01 0. -1.
</event>
<event>
 5   0  0.2384787E-07  0.3899753E+04  0.7818609E-02  0.8025080E-01
       -2   -1    0    0    0  501  0.00000000000E+00  0.00000000000E+00  0.26911116115E+04  0.26911116115E+04  0.25500000920E-02 0. -1.
        2   -1    0    0  501    0  0.00000000000E+00  0.00000000000E+00 -0.14128061775E+04  0.14128061775E+04  0.25500000920E-02 0.  1.
    10030    2    1    2    0    0  0.00000000000E+00  0.00000000000E+00  0.12783054340E+04  0.41039177890E+04  0.38997533815E+04 0.  0.
        4    1    3    3  502    0  0.64491894431E+03 -0.11355426991E+03 -0.12936285798E+04  0.14499281128E+04  0.12699999809E+01 0.  1.
       -4    1    3    3    0  502 -0.64491894431E+03  0.11355426991E+03  0.25719340138E+04  0.26539896762E+04  0.12699999809E+01 0. -1.
</event>
<event>
 5   0  0.7675750E-08  0.3862763E+04  0.7818609E-02  0.8032819E-01
       -1   -1    0    0    0  501  0.00000000000E+00  0.00000000000E+00  0.25462354954E+04  0.25462354954E+04  0.50400001928E-02 0.  1.
        1   -1    0    0  501    0  0.00000000000E+00  0.00000000000E+00 -0.14649998542E+04  0.14649998542E+04  0.50400001928E-02 0. -1.
    10030    2    1    2    0    0  0.00000000000E+00  0.00000000000E+00  0.10812356412E+04  0.40112353496E+04  0.38627630678E+04 0.  0.
        5    1    3    3  502    0 -0.58621625680E+03 -0.44751625299E+03  0.23942470821E+04  0.25052667476E+04  0.46999998093E+01 0.  1.
       -5    1    3    3    0  502  0.58621625680E+03  0.44751625299E+03 -0.13130114409E+04  0.15059686020E+04  0.46999998093E+01 0. -1.
</event>
<event>
 5   0  0.7731706E-08  0.3837140E+04  0.7818609E-02  0.8038231E-01
        1   -1    0    0  501    0  0.00000000000E+00  0.00000000000E+00  0.19811670003E+04  0.19811670003E+04  0.50400001928E-02 0.  1.
       -1   -1    0    0    0  501  0.00000000000E+00  0.00000000000E+00 -0.18579510894E+04  0.18579510894E+04  0.50400001928E-02 0. -1.
    10030    2    1    2    0    0  0.00000000000E+00  0.00000000000E+00  0.12321591083E+03  0.38391180897E+04  0.38371402823E+04 0.  0.
        3    1    3    3  502    0  0.17504882525E+04  0.26458002722E+03  0.80138047986E+03  0.19433019314E+04  0.10100000352E+00 0.  1.
       -3    1    3    3    0  502 -0.17504882525E+04 -0.26458002722E+03 -0.67816456903E+03  0.18958161583E+04  0.10100000352E+00 0. -1.
</event>
<event>
 5   0  0.7675750E-08  0.3841295E+04  0.7818609E-02  0.8037351E-01
        1   -1    0    0  501    0  0.00000000000E+00  0.00000000000E+00  0.17015594925E+04  0.17015594925E+04  0.50400001928E-02 0.  1.
       -1   -1    0    0    0  501  0.00000000000E+00  0.00000000000E+00 -0.21679450885E+04  0.21679450885E+04  0.50400001928E-02 0. -1.
    10030    2    1    2    0    0  0.00000000000E+00  0.00000000000E+00 -0.46638559603E+03  0.38695045810E+04  0.38412953776E+04 0.  0.
        2    1    3    3  502    0  0.55105275546E+03 -0.80323483201E+03  0.14342705171E+04  0.17337754326E+04  0.25500000920E-02 0.  1.
       -2    1    3    3    0  502 -0.55105275546E+03  0.80323483201E+03 -0.19006561131E+04  0.21357291483E+04  0.25500000920E-02 0. -1.
</event>
<event>
 5   0  0.2384787E-07  0.3910473E+04  0.7818609E-02  0.8022855E-01
        2   -1    0    0  501    0  0.00000000000E+00  0.00000000000E+00  0.26043615513E+04  0.26043615513E+04  0.25500000920E-02 0. -1.
       -2   -1    0    0    0  501  0.00000000000E+00  0.00000000000E+00 -0.14679028831E+04  0.14679028831E+04  0.25500000920E-02 0.  1.
    10030    2    1    2    0    0  0.00000000000E+00  0.00000000000E+00  0.11364586682E+04  0.40722644344E+04  0.39104730301E+04 0.  0.
        4    1    3    3  502    0  0.17251080940E+04 -0.68873703248E+03  0.12038868627E+04  0.22135270107E+04  0.12699999809E+01 0. -1.
       -4    1    3    3    0  502 -0.17251080940E+04  0.68873703248E+03 -0.67428194420E+02  0.18587374237E+04  0.12699999809E+01 0.  1.
</event>
<event>
 5   0  0.7731706E-08  0.3905712E+04  0.7818609E-02  0.8023842E-01
       -1   -1    0    0    0  501  0.00000000000E+00  0.00000000000E+00  0.27063619884E+04  0.27063619884E+04  0.50400001928E-02 0.  1.
        1   -1    0    0  501    0  0.00000000000E+00  0.00000000000E+00 -0.14091413239E+04  0.14091413239E+04  0.50400001928E-02 0. -1.
    10030    2    1    2    0    0  0.00000000000E+00  0.00000000000E+00  0.12972206645E+04  0.41155033124E+04  0.39057119788E+04 0.  0.
        3    1    3    3  502    0  0.81550592168E+03 -0.16212363721E+03 -0.12133092835E+04  0.14708682502E+04  0.10100000352E+00 0. -1.
       -3    1    3    3    0  502 -0.81550592168E+03  0.16212363721E+03  0.25105299480E+04  0.26446350621E+04  0.10100000352E+00 0.  1.
</event>
<event>
 5   0  0.2473224E-07  0.3452740E+04  0.7818609E-02  0.8125082E-01
       -2   -1    0    0    0  501  0.00000000000E+00  0.00000000000E+00  0.10805029639E+04  0.10805029639E+04  0.25500000920E-02 0. -1.
        2   -1    0    0  501    0  0.00000000000E+00  0.00000000000E+00 -0.27583012056E+04  0.27583012056E+04  0.25500000920E-02 0.  1.
    10030    2    1    2    0    0  0.00000000000E+00  0.00000000000E+00 -0.16777982418E+04  0.38388041695E+04  0.34527395661E+04 0.  0.
        2    1    3    3  502    0  0.92651534118E+03  0.86755455461E+03  0.46209953718E+03  0.13507840556E+04  0.25500000920E-02 0. -1.
       -2    1    3    3    0  502 -0.92651534118E+03 -0.86755455461E+03 -0.21398977789E+04  0.24880201139E+04  0.25500000920E-02 0.  1.
</event>
<event>
 5   0  0.2384787E-07  0.3926870E+04  0.7818609E-02  0.8019464E-01
        2   -1    0    0  501    0  0.00000000000E+00  0.00000000000E+00  0.13292302194E+04  0.13292302194E+04  0.25500000920E-02 0.  1.
       -2   -1    0    0    0  501  0.00000000000E+00  0.00000000000E+00 -0.29002321823E+04  0.29002321823E+04  0.25500000920E-02 0. -1.
    10030    2    1    2    0    0  0.00000000000E+00  0.00000000000E+00 -0.15710019629E+04  0.42294624017E+04  0.39268696235E+04 0.  0.
        4    1    3    3  502    0  0.50952735591E+03  0.11142691280E+04  0.86695187157E+03  0.15009400310E+04  0.12699999809E+01 0.  1.
       -4    1    3    3    0  502 -0.50952735591E+03 -0.11142691280E+04 -0.24379538345E+04  0.27285223708E+04  0.12699999809E+01 0. -1.
</event>
<event>
 5   0  0.7675750E-08  0.3798836E+04  0.7818609E-02  0.8046405E-01
        1   -1    0    0  501    0  0.00000000000E+00  0.00000000000E+00  0.18049517377E+04  0.18049517378E+04  0.50400001928E-02 0. -1.
       -1   -1    0    0    0  501  0.00000000000E+00  0.00000000000E+00 -0.19988287817E+04  0.19988287817E+04  0.50400001928E-02 0.  1.
    10030    2    1    2    0    0  0.00000000000E+00  0.00000000000E+00 -0.19387704394E+03  0.38037805194E+04  0.37988363918E+04 0.  0.
        5    1    3    3  502    0  0.12974127992E+03 -0.17713528122E+04 -0.77104856911E+03  0.19362493566E+04  0.46999998093E+01 0.  1.
       -5    1    3    3    0  502 -0.12974127992E+03  0.17713528122E+04  0.57717152517E+03  0.18675311629E+04  0.46999998093E+01 0. -1.
</event>
<event>
 5   0  0.7675750E-08  0.3926289E+04  0.7818609E-02  0.8019584E-01
        1   -1    0    0  501    0  0.00000000000E+00  0.00000000000E+00  0.21572567490E+04  0.21572567491E+04  0.50400001928E-02 0.  1.
       -1   -1    0    0    0  501  0.00000000000E+00  0.00000000000E+00 -0.17864989835E+04  0.17864989835E+04  0.50400001928E-02 0. -1.
    10030    2    1    2    0    0  0.00000000000E+00  0.00000000000E+00  0.37075776556E+03  0.39437557325E+04  0.39262893369E+04 0.  0.
        2    1    3    3  502    0 -0.19116016894E+04  0.33511457182E+02 -0.26224126254E+03  0.19297964961E+04  0.25500000920E-02 0. -1.
       -2    1    3    3    0  502  0.19116016894E+04 -0.33511457182E+02  0.63299902811E+03  0.20139592365E+04  0.25500000920E-02 0.  1.
</event>
<event>
 5   0  0.2473224E-07  0.3883979E+04  0.7818609E-02  0.8028369E-01
        2   -1    0    0  501    0  0.00000000000E+00  0.00000000000E+00  0.25259232740E+04  0.25259232740E+04  0.25500000920E-02 0. -1.
       -2   -1    0    0    0  501  0.00000000000E+00  0.00000000000E+00 -0.14930476234E+04  0.14930476234E+04  0.25500000920E-02 0.  1.
    10030    2    1    2    0    0  0.00000000000E+00  0.00000000000E+00  0.10328756506E+04  0.40189708975E+04  0.38839792694E+04 0.  0.
        2    1    3    3  502    0 -0.18022244387E+02 -0.94062397329E+03 -0.12414982817E+04  0.15576958124E+04  0.25500000920E-02 0.  1.
       -2    1    3    3    0  502  0.18022244387E+02  0.94062397329E+03  0.22743739323E+04  0.24612750851E+04  0.25500000920E-02 0. -1.
</event>
<event>
 5   0  0.2395572E-07  0.3871776E+04  0.7818609E-02  0.8030925E-01
        2   -1    0    0  501    0  0.00000000000E+00  0.00000000000E+00  0.12231062849E+04  0.12231062849E+04  0.25500000920E-02 0.  1.
       -2   -1    0    0    0  501  0.00000000000E+00  0.00000000000E+00 -0.30640534925E+04  0.30640534925E+04  0.25500000920E-02 0. -1.
    10030    2    1    2    0    0  0.00000000000E+00  0.00000000000E+00 -0.18409472076E+04  0.42871597774E+04  0.38717763799E+04 0.  0.
        3    1    3    3  502    0  0.53158367639E+03 -0.14172198343E+04 -0.22568384892E+04  0.27174276881E+04  0.10100000352E+00 0. -1.
       -3    1    3    3    0  502 -0.53158367639E+03  0.14172198343E+04  0.41589128157E+03  0.15697320893E+04  0.10100000352E+00 0.  1.
</event>
<event>
 5   0  0.2486268E-07  0.3910854E+04  0.7818609E-02  0.8022776E-01
        2   -1    0    0  501    0  0.00000000000E+00  0.00000000000E+00  0.23117556460E+04  0.23117556460E+04  0.25500000920E-02 0.  1.
       -2   -1    0    0    0  501  0.00000000000E+00  0.00000000000E+00 -0.16540219114E+04  0.16540219114E+04  0.25500000920E-02 0. -1.
    10030    2    1    2    0    0  0.00000000000E+00  0.00000000000E+00  0.65773373456E+03  0.39657775574E+04  0.39108538671E+04 0.  0.
        5    1    3    3  502    0  0.61056881821E+02  0.20587893343E+03 -0.16420229766E+04  0.16560119636E+04  0.46999998093E+01 0. -1.
       -5    1    3    3    0  502 -0.61056881821E+02 -0.20587893343E+03  0.22997567111E+04  0.23097655938E+04  0.46999998093E+01 0.  1.
</event>
<event>
 5   0  0.7675750E-08  0.3890935E+04  0.7818609E-02  0.8026917E-01
       -1   -1    0    0    0  501  0.00000000000E+00  0.00000000000E+00  0.14760119945E+04  0.14760119945E+04  0.50400001928E-02 0. -1.
        1   -1    0    0  501    0  0.00000000000E+00  0.00000000000E+00 -0.25642360950E+04  0.25642360950E+04  0.50400001928E-02 0.  1.
    10030    2    1    2    0    0  0.00000000000E+00  0.00000000000E+00 -0.10882241005E+04  0.40402480895E+04  0.38909347119E+04 0.  0.
        2    1    3    3  502    0 -0.75457307206E+03  0.81748721641E+03  0.11131213715E+04  0.15737550819E+04  0.25500000920E-02 0. -1.
       -2    1    3    3    0  502  0.75457307206E+03 -0.81748721641E+03 -0.22013454719E+04  0.24664930077E+04  0.25500000920E-02 0.  1.
</event>
<event>
 5   0  0.2473224E-07  0.3296958E+04  0.7818609E-02  0.8163670E-01
        2   -1    0    0  501    0  0.00000000000E+00  0.00000000000E+00  0.10339203371E+04  0.10339203371E+04  0.25500000920E-02 0.  1.
       -2   -1    0    0    0  501  0.00000000000E+00  0.00000000000E+00 -0.26283289658E+04  0.26283289658E+04  0.25500000920E-02 0. -1.
    10030    2    1    2    0    0  0.00000000000E+00  0.00000000000E+00 -0.15944086286E+04  0.36622493029E+04  0.32969578526E+04 0.  0.
        2    1    3    3  502    0 -0.18252279749E+03  0.50782267165E+03  0.93303173668E+03  0.10778435225E+04  0.25500000920E-02 0.  1.
       -2    1    3    3    0  502  0.18252279749E+03 -0.50782267165E+03 -0.25274403653E+04  0.25844057804E+04  0.25500000920E-02 0. -1.
</event>
<event>
 5   0  0.7675750E-08  0.3893658E+04  0.7818609E-02  0.8026350E-01
        1   -1    0    0  501    0  0.00000000000E+00  0.00000000000E+00  0.15675920061E+04  0.15675920061E+04  0.50400001928E-02 0. -1.
       -1   -1    0    0    0  501  0.00000000000E+00  0.00000000000E+00 -0.24178121490E+04  0.24178121490E+04  0.50400001928E-02 0.  1.
    10030    2    1    2    0    0  0.00000000000E+00  0.00000000000E+00 -0.85022014285E+03  0.39854041551E+04  0.38936579188E+04 0.  0.
        2    1    3    3  502    0  0.69655065922E+03  0.33694603816E+03  0.14034408970E+04  0.16026109337E+04  0.25500000920E-02 0. -1.
       -2    1    3    3    0  502 -0.69655065922E+03 -0.33694603816E+03 -0.22536610399E+04  0.23827932214E+04  0.25500000920E-02 0.  1.
</event>
<event>
 5   0  0.2486268E-07  0.3876508E+04  0.7818609E-02  0.8029933E-01
        2   -1    0    0  501    0  0.00000000000E+00  0.00000000000E+00  0.15708102183E+04  0.15708102183E+04  0.25500000920E-02 0.  1.
       -2   -1    0    0    0  501  0.00000000000E+00  0.00000000000E+00 -0.23916502896E+04  0.23916502896E+04  0.25500000920E-02 0. -1.
    10030    2    1    2    0    0  0.00000000000E+00  0.00000000000E+00 -0.82084007127E+03  0.39624605079E+04  0.38765080748E+04 0.  0.
        5    1    3    3  502    0  0.13016744339E+04  0.29138897289E+02 -0.18780838434E+04  0.22852628777E+04  0.46999998093E+01 0. -1.
       -5    1    3    3    0  502 -0.13016744339E+04 -0.29138897289E+02  0.10572437721E+04  0.16771976302E+04  0.46999998093E+01 0.  1.
</event>
<event>
 5   0  0.7675750E-08  0.3903263E+04  0.7818609E-02  0.8024351E-01
       -1   -1    0    0    0  501  0.00000000000E+00  0.00000000000E+00  0.21929551475E+04  0.21929551475E+04  0.50400001928E-02 0. -1.
        1   -1    0    0  501    0  0.00000000000E+00  0.00000000000E+00 -0.17368639086E+04  0.17368639086E+04  0.50400001928E-02 0.  1.
    10030    2    1    2    0    0  0.00000000000E+00  0.00000000000E+00  0.45609123890E+03  0.39298190561E+04  0.39032625578E+04 0.  0.
        1    1    3    3  502    0  0.26995702453E+03 -0.22759793490E+03 -0.17044371197E+04  0.17406273323E+04  0.50400001928E-02 0.  1.
       -1    1    3    3    0  502 -0.26995702453E+03  0.22759793490E+03  0.21605283586E+04  0.21891917238E+04  0.50400001928E-02 0. -1.
</event>
<event>
 5   0  0.7675750E-08  0.3921943E+04  0.7818609E-02  0.8020481E-01
        1   -1    0    0  501    0  0.00000000000E+00  0.00000000000E+00  0.20915811918E+04  0.20915811918E+04  0.50400001928E-02 0.  1.
       -1   -1    0    0    0  501  0.00000000000E+00  0.00000000000E+00 -0.18385179083E+04  0.18385179083E+04  0.50400001928E-02 0. -1.
    10030    2    1    2    0    0  0.00000000000E+00  0.00000000000E+00  0.25306328346E+03  0.39300991001E+04  0.39219431295E+04 0.  0.
        4    1    3    3  502    0 -0.14697659878E+04  0.18950095228E+03  0.14134473144E+04  0.20479154263E+04  0.12699999809E+01 0.  1.
       -4    1    3    3    0  502  0.14697659878E+04 -0.18950095228E+03 -0.11603840309E+04  0.18821836738E+04  0.12699999809E+01 0. -1.
</event>
<event>
 5   0  0.7675750E-08  0.3929982E+04  0.7818609E-02  0.8018822E-01
       -1   -1    0    0    0  501  0.00000000000E+00  0.00000000000E+00  0.18126815469E+04  0.18126815469E+04  0.50400001928E-02 0. -1.
        1   -1    0    0  501    0  0.00000000000E+00  0.00000000000E+00 -0.21300980169E+04  0.21300980169E+04  0.50400001928E-02 0.  1.
    10030    2    1    2    0    0  0.00000000000E+00  0.00000000000E+00 -0.31741646993E+03  0.39427795638E+04  0.39299818668E+04 0.  0.
        1    1    3    3  502    0  0.49499405410E+03  0.11407850922E+04  0.13676862075E+04  0.18485062355E+04  0.50400001928E-02 0. -1.
       -1    1    3    3    0  502 -0.49499405410E+03 -0.11407850922E+04 -0.16851026775E+04  0.20942733284E+04  0.50400001928E-02 0.  1.
</event>
<event>
 5   0  0.2486268E-07  0.3862024E+04  0.7818609E-02  0.8032974E-01
        2   -1    0    0  501    0  0.00000000000E+00  0.00000000000E+00  0.18516906256E+04  0.18516906256E+04  0.25500000920E-02 0. -1.
       -2   -1    0    0    0  501  0.00000000000E+00  0.00000000000E+00 -0.20137316923E+04  0.20137316923E+04  0.25500000920E-02 0.  1.
    10030    2    1    2    0    0  0.00000000000E+00  0.00000000000E+00 -0.16204106664E+03  0.38654223179E+04  0.38620243899E+04 0.  0.
        5    1    3    3  502    0 -0.17445280089E+04  0.32113941751E+03  0.68272194272E+03  0.19006945679E+04  0.46999998093E+01 0. -1.
       -5    1    3    3    0  502  0.17445280089E+04 -0.32113941751E+03 -0.84476300936E+03  0.19647277500E+04  0.46999998093E+01 0.  1.
</event>
<event>
 5   0  0.7675750E-08  0.3854202E+04  0.7818609E-02  0.8034622E-01
       -1   -1    0    0    0  501  0.00000000000E+00  0.00000000000E+00  0.13132074717E+04  0.13132074717E+04  0.50400001928E-02 0. -1.
        1   -1    0    0  501    0  0.00000000000E+00  0.00000000000E+00 -0.28279760060E+04  0.28279760060E+04  0.50400001928E-02 0.  1.
    10030    2    1    2    0    0  0.00000000000E+00  0.00000000000E+00 -0.15147685343E+04  0.41411834777E+04  0.38542024964E+04 0.  0.
        5    1    3    3  502    0 -0.15914322115E+04 -0.64951274484E+03 -0.16935668604E+04  0.24130300641E+04  0.46999998093E+01 0. -1.
       -5    1    3    3    0  502  0.15914322115E+04  0.64951274484E+03  0.17879832614E+03  0.17281534136E+04  0.46999998093E+01 0.  1.
</event>
<event>
 5   0  0.7731706E-08  0.3877440E+04  0.7818609E-02  0.8029738E-01
       -1   -1    0    0    0  501  0.00000000000E+00  0.00000000000E+00  0.17809495437E+04  0.17809495437E+04  0.50400001928E-02 0. -1.
        1   -1    0    0  501    0  0.00000000000E+00  0.00000000000E+00 -0.21104667566E+04  0.21104667566E+04  0.50400001928E-02 0.  1.
    10030    2    1    2    0    0  0.00000000000E+00  0.00000000000E+00 -0.32951721289E+03  0.38914163004E+04  0.38774397776E+04 0.  0.
        3    1    3    3  502    0  0.10953881462E+04  0.57166937522E+03  0.13345989963E+04  0.18187455997E+04  0.10100000352E+00 0. -1.
       -3    1    3    3    0  502 -0.10953881462E+04 -0.57166937522E+03 -0.16641162092E+04  0.20726707006E+04  0.10100000352E+00 0.  1.
</event>
<event>
 5   0  0.2446281E-07  0.3744825E+04  0.7818609E-02  0.8058100E-01
        2   -1    0    0  501    0  0.00000000000E+00  0.00000000000E+00  0.10357569955E+04  0.10357569955E+04  0.25500000920E-02 0. -1.
       -2   -1    0    0    0  501  0.00000000000E+00  0.00000000000E+00 -0.33848955579E+04  0.33848955579E+04  0.25500000920E-02 0.  1.
    10030    2    1    2    0    0  0.00000000000E+00  0.00000000000E+00 -0.23491385623E+04  0.44206525534E+04  0.37448253648E+04 0.  0.
        1    1    3    3  502    0 -0.60261275593E+03 -0.17220705683E+04 -0.67756482821E+03  0.19462176837E+04  0.50400001928E-02 0. -1.
       -1    1    3    3    0  502  0.60261275593E+03  0.17220705683E+04 -0.16715737341E+04  0.24744348697E+04  0.50400001928E-02 0.  1.
</event>
<event>
 5   0  0.7731706E-08  0.3864456E+04  0.7818609E-02  0.8032463E-01
        1   -1    0    0  501    0  0.00000000000E+00  0.00000000000E+00  0.14649049614E+04  0.14649049614E+04  0.50400001928E-02 0.  1.
       -1   -1    0    0    0  501  0.00000000000E+00  0.00000000000E+00 -0.25486327253E+04  0.25486327253E+04  0.50400001928E-02 0. -1.
    10030    2    1    2    0    0  0.00000000000E+00  0.00000000000E+00 -0.10837277638E+04  0.40135376867E+04  0.38644558345E+04 0.  0.
        3    1    3    3  502    0 -0.55969495375E+03 -0.26331309263E+03  0.13593043120E+04  0.14934190467E+04  0.10100000352E+00 0.  1.
       -3    1    3    3    0  502  0.55969495375E+03  0.26331309263E+03 -0.24430320759E+04  0.25201186400E+04  0.10100000352E+00 0. -1.
</event>
<event>
 5   0  0.2395572E-07  0.3866672E+04  0.7818609E-02  0.8031997E-01
       -2   -1    0    0    0  501  0.00000000000E+00  0.00000000000E+00  0.22342939640E+04  0.22342939640E+04  0.25500000920E-02 0. -1.
        2   -1    0    0  501    0  0.00000000000E+00  0.00000000000E+00 -0.16729171449E+04  0.16729171449E+04  0.25500000920E-02 0.  1.
    10030    2    1    2    0    0  0.00000000000E+00  0.00000000000E+00  0.56137681917E+03  0.39072111089E+04  0.38666723053E+04 0.  0.
        3    1    3    3  502    0 -0.57978428556E+03  0.18041696663E+03 -0.15740630577E+04  0.16871202149E+04  0.10100000352E+00 0.  1.
       -3    1    3    3    0  502  0.57978428556E+03 -0.18041696663E+03  0.21354398769E+04  0.22200908940E+04  0.10100000352E+00 0. -1.
</event>
<event>
 5   0  0.7731706E-08  0.3898927E+04  0.7818609E-02  0.8025252E-01
        1   -1    0    0  501    0  0.00000000000E+00  0.00000000000E+00  0.27434466430E+04  0.27434466430E+04  0.50400001928E-02 0. -1.
       -1   -1    0    0    0  501  0.00000000000E+00  0.00000000000E+00 -0.13852677366E+04  0.13852677366E+04  0.50400001928E-02 0.  1.
    10030    2    1    2    0    0  0.00000000000E+00  0.00000000000E+00  0.13581789065E+04  0.41287143796E+04  0.38989270943E+04 0.  0.
        3    1    3    3  502    0  0.18795920327E+04 -0.50967874898E+03  0.77242897304E+03  0.20950620910E+04  0.10100000352E+00 0. -1.
       -3    1    3    3    0  502 -0.18795920327E+04  0.50967874898E+03  0.58574993341E+03  0.20336522886E+04  0.10100000352E+00 0.  1.
</event>
<event>
 5   0  0.7675750E-08  0.3831580E+04  0.7818609E-02  0.8039412E-01
        1   -1    0    0  501    0  0.00000000000E+00  0.00000000000E+00  0.19826620950E+04  0.19826620950E+04  0.50400001928E-02 0.  1.
       -1   -1    0    0    0  501  0.00000000000E+00  0.00000000000E+00 -0.18511733682E+04  0.18511733682E+04  0.50400001928E-02 0. -1.
    10030    2    1    2    0    0  0.00000000000E+00  0.00000000000E+00  0.13148872684E+03  0.38338354632E+04  0.38315799709E+04 0.  0.
        1    1    3    3  502    0 -0.13411835510E+04 -0.20916837308E+03 -0.12869858349E+04  0.18705232597E+04  0.50400001928E-02 0. -1.
       -1    1    3    3    0  502  0.13411835510E+04  0.20916837308E+03  0.14184745618E+04  0.19633122035E+04  0.50400001928E-02 0.  1.
</event>
<event>
 5   0  0.2446281E-07  0.4017416E+04  0.7818609E-02  0.8001042E-01
        2   -1    0    0  501    0  0.00000000000E+00  0.00000000000E+00  0.20651911390E+04  0.20651911390E+04  0.25500000920E-02 0.  1.
       -2   -1    0    0    0  501  0.00000000000E+00  0.00000000000E+00 -0.19537696550E+04  0.19537696550E+04  0.25500000920E-02 0. -1.
    10030    2    1    2    0    0  0.00000000000E+00  0.00000000000E+00  0.11142148403E+03  0.40189607940E+04  0.40174159751E+04 0.  0.
        1    1    3    3  502    0  0.36304287646E+03  0.56368254626E+02  0.20312942330E+04  0.20642513828E+04  0.50400001928E-02 0.  1.
       -1    1    3    3    0  502 -0.36304287646E+03 -0.56368254626E+02 -0.19198727489E+04  0.19547094113E+04  0.50400001928E-02 0. -1.
</event>
<event>
 5   0  0.7731706E-08  0.3177160E+04  0.7818609E-02  0.8194875E-01
       -1   -1    0    0    0  501  0.00000000000E+00  0.00000000000E+00  0.95223502377E+03  0.95223502378E+03  0.50400001928E-02 0.  1.
        1   -1    0    0  501    0  0.00000000000E+00  0.00000000000E+00 -0.26501718335E+04  0.26501718335E+04  0.50400001928E-02 0. -1.
    10030    2    1    2    0    0  0.00000000000E+00  0.00000000000E+00 -0.16979368098E+04  0.36024068573E+04  0.31771600142E+04 0.  0.
        3    1    3    3  502    0 -0.10165841124E+04  0.22573118971E+03  0.51126215512E+03  0.11600805269E+04  0.10100000352E+00 0.  1.
       -3    1    3    3    0  502  0.10165841124E+04 -0.22573118971E+03 -0.22091989649E+04  0.24423263304E+04  0.10100000352E+00 0. -1.
</event>
<event>
 5   0  0.7731706E-08  0.3929036E+04  0.7818609E-02  0.8019017E-01
        1   -1    0    0  501    0  0.00000000000E+00  0.00000000000E+00  0.17898187557E+04  0.17898187557E+04  0.50400001928E-02 0. -1.
       -1   -1    0    0    0  501  0.00000000000E+00  0.00000000000E+00 -0.21562696425E+04  0.21562696425E+04  0.50400001928E-02 0.  1.
    10030    2    1    2    0    0  0.00000000000E+00  0.00000000000E+00 -0.36645088681E+03  0.39460883983E+04  0.39290364461E+04 0.  0.
        3    1    3    3  502    0 -0.17911826408E+04  0.80632481687E+03 -0.21227979202E+03  0.19757423120E+04  0.10100000352E+00 0.  1.
       -3    1    3    3    0  502  0.17911826408E+04 -0.80632481687E+03 -0.15417109479E+03  0.19703460863E+04  0.10100000352E+00 0. -1.
</event>
<event>
 5   0  0.2395572E-07  0.3880265E+04  0.7818609E-02  0.8029146E-01
        2   -1    0    0  501    0  0.00000000000E+00  0.00000000000E+00  0.23992361012E+04  0.23992361012E+04  0.25500000920E-02 0. -1.
       -2   -1    0    0    0  501  0.00000000000E+00  0.00000000000E+00 -0.15688800075E+04  0.15688800075E+04  0.25500000920E-02 0.  1.
    10030    2    1    2    0    0  0.00000000000E+00  0.00000000000E+00  0.83035609373E+03  0.39681161088E+04  0.38802647088E+04 0.  0.
        3    1    3    3  502    0  0.13659275032E+04 -0.13718393978E+04  0.28416719319E+03  0.19566431155E+04  0.10100000352E+00 0.  1.
       -3    1    3    3    0  502 -0.13659275032E+04  0.13718393978E+04  0.54618890054E+03  0.20114729933E+04  0.10100000352E+00 0. -1.
</event>
<event>
 5   0  0.2486268E-07  0.3943155E+04  0.7818609E-02  0.8016113E-01
        2   -1    0    0  501    0  0.00000000000E+00  0.00000000000E+00  0.15715126190E+04  0.15715126190E+04  0.25500000920E-02 0.  1.
       -2   -1    0    0    0  501  0.00000000000E+00  0.00000000000E+00 -0.24734887418E+04  0.24734887418E+04  0.25500000920E-02 0. -1.
    10030    2    1    2    0    0  0.00000000000E+00  0.00000000000E+00 -0.90197612278E+03  0.40450013609E+04  0.39431554729E+04 0.  0.
        5    1    3    3  502    0  0.12183998819E+04 -0.95865706475E+03 -0.17004686980E+04  0.23011165818E+04  0.46999998093E+01 0. -1.
       -5    1    3    3    0  502 -0.12183998819E+04  0.95865706475E+03  0.79849257524E+03  0.17438847791E+04  0.46999998093E+01 0.  1.
</event>
<event>
 5   0  0.2473224E-07  0.3956840E+04  0.7818609E-02  0.8013310E-01
       -2   -1    0    0    0  501  0.00000000000E+00  0.00000000000E+00  0.24472115071E+04  0.24472115071E+04  0.25500000920E-02 0. -1.
        2   -1    0    0  501    0  0.00000000000E+00  0.00000000000E+00 -0.15994310691E+04  0.15994310691E+04  0.25500000920E-02 0.  1.
    10030    2    1    2    0    0  0.00000000000E+00  0.00000000000E+00  0.84778043803E+03  0.40466425762E+04  0.39568402127E+04 0.  0.
        2    1    3    3  502    0 -0.36810045541E+03  0.49213068989E+03 -0.14993362884E+04  0.16204011438E+04  0.25500000920E-02 0.  1.
       -2    1    3    3    0  502  0.36810045541E+03 -0.49213068989E+03  0.23471167264E+04  0.24262414324E+04  0.25500000920E-02 0. -1.
</event>
<event>
 5   0  0.2473224E-07  0.3909393E+04  0.7818609E-02  0.8023078E-01
        2   -1    0    0  501    0  0.00000000000E+00  0.00000000000E+00  0.20419158048E+04  0.20419158048E+04  0.25500000920E-02 0. -1.
       -2   -1    0    0    0  501  0.00000000000E+00  0.00000000000E+00 -0.18712027991E+04  0.18712027991E+04  0.25500000920E-02 0.  1.
    10030    2    1    2    0    0  0.00000000000E+00  0.00000000000E+00  0.17071300573E+03  0.39131186040E+04  0.39093930831E+04 0.  0.
        2    1    3    3  502    0  0.73172754410E+03 -0.86250494642E+03 -0.15103705485E+04  0.18869444017E+04  0.25500000920E-02 0.  1.
       -2    1    3    3    0  502 -0.73172754410E+03  0.86250494642E+03  0.16810835543E+04  0.20261742022E+04  0.25500000920E-02 0. -1.
</event>
<event>
 5   0  0.2395572E-07  0.3866993E+04  0.7818609E-02  0.8031929E-01
       -2   -1    0    0    0  501  0.00000000000E+00  0.00000000000E+00  0.11387853029E+04  0.11387853029E+04  0.25500000920E-02 0.  1.
        2   -1    0    0  501    0  0.00000000000E+00  0.00000000000E+00 -0.32828031443E+04  0.32828031443E+04  0.25500000920E-02 0. -1.
    10030    2    1    2    0    0  0.00000000000E+00  0.00000000000E+00 -0.21440178414E+04  0.44215884472E+04  0.38669926160E+04 0.  0.
        3    1    3    3  502    0 -0.42709951215E+03 -0.17860211337E+04 -0.17638688395E+04  0.25462754714E+04  0.10100000352E+00 0.  1.
       -3    1    3    3    0  502  0.42709951215E+03  0.17860211337E+04 -0.38014900193E+03  0.18753129758E+04  0.10100000352E+00 0. -1.
</event>
<event>
 5   0  0.7675750E-08  0.3913169E+04  0.7818609E-02  0.8022296E-01
       -1   -1    0    0    0  501  0.00000000000E+00  0.00000000000E+00  0.21550174913E+04  0.21550174913E+04  0.50400001928E-02 0. -1.
        1   -1    0    0  501    0  0.00000000000E+00  0.00000000000E+00 -0.17764228670E+04  0.17764228670E+04  0.50400001928E-02 0.  1.
    10030    2    1    2    0    0  0.00000000000E+00  0.00000000000E+00  0.37859462424E+03  0.39314403583E+04  0.39131687162E+04 0.  0.
        2    1    3    3  502    0 -0.13081005520E+04  0.32117974758E+03 -0.12364621429E+04  0.18284206614E+04  0.25500000920E-02 0.  1.
       -2    1    3    3    0  502  0.13081005520E+04 -0.32117974758E+03  0.16150567672E+04  0.21030196969E+04  0.25500000920E-02 0. -1.
</event>
<event>
 5   0  0.2446281E-07  0.3873703E+04  0.7818609E-02  0.8030521E-01
       -2   -1    0    0    0  501  0.00000000000E+00  0.00000000000E+00  0.23565041211E+04  0.23565041211E+04  0.25500000920E-02 0.  1.
        2   -1    0    0  501    0  0.00000000000E+00  0.00000000000E+00 -0.15919319190E+04  0.15919319191E+04  0.25500000920E-02 0. -1.
    10030    2    1    2    0    0  0.00000000000E+00  0.00000000000E+00  0.76457220204E+03  0.39484360401E+04  0.38737032038E+04 0.  0.
        1    1    3    3  502    0  0.13988432920E+04  0.41064759308E+02  0.17471277900E+04  0.22385049441E+04  0.50400001928E-02 0.  1.
       -1    1    3    3    0  502 -0.13988432920E+04 -0.41064759308E+02 -0.98255558795E+03  0.17099310961E+04  0.50400001928E-02 0. -1.
</event>
<event>
 5   0  0.7731706E-08  0.3874884E+04  0.7818609E-02  0.8030273E-01
       -1   -1    0    0    0  501  0.00000000000E+00  0.00000000000E+00  0.28383026945E+04  0.28383026945E+04  0.50400001928E-02 0. -1.
        1   -1    0    0  501    0  0.00000000000E+00  0.00000000000E+00 -0.13225089233E+04  0.13225089234E+04  0.50400001928E-02 0.  1.
    10030    2    1    2    0    0  0.00000000000E+00  0.00000000000E+00  0.15157937711E+04  0.41608116178E+04  0.38748835547E+04 0.  0.
        3    1    3    3  502    0  0.39316404013E+03 -0.18645850597E+04  0.38218507286E+03  0.19435330837E+04  0.10100000352E+00 0.  1.
       -3    1    3    3    0  502 -0.39316404013E+03  0.18645850597E+04  0.11336086983E+04  0.22172785342E+04  0.10100000352E+00 0. -1.
</event>
<event>
 5   0  0.7731706E-08  0.3890610E+04  0.7818609E-02  0.8026985E-01
       -1   -1    0    0    0  501  0.00000000000E+00  0.00000000000E+00  0.26862685249E+04  0.26862685249E+04  0.50400001928E-02 0.  1.
        1   -1    0    0  501    0  0.00000000000E+00  0.00000000000E+00 -0.14087244882E+04  0.14087244882E+04  0.50400001928E-02 0. -1.
    10030    2    1    2    0    0  0.00000000000E+00  0.00000000000E+00  0.12775440367E+04  0.40949930131E+04  0.38906103650E+04 0.  0.
        3    1    3    3  502    0 -0.81342805427E+02 -0.96708008987E+03  0.24132651889E+04  0.26010977364E+04  0.10100000352E+00 0.  1.
       -3    1    3    3    0  502  0.81342805427E+02  0.96708008987E+03 -0.11357211522E+04  0.14938952768E+04  0.10100000352E+00 0. -1.
</event>
<event>
 5   0  0.7675750E-08  0.3888443E+04  0.7818609E-02  0.8027437E-01
       -1   -1    0    0    0  501  0.00000000000E+00  0.00000000000E+00  0.15704249454E+04  0.15704249454E+04  0.50400001928E-02 0. -1.
        1   -1    0    0  501    0  0.00000000000E+00  0.00000000000E+00 -0.24069904568E+04  0.24069904568E+04  0.50400001928E-02 0.  1.
    10030    2    1    2    0    0  0.00000000000E+00  0.00000000000E+00 -0.83656551138E+03  0.39774154022E+04  0.38884433167E+04 0.  0.
        4    1    3    3  502    0  0.14100824861E+04  0.38177208002E+03  0.89400389047E+03  0.17126958597E+04  0.12699999809E+01 0. -1.
       -4    1    3    3    0  502 -0.14100824861E+04 -0.38177208002E+03 -0.17305694018E+04  0.22647195425E+04  0.12699999809E+01 0.  1.
</event>
<event>
 5   0  0.2384787E-07  0.3924255E+04  0.7818609E-02  0.8020003E-01
        2   -1    0    0  501    0  0.00000000000E+00  0.00000000000E+00  0.26384909678E+04  0.26384909678E+04  0.25500000920E-02 0. -1.
       -2   -1    0    0    0  501  0.00000000000E+00  0.00000000000E+00 -0.14591464869E+04  0.14591464869E+04  0.25500000920E-02 0.  1.
    10030    2    1    2    0    0  0.00000000000E+00  0.00000000000E+00  0.11793444809E+04  0.40976374547E+04  0.39242552549E+04 0.  0.
        4    1    3    3  502    0  0.14274940128E+02  0.36565335380E+03  0.26025448995E+04  0.26281452997E+04  0.12699999809E+01 0. -1.
       -4    1    3    3    0  502 -0.14274940128E+02 -0.36565335380E+03 -0.14232004187E+04  0.14694921550E+04  0.12699999809E+01 0.  1.
</event>
<event>
 5   0  0.7731706E-08  0.3944677E+04  0.7818609E-02  0.8015801E-01
       -1   -1    0    0    0  501  0.00000000000E+00  0.00000000000E+00  0.14608795166E+04  0.14608795166E+04  0.50400001928E-02 0. -1.
        1   -1    0    0  501    0  0.00000000000E+00  0.00000000000E+00 -0.26628603886E+04  0.26628603886E+04  0.50400001928E-02 0.  1.
    10030    2    1    2    0    0  0.00000000000E+00  0.00000000000E+00 -0.12019808721E+04  0.41237399052E+04  0.39446765126E+04 0.  0.
        3    1    3    3  502    0  0.13108017593E+04 -0.59278861656E+03  0.80952365890E+03  0.16507356423E+04  0.10100000352E+00 0. -1.
       -3    1    3    3    0  502 -0.13108017593E+04  0.59278861656E+03 -0.20115045310E+04  0.24730042629E+04  0.10100000352E+00 0.  1.
</event>
<event>
 5   0  0.2486268E-07  0.3946981E+04  0.7818609E-02  0.8015328E-01
       -2   -1    0    0    0  501  0.00000000000E+00  0.00000000000E+00  0.17520928564E+04  0.17520928564E+04  0.25500000920E-02 0. -1.
        2   -1    0    0  501    0  0.00000000000E+00  0.00000000000E+00 -0.22228638578E+04  0.22228638578E+04  0.25500000920E-02 0.  1.
    10030    2    1    2    0    0  0.00000000000E+00  0.00000000000E+00 -0.47077100142E+03  0.39749567142E+04  0.39469805604E+04 0.  0.
        5    1    3    3  502    0  0.44092766120E+02  0.18319016623E+04 -0.97326830954E+03  0.20748689512E+04  0.46999998093E+01 0.  1.
       -5    1    3    3    0  502 -0.44092766120E+02 -0.18319016623E+04  0.50249730812E+03  0.19000877630E+04  0.46999998093E+01 0. -1.
</event>
<event>
 5   0  0.7731706E-08  0.3921971E+04  0.7818609E-02  0.8020475E-01
        1   -1    0    0  501    0  0.00000000000E+00  0.00000000000E+00  0.21394967433E+04  0.21394967433E+04  0.50400001928E-02 0. -1.
       -1   -1    0    0    0  501  0.00000000000E+00  0.00000000000E+00 -0.17973683121E+04  0.17973683121E+04  0.50400001928E-02 0.  1.
    10030    2    1    2    0    0  0.00000000000E+00  0.00000000000E+00  0.34212843120E+03  0.39368650554E+04  0.39219707548E+04 0.  0.
        3    1    3    3  502    0  0.73259694252E+03 -0.61183909171E+03  0.18905840429E+04  0.21178652902E+04  0.10100000352E+00 0. -1.
       -3    1    3    3    0  502 -0.73259694252E+03  0.61183909171E+03 -0.15484556117E+04  0.18189997652E+04  0.10100000352E+00 0.  1.
</event>
<event>
 5   0  0.2446281E-07  0.3693467E+04  0.7818609E-02  0.8069411E-01
       -2   -1    0    0    0  501  0.00000000000E+00  0.00000000000E+00  0.10659338655E+04  0.10659338655E+04  0.25500000920E-02 0. -1.
        2   -1    0    0  501    0  0.00000000000E+00  0.00000000000E+00 -0.31994705437E+04  0.31994705437E+04  0.25500000920E-02 0.  1.
    10030    2    1    2    0    0  0.00000000000E+00  0.00000000000E+00 -0.21335366783E+04  0.42654044092E+04  0.36934666665E+04 0.  0.
        1    1    3    3  502    0 -0.12671617102E+04  0.13370568844E+04 -0.12173606356E+04  0.22080278143E+04  0.50400001928E-02 0.  1.
       -1    1    3    3    0  502  0.12671617102E+04 -0.13370568844E+04 -0.91617604271E+03  0.20573765949E+04  0.50400001928E-02 0. -1.
</event>
<event>
 5   0  0.7731706E-08  0.4184411E+04  0.7818609E-02  0.7968344E-01
        1   -1    0    0  501    0  0.00000000000E+00  0.00000000000E+00  0.14629355621E+04  0.14629355621E+04  0.50400001928E-02 0.  1.
       -1   -1    0    0    0  501  0.00000000000E+00  0.00000000000E+00 -0.29921511226E+04  0.29921511226E+04  0.50400001928E-02 0. -1.
    10030    2    1    2    0    0  0.00000000000E+00  0.00000000000E+00 -0.15292155605E+04  0.44550866847E+04  0.41844112056E+04 0.  0.
        3    1    3    3  502    0  0.10761736342E+04 -0.72400912551E+03 -0.25124410757E+04  0.28274898892E+04  0.10100000352E+00 0. -1.
       -3    1    3    3    0  502 -0.10761736342E+04  0.72400912551E+03  0.98322551513E+03  0.16275967955E+04  0.10100000352E+00 0.  1.
</event>
<event>
 5   0  0.2486268E-07  0.3993851E+04  0.7818609E-02  0.8005788E-01
       -2   -1    0    0    0  501  0.00000000000E+00  0.00000000000E+00  0.25054555053E+04  0.25054555053E+04  0.25500000920E-02 0.  1.
        2   -1    0    0  501    0  0.00000000000E+00  0.00000000000E+00 -0.15916114606E+04  0.15916114606E+04  0.25500000920E-02 0. -1.
    10030    2    1    2    0    0  0.00000000000E+00  0.00000000000E+00  0.91384404473E+03  0.40970669658E+04  0.39938511220E+04 0.  0.
        5    1    3    3  502    0 -0.95062226268E+03 -0.88756404322E+03 -0.10975737491E+04  0.17018057591E+04  0.46999998093E+01 0. -1.
       -5    1    3    3    0  502  0.95062226268E+03  0.88756404322E+03  0.20114177938E+04  0.23952612067E+04  0.46999998093E+01 0.  1.
</event>
<event>
 5   0  0.2395572E-07  0.3783201E+04  0.7818609E-02  0.8049770E-01
        2   -1    0    0  501    0  0.00000000000E+00  0.00000000000E+00  0.21886039772E+04  0.21886039772E+04  0.25500000920E-02 0. -1.
       -2   -1    0    0    0  501  0.00000000000E+00  0.00000000000E+00 -0.16349018500E+04  0.16349018500E+04  0.25500000920E-02 0.  1.
    10030    2    1    2    0    0  0.00000000000E+00  0.00000000000E+00  0.55370212722E+03  0.38235058273E+04  0.37832011268E+04 0.  0.
        3    1    3    3  502    0  0.66631325700E+03  0.11144414859E+04 -0.11133761568E+04  0.17104267475E+04  0.10100000352E+00 0.  1.
       -3    1    3    3    0  502 -0.66631325700E+03 -0.11144414859E+04  0.16670782840E+04  0.21130790797E+04  0.10100000352E+00 0. -1.
</event>
<event>
 5   0  0.2395572E-07  0.3868241E+04  0.7818609E-02  0.8031667E-01
        2   -1    0    0  501    0  0.00000000000E+00  0.00000000000E+00  0.16186108127E+04  0.16186108127E+04  0.25500000920E-02 0. -1.
       -2   -1    0    0    0  501  0.00000000000E+00  0.00000000000E+00 -0.23111318308E+04  0.23111318308E+04  0.25500000920E-02 0.  1.
    10030    2    1    2    0    0  0.00000000000E+00  0.00000000000E+00 -0.69252101805E+03  0.39297426435E+04  0.38682414459E+04 0.  0.
        3    1    3    3  502    0  0.14924006357E+04  0.99888138705E+03 -0.10758707156E+04  0.20934472741E+04  0.10100000352E+00 0.  1.
       -3    1    3    3    0  502 -0.14924006357E+04 -0.99888138705E+03  0.38334969756E+03  0.18362953694E+04  0.10100000352E+00 0. -1.
</event>
<event>
 5   0  0.7675750E-08  0.3723837E+04  0.7818609E-02  0.8062700E-01
        1   -1    0    0  501    0  0.00000000000E+00  0.00000000000E+00  0.14434979749E+04  0.14434979749E+04  0.50400001928E-02 0. -1.
       -1   -1    0    0    0  501  0.00000000000E+00  0.00000000000E+00 -0.24016242716E+04  0.24016242716E+04  0.50400001928E-02 0.  1.
    10030    2    1    2    0    0  0.00000000000E+00  0.00000000000E+00 -0.95812629663E+03  0.38451222465E+04  0.37238366090E+04 0.  0.
        1    1    3    3  502    0 -0.73218572162E+03 -0.12854416017E+04  0.68837307694E+03  0.16316597486E+04  0.50400001928E-02 0. -1.
       -1    1    3    3    0  502  0.73218572162E+03  0.12854416017E+04 -0.16464993736E+04  0.22134624979E+04  0.50400001928E-02 0.  1.
</event>
<event>
 5   0  0.7675750E-08  0.3823272E+04  0.7818609E-02  0.8041179E-01
        1   -1    0    0  501    0  0.00000000000E+00  0.00000000000E+00  0.27397103202E+04  0.27397103202E+04  0.50400001928E-02 0.  1.
       -1   -1    0    0    0  501  0.00000000000E+00  0.00000000000E+00 -0.13338462110E+04  0.13338462110E+04  0.50400001928E-02 0. -1.
    10030    2    1    2    0    0  0.00000000000E+00  0.00000000000E+00  0.14058641092E+04  0.40735565312E+04  0.38232720174E+04 0.  0.
        4    1    3    3  502    0  0.26409711050E+03  0.86389807472E+03 -0.10920761245E+04  0.14172858011E+04  0.12699999809E+01 0. -1.
       -4    1    3    3    0  502 -0.26409711050E+03 -0.86389807472E+03  0.24979402338E+04  0.26562707301E+04  0.12699999809E+01 0.  1.
</event>
<event>
 5   0  0.7675750E-08  0.3886020E+04  0.7818609E-02  0.8027943E-01
       -1   -1    0    0    0  501  0.00000000000E+00  0.00000000000E+00  0.16807762438E+04  0.16807762438E+04  0.50400001928E-02 0. -1.
        1   -1    0    0  501    0  0.00000000000E+00  0.00000000000E+00 -0.22461576993E+04  0.22461576993E+04  0.50400001928E-02 0.  1.
    10030    2    1    2    0    0  0.00000000000E+00  0.00000000000E+00 -0.56538145548E+03  0.39269339431E+04  0.38860203298E+04 0.  0.
        1    1    3    3  502    0  0.11068966100E+04 -0.65117372835E+03  0.11907557428E+04  0.17513270879E+04  0.50400001928E-02 0. -1.
       -1    1    3    3    0  502 -0.11068966100E+04  0.65117372835E+03 -0.17561371982E+04  0.21756068553E+04  0.50400001928E-02 0.  1.
</event>
<event>
 5   0  0.7675750E-08  0.3876323E+04  0.7818609E-02  0.8029972E-01
       -1   -1    0    0    0  501  0.00000000000E+00  0.00000000000E+00  0.17774328058E+04  0.17774328058E+04  0.50400001928E-02 0. -1.
        1   -1    0    0  501    0  0.00000000000E+00  0.00000000000E+00 -0.21134245785E+04  0.21134245785E+04  0.50400001928E-02 0.  1.
    10030    2    1    2    0    0  0.00000000000E+00  0.00000000000E+00 -0.33599177274E+03  0.38908573843E+04  0.38763230920E+04 0.  0.
        5    1    3    3  502    0  0.63964329717E+03  0.16307446685E+04  0.66455752372E+03  0.18735342307E+04  0.46999998093E+01 0. -1.
       -5    1    3    3    0  502 -0.63964329717E+03 -0.16307446685E+04 -0.10005492965E+04  0.20173231536E+04  0.46999998093E+01 0.  1.
</event>
<event>
 5   0  0.7675750E-08  0.3855193E+04  0.7818609E-02  0.8034413E-01
       -1   -1    0    0    0  501  0.00000000000E+00  0.00000000000E+00  0.27615854277E+04  0.27615854277E+04  0.50400001928E-02 0.  1.
        1   -1    0    0  501    0  0.00000000000E+00  0.00000000000E+00 -0.13454692752E+04  0.13454692752E+04  0.50400001928E-02 0. -1.
    10030    2    1    2    0    0  0.00000000000E+00  0.00000000000E+00  0.14161161525E+04  0.41070547029E+04  0.38551930399E+04 0.  0.
        4    1    3    3  502    0 -0.13226386113E+04  0.85475432177E+02 -0.78300421898E+03  0.15394077321E+04  0.12699999809E+01 0. -1.
       -4    1    3    3    0  502  0.13226386113E+04 -0.85475432177E+02  0.21991203715E+04  0.25676469708E+04  0.12699999809E+01 0.  1.
</event>
<event>
 5   0  0.7675750E-08  0.3799059E+04  0.7818609E-02  0.8046357E-01
        1   -1    0    0  501    0  0.00000000000E+00  0.00000000000E+00  0.18705198675E+04  0.18705198675E+04  0.50400001928E-02 0. -1.
       -1   -1    0    0    0  501  0.00000000000E+00  0.00000000000E+00 -0.19289892014E+04  0.19289892014E+04  0.50400001928E-02 0.  1.
    10030    2    1    2    0    0  0.00000000000E+00  0.00000000000E+00 -0.58469333835E+02  0.37995090689E+04  0.37990591601E+04 0.  0.
        2    1    3    3  502    0 -0.10082409914E+04  0.13295462020E+04  0.87860055842E+03  0.18857841715E+04  0.25500000920E-02 0. -1.
       -2    1    3    3    0  502  0.10082409914E+04 -0.13295462020E+04 -0.93706989226E+03  0.19137248974E+04  0.25500000920E-02 0.  1.
</event>
<event>
 5   0  0.2473224E-07  0.3889837E+04  0.7818609E-02  0.8027146E-01
        2   -1    0    0  501    0  0.00000000000E+00  0.00000000000E+00  0.29062790946E+04  0.29062790946E+04  0.25500000920E-02 0. -1.
       -2   -1    0    0    0  501  0.00000000000E+00  0.00000000000E+00 -0.13015637699E+04  0.13015637699E+04  0.25500000920E-02 0.  1.
    10030    2    1    2    0    0  0.00000000000E+00  0.00000000000E+00  0.16047153248E+04  0.42078428645E+04  0.38898367959E+04 0.  0.
        2    1    3    3  502    0 -0.75113432715E+03  0.15900417204E+04  0.17011064157E+04  0.24466708989E+04  0.25500000920E-02 0. -1.
       -2    1    3    3    0  502  0.75113432715E+03 -0.15900417204E+04 -0.96391090928E+02  0.17611719656E+04  0.25500000920E-02 0.  1.
</event>
<event>
 5   0  0.7675750E-08  0.3923922E+04  0.7818609E-02  0.8020072E-01
       -1   -1    0    0    0  501  0.00000000000E+00  0.00000000000E+00  0.19975601440E+04  0.19975601440E+04  0.50400001928E-02 0. -1.
        1   -1    0    0  501    0  0.00000000000E+00  0.00000000000E+00 -0.19269963440E+04  0.19269963440E+04  0.50400001928E-02 0.  1.
    10030    2    1    2    0    0  0.00000000000E+00  0.00000000000E+00  0.70563799973E+02  0.39245564880E+04  0.39239220657E+04 0.  0.
        5    1    3    3  502    0  0.56001463792E+03 -0.18538360886E+04  0.34988699191E+03  0.19679348656E+04  0.46999998093E+01 0. -1.
       -5    1    3    3    0  502 -0.56001463792E+03  0.18538360886E+04 -0.27932319194E+03  0.19566216225E+04  0.46999998093E+01 0.  1.
</event>
<event>
 5   0  0.7731706E-08  0.3888283E+04  0.7818609E-02  0.8027471E-01
        1   -1    0    0  501    0  0.00000000000E+00  0.00000000000E+00  0.19582122591E+04  0.19582122591E+04  0.50400001928E-02 0. -1.
       -1   -1    0    0    0  501  0.00000000000E+00  0.00000000000E+00 -0.19301715018E+04  0.19301715018E+04  0.50400001928E-02 0.  1.
    10030    2    1    2    0    0  0.00000000000E+00  0.00000000000E+00  0.28040757315E+02  0.38883837609E+04  0.38882826528E+04 0.  0.
        3    1    3    3  502    0  0.95613807830E+03 -0.72143816899E+03 -0.15173627831E+04  0.19331484377E+04  0.10100000352E+00 0.  1.
       -3    1    3    3    0  502 -0.95613807830E+03  0.72143816899E+03  0.15454035404E+04  0.19552353233E+04  0.10100000352E+00 0. -1.
</event>
<event>
 5   0  0.2473224E-07  0.3865277E+04  0.7818609E-02  0.8032290E-01
       -2   -1    0    0    0  501  0.00000000000E+00  0.00000000000E+00  0.17932762847E+04  0.17932762847E+04  0.25500000920E-02 0. -1.
        2   -1    0    0  501    0  0.00000000000E+00  0.00000000000E+00 -0.20828310844E+04  0.20828310844E+04  0.25500000920E-02 0.  1.
    10030    2    1    2    0    0  0.00000000000E+00  0.00000000000E+00 -0.28955479969E+03  0.38761073691E+04  0.38652770088E+04 0.  0.
        2    1    3    3  502    0 -0.17506468427E+04 -0.51361246867E+03 -0.78416054391E+03  0.19858171856E+04  0.25500000920E-02 0.  1.
       -2    1    3    3    0  502  0.17506468427E+04  0.51361246867E+03  0.49460574422E+03  0.18902901836E+04  0.25500000920E-02 0. -1.
</event>
<event>
 5   0  0.7675750E-08  0.3959134E+04  0.7818609E-02  0.8012842E-01
       -1   -1    0    0    0  501  0.00000000000E+00  0.00000000000E+00  0.15650527237E+04  0.15650527237E+04  0.50400001928E-02 0.  1.
        1   -1    0    0  501    0  0.00000000000E+00  0.00000000000E+00 -0.25038674687E+04  0.25038674687E+04  0.50400001928E-02 0. -1.
    10030    2    1    2    0    0  0.00000000000E+00  0.00000000000E+00 -0.93881474504E+03  0.40689201924E+04  0.39591335424E+04 0.  0.
        2    1    3    3  502    0  0.37142415640E+03 -0.13700591404E+04  0.94858688351E+03  0.17072887945E+04  0.25500000920E-02 0.  1.
       -2    1    3    3    0  502 -0.37142415640E+03  0.13700591404E+04 -0.18874016286E+04  0.23616313979E+04  0.25500000920E-02 0. -1.
</event>
<event>
 5   0  0.7675750E-08  0.3885213E+04  0.7818609E-02  0.8028112E-01
        1   -1    0    0  501    0  0.00000000000E+00  0.00000000000E+00  0.13634992839E+04  0.13634992839E+04  0.50400001928E-02 0.  1.
       -1   -1    0    0    0  501  0.00000000000E+00  0.00000000000E+00 -0.27676731823E+04  0.27676731823E+04  0.50400001928E-02 0. -1.
    10030    2    1    2    0    0  0.00000000000E+00  0.00000000000E+00 -0.14041738985E+04  0.41311724662E+04  0.38852131999E+04 0.  0.
        5    1    3    3  502    0 -0.11631482242E+04  0.86726396881E+03  0.67144732201E+03  0.15987257987E+04  0.46999998093E+01 0.  1.
       -5    1    3    3    0  502  0.11631482242E+04 -0.86726396881E+03 -0.20756212205E+04  0.25324466675E+04  0.46999998093E+01 0. -1.
</event>
<event>
 5   0  0.2446281E-07  0.3893294E+04  0.7818609E-02  0.8026425E-01
       -2   -1    0    0    0  501  0.00000000000E+00  0.00000000000E+00  0.16411395771E+04  0.16411395771E+04  0.25500000920E-02 0.  1.
        2   -1    0    0  501    0  0.00000000000E+00  0.00000000000E+00 -0.23090257998E+04  0.23090257998E+04  0.25500000920E-02 0. -1.
    10030    2    1    2    0    0  0.00000000000E+00  0.00000000000E+00 -0.66788622264E+03  0.39501653769E+04  0.38932935285E+04 0.  0.
        1    1    3    3  502    0 -0.12587100383E+04  0.14183762182E+04  0.11212849964E+03  0.18996617744E+04  0.50400001928E-02 0.  1.
       -1    1    3    3    0  502  0.12587100383E+04 -0.14183762182E+04 -0.78001472228E+03  0.20505036025E+04  0.50400001928E-02 0. -1.
</event>
<event>
 5   0  0.2473224E-07  0.3757278E+04  0.7818609E-02  0.8055385E-01
        2   -1    0    0  501    0  0.00000000000E+00  0.00000000000E+00  0.15580632013E+04  0.15580632013E+04  0.25500000920E-02 0.  1.
       -2   -1    0    0    0  501  0.00000000000E+00  0.00000000000E+00 -0.22651745994E+04  0.22651745994E+04  0.25500000920E-02 0. -1.
    10030    2    1    2    0    0  0.00000000000E+00  0.00000000000E+00 -0.70711139813E+03  0.38232378007E+04  0.37572783702E+04 0.  0.
        2    1    3    3  502    0  0.60008226017E+03 -0.16613186295E+04  0.29736697906E+03  0.17912301437E+04  0.25500000920E-02 0.  1.
       -2    1    3    3    0  502 -0.60008226017E+03  0.16613186295E+04 -0.10044783772E+04  0.20320076569E+04  0.25500000920E-02 0. -1.
</event>
<event>
 5   0  0.2384787E-07  0.3899748E+04  0.7818609E-02  0.8025082E-01
       -2   -1    0    0    0  501  0.00000000000E+00  0.00000000000E+00  0.30995502065E+04  0.30995502065E+04  0.25500000920E-02 0. -1.
        2   -1    0    0  501    0  0.00000000000E+00  0.00000000000E+00 -0.12266323864E+04  0.12266323864E+04  0.25500000920E-02 0.  1.
    10030    2    1    2    0    0  0.00000000000E+00  0.00000000000E+00  0.18729178201E+04  0.43261825929E+04  0.38997480261E+04 0.  0.
        4    1    3    3  502    0 -0.36665814784E+03 -0.18414273155E+03 -0.11782006557E+04  0.12475997519E+04  0.12699999809E+01 0.  1.
       -4    1    3    3    0  502  0.36665814784E+03  0.18414273155E+03  0.30511184758E+04  0.30785828410E+04  0.12699999809E+01 0. -1.
</event>
<event>
 5   0  0.2486268E-07  0.3873247E+04  0.7818609E-02  0.8030616E-01
        2   -1    0    0  501    0  0.00000000000E+00  0.00000000000E+00  0.31671917624E+04  0.31671917625E+04  0.25500000920E-02 0. -1.
       -2   -1    0    0    0  501  0.00000000000E+00  0.00000000000E+00 -0.11841752523E+04  0.11841752523E+04  0.25500000920E-02 0.  1.
    10030    2    1    2    0    0  0.00000000000E+00  0.00000000000E+00  0.19830165101E+04  0.43513670148E+04  0.38732467540E+04 0.  0.
        5    1    3    3  502    0  0.46125187181E+03  0.14114288543E+04 -0.40518028536E+03  0.15391809035E+04  0.46999998093E+01 0.  1.
       -5    1    3    3    0  502 -0.46125187181E+03 -0.14114288543E+04  0.23881967955E+04  0.28121861112E+04  0.46999998093E+01 0. -1.
</event>
<event>
 5   0  0.2384787E-07  0.3841114E+04  0.7818609E-02  0.8037389E-01
        2   -1    0    0  501    0  0.00000000000E+00  0.00000000000E+00  0.27378357245E+04  0.27378357245E+04  0.25500000920E-02 0.  1.
       -2   -1    0    0    0  501  0.00000000000E+00  0.00000000000E+00 -0.13472464900E+04  0.13472464900E+04  0.25500000920E-02 0. -1.
    10030    2    1    2    0    0  0.00000000000E+00  0.00000000000E+00  0.13905892345E+04  0.40850822146E+04  0.38411141978E+04 0.  0.
        4    1    3    3  502    0 -0.16425717910E+04 -0.47581545858E+03 -0.23435096182E+03  0.17260835511E+04  0.12699999809E+01 0. -1.
       -4    1    3    3    0  502  0.16425717910E+04  0.47581545858E+03  0.16249401964E+04  0.23589986634E+04  0.12699999809E+01 0.  1.
</event>
<event>
 5   0  0.2446281E-07  0.3293408E+04  0.7818609E-02  0.8164575E-01
        2   -1    0    0  501    0  0.00000000000E+00  0.00000000000E+00  0.92829550444E+03  0.92829550444E+03  0.25500000920E-02 0.  1.
       -2   -1    0    0    0  501  0.00000000000E+00  0.00000000000E+00 -0.29210896490E+04  0.29210896490E+04  0.25500000920E-02 0. -1.
    10030    2    1    2    0    0  0.00000000000E+00  0.00000000000E+00 -0.19927941446E+04  0.38493851534E+04  0.32934081977E+04 0.  0.
        1    1    3    3  502    0  0.10845639617E+02 -0.32788594700E+03  0.88971252850E+03  0.94826958484E+03  0.50400001928E-02 0.  1.
       -1    1    3    3    0  502 -0.10845639617E+02  0.32788594700E+03 -0.28825066731E+04  0.29011155686E+04  0.50400001928E-02 0. -1.
</event>
<event>
 5   0  0.7675750E-08  0.3902759E+04  0.7818609E-02  0.8024456E-01
       -1   -1    0    0    0  501  0.00000000000E+00  0.00000000000E+00  0.23592815840E+04  0.23592815840E+04  0.50400001928E-02 0.  1.
        1   -1    0    0  501    0  0.00000000000E+00  0.00000000000E+00 -0.16140005056E+04  0.16140005056E+04  0.50400001928E-02 0. -1.
    10030    2    1    2    0    0  0.00000000000E+00  0.00000000000E+00  0.74528107838E+03  0.39732820897E+04  0.39027588548E+04 0.  0.
        4    1    3    3  502    0 -0.20954083405E+03 -0.16769745903E+04  0.13658350596E+04  0.21729376798E+04  0.12699999809E+01 0.  1.
       -4    1    3    3    0  502  0.20954083405E+03  0.16769745903E+04 -0.62055398124E+03  0.18003444098E+04  0.12699999809E+01 0. -1.
</event>
<event>
 5   0  0.2473224E-07  0.3937124E+04  0.7818609E-02  0.8017352E-01
        2   -1    0    0  501    0  0.00000000000E+00  0.00000000000E+00  0.13542402524E+04  0.13542402524E+04  0.25500000920E-02 0.  1.
       -2   -1    0    0    0  501  0.00000000000E+00  0.00000000000E+00 -0.28615569693E+04  0.28615569693E+04  0.25500000920E-02 0. -1.
    10030    2    1    2    0    0  0.00000000000E+00  0.00000000000E+00 -0.15073167169E+04  0.42157972217E+04  0.39371236365E+04 0.  0.
        2    1    3    3  502    0 -0.13512189850E+04  0.13986453379E+04 -0.42670329729E+03  0.19909990534E+04  0.25500000920E-02 0. -1.
       -2    1    3    3    0  502  0.13512189850E+04 -0.13986453379E+04 -0.10806134196E+04  0.22247981683E+04  0.25500000920E-02 0.  1.
</event>
<event>
 5   0  0.2395572E-07  0.3900131E+04  0.7818609E-02  0.8025002E-01
       -2   -1    0    0    0  501  0.00000000000E+00  0.00000000000E+00  0.17606834461E+04  0.17606834461E+04  0.25500000920E-02 0.  1.
        2   -1    0    0  501    0  0.00000000000E+00  0.00000000000E+00 -0.21598182118E+04  0.21598182118E+04  0.25500000920E-02 0. -1.
    10030    2    1    2    0    0  0.00000000000E+00  0.00000000000E+00 -0.39913476575E+03  0.39205016579E+04  0.39001313681E+04 0.  0.
        3    1    3    3  502    0  0.62393265007E+03  0.23083286831E+03 -0.20422209964E+04  0.21478459845E+04  0.10100000352E+00 0. -1.
       -3    1    3    3    0  502 -0.62393265007E+03 -0.23083286831E+03  0.16430862306E+04  0.17726556734E+04  0.10100000352E+00 0.  1.
</event>
<event>
 5   0  0.2486268E-07  0.3835979E+04  0.7818609E-02  0.8038478E-01
        2   -1    0    0  501    0  0.00000000000E+00  0.00000000000E+00  0.19136899488E+04  0.19136899488E+04  0.25500000920E-02 0.  1.
       -2   -1    0    0    0  501  0.00000000000E+00  0.00000000000E+00 -0.19222985852E+04  0.19222985852E+04  0.25500000920E-02 0. -1.
    10030    2    1    2    0    0  0.00000000000E+00  0.00000000000E+00 -0.86086363474E+01  0.38359885340E+04  0.38359788744E+04 0.  0.
        5    1    3    3  502    0 -0.36636700300E+03  0.24071894245E+03  0.18629151548E+04  0.19138038965E+04  0.46999998093E+01 0.  1.
       -5    1    3    3    0  502  0.36636700300E+03 -0.24071894245E+03 -0.18715237911E+04  0.19221846376E+04  0.46999998093E+01 0. -1.
</event>
<event>
 5   0  0.2446281E-07  0.3805988E+04  0.7818609E-02  0.8044871E-01
       -2   -1    0    0    0  501  0.00000000000E+00  0.00000000000E+00  0.19320577261E+04  0.19320577261E+04  0.25500000920E-02 0.  1.
        2   -1    0    0  501    0  0.00000000000E+00  0.00000000000E+00 -0.18743677996E+04  0.18743677996E+04  0.25500000920E-02 0. -1.
    10030    2    1    2    0    0  0.00000000000E+00  0.00000000000E+00  0.57689926477E+02  0.38064255257E+04  0.38059883283E+04 0.  0.
        1    1    3    3  502    0 -0.57141616392E+01 -0.46888333305E+03  0.18733731060E+04  0.19311683060E+04  0.50400001928E-02 0.  1.
       -1    1    3    3    0  502  0.57141616392E+01  0.46888333305E+03 -0.18156831796E+04  0.18752572197E+04  0.50400001928E-02 0. -1.
</event>
<event>
 5   0  0.7675750E-08  0.3841128E+04  0.7818609E-02  0.8037386E-01
        1   -1    0    0  501    0  0.00000000000E+00  0.00000000000E+00  0.28214989286E+04  0.28214989286E+04  0.50400001928E-02 0. -1.
       -1   -1    0    0    0  501  0.00000000000E+00  0.00000000000E+00 -0.13073075659E+04  0.13073075659E+04  0.50400001928E-02 0.  1.
    10030    2    1    2    0    0  0.00000000000E+00  0.00000000000E+00  0.15141913627E+04  0.41288064945E+04  0.38411284261E+04 0.  0.
        1    1    3    3  502    0  0.26838888771E+03 -0.63183010980E+03  0.26851229374E+04  0.27714846331E+04  0.50400001928E-02 0. -1.
       -1    1    3    3    0  502 -0.26838888771E+03  0.63183010980E+03 -0.11709315747E+04  0.13573218614E+04  0.50400001928E-02 0.  1.
</event>
<event>
 5   0  0.2473224E-07  0.3867298E+04  0.7818609E-02  0.8031865E-01
        2   -1    0    0  501    0  0.00000000000E+00  0.00000000000E+00  0.20010772441E+04  0.20010772441E+04  0.25500000920E-02 0.  1.
       -2   -1    0    0    0  501  0.00000000000E+00  0.00000000000E+00 -0.18684930137E+04  0.18684930137E+04  0.25500000920E-02 0. -1.
    10030    2    1    2    0    0  0.00000000000E+00  0.00000000000E+00  0.13258423039E+03  0.38695702578E+04  0.38672982044E+04 0.  0.
        2    1    3    3  502    0 -0.20909076196E+03  0.29462681983E+03  0.19670067633E+04  0.19999098771E+04  0.25500000920E-02 0.  1.
       -2    1    3    3    0  502  0.20909076196E+03 -0.29462681983E+03 -0.18344225329E+04  0.18696603807E+04  0.25500000920E-02 0. -1.
</event>
<event>
 5   0  0.7675750E-08  0.3876742E+04  0.7818609E-02  0.8029884E-01
       -1   -1    0    0    0  501  0.00000000000E+00  0.00000000000E+00  0.14054719472E+04  0.14054719472E+04  0.50400001928E-02 0. -1.
        1   -1    0    0  501    0  0.00000000000E+00  0.00000000000E+00 -0.26733247520E+04  0.26733247520E+04  0.50400001928E-02 0.  1.
    10030    2    1    2    0    0  0.00000000000E+00  0.00000000000E+00 -0.12678528047E+04  0.40787966992E+04  0.38767424185E+04 0.  0.
        5    1    3    3  502    0  0.19623946722E+03 -0.71147704723E+03  0.12518498017E+04  0.14532238414E+04  0.46999998093E+01 0. -1.
       -5    1    3    3    0  502 -0.19623946722E+03  0.71147704723E+03 -0.25197026064E+04  0.26255728578E+04  0.46999998093E+01 0.  1.
</event>
<event>
 5   0  0.2486268E-07  0.3893909E+04  0.7818609E-02  0.8026297E-01
        2   -1    0    0  501    0  0.00000000000E+00  0.00000000000E+00  0.28451454596E+04  0.28451454596E+04  0.25500000920E-02 0. -1.
       -2   -1    0    0    0  501  0.00000000000E+00  0.00000000000E+00 -0.13323158895E+04  0.13323158895E+04  0.25500000920E-02 0.  1.
    10030    2    1    2    0    0  0.00000000000E+00  0.00000000000E+00  0.15128295702E+04  0.41774613491E+04  0.38939093485E+04 0.  0.
        5    1    3    3  502    0 -0.37047902887E+03 -0.25460788519E+03 -0.12758716864E+04  0.13527566434E+04  0.46999998093E+01 0.  1.
       -5    1    3    3    0  502  0.37047902887E+03  0.25460788519E+03  0.27887012566E+04  0.28247047057E+04  0.46999998093E+01 0. -1.
</event>
<event>
 5   0  0.7675750E-08  0.3728511E+04  0.7818609E-02  0.8061673E-01
        1   -1    0    0  501    0  0.00000000000E+00  0.00000000000E+00  0.18693752822E+04  0.18693752822E+04  0.50400001928E-02 0.  1.
       -1   -1    0    0    0  501  0.00000000000E+00  0.00000000000E+00 -0.18591493189E+04  0.18591493189E+04  0.50400001928E-02 0. -1.
    10030    2    1    2    0    0  0.00000000000E+00  0.00000000000E+00  0.10225963245E+02  0.37285246011E+04  0.37285105781E+04 0.  0.
        4    1    3    3  502    0 -0.11233150484E+04  0.88670529589E+03  0.11998405350E+04  0.18675389961E+04  0.12699999809E+01 0.  1.
       -4    1    3    3    0  502  0.11233150484E+04 -0.88670529589E+03 -0.11896145717E+04  0.18609856050E+04  0.12699999809E+01 0. -1.
</event>
<event>
 5   0  0.2384787E-07  0.3942288E+04  0.7818609E-02  0.8016291E-01
        2   -1    0    0  501    0  0.00000000000E+00  0.00000000000E+00  0.29504077588E+04  0.29504077588E+04  0.25500000920E-02 0. -1.
       -2   -1    0    0    0  501  0.00000000000E+00  0.00000000000E+00 -0.13169055936E+04  0.13169055936E+04  0.25500000920E-02 0.  1.
    10030    2    1    2    0    0  0.00000000000E+00  0.00000000000E+00  0.16335021651E+04  0.42673133524E+04  0.39422879048E+04 0.  0.
        4    1    3    3  502    0  0.17166009535E+04  0.96426535519E+03  0.91875608523E+03  0.21727035844E+04  0.12699999809E+01 0.  1.
       -4    1    3    3    0  502 -0.17166009535E+04 -0.96426535519E+03  0.71474607991E+03  0.20946097680E+04  0.12699999809E+01 0. -1.
</event>
<event>
 5   0  0.7675750E-08  0.3973859E+04  0.7818609E-02  0.8009841E-01
       -1   -1    0    0    0  501  0.00000000000E+00  0.00000000000E+00  0.16356735712E+04  0.16356735712E+04  0.50400001928E-02 0. -1.
        1   -1    0    0  501    0  0.00000000000E+00  0.00000000000E+00 -0.24136162026E+04  0.24136162026E+04  0.50400001928E-02 0.  1.
    10030    2    1    2    0    0  0.00000000000E+00  0.00000000000E+00 -0.77794263140E+03  0.40492897739E+04  0.39738586959E+04 0.  0.
        1    1    3    3  502    0 -0.15844965159E+04 -0.62197177685E+03 -0.14333208752E+04  0.22252835396E+04  0.50400001928E-02 0.  1.
       -1    1    3    3    0  502  0.15844965159E+04  0.62197177685E+03  0.65537824382E+03  0.18240062343E+04  0.50400001928E-02 0. -1.
</event>
<event>
 5   0  0.2446281E-07  0.3905449E+04  0.7818609E-02  0.8023897E-01
        2   -1    0    0  501    0  0.00000000000E+00  0.00000000000E+00  0.26926544105E+04  0.26926544105E+04  0.25500000920E-02 0. -1.
       -2   -1    0    0    0  501  0.00000000000E+00  0.00000000000E+00 -0.14161243966E+04  0.14161243966E+04  0.25500000920E-02 0.  1.
    10030    2    1    2    0    0  0.00000000000E+00  0.00000000000E+00  0.12765300139E+04  0.41087788070E+04  0.39054493223E+04 0.  0.
        1    1    3    3  502    0  0.18361302370E+04  0.66463840464E+03  0.63417059994E+03  0.20531173386E+04  0.50400001928E-02 0. -1.
       -1    1    3    3    0  502 -0.18361302370E+04 -0.66463840464E+03  0.64235941398E+03  0.20556614685E+04  0.50400001928E-02 0.  1.
</event>
<event>
 5   0  0.7675750E-08  0.3926077E+04  0.7818609E-02  0.8019628E-01
        1   -1    0    0  501    0  0.00000000000E+00  0.00000000000E+00  0.25607073499E+04  0.25607073499E+04  0.50400001928E-02 0.  1.
       -1   -1    0    0    0  501  0.00000000000E+00  0.00000000000E+00 -0.15048652326E+04  0.15048652326E+04  0.50400001928E-02 0. -1.
    10030    2    1    2    0    0  0.00000000000E+00  0.00000000000E+00  0.10558421173E+04  0.40655725826E+04  0.39260766482E+04 0.  0.
        4    1    3    3  502    0 -0.17267729657E+04  0.51030040145E+03  0.13376016976E+04  0.22430629258E+04  0.12699999809E+01 0.  1.
       -4    1    3    3    0  502  0.17267729657E+04 -0.51030040145E+03 -0.28175958033E+03  0.18225096567E+04  0.12699999809E+01 0. -1.
</event>
<event>
 5   0  0.2395572E-07  0.3865020E+04  0.7818609E-02  0.8032344E-01
       -2   -1    0    0    0  501  0.00000000000E+00  0.00000000000E+00  0.12953547824E+04  0.12953547824E+04  0.25500000920E-02 0.  1.
        2   -1    0    0  501    0  0.00000000000E+00  0.00000000000E+00 -0.28830675150E+04  0.28830675150E+04  0.25500000920E-02 0. -1.
    10030    2    1    2    0    0  0.00000000000E+00  0.00000000000E+00 -0.15877127326E+04  0.41784222974E+04  0.38650202035E+04 0.  0.
        3    1    3    3  502    0  0.15645072692E+04  0.11266350803E+04 -0.93730189320E+03  0.21437174368E+04  0.10100000352E+00 0. -1.
       -3    1    3    3    0  502 -0.15645072692E+04 -0.11266350803E+04 -0.65041083937E+03  0.20347048606E+04  0.10100000352E+00 0.  1.
</event>
<event>
 5   0  0.7731706E-08  0.3898182E+04  0.7818609E-02  0.8025407E-01
       -1   -1    0    0    0  501  0.00000000000E+00  0.00000000000E+00  0.20577414492E+04  0.20577414492E+04  0.50400001928E-02 0.  1.
        1   -1    0    0  501    0  0.00000000000E+00  0.00000000000E+00 -0.18461772658E+04  0.18461772658E+04  0.50400001928E-02 0. -1.
    10030    2    1    2    0    0  0.00000000000E+00  0.00000000000E+00  0.21156418341E+03  0.39039187150E+04  0.38981818748E+04 0.  0.
        3    1    3    3  502    0  0.31061557353E+03  0.34970756515E+03  0.20007025378E+04  0.20546503524E+04  0.10100000352E+00 0.  1.
       -3    1    3    3    0  502 -0.31061557353E+03 -0.34970756515E+03 -0.17891383544E+04  0.18492683626E+04  0.10100000352E+00 0. -1.
</event>
<event>
 5   0  0.2446281E-07  0.3869540E+04  0.7818609E-02  0.8031394E-01
        2   -1    0    0  501    0  0.00000000000E+00  0.00000000000E+00  0.22082519663E+04  0.22082519663E+04  0.25500000920E-02 0.  1.
       -2   -1    0    0    0  501  0.00000000000E+00  0.00000000000E+00 -0.16951571553E+04  0.16951571553E+04  0.25500000920E-02 0. -1.
    10030    2    1    2    0    0  0.00000000000E+00  0.00000000000E+00  0.51309481107E+03  0.39034091216E+04  0.38695395702E+04 0.  0.
        1    1    3    3  502    0 -0.49278938165E+03 -0.68548487139E+03  0.20126477252E+04  0.21825402056E+04  0.50400001928E-02 0.  1.
       -1    1    3    3    0  502  0.49278938165E+03  0.68548487139E+03 -0.14995529141E+04  0.17208689159E+04  0.50400001928E-02 0. -1.
</event>
<event>
 5   0  0.7675750E-08  0.3962212E+04  0.7818609E-02  0.8012213E-01
        1   -1    0    0  501    0  0.00000000000E+00  0.00000000000E+00  0.20021287520E+04  0.20021287520E+04  0.50400001928E-02 0. -1.
       -1   -1    0    0    0  501  0.00000000000E+00  0.00000000000E+00 -0.19603041285E+04  0.19603041285E+04  0.50400001928E-02 0.  1.
    10030    2    1    2    0    0  0.00000000000E+00  0.00000000000E+00  0.41824623465E+02  0.39624328805E+04  0.39622121389E+04 0.  0.
        4    1    3    3  502    0  0.11471697426E+04  0.50139909820E+02  0.16353960137E+04  0.19982577820E+04  0.12699999809E+01 0. -1.
       -4    1    3    3    0  502 -0.11471697426E+04 -0.50139909820E+02 -0.15935713902E+04  0.19641750985E+04  0.12699999809E+01 0.  1.
</event>
<event>
 5   0  0.2395572E-07  0.3663526E+04  0.7818609E-02  0.8076093E-01
       -2   -1    0    0    0  501  0.00000000000E+00  0.00000000000E+00  0.17106074095E+04  0.17106074095E+04  0.25500000920E-02 0.  1.
        2   -1    0    0  501    0  0.00000000000E+00  0.00000000000E+00 -0.19614991365E+04  0.19614991365E+04  0.25500000920E-02 0. -1.
    10030    2    1    2    0    0  0.00000000000E+00  0.00000000000E+00 -0.25089172706E+03  0.36721065460E+04  0.36635256006E+04 0.  0.
        3    1    3    3  502    0  0.14216707855E+04  0.49333715353E+03  0.92142641396E+03  0.17645271366E+04  0.10100000352E+00 0.  1.
       -3    1    3    3    0  502 -0.14216707855E+04 -0.49333715353E+03 -0.11723181410E+04  0.19075794094E+04  0.10100000352E+00 0. -1.
</event>
<event>
 5   0  0.7675750E-08  0.3805969E+04  0.7818609E-02  0.8044875E-01
       -1   -1    0    0    0  501  0.00000000000E+00  0.00000000000E+00  0.17541204595E+04  0.17541204595E+04  0.50400001928E-02 0.  1.
        1   -1    0    0  501    0  0.00000000000E+00  0.00000000000E+00 -0.20644816234E+04  0.20644816234E+04  0.50400001928E-02 0. -1.
    10030    2    1    2    0    0  0.00000000000E+00  0.00000000000E+00 -0.31036116385E+03  0.38186020829E+04  0.38059687092E+04 0.  0.
        4    1    3    3  502    0 -0.44314379837E+01  0.19026160712E+04 -0.11790501915E+03  0.19062714283E+04  0.12699999809E+01 0. -1.
       -4    1    3    3    0  502  0.44314379837E+01 -0.19026160712E+04 -0.19245614471E+03  0.19123306546E+04  0.12699999809E+01 0.  1.
</event>
<event>
 5   0  0.7675750E-08  0.3871671E+04  0.7818609E-02  0.8030947E-01
        1   -1    0    0  501    0  0.00000000000E+00  0.00000000000E+00  0.24704221909E+04  0.24704221909E+04  0.50400001928E-02 0.  1.
       -1   -1    0    0    0  501  0.00000000000E+00  0.00000000000E+00 -0.15169306578E+04  0.15169306578E+04  0.50400001928E-02 0. -1.
    10030    2    1    2    0    0  0.00000000000E+00  0.00000000000E+00  0.95349153306E+03  0.39873528487E+04  0.38716710393E+04 0.  0.
        4    1    3    3  502    0  0.24191749697E+02 -0.18270505804E+04 -0.18169939089E+03  0.18362231198E+04  0.12699999809E+01 0.  1.
       -4    1    3    3    0  502 -0.24191749697E+02  0.18270505804E+04  0.11351909240E+04  0.21511297289E+04  0.12699999809E+01 0. -1.
</event>
<event>
 5   0  0.7675750E-08  0.3925838E+04  0.7818609E-02  0.8019677E-01
        1   -1    0    0  501    0  0.00000000000E+00  0.00000000000E+00  0.17489684526E+04  0.17489684526E+04  0.50400001928E-02 0. -1.
       -1   -1    0    0    0  501  0.00000000000E+00  0.00000000000E+00 -0.22030415069E+04  0.22030415069E+04  0.50400001928E-02 0.  1.
    10030    2    1    2    0    0  0.00000000000E+00  0.00000000000E+00 -0.45407305423E+03  0.39520099595E+04  0.39258375388E+04 0.  0.
        5    1    3    3  502    0 -0.14160011868E+04  0.12217208258E+04 -0.82713728381E+03  0.20449545994E+04  0.46999998093E+01 0.  1.
       -5    1    3    3    0  502  0.14160011868E+04 -0.12217208258E+04  0.37306422958E+03  0.19070553601E+04  0.46999998093E+01 0. -1.
</event>
<event>
 5   0  0.2473224E-07  0.3891729E+04  0.7818609E-02  0.8026752E-01
       -2   -1    0    0    0  501  0.00000000000E+00  0.00000000000E+00  0.16929821381E+04  0.16929821381E+04  0.25500000920E-02 0.  1.
        2   -1    0    0  501    0  0.00000000000E+00  0.00000000000E+00 -0.22365197709E+04  0.22365197709E+04  0.25500000920E-02 0. -1.
    10030    2    1    2    0    0  0.00000000000E+00  0.00000000000E+00 -0.54353763275E+03  0.39295019090E+04  0.38917286769E+04 0.  0.
        2    1    3    3  502    0 -0.10237333079E+04  0.10069762321E+04 -0.15976620139E+04  0.21481515143E+04  0.25500000920E-02 0. -1.
       -2    1    3    3    0  502  0.10237333079E+04 -0.10069762321E+04  0.10541243812E+04  0.17813503947E+04  0.25500000920E-02 0.  1.
</event>
<event>
 5   0  0.2384787E-07  0.3770613E+04  0.7818609E-02  0.8052491E-01
       -2   -1    0    0    0  501  0.00000000000E+00  0.00000000000E+00  0.28897157340E+04  0.28897157340E+04  0.25500000920E-02 0. -1.
        2   -1    0    0  501    0  0.00000000000E+00  0.00000000000E+00 -0.12300103649E+04  0.12300103649E+04  0.25500000920E-02 0.  1.
    10030    2    1    2    0    0  0.00000000000E+00  0.00000000000E+00  0.16597053692E+04  0.41197260989E+04  0.37706128438E+04 0.  0.
        4    1    3    3  502    0 -0.36063864906E+03 -0.92010862543E+03 -0.92432729745E+03  0.13531602579E+04  0.12699999809E+01 0.  1.
       -4    1    3    3    0  502  0.36063864906E+03  0.92010862543E+03  0.25840326666E+04  0.27665658410E+04  0.12699999809E+01 0. -1.
</event>
<event>
 5   0  0.2486268E-07  0.4002811E+04  0.7818609E-02  0.8003980E-01
        2   -1    0    0  501    0  0.00000000000E+00  0.00000000000E+00  0.20217559540E+04  0.20217559540E+04  0.25500000920E-02 0. -1.
       -2   -1    0    0    0  501  0.00000000000E+00  0.00000000000E+00 -0.19812595372E+04  0.19812595372E+04  0.25500000920E-02 0.  1.
    10030    2    1    2    0    0  0.00000000000E+00  0.00000000000E+00  0.40496416791E+02  0.40030154912E+04  0.40028106454E+04 0.  0.
        5    1    3    3  502    0 -0.34208779594E+03 -0.18805250789E+04  0.61374512714E+03  0.20075118439E+04  0.46999998093E+01 0.  1.
       -5    1    3    3    0  502  0.34208779594E+03  0.18805250789E+04 -0.57324871035E+03  0.19955036473E+04  0.46999998093E+01 0. -1.
</event>
<event>
 5   0  0.2486268E-07  0.4017215E+04  0.7818609E-02  0.8001083E-01
        2   -1    0    0  501    0  0.00000000000E+00  0.00000000000E+00  0.18833551796E+04  0.18833551796E+04  0.25500000920E-02 0. -1.
       -2   -1    0    0    0  501  0.00000000000E+00  0.00000000000E+00 -0.21421900491E+04  0.21421900491E+04  0.25500000920E-02 0.  1.
    10030    2    1    2    0    0  0.00000000000E+00  0.00000000000E+00 -0.25883486944E+03  0.40255452287E+04  0.40172153165E+04 0.  0.
        5    1    3    3  502    0 -0.13862052257E+04 -0.22989545013E+02 -0.15858372147E+04  0.21064176245E+04  0.46999998093E+01 0.  1.
       -5    1    3    3    0  502  0.13862052257E+04  0.22989545013E+02  0.13270023453E+04  0.19191276043E+04  0.46999998093E+01 0. -1.
</event>
<event>
 5   0  0.7675750E-08  0.3861002E+04  0.7818609E-02  0.8033189E-01
       -1   -1    0    0    0  501  0.00000000000E+00  0.00000000000E+00  0.23514953491E+04  0.23514953491E+04  0.50400001928E-02 0. -1.
        1   -1    0    0  501    0  0.00000000000E+00  0.00000000000E+00 -0.15848780045E+04  0.15848780045E+04  0.50400001928E-02 0.  1.
    10030    2    1    2    0    0  0.00000000000E+00  0.00000000000E+00  0.76661734460E+03  0.39363733536E+04  0.38610015574E+04 0.  0.
        4    1    3    3  502    0  0.17415324563E+04 -0.83258126370E+03  0.41037473728E+03  0.19734578523E+04  0.12699999809E+01 0. -1.
       -4    1    3    3    0  502 -0.17415324563E+04  0.83258126370E+03  0.35624260731E+03  0.19629155013E+04  0.12699999809E+01 0.  1.
</event>
<event>
 5   0  0.7675750E-08  0.3816737E+04  0.7818609E-02  0.8042573E-01
       -1   -1    0    0    0  501  0.00000000000E+00  0.00000000000E+00  0.12534477121E+04  0.12534477121E+04  0.50400001928E-02 0.  1.
        1   -1    0    0  501    0  0.00000000000E+00  0.00000000000E+00 -0.29054822869E+04  0.29054822869E+04  0.50400001928E-02 0. -1.
    10030    2    1    2    0    0  0.00000000000E+00  0.00000000000E+00 -0.16520345748E+04  0.41589299990E+04  0.38167368916E+04 0.  0.
        1    1    3    3  502    0 -0.16186458040E+04 -0.79251415115E+03 -0.15097945807E+04  0.23510790277E+04  0.50400001928E-02 0.  1.
       -1    1    3    3    0  502  0.16186458040E+04  0.79251415115E+03 -0.14223999413E+03  0.18078509713E+04  0.50400001928E-02 0. -1.
</event>
<event>
 5   0  0.2395572E-07  0.3796507E+04  0.7818609E-02  0.8046905E-01
        2   -1    0    0  501    0  0.00000000000E+00  0.00000000000E+00  0.28441425282E+04  0.28441425282E+04  0.25500000920E-02 0.  1.
       -2   -1    0    0    0  501  0.00000000000E+00  0.00000000000E+00 -0.12669432662E+04  0.12669432662E+04  0.25500000920E-02 0. -1.
    10030    2    1    2    0    0  0.00000000000E+00  0.00000000000E+00  0.15771992620E+04  0.41110857943E+04  0.37965074603E+04 0.  0.
        3    1    3    3  502    0  0.45683522027E+02  0.16036529496E+03  0.28361967607E+04  0.28410941708E+04  0.10100000352E+00 0.  1.
       -3    1    3    3    0  502 -0.45683522027E+02 -0.16036529496E+03 -0.12589974987E+04  0.12699916235E+04  0.10100000352E+00 0. -1.
</event>
<event>
 5   0  0.2446281E-07  0.3891031E+04  0.7818609E-02  0.8026897E-01
        2   -1    0    0  501    0  0.00000000000E+00  0.00000000000E+00  0.19908178861E+04  0.19908178861E+04  0.25500000920E-02 0. -1.
       -2   -1    0    0    0  501  0.00000000000E+00  0.00000000000E+00 -0.19012438177E+04  0.19012438177E+04  0.25500000920E-02 0.  1.
    10030    2    1    2    0    0  0.00000000000E+00  0.00000000000E+00  0.89574068415E+02  0.38920617038E+04  0.38910308136E+04 0.  0.
        1    1    3    3  502    0 -0.38626210124E+02 -0.60895628196E+02  0.19894805985E+04  0.19907871090E+04  0.50400001928E-02 0. -1.
       -1    1    3    3    0  502  0.38626210124E+02  0.60895628196E+02 -0.18999065301E+04  0.19012745948E+04  0.50400001928E-02 0.  1.
</event>
<event>
 5   0  0.2486268E-07  0.3904334E+04  0.7818609E-02  0.8024128E-01
       -2   -1    0    0    0  501  0.00000000000E+00  0.00000000000E+00  0.15166090656E+04  0.15166090656E+04  0.25500000920E-02 0.  1.
        2   -1    0    0  501    0  0.00000000000E+00  0.00000000000E+00 -0.25128135106E+04  0.25128135106E+04  0.25500000920E-02 0. -1.
    10030    2    1    2    0    0  0.00000000000E+00  0.00000000000E+00 -0.99620444506E+03  0.40294225762E+04  0.39043338742E+04 0.  0.
        5    1    3    3  502    0  0.18905976992E+04 -0.88472198734E+02 -0.45043750701E+01  0.18926778303E+04  0.46999998093E+01 0.  1.
       -5    1    3    3    0  502 -0.18905976992E+04  0.88472198734E+02 -0.99170006999E+03  0.21367447458E+04  0.46999998093E+01 0. -1.
</event>
<event>
 5   0  0.7675750E-08  0.3875571E+04  0.7818609E-02  0.8030129E-01
        1   -1    0    0  501    0  0.00000000000E+00  0.00000000000E+00  0.15541334587E+04  0.15541334587E+04  0.50400001928E-02 0.  1.
       -1   -1    0    0    0  501  0.00000000000E+00  0.00000000000E+00 -0.24161456887E+04  0.24161456887E+04  0.50400001928E-02 0. -1.
    10030    2    1    2    0    0  0.00000000000E+00  0.00000000000E+00 -0.86201223002E+03  0.39702791474E+04  0.38755711094E+04 0.  0.
        5    1    3    3  502    0 -0.98708678840E+03 -0.13065059828E+04 -0.14925190824E+04  0.22156113180E+04  0.46999998093E+01 0. -1.
       -5    1    3    3    0  502  0.98708678840E+03  0.13065059828E+04  0.63050685240E+03  0.17546678295E+04  0.46999998093E+01 0.  1.
</event>
<event>
 5   0  0.2473224E-07  0.3939902E+04  0.7818609E-02  0.8016781E-01
       -2   -1    0    0    0  501  0.00000000000E+00  0.00000000000E+00  0.22639542842E+04  0.22639542842E+04  0.25500000920E-02 0.  1.
        2   -1    0    0  501    0  0.00000000000E+00  0.00000000000E+00 -0.17141282089E+04  0.17141282089E+04  0.25500000920E-02 0. -1.
    10030    2    1    2    0    0  0.00000000000E+00  0.00000000000E+00  0.54982607530E+03  0.39780824932E+04  0.39399024873E+04 0.  0.
        2    1    3    3  502    0  0.14856987289E+04 -0.10588148005E+04 -0.47547010731E+03  0.18853279072E+04  0.25500000920E-02 0. -1.
       -2    1    3    3    0  502 -0.14856987289E+04  0.10588148005E+04  0.10252961826E+04  0.20927545859E+04  0.25500000920E-02 0.  1.
</event>
<event>
 5   0  0.7675750E-08  0.3825942E+04  0.7818609E-02  0.8040611E-01
        1   -1    0    0  501    0  0.00000000000E+00  0.00000000000E+00  0.21738246189E+04  0.21738246189E+04  0.50400001928E-02 0.  1.
       -1   -1    0    0    0  501  0.00000000000E+00  0.00000000000E+00 -0.16834189575E+04  0.16834189575E+04  0.50400001928E-02 0. -1.
    10030    2    1    2    0    0  0.00000000000E+00  0.00000000000E+00  0.49040566139E+03  0.38572435764E+04  0.38259417526E+04 0.  0.
        1    1    3    3  502    0 -0.11328208234E+04 -0.99885854904E+03  0.14288852273E+04  0.20791138526E+04  0.50400001928E-02 0.  1.
       -1    1    3    3    0  502  0.11328208234E+04  0.99885854904E+03 -0.93847956593E+03  0.17781297238E+04  0.50400001928E-02 0. -1.
</event>
<event>
 5   0  0.2395572E-07  0.3830004E+04  0.7818609E-02  0.8039747E-01
        2   -1    0    0  501    0  0.00000000000E+00  0.00000000000E+00  0.19151966741E+04  0.19151966741E+04  0.25500000920E-02 0. -1.
       -2   -1    0    0    0  501  0.00000000000E+00  0.00000000000E+00 -0.19148071641E+04  0.19148071641E+04  0.25500000920E-02 0.  1.
    10030    2    1    2    0    0  0.00000000000E+00  0.00000000000E+00  0.38950998684E+00  0.38300038382E+04  0.38300038184E+04 0.  0.
        3    1    3    3  502    0 -0.13974616729E+04  0.49296078434E+03 -0.12127862239E+04  0.19148785594E+04  0.10100000352E+00 0.  1.
       -3    1    3    3    0  502  0.13974616729E+04 -0.49296078434E+03  0.12131757339E+04  0.19151252788E+04  0.10100000352E+00 0. -1.
</event>
<event>
 5   0  0.2473224E-07  0.3895603E+04  0.7818609E-02  0.8025944E-01
        2   -1    0    0  501    0  0.00000000000E+00  0.00000000000E+00  0.19880312858E+04  0.19880312858E+04  0.25500000920E-02 0. -1.
       -2   -1    0    0    0  501  0.00000000000E+00  0.00000000000E+00 -0.19083862919E+04  0.19083862919E+04  0.25500000920E-02 0.  1.
    10030    2    1    2    0    0  0.00000000000E+00  0.00000000000E+00  0.79644993843E+02  0.38964175777E+04  0.38956034982E+04 0.  0.
        2    1    3    3  502    0  0.42908274458E+01 -0.52063650230E+03 -0.18374956426E+04  0.19098353372E+04  0.25500000920E-02 0.  1.
       -2    1    3    3    0  502 -0.42908274458E+01  0.52063650230E+03  0.19171406364E+04  0.19865822405E+04  0.25500000920E-02 0. -1.
</event>
<event>
 5   0  0.7731706E-08  0.3757619E+04  0.7818609E-02  0.8055311E-01
        1   -1    0    0  501    0  0.00000000000E+00  0.00000000000E+00  0.27278973222E+04  0.27278973222E+04  0.50400001928E-02 0. -1.
       -1   -1    0    0    0  501  0.00000000000E+00  0.00000000000E+00 -0.12940093353E+04  0.12940093353E+04  0.50400001928E-02 0.  1.
    10030    2    1    2    0    0  0.00000000000E+00  0.00000000000E+00  0.14338879869E+04  0.40219066575E+04  0.37576187144E+04 0.  0.
        3    1    3    3  502    0 -0.71452304963E+02 -0.94295064776E+03  0.24546017215E+04  0.26304621224E+04  0.10100000352E+00 0. -1.
       -3    1    3    3    0  502  0.71452304963E+02  0.94295064776E+03 -0.10207137346E+04  0.13914445351E+04  0.10100000352E+00 0.  1.
</event>
<event>
 5   0  0.2486268E-07  0.3895050E+04  0.7818609E-02  0.8026059E-01
       -2   -1    0    0    0  501  0.00000000000E+00  0.00000000000E+00  0.16165361779E+04  0.16165361779E+04  0.25500000920E-02 0. -1.
        2   -1    0    0  501    0  0.00000000000E+00  0.00000000000E+00 -0.23462845717E+04  0.23462845717E+04  0.25500000920E-02 0.  1.
    10030    2    1    2    0    0  0.00000000000E+00  0.00000000000E+00 -0.72974839379E+03  0.39628207497E+04  0.38950501378E+04 0.  0.
        5    1    3    3  502    0 -0.20127769991E+03  0.18631427091E+04 -0.90420932255E+03  0.20807282513E+04  0.46999998093E+01 0.  1.
       -5    1    3    3    0  502  0.20127769991E+03 -0.18631427091E+04  0.17446092876E+03  0.18820924984E+04  0.46999998093E+01 0. -1.
</event>
<event>
 5   0  0.2473224E-07  0.3924466E+04  0.7818609E-02  0.8019960E-01
       -2   -1    0    0    0  501  0.00000000000E+00  0.00000000000E+00  0.18101557612E+04  0.18101557612E+04  0.25500000920E-02 0. -1.
        2   -1    0    0  501    0  0.00000000000E+00  0.00000000000E+00 -0.21270866304E+04  0.21270866304E+04  0.25500000920E-02 0.  1.
    10030    2    1    2    0    0  0.00000000000E+00  0.00000000000E+00 -0.31693086912E+03  0.39372423916E+04  0.39244658840E+04 0.  0.
        2    1    3    3  502    0  0.10376257126E+04 -0.37123092641E+03 -0.17872899466E+04  0.20997344768E+04  0.25500000920E-02 0.  1.
       -2    1    3    3    0  502 -0.10376257126E+04  0.37123092641E+03  0.14703590774E+04  0.18375079148E+04  0.25500000920E-02 0. -1.
</event>
<event>
 5   0  0.2486268E-07  0.3934373E+04  0.7818609E-02  0.8017918E-01
       -2   -1    0    0    0  501  0.00000000000E+00  0.00000000000E+00  0.16939362371E+04  0.16939362371E+04  0.25500000920E-02 0.  1.
        2   -1    0    0  501    0  0.00000000000E+00  0.00000000000E+00 -0.22845149779E+04  0.22845149779E+04  0.25500000920E-02 0. -1.
    10030    2    1    2    0    0  0.00000000000E+00  0.00000000000E+00 -0.59057874082E+03  0.39784512150E+04  0.39343729895E+04 0.  0.
        5    1    3    3  502    0  0.40060159140E+03  0.13739749158E+04 -0.16600438071E+04  0.21918157395E+04  0.46999998093E+01 0. -1.
       -5    1    3    3    0  502 -0.40060159140E+03 -0.13739749158E+04  0.10694650663E+04  0.17866354755E+04  0.46999998093E+01 0.  1.
</event>
<event>
 5   0  0.7675750E-08  0.3922299E+04  0.7818609E-02  0.8020407E-01
        1   -1    0    0  501    0  0.00000000000E+00  0.00000000000E+00  0.20633195369E+04  0.20633195369E+04  0.50400001928E-02 0. -1.
       -1   -1    0    0    0  501  0.00000000000E+00  0.00000000000E+00 -0.18640389873E+04  0.18640389873E+04  0.50400001928E-02 0.  1.
    10030    2    1    2    0    0  0.00000000000E+00  0.00000000000E+00  0.19928054959E+03  0.39273585242E+04  0.39222993562E+04 0.  0.
        1    1    3    3  502    0  0.33176546448E+03  0.17114398114E+04  0.99913830139E+03  0.20093212527E+04  0.50400001928E-02 0. -1.
       -1    1    3    3    0  502 -0.33176546448E+03 -0.17114398114E+04 -0.79985775180E+03  0.19180372714E+04  0.50400001928E-02 0.  1.
</event>
<event>
 5   0  0.2384787E-07  0.3867607E+04  0.7818609E-02  0.8031800E-01
       -2   -1    0    0    0  501  0.00000000000E+00  0.00000000000E+00  0.12225247506E+04  0.12225247506E+04  0.25500000920E-02 0.  1.
        2   -1    0    0  501    0  0.00000000000E+00  0.00000000000E+00 -0.30589130207E+04  0.30589130207E+04  0.25500000920E-02 0. -1.
    10030    2    1    2    0    0  0.00000000000E+00  0.00000000000E+00 -0.18363882701E+04  0.42814377713E+04  0.38676074660E+04 0.  0.
        4    1    3    3  502    0  0.17752747073E+04  0.19434949265E+03 -0.17393332049E+04  0.24929207011E+04  0.12699999809E+01 0. -1.
       -4    1    3    3    0  502 -0.17752747073E+04 -0.19434949265E+03 -0.97055065134E+02  0.17885170701E+04  0.12699999809E+01 0.  1.
</event>
<event>
 5   0  0.2395572E-07  0.3937219E+04  0.7818609E-02  0.8017333E-01
        2   -1    0    0  501    0  0.00000000000E+00  0.00000000000E+00  0.20093364667E+04  0.20093364667E+04  0.25500000920E-02 0.  1.
       -2   -1    0    0    0  501  0.00000000000E+00  0.00000000000E+00 -0.19287075744E+04  0.19287075744E+04  0.25500000920E-02 0. -1.
    10030    2    1    2    0    0  0.00000000000E+00  0.00000000000E+00  0.80628892347E+02  0.39380440411E+04  0.39372185425E+04 0.  0.
        3    1    3    3  502    0 -0.12875173141E+03  0.49711166016E+03 -0.18605380227E+04  0.19301033016E+04  0.10100000352E+00 0. -1.
       -3    1    3    3    0  502  0.12875173141E+03 -0.49711166016E+03  0.19411669150E+04  0.20079407395E+04  0.10100000352E+00 0.  1.
</event>
<event>
 5   0  0.2486268E-07  0.3900697E+04  0.7818609E-02  0.8024884E-01
       -2   -1    0    0    0  501  0.00000000000E+00  0.00000000000E+00  0.16694096997E+04  0.16694096997E+04  0.25500000920E-02 0. -1.
        2   -1    0    0  501    0  0.00000000000E+00  0.00000000000E+00 -0.22785649109E+04  0.22785649109E+04  0.25500000920E-02 0.  1.
    10030    2    1    2    0    0  0.00000000000E+00  0.00000000000E+00 -0.60915521123E+03  0.39479746106E+04  0.39006965345E+04 0.  0.
        5    1    3    3  502    0  0.17787384719E+04 -0.67643550608E+03  0.12763541448E+03  0.19072987271E+04  0.46999998093E+01 0.  1.
       -5    1    3    3    0  502 -0.17787384719E+04  0.67643550608E+03 -0.73679062571E+03  0.20406758835E+04  0.46999998093E+01 0. -1.
</event>
<event>
 5   0  0.2395572E-07  0.3142544E+04  0.7818609E-02  0.8204158E-01
        2   -1    0    0  501    0  0.00000000000E+00  0.00000000000E+00  0.20592104528E+04  0.20592104528E+04  0.25500000920E-02 0. -1.
       -2   -1    0    0    0  501  0.00000000000E+00  0.00000000000E+00 -0.11989522773E+04  0.11989522773E+04  0.25500000920E-02 0.  1.
    10030    2    1    2    0    0  0.00000000000E+00  0.00000000000E+00  0.86025817548E+03  0.32581627301E+04  0.31425435952E+04 0.  0.
        3    1    3    3  502    0  0.60826390742E+03  0.67292939644E+03 -0.90006929262E+03  0.12778668535E+04  0.10100000352E+00 0.  1.
       -3    1    3    3    0  502 -0.60826390742E+03 -0.67292939644E+03  0.17603274681E+04  0.19802958766E+04  0.10100000352E+00 0. -1.
</event>
<event>
 5   0  0.7731706E-08  0.3860022E+04  0.7818609E-02  0.8033396E-01
        1   -1    0    0  501    0  0.00000000000E+00  0.00000000000E+00  0.13770880620E+04  0.13770880620E+04  0.50400001928E-02 0. -1.
       -1   -1    0    0    0  501  0.00000000000E+00  0.00000000000E+00 -0.27049407172E+04  0.27049407172E+04  0.50400001928E-02 0.  1.
    10030    2    1    2    0    0  0.00000000000E+00  0.00000000000E+00 -0.13278526551E+04  0.40820287792E+04  0.38600215389E+04 0.  0.
        3    1    3    3  502    0 -0.23721239284E+02  0.18506639407E+04 -0.85260185142E+02  0.18527787315E+04  0.10100000352E+00 0.  1.
       -3    1    3    3    0  502  0.23721239284E+02 -0.18506639407E+04 -0.12425924700E+04  0.22292500477E+04  0.10100000352E+00 0. -1.
</event>
<event>
 5   0  0.7675750E-08  0.3882684E+04  0.7818609E-02  0.8028640E-01
        1   -1    0    0  501    0  0.00000000000E+00  0.00000000000E+00  0.17183277509E+04  0.17183277509E+04  0.50400001928E-02 0. -1.
       -1   -1    0    0    0  501  0.00000000000E+00  0.00000000000E+00 -0.21933006751E+04  0.21933006751E+04  0.50400001928E-02 0.  1.
    10030    2    1    2    0    0  0.00000000000E+00  0.00000000000E+00 -0.47497292418E+03  0.39116284261E+04  0.38826843375E+04 0.  0.
        5    1    3    3  502    0 -0.92503004955E+03 -0.72774717615E+03 -0.17928511973E+04  0.21446757448E+04  0.46999998093E+01 0.  1.
       -5    1    3    3    0  502  0.92503004955E+03  0.72774717615E+03  0.13178782731E+04  0.17669526812E+04  0.46999998093E+01 0. -1.
</event>
<event>
 5   0  0.2384787E-07  0.3560132E+04  0.7818609E-02  0.8099685E-01
       -2   -1    0    0    0  501  0.00000000000E+00  0.00000000000E+00  0.23749936514E+04  0.23749936514E+04  0.25500000920E-02 0.  1.
        2   -1    0    0  501    0  0.00000000000E+00  0.00000000000E+00 -0.13341660191E+04  0.13341660191E+04  0.25500000920E-02 0. -1.
    10030    2    1    2    0    0  0.00000000000E+00  0.00000000000E+00  0.10408276322E+04  0.37091596705E+04  0.35601324836E+04 0.  0.
        4    1    3    3  502    0  0.79286377473E+03  0.15753647323E+04  0.26900971965E+03  0.17840333089E+04  0.12699999809E+01 0.  1.
       -4    1    3    3    0  502 -0.79286377473E+03 -0.15753647323E+04  0.77181791260E+03  0.19251263616E+04  0.12699999809E+01 0. -1.
</event>
<event>
 5   0  0.7675750E-08  0.3897186E+04  0.7818609E-02  0.8025615E-01
       -1   -1    0    0    0  501  0.00000000000E+00  0.00000000000E+00  0.17270850833E+04  0.17270850834E+04  0.50400001928E-02 0. -1.
        1   -1    0    0  501    0  0.00000000000E+00  0.00000000000E+00 -0.21985101837E+04  0.21985101837E+04  0.50400001928E-02 0.  1.
    10030    2    1    2    0    0  0.00000000000E+00  0.00000000000E+00 -0.47142510037E+03  0.39255952671E+04  0.38971857251E+04 0.  0.
        5    1    3    3  502    0  0.28765676287E+03 -0.11540248904E+04 -0.17904903774E+04  0.21495110473E+04  0.46999998093E+01 0.  1.
       -5    1    3    3    0  502 -0.28765676287E+03  0.11540248904E+04  0.13190652770E+04  0.17760842198E+04  0.46999998093E+01 0. -1.
</event>
<event>
 5   0  0.7675750E-08  0.3881308E+04  0.7818609E-02  0.8028928E-01
       -1   -1    0    0    0  501  0.00000000000E+00  0.00000000000E+00  0.20188785970E+04  0.20188785970E+04  0.50400001928E-02 0.  1.
        1   -1    0    0  501    0  0.00000000000E+00  0.00000000000E+00 -0.18654599556E+04  0.18654599556E+04  0.50400001928E-02 0. -1.
    10030    2    1    2    0    0  0.00000000000E+00  0.00000000000E+00  0.15341864142E+03  0.38843385526E+04  0.38813076033E+04 0.  0.
        5    1    3    3  502    0 -0.52143021692E+03  0.10848526888E+04 -0.14467541372E+04  0.18819974631E+04  0.46999998093E+01 0. -1.
       -5    1    3    3    0  502  0.52143021692E+03 -0.10848526888E+04  0.16001727786E+04  0.20023410895E+04  0.46999998093E+01 0.  1.
</event>
<event>
 5   0  0.7731706E-08  0.3964428E+04  0.7818609E-02  0.8011761E-01
       -1   -1    0    0    0  501  0.00000000000E+00  0.00000000000E+00  0.15140580389E+04  0.15140580389E+04  0.50400001928E-02 0. -1.
        1   -1    0    0  501    0  0.00000000000E+00  0.00000000000E+00 -0.25951266089E+04  0.25951266089E+04  0.50400001928E-02 0.  1.
    10030    2    1    2    0    0  0.00000000000E+00  0.00000000000E+00 -0.10810685700E+04  0.41091846478E+04  0.39644279810E+04 0.  0.
        3    1    3    3  502    0 -0.81386760830E+03 -0.15305580310E+04 -0.15369815718E+04  0.23167435621E+04  0.10100000352E+00 0.  1.
       -3    1    3    3    0  502  0.81386760830E+03  0.15305580310E+04  0.45591300189E+03  0.17924410857E+04  0.10100000352E+00 0. -1.
</event>
<event>
 5   0  0.2446281E-07  0.3378224E+04  0.7818609E-02  0.8143272E-01
        2   -1    0    0  501    0  0.00000000000E+00  0.00000000000E+00  0.16887652062E+04  0.16887652062E+04  0.25500000920E-02 0. -1.
       -2   -1    0    0    0  501  0.00000000000E+00  0.00000000000E+00 -0.16894587277E+04  0.16894587277E+04  0.25500000920E-02 0.  1.
    10030    2    1    2    0    0  0.00000000000E+00  0.00000000000E+00 -0.69352148829E+00  0.33782239339E+04  0.33782238627E+04 0.  0.
        1    1    3    3  502    0 -0.23952507430E+03  0.15564957602E+04  0.61042964656E+03  0.16889865796E+04  0.50400001928E-02 0. -1.
       -1    1    3    3    0  502  0.23952507430E+03 -0.15564957602E+04 -0.61112316805E+03  0.16892373543E+04  0.50400001928E-02 0.  1.
</event>
<event>
 5   0  0.7675750E-08  0.3903532E+04  0.7818609E-02  0.8024295E-01
        1   -1    0    0  501    0  0.00000000000E+00  0.00000000000E+00  0.24796675370E+04  0.24796675370E+04  0.50400001928E-02 0.  1.
       -1   -1    0    0    0  501  0.00000000000E+00  0.00000000000E+00 -0.15362507199E+04  0.15362507199E+04  0.50400001928E-02 0. -1.
    10030    2    1    2    0    0  0.00000000000E+00  0.00000000000E+00  0.94341681713E+03  0.40159182570E+04  0.39035322665E+04 0.  0.
        2    1    3    3  502    0 -0.11171344190E+04 -0.42137702639E+03  0.20601305320E+04  0.23811101859E+04  0.25500000920E-02 0.  1.
       -2    1    3    3    0  502  0.11171344190E+04  0.42137702639E+03 -0.11167137148E+04  0.16348080711E+04  0.25500000920E-02 0. -1.
</event>
<event>
 5   0  0.7731706E-08  0.3631592E+04  0.7818609E-02  0.8083293E-01
        1   -1    0    0  501    0  0.00000000000E+00  0.00000000000E+00  0.17621258047E+04  0.17621258047E+04  0.50400001928E-02 0. -1.
       -1   -1    0    0    0  501  0.00000000000E+00  0.00000000000E+00 -0.18711006589E+04  0.18711006589E+04  0.50400001928E-02 0.  1.
    10030    2    1    2    0    0  0.00000000000E+00  0.00000000000E+00 -0.10897485423E+03  0.36332264636E+04  0.36315918020E+04 0.  0.
        3    1    3    3  502    0  0.17358615424E+04 -0.14621377624E+03 -0.56708606901E+03  0.18319880957E+04  0.10100000352E+00 0.  1.
       -3    1    3    3    0  502 -0.17358615424E+04  0.14621377624E+03  0.45811121478E+03  0.18012383679E+04  0.10100000352E+00 0. -1.
</event>
<event>
 5   0  0.7675750E-08  0.3901620E+04  0.7818609E-02  0.8024692E-01
        1   -1    0    0  501    0  0.00000000000E+00  0.00000000000E+00  0.20210433048E+04  0.20210433048E+04  0.50400001928E-02 0.  1.
       -1   -1    0    0    0  501  0.00000000000E+00  0.00000000000E+00 -0.18830171101E+04  0.18830171101E+04  0.50400001928E-02 0. -1.
    10030    2    1    2    0    0  0.00000000000E+00  0.00000000000E+00  0.13802619469E+03  0.39040604149E+04  0.39016197268E+04 0.  0.
        2    1    3    3  502    0  0.92767099524E+03 -0.28407577522E+03 -0.16244955092E+04  0.18921570180E+04  0.25500000920E-02 0. -1.
       -2    1    3    3    0  502 -0.92767099524E+03  0.28407577522E+03  0.17625217039E+04  0.20119033968E+04  0.25500000920E-02 0.  1.
</event>
<event>
 5   0  0.7731706E-08  0.3908591E+04  0.7818609E-02  0.8023245E-01
       -1   -1    0    0    0  501  0.00000000000E+00  0.00000000000E+00  0.18967527454E+04  0.18967527454E+04  0.50400001928E-02 0.  1.
        1   -1    0    0  501    0  0.00000000000E+00  0.00000000000E+00 -0.20135841932E+04  0.20135841932E+04  0.50400001928E-02 0. -1.
    10030    2    1    2    0    0  0.00000000000E+00  0.00000000000E+00 -0.11683144772E+03  0.39103369386E+04  0.39085912278E+04 0.  0.
        3    1    3    3  502    0 -0.16432208053E+04  0.34357337280E+03 -0.10593894841E+04  0.19850751539E+04  0.10100000352E+00 0. -1.
       -3    1    3    3    0  502  0.16432208053E+04 -0.34357337280E+03  0.94255803640E+03  0.19252617847E+04  0.10100000352E+00 0.  1.
</event>
<event>
 5   0  0.2486268E-07  0.3848352E+04  0.7818609E-02  0.8035858E-01
       -2   -1    0    0    0  501  0.00000000000E+00  0.00000000000E+00  0.14121143397E+04  0.14121143397E+04  0.25500000920E-02 0.  1.
        2   -1    0    0  501    0  0.00000000000E+00  0.00000000000E+00 -0.26219210931E+04  0.26219210931E+04  0.25500000920E-02 0. -1.
    10030    2    1    2    0    0  0.00000000000E+00  0.00000000000E+00 -0.12098067534E+04  0.40340354328E+04  0.38483515293E+04 0.  0.
        5    1    3    3  502    0 -0.35883334283E+03 -0.11638439234E+04  0.95665043637E+03  0.15487079109E+04  0.46999998093E+01 0.  1.
       -5    1    3    3    0  502  0.35883334283E+03  0.11638439234E+04 -0.21664571898E+04  0.24853275219E+04  0.46999998093E+01 0. -1.
</event>
<event>
 5   0  0.2446281E-07  0.3857534E+04  0.7818609E-02  0.8033920E-01
       -2   -1    0    0    0  501  0.00000000000E+00  0.00000000000E+00  0.14490454551E+04  0.14490454551E+04  0.25500000920E-02 0.  1.
        2   -1    0    0  501    0  0.00000000000E+00  0.00000000000E+00 -0.25673054276E+04  0.25673054276E+04  0.25500000920E-02 0. -1.
    10030    2    1    2    0    0  0.00000000000E+00  0.00000000000E+00 -0.11182599726E+04  0.40163508827E+04  0.38575340630E+04 0.  0.
        1    1    3    3  502    0  0.18282571541E+04  0.59702399254E+03 -0.40760338570E+03  0.19659863655E+04  0.50400001928E-02 0.  1.
       -1    1    3    3    0  502 -0.18282571541E+04 -0.59702399254E+03 -0.71065658685E+03  0.20503645172E+04  0.50400001928E-02 0. -1.
</event>
<event>
 5   0  0.7675750E-08  0.4006349E+04  0.7818609E-02  0.8003267E-01
        1   -1    0    0  501    0  0.00000000000E+00  0.00000000000E+00  0.24009924696E+04  0.24009924696E+04  0.50400001928E-02 0. -1.
       -1   -1    0    0    0  501  0.00000000000E+00  0.00000000000E+00 -0.16712706150E+04  0.16712706150E+04  0.50400001928E-02 0.  1.
    10030    2    1    2    0    0  0.00000000000E+00  0.00000000000E+00  0.72972185462E+03  0.40722630846E+04  0.40063490419E+04 0.  0.
        1    1    3    3  502    0 -0.38222649059E+02  0.16171676673E+04  0.15658311255E+04  0.22513372356E+04  0.50400001928E-02 0. -1.
       -1    1    3    3    0  502  0.38222649059E+02 -0.16171676673E+04 -0.83610927083E+03  0.18209258490E+04  0.50400001928E-02 0.  1.
</event>
<event>
 5   0  0.2473224E-07  0.3868531E+04  0.7818609E-02  0.8031606E-01
        2   -1    0    0  501    0  0.00000000000E+00  0.00000000000E+00  0.19655245018E+04  0.19655245018E+04  0.25500000920E-02 0. -1.
       -2   -1    0    0    0  501  0.00000000000E+00  0.00000000000E+00 -0.19035036207E+04  0.19035036207E+04  0.25500000920E-02 0.  1.
    10030    2    1    2    0    0  0.00000000000E+00  0.00000000000E+00  0.62020881130E+02  0.38690281225E+04  0.38685309903E+04 0.  0.
        2    1    3    3  502    0 -0.15048465448E+04 -0.12147589646E+04 -0.33529666868E+01  0.19339632126E+04  0.25500000920E-02 0. -1.
       -2    1    3    3    0  502  0.15048465448E+04  0.12147589646E+04  0.65373847817E+02  0.19350649099E+04  0.25500000920E-02 0.  1.
</event>
<event>
 5   0  0.2486268E-07  0.3919152E+04  0.7818609E-02  0.8021058E-01
       -2   -1    0    0    0  501  0.00000000000E+00  0.00000000000E+00  0.20391615240E+04  0.20391615240E+04  0.25500000920E-02 0.  1.
        2   -1    0    0  501    0  0.00000000000E+00  0.00000000000E+00 -0.18830965517E+04  0.18830965517E+04  0.25500000920E-02 0. -1.
    10030    2    1    2    0    0  0.00000000000E+00  0.00000000000E+00  0.15606497225E+03  0.39222580757E+04  0.39191519665E+04 0.  0.
        5    1    3    3  502    0 -0.14572535601E+04  0.81614299686E+03  0.11036561985E+04  0.20019381669E+04  0.46999998093E+01 0.  1.
       -5    1    3    3    0  502  0.14572535601E+04 -0.81614299686E+03 -0.94759122622E+03  0.19203199087E+04  0.46999998093E+01 0. -1.
</event>
<event>
 5   0  0.7675750E-08  0.3842726E+04  0.7818609E-02  0.8037048E-01
       -1   -1    0    0    0  501  0.00000000000E+00  0.00000000000E+00  0.29854469570E+04  0.29854469570E+04  0.50400001928E-02 0. -1.
        1   -1    0    0  501    0  0.00000000000E+00  0.00000000000E+00 -0.12365436409E+04  0.12365436409E+04  0.50400001928E-02 0.  1.
    10030    2    1    2    0    0  0.00000000000E+00  0.00000000000E+00  0.17489033161E+04  0.42219905979E+04  0.38427258293E+04 0.  0.
        2    1    3    3  502    0  0.17568610621E+04  0.60193488427E+03  0.14157748508E+04  0.23352312144E+04  0.25500000920E-02 0. -1.
       -2    1    3    3    0  502 -0.17568610621E+04 -0.60193488427E+03  0.33312846526E+03  0.18867593834E+04  0.25500000920E-02 0.  1.
</event>
<event>
 5   0  0.2473224E-07  0.3889478E+04  0.7818609E-02  0.8027221E-01
        2   -1    0    0  501    0  0.00000000000E+00  0.00000000000E+00  0.27501516045E+04  0.27501516045E+04  0.25500000920E-02 0. -1.
       -2   -1    0    0    0  501  0.00000000000E+00  0.00000000000E+00 -0.13752002799E+04  0.13752002799E+04  0.25500000920E-02 0.  1.
    10030    2    1    2    0    0  0.00000000000E+00  0.00000000000E+00  0.13749513246E+04  0.41253518843E+04  0.38894777316E+04 0.  0.
        2    1    3    3  502    0 -0.11184867864E+04  0.88146435914E+03 -0.71723418544E+03  0.15944958402E+04  0.25500000920E-02 0.  1.
       -2    1    3    3    0  502  0.11184867864E+04 -0.88146435914E+03  0.20921855100E+04  0.25308560441E+04  0.25500000920E-02 0. -1.
</event>
<event>
 5   0  0.2395572E-07  0.3897946E+04  0.7818609E-02  0.8025457E-01
       -2   -1    0    0    0  501  0.00000000000E+00  0.00000000000E+00  0.21981818700E+04  0.21981818700E+04  0.25500000920E-02 0. -1.
        2   -1    0    0  501    0  0.00000000000E+00  0.00000000000E+00 -0.17280168976E+04  0.17280168976E+04  0.25500000920E-02 0.  1.
    10030    2    1    2    0    0  0.00000000000E+00  0.00000000000E+00  0.47016497243E+03  0.39261987675E+04  0.38979458258E+04 0.  0.
        3    1    3    3  502    0 -0.25863890631E+03  0.48321194850E+03  0.21189617308E+04  0.21886952044E+04  0.10100000352E+00 0. -1.
       -3    1    3    3    0  502  0.25863890631E+03 -0.48321194850E+03 -0.16487967584E+04  0.17375035631E+04  0.10100000352E+00 0.  1.
</event>
<event>
 5   0  0.7675750E-08  0.3803185E+04  0.7818609E-02  0.8045472E-01
       -1   -1    0    0    0  501  0.00000000000E+00  0.00000000000E+00  0.19936977773E+04  0.19936977773E+04  0.50400001928E-02 0. -1.
        1   -1    0    0  501    0  0.00000000000E+00  0.00000000000E+00 -0.18137425362E+04  0.18137425362E+04  0.50400001928E-02 0.  1.
    10030    2    1    2    0    0  0.00000000000E+00  0.00000000000E+00  0.17995524111E+03  0.38074403136E+04  0.38031852246E+04 0.  0.
        5    1    3    3  502    0 -0.11402826616E+04  0.10423436417E+04 -0.10200042937E+04  0.18512578602E+04  0.46999998093E+01 0.  1.
       -5    1    3    3    0  502  0.11402826616E+04 -0.10423436417E+04  0.11999595348E+04  0.19561824534E+04  0.46999998093E+01 0. -1.
</event>
<event>
 5   0  0.2446281E-07  0.4017934E+04  0.7818609E-02  0.8000938E-01
        2   -1    0    0  501    0  0.00000000000E+00  0.00000000000E+00  0.21520450665E+04  0.21520450665E+04  0.25500000920E-02 0. -1.
       -2   -1    0    0    0  501  0.00000000000E+00  0.00000000000E+00 -0.18754013821E+04  0.18754013821E+04  0.25500000920E-02 0.  1.
    10030    2    1    2    0    0  0.00000000000E+00  0.00000000000E+00  0.27664368437E+03  0.40274464486E+04  0.40179339427E+04 0.  0.
        1    1    3    3  502    0  0.20032621216E+04 -0.10364358339E+03  0.27846700153E+02  0.20061347310E+04  0.50400001928E-02 0.  1.
       -1    1    3    3    0  502 -0.20032621216E+04  0.10364358339E+03  0.24879698422E+03  0.20213117176E+04  0.50400001928E-02 0. -1.
</event>
<event>
 5   0  0.7675750E-08  0.3886418E+04  0.7818609E-02  0.8027860E-01
        1   -1    0    0  501    0  0.00000000000E+00  0.00000000000E+00  0.19683226566E+04  0.19683226566E+04  0.50400001928E-02 0.  1.
       -1   -1    0    0    0  501  0.00000000000E+00  0.00000000000E+00 -0.19184159539E+04  0.19184159539E+04  0.50400001928E-02 0. -1.
    10030    2    1    2    0    0  0.00000000000E+00  0.00000000000E+00  0.49906702687E+02  0.38867386105E+04  0.38864181900E+04 0.  0.
        4    1    3    3  502    0 -0.17319318443E+04 -0.24273840876E+03 -0.82219979240E+03  0.19324916455E+04  0.12699999809E+01 0. -1.
       -4    1    3    3    0  502  0.17319318443E+04  0.24273840876E+03  0.87210649509E+03  0.19542469650E+04  0.12699999809E+01 0.  1.
</event>
<event>
 5   0  0.7675750E-08  0.3980383E+04  0.7818609E-02  0.8008516E-01
       -1   -1    0    0    0  501  0.00000000000E+00  0.00000000000E+00  0.17437074923E+04  0.17437074923E+04  0.50400001928E-02 0. -1.
        1   -1    0    0  501    0  0.00000000000E+00  0.00000000000E+00 -0.22715176366E+04  0.22715176366E+04  0.50400001928E-02 0.  1.
    10030    2    1    2    0    0  0.00000000000E+00  0.00000000000E+00 -0.52781014428E+03  0.40152251289E+04  0.39803830578E+04 0.  0.
        2    1    3    3  502    0 -0.14193308340E+03  0.44297978694E+03  0.16881009382E+04  0.17510170957E+04  0.25500000920E-02 0. -1.
       -2    1    3    3    0  502  0.14193308340E+03 -0.44297978694E+03 -0.22159110825E+04  0.22642080332E+04  0.25500000920E-02 0.  1.
</event>
<event>
 5   0  0.2384787E-07  0.3896203E+04  0.7818609E-02  0.8025819E-01
       -2   -1    0    0    0  501  0.00000000000E+00  0.00000000000E+00  0.27381178427E+04  0.27381178427E+04  0.25500000920E-02 0. -1.
        2   -1    0    0  501    0  0.00000000000E+00  0.00000000000E+00 -0.13860247771E+04  0.13860247771E+04  0.25500000920E-02 0.  1.
    10030    2    1    2    0    0  0.00000000000E+00  0.00000000000E+00  0.13520930656E+04  0.41241426198E+04  0.38962028554E+04 0.  0.
        4    1    3    3  502    0  0.10998351782E+04 -0.13666251713E+04 -0.22074720310E+03  0.17680590258E+04  0.12699999809E+01 0.  1.
       -4    1    3    3    0  502 -0.10998351782E+04  0.13666251713E+04  0.15728402687E+04  0.23560835940E+04  0.12699999809E+01 0. -1.
</event>
<event>
 5   0  0.2473224E-07  0.4011435E+04  0.7818609E-02  0.8002244E-01
        2   -1    0    0  501    0  0.00000000000E+00  0.00000000000E+00  0.21711161841E+04  0.21711161841E+04  0.25500000920E-02 0.  1.
       -2   -1    0    0    0  501  0.00000000000E+00  0.00000000000E+00 -0.18529187740E+04  0.18529187740E+04  0.25500000920E-02 0. -1.
    10030    2    1    2    0    0  0.00000000000E+00  0.00000000000E+00  0.31819741010E+03  0.40240349581E+04  0.40114346252E+04 0.  0.
        2    1    3    3  502    0  0.17431331300E+03 -0.11455117618E+04 -0.14832119784E+04  0.18821530491E+04  0.25500000920E-02 0. -1.
       -2    1    3    3    0  502 -0.17431331300E+03  0.11455117618E+04  0.18014093885E+04  0.21418819090E+04  0.25500000920E-02 0.  1.
</event>
<event>
 5   0  0.2395572E-07  0.3910580E+04  0.7818609E-02  0.8022832E-01
       -2   -1    0    0    0  501  0.00000000000E+00  0.00000000000E+00  0.13521573156E+04  0.13521573156E+04  0.25500000920E-02 0.  1.
        2   -1    0    0  501    0  0.00000000000E+00  0.00000000000E+00 -0.28274514472E+04  0.28274514472E+04  0.25500000920E-02 0. -1.
    10030    2    1    2    0    0  0.00000000000E+00  0.00000000000E+00 -0.14752941316E+04  0.41796087629E+04  0.39105800894E+04 0.  0.
        3    1    3    3  502    0 -0.87658562197E+03  0.15365963527E+04  0.15249206599E+03  0.17756082181E+04  0.10100000352E+00 0. -1.
       -3    1    3    3    0  502  0.87658562197E+03 -0.15365963527E+04 -0.16277861976E+04  0.24040005447E+04  0.10100000352E+00 0.  1.
</event>
<event>
 5   0  0.7675750E-08  0.3874481E+04  0.7818609E-02  0.8030358E-01
        1   -1    0    0  501    0  0.00000000000E+00  0.00000000000E+00  0.15207404572E+04  0.15207404572E+04  0.50400001928E-02 0.  1.
       -1   -1    0    0    0  501  0.00000000000E+00  0.00000000000E+00 -0.24678113999E+04  0.24678113999E+04  0.50400001928E-02 0. -1.
    10030    2    1    2    0    0  0.00000000000E+00  0.00000000000E+00 -0.94707094266E+03  0.39885518571E+04  0.38744809390E+04 0.  0.
        2    1    3    3  502    0 -0.78771739600E+03  0.12956394497E+04 -0.17147365670E+04  0.22889958003E+04  0.25500000920E-02 0. -1.
       -2    1    3    3    0  502  0.78771739600E+03 -0.12956394497E+04  0.76766562435E+03  0.16995560568E+04  0.25500000920E-02 0.  1.
</event>
<event>
 5   0  0.2384787E-07  0.3914299E+04  0.7818609E-02  0.8022062E-01
       -2   -1    0    0    0  501  0.00000000000E+00  0.00000000000E+00  0.19792094302E+04  0.19792094302E+04  0.25500000920E-02 0.  1.
        2   -1    0    0  501    0  0.00000000000E+00  0.00000000000E+00 -0.19353359049E+04  0.19353359049E+04  0.25500000920E-02 0. -1.
    10030    2    1    2    0    0  0.00000000000E+00  0.00000000000E+00  0.43873525376E+02  0.39145453351E+04  0.39142994640E+04 0.  0.
        4    1    3    3  502    0 -0.89836107952E+03  0.16895943295E+04  0.43263497420E+03  0.19618756998E+04  0.12699999809E+01 0.  1.
       -4    1    3    3    0  502  0.89836107952E+03 -0.16895943295E+04 -0.38876144882E+03  0.19526696353E+04  0.12699999809E+01 0. -1.
</event>
<event>
 5   0  0.2395572E-07  0.3874849E+04  0.7818609E-02  0.8030281E-01
        2   -1    0    0  501    0  0.00000000000E+00  0.00000000000E+00  0.19080596173E+04  0.19080596173E+04  0.25500000920E-02 0. -1.
       -2   -1    0    0    0  501  0.00000000000E+00  0.00000000000E+00 -0.19672411779E+04  0.19672411779E+04  0.25500000920E-02 0.  1.
    10030    2    1    2    0    0  0.00000000000E+00  0.00000000000E+00 -0.59181560634E+02  0.38753007953E+04  0.38748488740E+04 0.  0.
        3    1    3    3  502    0  0.95471406665E+03 -0.48365190077E+01  0.16564620314E+04  0.19119018836E+04  0.10100000352E+00 0. -1.
       -3    1    3    3    0  502 -0.95471406665E+03  0.48365190077E+01 -0.17156435920E+04  0.19633989116E+04  0.10100000352E+00 0.  1.
</event>
<event>
 5   0  0.7675750E-08  0.3831804E+04  0.7818609E-02  0.8039364E-01
        1   -1    0    0  501    0  0.00000000000E+00  0.00000000000E+00  0.20243439214E+04  0.20243439214E+04  0.50400001928E-02 0.  1.
       -1   -1    0    0    0  501  0.00000000000E+00  0.00000000000E+00 -0.18132687662E+04  0.18132687662E+04  0.50400001928E-02 0. -1.
    10030    2    1    2    0    0  0.00000000000E+00  0.00000000000E+00  0.21107515515E+03  0.38376126876E+04  0.38318035465E+04 0.  0.
        5    1    3    3  502    0  0.63485501891E+03  0.35612513874E+02  0.19155816822E+04  0.20183618152E+04  0.46999998093E+01 0.  1.
       -5    1    3    3    0  502 -0.63485501891E+03 -0.35612513874E+02 -0.17045065270E+04  0.18192508724E+04  0.46999998093E+01 0. -1.
</event>
<event>
 5   0  0.2395572E-07  0.3896414E+04  0.7818609E-02  0.8025775E-01
       -2   -1    0    0    0  501  0.00000000000E+00  0.00000000000E+00  0.18108781483E+04  0.18108781483E+04  0.25500000920E-02 0. -1.
        2   -1    0    0  501    0  0.00000000000E+00  0.00000000000E+00 -0.20959507746E+04  0.20959507746E+04  0.25500000920E-02 0.  1.
    10030    2    1    2    0    0  0.00000000000E+00  0.00000000000E+00 -0.28507262638E+03  0.39068289229E+04  0.38964144839E+04 0.  0.
        3    1    3    3  502    0  0.94509341230E+03  0.12006472213E+03 -0.18464590411E+04  0.20777459172E+04  0.10100000352E+00 0.  1.
       -3    1    3    3    0  502 -0.94509341230E+03 -0.12006472213E+03  0.15613864148E+04  0.18290830057E+04  0.10100000352E+00 0. -1.
</event>
<event>
 5   0  0.7675750E-08  0.3844966E+04  0.7818609E-02  0.8036574E-01
        1   -1    0    0  501    0  0.00000000000E+00  0.00000000000E+00  0.18254578427E+04  0.18254578427E+04  0.50400001928E-02 0.  1.
       -1   -1    0    0    0  501  0.00000000000E+00  0.00000000000E+00 -0.20246647012E+04  0.20246647012E+04  0.50400001928E-02 0. -1.
    10030    2    1    2    0    0  0.00000000000E+00  0.00000000000E+00 -0.19920685842E+03  0.38501225439E+04  0.38449655695E+04 0.  0.
        2    1    3    3  502    0  0.16934573747E+04 -0.84301031677E+03  0.24360367805E+03  0.19073036009E+04  0.25500000920E-02 0. -1.
       -2    1    3    3    0  502 -0.16934573747E+04  0.84301031677E+03 -0.44281053647E+03  0.19428189430E+04  0.25500000920E-02 0.  1.
</event>
<event>
 5   0  0.7675750E-08  0.3886873E+04  0.7818609E-02  0.8027765E-01
        1   -1    0    0  501    0  0.00000000000E+00  0.00000000000E+00  0.20837711785E+04  0.20837711785E+04  0.50400001928E-02 0.  1.
       -1   -1    0    0    0  501  0.00000000000E+00  0.00000000000E+00 -0.18125532058E+04  0.18125532058E+04  0.50400001928E-02 0. -1.
    10030    2    1    2    0    0  0.00000000000E+00  0.00000000000E+00  0.27121797273E+03  0.38963243844E+04  0.38868733603E+04 0.  0.
        1    1    3    3  502    0  0.10791189982E+03  0.10573825308E+04  0.17666002970E+04  0.20616933341E+04  0.50400001928E-02 0.  1.
       -1    1    3    3    0  502 -0.10791189982E+03 -0.10573825308E+04 -0.14953823243E+04  0.18346310502E+04  0.50400001928E-02 0. -1.
</event>
<event>
 5   0  0.2384787E-07  0.3892772E+04  0.7818609E-02  0.8026534E-01
       -2   -1    0    0    0  501  0.00000000000E+00  0.00000000000E+00  0.21471821390E+04  0.21471821390E+04  0.25500000920E-02 0.  1.
        2   -1    0    0  501    0  0.00000000000E+00  0.00000000000E+00 -0.17643679480E+04  0.17643679480E+04  0.25500000920E-02 0. -1.
    10030    2    1    2    0    0  0.00000000000E+00  0.00000000000E+00  0.38281419104E+03  0.39115500870E+04  0.38927724540E+04 0.  0.
        4    1    3    3  502    0 -0.10726153633E+04 -0.15141164729E+04 -0.39910560197E+03  0.18979829571E+04  0.12699999809E+01 0.  1.
       -4    1    3    3    0  502  0.10726153633E+04  0.15141164729E+04  0.78191979301E+03  0.20135671299E+04  0.12699999809E+01 0. -1.
</event>
<event>
 5   0  0.2384787E-07  0.3911874E+04  0.7818609E-02  0.8022564E-01
        2   -1    0    0  501    0  0.00000000000E+00  0.00000000000E+00  0.22544951955E+04  0.22544951955E+04  0.25500000920E-02 0.  1.
       -2   -1    0    0    0  501  0.00000000000E+00  0.00000000000E+00 -0.16969162289E+04  0.16969162289E+04  0.25500000920E-02 0. -1.
    10030    2    1    2    0    0  0.00000000000E+00  0.00000000000E+00  0.55757896658E+03  0.39514114244E+04  0.39118739679E+04 0.  0.
        4    1    3    3  502    0 -0.55915957853E+02 -0.54674016207E+03  0.21748969358E+04  0.22432631797E+04  0.12699999809E+01 0.  1.
       -4    1    3    3    0  502  0.55915957853E+02  0.54674016207E+03 -0.16173179692E+04  0.17081482446E+04  0.12699999809E+01 0. -1.
</event>
<event>
 5   0  0.2384787E-07  0.3875681E+04  0.7818609E-02  0.8030106E-01
       -2   -1    0    0    0  501  0.00000000000E+00  0.00000000000E+00  0.21209750693E+04  0.21209750693E+04  0.25500000920E-02 0.  1.
        2   -1    0    0  501    0  0.00000000000E+00  0.00000000000E+00 -0.17705186387E+04  0.17705186387E+04  0.25500000920E-02 0. -1.
    10030    2    1    2    0    0  0.00000000000E+00  0.00000000000E+00  0.35045643053E+03  0.38914937080E+04  0.38756810459E+04 0.  0.
        4    1    3    3  502    0 -0.12599393184E+04 -0.66499665730E+02 -0.13016075393E+04  0.18127473875E+04  0.12699999809E+01 0. -1.
       -4    1    3    3    0  502  0.12599393184E+04  0.66499665730E+02  0.16520639698E+04  0.20787463205E+04  0.12699999809E+01 0.  1.
</event>
<event>
 5   0  0.7731706E-08  0.3886395E+04  0.7818609E-02  0.8027865E-01
        1   -1    0    0  501    0  0.00000000000E+00  0.00000000000E+00  0.18987482091E+04  0.18987482091E+04  0.50400001928E-02 0.  1.
       -1   -1    0    0    0  501  0.00000000000E+00  0.00000000000E+00 -0.19886868822E+04  0.19886868823E+04  0.50400001928E-02 0. -1.
    10030    2    1    2    0    0  0.00000000000E+00  0.00000000000E+00 -0.89938673185E+02  0.38874350913E+04  0.38863945533E+04 0.  0.
        3    1    3    3  502    0 -0.28651901692E+03 -0.92589333695E+03 -0.17296542297E+04  0.19826939711E+04  0.10100000352E+00 0. -1.
       -3    1    3    3    0  502  0.28651901692E+03  0.92589333695E+03  0.16397155565E+04  0.19047411202E+04  0.10100000352E+00 0.  1.
</event>
<event>
 5   0  0.2395572E-07  0.3531647E+04  0.7818609E-02  0.8106331E-01
        2   -1    0    0  501    0  0.00000000000E+00  0.00000000000E+00  0.25257606350E+04  0.25257606350E+04  0.25500000920E-02 0.  1.
       -2   -1    0    0    0  501  0.00000000000E+00  0.00000000000E+00 -0.12345318058E+04  0.12345318058E+04  0.25500000920E-02 0. -1.
    10030    2    1    2    0    0  0.00000000000E+00  0.00000000000E+00  0.12912288292E+04  0.37602924408E+04  0.35316465496E+04 0.  0.
        3    1    3    3  502    0  0.73892016033E+02  0.14694799410E+04 -0.39396889826E+03  0.15231686807E+04  0.10100000352E+00 0. -1.
       -3    1    3    3    0  502 -0.73892016033E+02 -0.14694799410E+04  0.16851977274E+04  0.22371237600E+04  0.10100000352E+00 0.  1.
</event>
<event>
 5   0  0.2446281E-07  0.3810846E+04  0.7818609E-02  0.8043831E-01
        2   -1    0    0  501    0  0.00000000000E+00  0.00000000000E+00  0.22332371048E+04  0.22332371048E+04  0.25500000920E-02 0. -1.
       -2   -1    0    0    0  501  0.00000000000E+00  0.00000000000E+00 -0.16257284404E+04  0.16257284404E+04  0.25500000920E-02 0.  1.
    10030    2    1    2    0    0  0.00000000000E+00  0.00000000000E+00  0.60750866436E+03  0.38589655452E+04  0.38108461398E+04 0.  0.
        1    1    3    3  502    0  0.31674950264E+03  0.18684812782E+04  0.50394876422E+03  0.19609989524E+04  0.50400001928E-02 0.  1.
       -1    1    3    3    0  502 -0.31674950264E+03 -0.18684812782E+04  0.10355990014E+03  0.18979665928E+04  0.50400001928E-02 0. -1.
</event>
<event>
 5   0  0.7675750E-08  0.3869600E+04  0.7818609E-02  0.8031382E-01
        1   -1    0    0  501    0  0.00000000000E+00  0.00000000000E+00  0.17740613200E+04  0.17740613200E+04  0.50400001928E-02 0.  1.
       -1   -1    0    0    0  501  0.00000000000E+00  0.00000000000E+00 -0.21101026552E+04  0.21101026552E+04  0.50400001928E-02 0. -1.
    10030    2    1    2    0    0  0.00000000000E+00  0.00000000000E+00 -0.33604133527E+03  0.38841639752E+04  0.38696002387E+04 0.  0.
        2    1    3    3  502    0 -0.11423581764E+04 -0.99588681488E+03 -0.13753270763E+04  0.20465329995E+04  0.25500000920E-02 0. -1.
       -2    1    3    3    0  502  0.11423581764E+04  0.99588681488E+03  0.10392857410E+04  0.18376309757E+04  0.25500000920E-02 0.  1.
</event>
<event>
 5   0  0.7675750E-08  0.3853673E+04  0.7818609E-02  0.8034734E-01
       -1   -1    0    0    0  501  0.00000000000E+00  0.00000000000E+00  0.14755508313E+04  0.14755508313E+04  0.50400001928E-02 0.  1.
        1   -1    0    0  501    0  0.00000000000E+00  0.00000000000E+00 -0.25161441304E+04  0.25161441304E+04  0.50400001928E-02 0. -1.
    10030    2    1    2    0    0  0.00000000000E+00  0.00000000000E+00 -0.10405932992E+04  0.39916949617E+04  0.38536728265E+04 0.  0.
        1    1    3    3  502    0  0.53344976609E+03 -0.32048216688E+03 -0.24091830017E+04  0.24882604783E+04  0.50400001928E-02 0. -1.
       -1    1    3    3    0  502 -0.53344976609E+03  0.32048216688E+03  0.13685897025E+04  0.15034344835E+04  0.50400001928E-02 0.  1.
</event>
<event>
 5   0  0.7675750E-08  0.3911785E+04  0.7818609E-02  0.8022583E-01
        1   -1    0    0  501    0  0.00000000000E+00  0.00000000000E+00  0.24143444743E+04  0.24143444743E+04  0.50400001928E-02 0.  1.
       -1   -1    0    0    0  501  0.00000000000E+00  0.00000000000E+00 -0.15844942632E+04  0.15844942632E+04  0.50400001928E-02 0. -1.
    10030    2    1    2    0    0  0.00000000000E+00  0.00000000000E+00  0.82985021108E+03  0.39988387374E+04  0.39117847430E+04 0.  0.
        2    1    3    3  502    0  0.47088340472E+03 -0.54186414788E+03 -0.14449504933E+04  0.16134527770E+04  0.25500000920E-02 0. -1.
       -2    1    3    3    0  502 -0.47088340472E+03  0.54186414788E+03  0.22748007044E+04  0.23853859604E+04  0.25500000920E-02 0.  1.
</event>
<event>
 5   0  0.2395572E-07  0.3915151E+04  0.7818609E-02  0.8021885E-01
        2   -1    0    0  501    0  0.00000000000E+00  0.00000000000E+00  0.24348814152E+04  0.24348814152E+04  0.25500000920E-02 0.  1.
       -2   -1    0    0    0  501  0.00000000000E+00  0.00000000000E+00 -0.15738350247E+04  0.15738350247E+04  0.25500000920E-02 0. -1.
    10030    2    1    2    0    0  0.00000000000E+00  0.00000000000E+00  0.86104639049E+03  0.40087164399E+04  0.39151509050E+04 0.  0.
        3    1    3    3  502    0 -0.12156421190E+04  0.54880301747E+03 -0.10365952417E+04  0.16892306589E+04  0.10100000352E+00 0. -1.
       -3    1    3    3    0  502  0.12156421190E+04 -0.54880301747E+03  0.18976416322E+04  0.23194857810E+04  0.10100000352E+00 0.  1.
</event>
<event>
 5   0  0.7675750E-08  0.3283668E+04  0.7818609E-02  0.8167063E-01
        1   -1    0    0  501    0  0.00000000000E+00  0.00000000000E+00  0.17939357901E+04  0.17939357901E+04  0.50400001928E-02 0. -1.
       -1   -1    0    0    0  501  0.00000000000E+00  0.00000000000E+00 -0.15026286401E+04  0.15026286401E+04  0.50400001928E-02 0.  1.
    10030    2    1    2    0    0  0.00000000000E+00  0.00000000000E+00  0.29130714997E+03  0.32965644302E+04  0.32836682516E+04 0.  0.
        2    1    3    3  502    0  0.37761557646E+03 -0.93983641741E+03  0.14429100474E+04  0.17629167365E+04  0.25500000920E-02 0. -1.
       -2    1    3    3    0  502 -0.37761557646E+03  0.93983641741E+03 -0.11516028974E+04  0.15336476937E+04  0.25500000920E-02 0.  1.
</event>
<event>
 5   0  0.2384787E-07  0.4012640E+04  0.7818609E-02  0.8002002E-01
        2   -1    0    0  501    0  0.00000000000E+00  0.00000000000E+00  0.16307537298E+04  0.16307537298E+04  0.25500000920E-02 0. -1.
       -2   -1    0    0    0  501  0.00000000000E+00  0.00000000000E+00 -0.24683795891E+04  0.24683795891E+04  0.25500000920E-02 0.  1.
    10030    2    1    2    0    0  0.00000000000E+00  0.00000000000E+00 -0.83762585934E+03  0.40991333188E+04  0.40126396406E+04 0.  0.
        4    1    3    3  502    0  0.15289853895E+04  0.11083631923E+04 -0.11109513828E+04  0.21909997433E+04  0.12699999809E+01 0.  1.
       -4    1    3    3    0  502 -0.15289853895E+04 -0.11083631923E+04  0.27332552346E+03  0.19081335755E+04  0.12699999809E+01 0. -1.
</event>
<event>
 5   0  0.7731706E-08  0.3913497E+04  0.7818609E-02  0.8022228E-01
       -1   -1    0    0    0  501  0.00000000000E+00  0.00000000000E+00  0.13137343697E+04  0.13137343697E+04  0.50400001928E-02 0. -1.
        1   -1    0    0  501    0  0.00000000000E+00  0.00000000000E+00 -0.29144896356E+04  0.29144896356E+04  0.50400001928E-02 0.  1.
    10030    2    1    2    0    0  0.00000000000E+00  0.00000000000E+00 -0.16007552660E+04  0.42282240053E+04  0.39134972617E+04 0.  0.
        3    1    3    3  502    0 -0.15174850953E+04 -0.10779758874E+04 -0.14846906039E+03  0.18673071789E+04  0.10100000352E+00 0.  1.
       -3    1    3    3    0  502  0.15174850953E+04  0.10779758874E+04 -0.14522862056E+04  0.23609168264E+04  0.10100000352E+00 0. -1.
</event>
<event>
 5   0  0.7675750E-08  0.3973948E+04  0.7818609E-02  0.8009823E-01
        1   -1    0    0  501    0  0.00000000000E+00  0.00000000000E+00  0.28727426645E+04  0.28727426645E+04  0.50400001928E-02 0. -1.
       -1   -1    0    0    0  501  0.00000000000E+00  0.00000000000E+00 -0.13743196152E+04  0.13743196152E+04  0.50400001928E-02 0.  1.
    10030    2    1    2    0    0  0.00000000000E+00  0.00000000000E+00  0.14984230493E+04  0.42470622797E+04  0.39739484613E+04 0.  0.
        1    1    3    3  502    0  0.68639446972E+03  0.90888511556E+03  0.24892528203E+04  0.27374420770E+04  0.50400001928E-02 0. -1.
       -1    1    3    3    0  502 -0.68639446972E+03 -0.90888511556E+03 -0.99082977102E+03  0.15096202027E+04  0.50400001928E-02 0.  1.
</event>
<event>
 5   0  0.2384787E-07  0.3943520E+04  0.7818609E-02  0.8016038E-01
        2   -1    0    0  501    0  0.00000000000E+00  0.00000000000E+00  0.29904529612E+04  0.29904529612E+04  0.25500000920E-02 0. -1.
       -2   -1    0    0    0  501  0.00000000000E+00  0.00000000000E+00 -0.13000833570E+04  0.13000833570E+04  0.25500000920E-02 0.  1.
    10030    2    1    2    0    0  0.00000000000E+00  0.00000000000E+00  0.16903696042E+04  0.42905363183E+04  0.39435203181E+04 0.  0.
        4    1    3    3  502    0  0.60131343414E+02  0.16043220722E+04  0.20906302403E+04  0.26359441391E+04  0.12699999809E+01 0. -1.
       -4    1    3    3    0  502 -0.60131343414E+02 -0.16043220722E+04 -0.40026063602E+03  0.16545921792E+04  0.12699999809E+01 0.  1.
</event>
<event>
 5   0  0.2486268E-07  0.3915064E+04  0.7818609E-02  0.8021903E-01
        2   -1    0    0  501    0  0.00000000000E+00  0.00000000000E+00  0.19903355714E+04  0.19903355714E+04  0.25500000920E-02 0. -1.
       -2   -1    0    0    0  501  0.00000000000E+00  0.00000000000E+00 -0.19252692547E+04  0.19252692547E+04  0.25500000920E-02 0.  1.
    10030    2    1    2    0    0  0.00000000000E+00  0.00000000000E+00  0.65066316660E+02  0.39156048261E+04  0.39150641794E+04 0.  0.
        5    1    3    3  502    0  0.51900396215E+03 -0.88267268541E+02  0.19181989337E+04  0.19891368638E+04  0.46999998093E+01 0. -1.
       -5    1    3    3    0  502 -0.51900396215E+03  0.88267268541E+02 -0.18531326171E+04  0.19264679623E+04  0.46999998093E+01 0.  1.
</event>
<event>
 5   0  0.7675750E-08  0.3957021E+04  0.7818609E-02  0.8013273E-01
        1   -1    0    0  501    0  0.00000000000E+00  0.00000000000E+00  0.12847375509E+04  0.12847375509E+04  0.50400001928E-02 0. -1.
       -1   -1    0    0    0  501  0.00000000000E+00  0.00000000000E+00 -0.30469282813E+04  0.30469282813E+04  0.50400001928E-02 0.  1.
    10030    2    1    2    0    0  0.00000000000E+00  0.00000000000E+00 -0.17621907304E+04  0.43316658322E+04  0.39570206863E+04 0.  0.
        2    1    3    3  502    0  0.61788770838E+03  0.11593576627E+04 -0.25005567350E+04  0.28246556242E+04  0.25500000920E-02 0.  1.
       -2    1    3    3    0  502 -0.61788770838E+03 -0.11593576627E+04  0.73836600461E+03  0.15070102080E+04  0.25500000920E-02 0. -1.
</event>
<event>
 5   0  0.7675750E-08  0.3755786E+04  0.7818609E-02  0.8055710E-01
       -1   -1    0    0    0  501  0.00000000000E+00  0.00000000000E+00  0.16374413163E+04  0.16374413164E+04  0.50400001928E-02 0. -1.
        1   -1    0    0  501    0  0.00000000000E+00  0.00000000000E+00 -0.21536535804E+04  0.21536535804E+04  0.50400001928E-02 0.  1.
    10030    2    1    2    0    0  0.00000000000E+00  0.00000000000E+00 -0.51621226401E+03  0.37910948967E+04  0.37557855922E+04 0.  0.
        4    1    3    3  502    0 -0.10991306126E+04 -0.14396484320E+04  0.24234118217E+03  0.18274043266E+04  0.12699999809E+01 0. -1.
       -4    1    3    3    0  502  0.10991306126E+04  0.14396484320E+04 -0.75855344618E+03  0.19636905701E+04  0.12699999809E+01 0.  1.
</event>
<event>
 5   0  0.7675750E-08  0.3984955E+04  0.7818609E-02  0.8007589E-01
        1   -1    0    0  501    0  0.00000000000E+00  0.00000000000E+00  0.14638030657E+04  0.14638030657E+04  0.50400001928E-02 0.  1.
       -1   -1    0    0    0  501  0.00000000000E+00  0.00000000000E+00 -0.27120902433E+04  0.27120902433E+04  0.50400001928E-02 0. -1.
    10030    2    1    2    0    0  0.00000000000E+00  0.00000000000E+00 -0.12482871777E+04  0.41758933090E+04  0.39849547112E+04 0.  0.
        1    1    3    3  502    0  0.11013645026E+04 -0.10303261089E+02  0.11157915225E+04  0.15678331055E+04  0.50400001928E-02 0.  1.
       -1    1    3    3    0  502 -0.11013645026E+04  0.10303261089E+02 -0.23640787002E+04  0.26080602036E+04  0.50400001928E-02 0. -1.
</event>
<event>
 5   0  0.7675750E-08  0.3892127E+04  0.7818609E-02  0.8026669E-01
       -1   -1    0    0    0  501  0.00000000000E+00  0.00000000000E+00  0.19594334172E+04  0.19594334172E+04  0.50400001928E-02 0.  1.
        1   -1    0    0  501    0  0.00000000000E+00  0.00000000000E+00 -0.19327850505E+04  0.19327850506E+04  0.50400001928E-02 0. -1.
    10030    2    1    2    0    0  0.00000000000E+00  0.00000000000E+00  0.26648366623E+02  0.38922184677E+04  0.38921272416E+04 0.  0.
        5    1    3    3  502    0  0.19073906469E+04 -0.22615214737E+03  0.32615359342E+03  0.19482510440E+04  0.46999998093E+01 0. -1.
       -5    1    3    3    0  502 -0.19073906469E+04  0.22615214737E+03 -0.29950522680E+03  0.19439674238E+04  0.46999998093E+01 0.  1.
</event>
<event>
 5   0  0.7731706E-08  0.3655850E+04  0.7818609E-02  0.8077817E-01
       -1   -1    0    0    0  501  0.00000000000E+00  0.00000000000E+00  0.20231363185E+04  0.20231363185E+04  0.50400001928E-02 0. -1.
        1   -1    0    0  501    0  0.00000000000E+00  0.00000000000E+00 -0.16515496150E+04  0.16515496151E+04  0.50400001928E-02 0.  1.
    10030    2    1    2    0    0  0.00000000000E+00  0.00000000000E+00  0.37158670343E+03  0.36746859335E+04  0.36558501107E+04 0.  0.
        3    1    3    3  502    0 -0.16256849922E+04  0.71182016805E+03 -0.25437881592E+03  0.17928324623E+04  0.10100000352E+00 0. -1.
       -3    1    3    3    0  502  0.16256849922E+04 -0.71182016805E+03  0.62596551935E+03  0.18818534712E+04  0.10100000352E+00 0.  1.
</event>
<event>
 5   0  0.2446281E-07  0.3921665E+04  0.7818609E-02  0.8020538E-01
       -2   -1    0    0    0  501  0.00000000000E+00  0.00000000000E+00  0.20503285664E+04  0.20503285664E+04  0.25500000920E-02 0. -1.
        2   -1    0    0  501    0  0.00000000000E+00  0.00000000000E+00 -0.18752425824E+04  0.18752425824E+04  0.25500000920E-02 0.  1.
    10030    2    1    2    0    0  0.00000000000E+00  0.00000000000E+00  0.17508598393E+03  0.39255711488E+04  0.39216646647E+04 0.  0.
        1    1    3    3  502    0 -0.12227544987E+01 -0.10208101020E+04 -0.15882837818E+04  0.18880413478E+04  0.50400001928E-02 0.  1.
       -1    1    3    3    0  502  0.12227544987E+01  0.10208101020E+04  0.17633697657E+04  0.20375298010E+04  0.50400001928E-02 0. -1.
</event>
<event>
 5   0  0.7675750E-08  0.3676675E+04  0.7818609E-02  0.8073151E-01
        1   -1    0    0  501    0  0.00000000000E+00  0.00000000000E+00  0.19523283203E+04  0.19523283203E+04  0.50400001928E-02 0.  1.
       -1   -1    0    0    0  501  0.00000000000E+00  0.00000000000E+00 -0.17310019228E+04  0.17310019228E+04  0.50400001928E-02 0. -1.
    10030    2    1    2    0    0  0.00000000000E+00  0.00000000000E+00  0.22132639751E+03  0.36833302431E+04  0.36766746260E+04 0.  0.
        5    1    3    3  502    0  0.13632838834E+04  0.10695542014E+04 -0.50442939458E+03  0.18047050287E+04  0.46999998093E+01 0. -1.
       -5    1    3    3    0  502 -0.13632838834E+04 -0.10695542014E+04  0.72575579209E+03  0.18786252144E+04  0.46999998093E+01 0.  1.
</event>
<event>
 5   0  0.7675750E-08  0.3911699E+04  0.7818609E-02  0.8022600E-01
       -1   -1    0    0    0  501  0.00000000000E+00  0.00000000000E+00  0.16930175843E+04  0.16930175843E+04  0.50400001928E-02 0.  1.
        1   -1    0    0  501    0  0.00000000000E+00  0.00000000000E+00 -0.22594850501E+04  0.22594850501E+04  0.50400001928E-02 0. -1.
    10030    2    1    2    0    0  0.00000000000E+00  0.00000000000E+00 -0.56646746573E+03  0.39525026344E+04  0.39116993347E+04 0.  0.
        1    1    3    3  502    0  0.70617143091E+03 -0.12945637604E+04 -0.15814605557E+04  0.21623114736E+04  0.50400001928E-02 0. -1.
       -1    1    3    3    0  502 -0.70617143091E+03  0.12945637604E+04  0.10149930899E+04  0.17901911608E+04  0.50400001928E-02 0.  1.
</event>
<event>
 5   0  0.7731706E-08  0.3915372E+04  0.7818609E-02  0.8021840E-01
        1   -1    0    0  501    0  0.00000000000E+00  0.00000000000E+00  0.14592044044E+04  0.14592044044E+04  0.50400001928E-02 0. -1.
       -1   -1    0    0    0  501  0.00000000000E+00  0.00000000000E+00 -0.26264550971E+04  0.26264550971E+04  0.50400001928E-02 0.  1.
    10030    2    1    2    0    0  0.00000000000E+00  0.00000000000E+00 -0.11672506926E+04  0.40856595015E+04  0.39153721896E+04 0.  0.
        3    1    3    3  502    0  0.97488867476E+03 -0.13696633328E+03  0.11821182327E+04  0.15383664163E+04  0.10100000352E+00 0. -1.
       -3    1    3    3    0  502 -0.97488867476E+03  0.13696633328E+03 -0.23493689253E+04  0.25472930852E+04  0.10100000352E+00 0.  1.
</event>
<event>
 5   0  0.7675750E-08  0.3862597E+04  0.7818609E-02  0.8032854E-01
        1   -1    0    0  501    0  0.00000000000E+00  0.00000000000E+00  0.15142728856E+04  0.15142728856E+04  0.50400001928E-02 0.  1.
       -1   -1    0    0    0  501  0.00000000000E+00  0.00000000000E+00 -0.24631713155E+04  0.24631713155E+04  0.50400001928E-02 0. -1.
    10030    2    1    2    0    0  0.00000000000E+00  0.00000000000E+00 -0.94889842986E+03  0.39774442011E+04  0.38625968134E+04 0.  0.
        4    1    3    3  502    0 -0.11730113862E+04  0.91154202748E+03  0.79636311384E+03  0.16855445417E+04  0.12699999809E+01 0.  1.
       -4    1    3    3    0  502  0.11730113862E+04 -0.91154202748E+03 -0.17452615437E+04  0.22918996594E+04  0.12699999809E+01 0. -1.
</event>
<event>
 5   0  0.7731706E-08  0.3881389E+04  0.7818609E-02  0.8028911E-01
       -1   -1    0    0    0  501  0.00000000000E+00  0.00000000000E+00  0.26553388108E+04  0.26553388108E+04  0.50400001928E-02 0.  1.
        1   -1    0    0  501    0  0.00000000000E+00  0.00000000000E+00 -0.14183862630E+04  0.14183862630E+04  0.50400001928E-02 0. -1.
    10030    2    1    2    0    0  0.00000000000E+00  0.00000000000E+00  0.12369525478E+04  0.40737250738E+04  0.38813894897E+04 0.  0.
        3    1    3    3  502    0  0.12280659311E+04 -0.14547578884E+04  0.10137409348E+04  0.21568813453E+04  0.10100000352E+00 0.  1.
       -3    1    3    3    0  502 -0.12280659311E+04  0.14547578884E+04  0.22321161307E+03  0.19168437284E+04  0.10100000352E+00 0. -1.
</event>
<event>
 5   0  0.2446281E-07  0.3908982E+04  0.7818609E-02  0.8023164E-01
        2   -1    0    0  501    0  0.00000000000E+00  0.00000000000E+00  0.19765760902E+04  0.19765760902E+04  0.25500000920E-02 0.  1.
       -2   -1    0    0    0  501  0.00000000000E+00  0.00000000000E+00 -0.19326527643E+04  0.19326527643E+04  0.25500000920E-02 0. -1.
    10030    2    1    2    0    0  0.00000000000E+00  0.00000000000E+00  0.43923325935E+02  0.39092288545E+04  0.39089820898E+04 0.  0.
        1    1    3    3  502    0 -0.14732625588E+04 -0.95946830168E+03 -0.83187982841E+03  0.19450208323E+04  0.50400001928E-02 0. -1.
       -1    1    3    3    0  502  0.14732625588E+04  0.95946830168E+03  0.87580315434E+03  0.19642080222E+04  0.50400001928E-02 0.  1.
</event>
<event>
 5   0  0.2395572E-07  0.3903823E+04  0.7818609E-02  0.8024234E-01
        2   -1    0    0  501    0  0.00000000000E+00  0.00000000000E+00  0.21070416475E+04  0.21070416475E+04  0.25500000920E-02 0.  1.
       -2   -1    0    0    0  501  0.00000000000E+00  0.00000000000E+00 -0.18082032036E+04  0.18082032037E+04  0.25500000920E-02 0. -1.
    10030    2    1    2    0    0  0.00000000000E+00  0.00000000000E+00  0.29883844384E+03  0.39152448511E+04  0.39038234884E+04 0.  0.
        3    1    3    3  502    0 -0.14003067254E+04  0.12625375673E+04  0.65597057986E+03  0.19962859129E+04  0.10100000352E+00 0.  1.
       -3    1    3    3    0  502  0.14003067254E+04 -0.12625375673E+04 -0.35713213602E+03  0.19189589383E+04  0.10100000352E+00 0. -1.
</event>
<event>
 5   0  0.7731706E-08  0.3838794E+04  0.7818609E-02  0.8037881E-01
        1   -1    0    0  501    0  0.00000000000E+00  0.00000000000E+00  0.14498654407E+04  0.14498654407E+04  0.50400001928E-02 0.  1.
       -1   -1    0    0    0  501  0.00000000000E+00  0.00000000000E+00 -0.25409834544E+04  0.25409834544E+04  0.50400001928E-02 0. -1.
    10030    2    1    2    0    0  0.00000000000E+00  0.00000000000E+00 -0.10911180137E+04  0.39908488951E+04  0.38387936104E+04 0.  0.
        3    1    3    3  502    0 -0.15417694464E+04 -0.57152555519E+03 -0.15749251242E+04  0.22768582835E+04  0.10100000352E+00 0. -1.
       -3    1    3    3    0  502  0.15417694464E+04  0.57152555519E+03  0.48380711053E+03  0.17139906116E+04  0.10100000352E+00 0.  1.
</event>
<event>
 5   0  0.2486268E-07  0.3898520E+04  0.7818609E-02  0.8025337E-01
       -2   -1    0    0    0  501  0.00000000000E+00  0.00000000000E+00  0.27753818549E+04  0.27753818549E+04  0.25500000920E-02 0. -1.
        2   -1    0    0  501    0  0.00000000000E+00  0.00000000000E+00 -0.13690420451E+04  0.13690420451E+04  0.25500000920E-02 0.  1.
    10030    2    1    2    0    0  0.00000000000E+00  0.00000000000E+00  0.14063398098E+04  0.41444239000E+04  0.38985199502E+04 0.  0.
        5    1    3    3  502    0  0.11699706646E+02  0.10789852122E+04 -0.10225687301E+04  0.14866118757E+04  0.46999998093E+01 0.  1.
       -5    1    3    3    0  502 -0.11699706646E+02 -0.10789852122E+04  0.24289085399E+04  0.26578120243E+04  0.46999998093E+01 0. -1.
</event>
<event>
 5   0  0.7675750E-08  0.3680819E+04  0.7818609E-02  0.8072226E-01
        1   -1    0    0  501    0  0.00000000000E+00  0.00000000000E+00  0.18145450428E+04  0.18145450428E+04  0.50400001928E-02 0.  1.
       -1   -1    0    0    0  501  0.00000000000E+00  0.00000000000E+00 -0.18666430375E+04  0.18666430375E+04  0.50400001928E-02 0. -1.
    10030    2    1    2    0    0  0.00000000000E+00  0.00000000000E+00 -0.52097994638E+02  0.36811880803E+04  0.36808194036E+04 0.  0.
        4    1    3    3  502    0 -0.14151757683E+04  0.11610150509E+04  0.16483094308E+03  0.18378926128E+04  0.12699999809E+01 0. -1.
       -4    1    3    3    0  502  0.14151757683E+04 -0.11610150509E+04 -0.21692893772E+03  0.18432954675E+04  0.12699999809E+01 0.  1.
</event>
<event>
 5   0  0.7675750E-08  0.3861435E+04  0.7818609E-02  0.8033098E-01
        1   -1    0    0  501    0  0.00000000000E+00  0.00000000000E+00  0.22546304543E+04  0.22546304543E+04  0.50400001928E-02 0. -1.
       -1   -1    0    0    0  501  0.00000000000E+00  0.00000000000E+00 -0.16533398403E+04  0.16533398404E+04  0.50400001928E-02 0.  1.
    10030    2    1    2    0    0  0.00000000000E+00  0.00000000000E+00  0.60129061393E+03  0.39079702946E+04  0.38614351505E+04 0.  0.
        2    1    3    3  502    0 -0.27550180887E+03  0.20286824109E+03  0.22237061025E+04  0.22498723520E+04  0.25500000920E-02 0. -1.
       -2    1    3    3    0  502  0.27550180887E+03 -0.20286824109E+03 -0.16224154886E+04  0.16580979427E+04  0.25500000920E-02 0.  1.
</event>
<event>
 5   0  0.7675750E-08  0.3828769E+04  0.7818609E-02  0.8040009E-01
       -1   -1    0    0    0  501  0.00000000000E+00  0.00000000000E+00  0.17590961718E+04  0.17590961719E+04  0.50400001928E-02 0. -1.
        1   -1    0    0  501    0  0.00000000000E+00  0.00000000000E+00 -0.20833817367E+04  0.20833817367E+04  0.50400001928E-02 0.  1.
    10030    2    1    2    0    0  0.00000000000E+00  0.00000000000E+00 -0.32428556487E+03  0.38424779086E+04  0.38287694303E+04 0.  0.
        1    1    3    3  502    0  0.90523532376E+03 -0.48662971934E+03 -0.17830445276E+04  0.20580348060E+04  0.50400001928E-02 0.  1.
       -1    1    3    3    0  502 -0.90523532376E+03  0.48662971934E+03  0.14587589627E+04  0.17844431026E+04  0.50400001928E-02 0. -1.
</event>
<event>
 5   0  0.7675750E-08  0.3933031E+04  0.7818609E-02  0.8018194E-01
        1   -1    0    0  501    0  0.00000000000E+00  0.00000000000E+00  0.20565428179E+04  0.20565428179E+04  0.50400001928E-02 0.  1.
       -1   -1    0    0    0  501  0.00000000000E+00  0.00000000000E+00 -0.18804288451E+04  0.18804288451E+04  0.50400001928E-02 0. -1.
    10030    2    1    2    0    0  0.00000000000E+00  0.00000000000E+00  0.17611397273E+03  0.39369716630E+04  0.39330306055E+04 0.  0.
        5    1    3    3  502    0 -0.14007869238E+04 -0.12202129991E+04 -0.55759831334E+03  0.19396035002E+04  0.46999998093E+01 0.  1.
       -5    1    3    3    0  502  0.14007869238E+04  0.12202129991E+04  0.73371228608E+03  0.19973681628E+04  0.46999998093E+01 0. -1.
</event>
<event>
 5   0  0.2486268E-07  0.3896540E+04  0.7818609E-02  0.8025749E-01
       -2   -1    0    0    0  501  0.00000000000E+00  0.00000000000E+00  0.17090280762E+04  0.17090280762E+04  0.25500000920E-02 0. -1.
        2   -1    0    0  501    0  0.00000000000E+00  0.00000000000E+00 -0.22210032622E+04  0.22210032622E+04  0.25500000920E-02 0.  1.
    10030    2    1    2    0    0  0.00000000000E+00  0.00000000000E+00 -0.51197518603E+03  0.39300313385E+04  0.38965404823E+04 0.  0.
        5    1    3    3  502    0 -0.11702009962E+04  0.19469134750E+03  0.13027599589E+04  0.17619536580E+04  0.46999998093E+01 0. -1.
       -5    1    3    3    0  502  0.11702009962E+04 -0.19469134750E+03 -0.18147351449E+04  0.21680776805E+04  0.46999998093E+01 0.  1.
</event>
<event>
 5   0  0.2384787E-07  0.3497805E+04  0.7818609E-02  0.8114310E-01
       -2   -1    0    0    0  501  0.00000000000E+00  0.00000000000E+00  0.26050581873E+04  0.26050581873E+04  0.25500000920E-02 0. -1.
        2   -1    0    0  501    0  0.00000000000E+00  0.00000000000E+00 -0.11741231860E+04  0.11741231860E+04  0.25500000920E-02 0.  1.
    10030    2    1    2    0    0  0.00000000000E+00  0.00000000000E+00  0.14309350013E+04  0.37791813734E+04  0.34978045793E+04 0.  0.
        4    1    3    3  502    0 -0.63097867603E+03 -0.16261630131E+04  0.57830061011E+03  0.18376543319E+04  0.12699999809E+01 0.  1.
       -4    1    3    3    0  502  0.63097867603E+03  0.16261630131E+04  0.85263439120E+03  0.19415270415E+04  0.12699999809E+01 0. -1.
</event>
<event>
 5   0  0.7675750E-08  0.3944180E+04  0.7818609E-02  0.8015903E-01
        1   -1    0    0  501    0  0.00000000000E+00  0.00000000000E+00  0.17534967264E+04  0.17534967264E+04  0.50400001928E-02 0. -1.
       -1   -1    0    0    0  501  0.00000000000E+00  0.00000000000E+00 -0.22179329433E+04  0.22179329433E+04  0.50400001928E-02 0.  1.
    10030    2    1    2    0    0  0.00000000000E+00  0.00000000000E+00 -0.46443621694E+03  0.39714296697E+04  0.39441795880E+04 0.  0.
        5    1    3    3  502    0  0.95887157148E+03 -0.17228676359E+04 -0.19442904230E+03  0.19812956175E+04  0.46999998093E+01 0.  1.
       -5    1    3    3    0  502 -0.95887157148E+03  0.17228676359E+04 -0.27000717464E+03  0.19901340522E+04  0.46999998093E+01 0. -1.
</event>
<event>
 5   0  0.2446281E-07  0.3882583E+04  0.7818609E-02  0.8028661E-01
        2   -1    0    0  501    0  0.00000000000E+00  0.00000000000E+00  0.30039083227E+04  0.30039083227E+04  0.25500000920E-02 0.  1.
       -2   -1    0    0    0  501  0.00000000000E+00  0.00000000000E+00 -0.12545699279E+04  0.12545699279E+04  0.25500000920E-02 0. -1.
    10030    2    1    2    0    0  0.00000000000E+00  0.00000000000E+00  0.17493383948E+04  0.42584782507E+04  0.38825831854E+04 0.  0.
        1    1    3    3  502    0 -0.17414765032E+04  0.72258205629E+03  0.36757983555E+03  0.19209321109E+04  0.50400001928E-02 0. -1.
       -1    1    3    3    0  502  0.17414765032E+04 -0.72258205629E+03  0.13817585592E+04  0.23375461397E+04  0.50400001928E-02 0.  1.
</event>
<event>
 5   0  0.2384787E-07  0.3179415E+04  0.7818609E-02  0.8194275E-01
        2   -1    0    0  501    0  0.00000000000E+00  0.00000000000E+00  0.20743210351E+04  0.20743210351E+04  0.25500000920E-02 0. -1.
       -2   -1    0    0    0  501  0.00000000000E+00  0.00000000000E+00 -0.12183121207E+04  0.12183121207E+04  0.25500000920E-02 0.  1.
    10030    2    1    2    0    0  0.00000000000E+00  0.00000000000E+00  0.85600891445E+03  0.32926331558E+04  0.31794153295E+04 0.  0.
        4    1    3    3  502    0  0.11001605013E+04 -0.82160122683E+03 -0.40163918451E+03  0.14306283067E+04  0.12699999809E+01 0.  1.
       -4    1    3    3    0  502 -0.11001605013E+04  0.82160122683E+03  0.12576480990E+04  0.18620048491E+04  0.12699999809E+01 0. -1.
</event>
<event>
 5   0  0.2384787E-07  0.3901679E+04  0.7818609E-02  0.8024680E-01
        2   -1    0    0  501    0  0.00000000000E+00  0.00000000000E+00  0.22315626133E+04  0.22315626133E+04  0.25500000920E-02 0. -1.
       -2   -1    0    0    0  501  0.00000000000E+00  0.00000000000E+00 -0.17054305989E+04  0.17054305989E+04  0.25500000920E-02 0.  1.
    10030    2    1    2    0    0  0.00000000000E+00  0.00000000000E+00  0.52613201436E+03  0.39369932122E+04  0.39016792098E+04 0.  0.
        4    1    3    3  502    0 -0.58494972730E+03  0.13826915299E+04 -0.99391001232E+03  0.18005168080E+04  0.12699999809E+01 0.  1.
       -4    1    3    3    0  502  0.58494972730E+03 -0.13826915299E+04  0.15200420267E+04  0.21364764043E+04  0.12699999809E+01 0. -1.
</event>
<event>
 5   0  0.7675750E-08  0.3906204E+04  0.7818609E-02  0.8023740E-01
        1   -1    0    0  501    0  0.00000000000E+00  0.00000000000E+00  0.30274878811E+04  0.30274878811E+04  0.50400001928E-02 0. -1.
       -1   -1    0    0    0  501  0.00000000000E+00  0.00000000000E+00 -0.12599907755E+04  0.12599907755E+04  0.50400001928E-02 0.  1.
    10030    2    1    2    0    0  0.00000000000E+00  0.00000000000E+00  0.17674971056E+04  0.42874786566E+04  0.39062036829E+04 0.  0.
        1    1    3    3  502    0 -0.29044969385E+03 -0.19313161720E+04  0.86592730139E+03  0.21363925838E+04  0.50400001928E-02 0. -1.
       -1    1    3    3    0  502  0.29044969385E+03  0.19313161720E+04  0.90156980425E+03  0.21510860728E+04  0.50400001928E-02 0.  1.
</event>
<event>
 5   0  0.7675750E-08  0.3889366E+04  0.7818609E-02  0.8027244E-01
        1   -1    0    0  501    0  0.00000000000E+00  0.00000000000E+00  0.17806102688E+04  0.17806102688E+04  0.50400001928E-02 0. -1.
       -1   -1    0    0    0  501  0.00000000000E+00  0.00000000000E+00 -0.21238742277E+04  0.21238742277E+04  0.50400001928E-02 0.  1.
    10030    2    1    2    0    0  0.00000000000E+00  0.00000000000E+00 -0.34326395892E+03  0.39044844966E+04  0.38893661487E+04 0.  0.
        5    1    3    3  502    0 -0.11837321936E+04  0.12912979299E+03  0.13718338270E+04  0.18165479758E+04  0.46999998093E+01 0. -1.
       -5    1    3    3    0  502  0.11837321936E+04 -0.12912979299E+03 -0.17150977859E+04  0.20879365208E+04  0.46999998093E+01 0.  1.
</event>
<event>
 5   0  0.7731706E-08  0.3967619E+04  0.7818609E-02  0.8011111E-01
       -1   -1    0    0    0  501  0.00000000000E+00  0.00000000000E+00  0.35240329299E+04  0.35240329299E+04  0.50400001928E-02 0. -1.
        1   -1    0    0  501    0  0.00000000000E+00  0.00000000000E+00 -0.11167604487E+04  0.11167604488E+04  0.50400001928E-02 0.  1.
    10030    2    1    2    0    0  0.00000000000E+00  0.00000000000E+00  0.24072724811E+04  0.46407933786E+04  0.39676192338E+04 0.  0.
        3    1    3    3  502    0  0.11715080532E+04  0.13961655862E+04  0.28726268592E+03  0.18450553714E+04  0.10100000352E+00 0.  1.
       -3    1    3    3    0  502 -0.11715080532E+04 -0.13961655862E+04  0.21200097952E+04  0.27957380072E+04  0.10100000352E+00 0. -1.
</event>
<event>
 5   0  0.2384787E-07  0.3890359E+04  0.7818609E-02  0.8027037E-01
       -2   -1    0    0    0  501  0.00000000000E+00  0.00000000000E+00  0.13196259429E+04  0.13196259429E+04  0.25500000920E-02 0.  1.
        2   -1    0    0  501    0  0.00000000000E+00  0.00000000000E+00 -0.28672700379E+04  0.28672700379E+04  0.25500000920E-02 0. -1.
    10030    2    1    2    0    0  0.00000000000E+00  0.00000000000E+00 -0.15476440950E+04  0.41868959809E+04  0.38903593291E+04 0.  0.
        4    1    3    3  502    0 -0.89443486061E+03  0.73889420724E+03 -0.24541594649E+04  0.27145678591E+04  0.12699999809E+01 0. -1.
       -4    1    3    3    0  502  0.89443486061E+03 -0.73889420724E+03  0.90651536993E+03  0.14723281218E+04  0.12699999809E+01 0.  1.
</event>
<event>
 5   0  0.7675750E-08  0.3880660E+04  0.7818609E-02  0.8029064E-01
        1   -1    0    0  501    0  0.00000000000E+00  0.00000000000E+00  0.20274439754E+04  0.20274439754E+04  0.50400001928E-02 0.  1.
       -1   -1    0    0    0  501  0.00000000000E+00  0.00000000000E+00 -0.18569587855E+04  0.18569587855E+04  0.50400001928E-02 0. -1.
    10030    2    1    2    0    0  0.00000000000E+00  0.00000000000E+00  0.17048518993E+03  0.38844027609E+04  0.38806596873E+04 0.  0.
        4    1    3    3  502    0  0.52815488962E+03  0.16279423951E+04 -0.82982420327E+03  0.19020393925E+04  0.12699999809E+01 0. -1.
       -4    1    3    3    0  502 -0.52815488962E+03 -0.16279423951E+04  0.10003093932E+04  0.19823633684E+04  0.12699999809E+01 0.  1.
</event>
<event>
 5   0  0.2446281E-07  0.3908451E+04  0.7818609E-02  0.8023274E-01
        2   -1    0    0  501    0  0.00000000000E+00  0.00000000000E+00  0.15128669862E+04  0.15128669862E+04  0.25500000920E-02 0. -1.
       -2   -1    0    0    0  501  0.00000000000E+00  0.00000000000E+00 -0.25243437839E+04  0.25243437839E+04  0.25500000920E-02 0.  1.
    10030    2    1    2    0    0  0.00000000000E+00  0.00000000000E+00 -0.10114767977E+04  0.40372107701E+04  0.39084505229E+04 0.  0.
        1    1    3    3  502    0 -0.76794434937E+03 -0.11962927924E+04  0.87938582690E+03  0.16715784162E+04  0.50400001928E-02 0. -1.
       -1    1    3    3    0  502  0.76794434937E+03  0.11962927924E+04 -0.18908626246E+04  0.23656323539E+04  0.50400001928E-02 0.  1.
</event>
<event>
 5   0  0.7675750E-08  0.3785528E+04  0.7818609E-02  0.8049268E-01
       -1   -1    0    0    0  501  0.00000000000E+00  0.00000000000E+00  0.14686001216E+04  0.14686001216E+04  0.50400001928E-02 0. -1.
        1   -1    0    0  501    0  0.00000000000E+00  0.00000000000E+00 -0.24394359068E+04  0.24394359068E+04  0.50400001928E-02 0.  1.
    10030    2    1    2    0    0  0.00000000000E+00  0.00000000000E+00 -0.97083578513E+03  0.39080360284E+04  0.37855281636E+04 0.  0.
        5    1    3    3  502    0 -0.11429982214E+04  0.80116424459E+03 -0.18051566231E+04  0.22818680077E+04  0.46999998093E+01 0.  1.
       -5    1    3    3    0  502  0.11429982214E+04 -0.80116424459E+03  0.83432083794E+03  0.16261680207E+04  0.46999998093E+01 0. -1.
</event>
<event>
 5   0  0.2395572E-07  0.3904449E+04  0.7818609E-02  0.8024105E-01
       -2   -1    0    0    0  501  0.00000000000E+00  0.00000000000E+00  0.22871141586E+04  0.22871141586E+04  0.25500000920E-02 0. -1.
        2   -1    0    0  501    0  0.00000000000E+00  0.00000000000E+00 -0.16663708209E+04  0.16663708209E+04  0.25500000920E-02 0.  1.
    10030    2    1    2    0    0  0.00000000000E+00  0.00000000000E+00  0.62074333768E+03  0.39534849796E+04  0.39044488974E+04 0.  0.
        3    1    3    3  502    0 -0.16250172837E+04 -0.81909058441E+03  0.10260652153E+04  0.20891147394E+04  0.10100000352E+00 0. -1.
       -3    1    3    3    0  502  0.16250172837E+04  0.81909058441E+03 -0.40532187766E+03  0.18643702402E+04  0.10100000352E+00 0.  1.
</event>
<event>
 5   0  0.2446281E-07  0.3921032E+04  0.7818609E-02  0.8020669E-01
        2   -1    0    0  501    0  0.00000000000E+00  0.00000000000E+00  0.19035910986E+04  0.19035910986E+04  0.25500000920E-02 0. -1.
       -2   -1    0    0    0  501  0.00000000000E+00  0.00000000000E+00 -0.20191426984E+04  0.20191426984E+04  0.25500000920E-02 0.  1.
    10030    2    1    2    0    0  0.00000000000E+00  0.00000000000E+00 -0.11555159981E+03  0.39227337970E+04  0.39210315313E+04 0.  0.
        1    1    3    3  502    0 -0.16386951258E+04  0.81260764408E+03 -0.76375146281E+03  0.19821627571E+04  0.50400001928E-02 0.  1.
       -1    1    3    3    0  502  0.16386951258E+04 -0.81260764408E+03  0.64819986299E+03  0.19405710399E+04  0.50400001928E-02 0. -1.
</event>
<event>
 5   0  0.7675750E-08  0.3899513E+04  0.7818609E-02  0.8025131E-01
       -1   -1    0    0    0  501  0.00000000000E+00  0.00000000000E+00  0.24008524053E+04  0.24008524053E+04  0.50400001928E-02 0.  1.
        1   -1    0    0  501    0  0.00000000000E+00  0.00000000000E+00 -0.15834166171E+04  0.15834166171E+04  0.50400001928E-02 0. -1.
    10030    2    1    2    0    0  0.00000000000E+00  0.00000000000E+00  0.81743578820E+03  0.39842690223E+04  0.38995125817E+04 0.  0.
        5    1    3    3  502    0  0.64839658696E+03 -0.43480173806E+03  0.22341834191E+04  0.23666576274E+04  0.46999998093E+01 0.  1.
       -5    1    3    3    0  502 -0.64839658696E+03  0.43480173806E+03 -0.14167476309E+04  0.16176113949E+04  0.46999998093E+01 0. -1.
</event>
<event>
 5   0  0.7675750E-08  0.3825793E+04  0.7818609E-02  0.8040642E-01
       -1   -1    0    0    0  501  0.00000000000E+00  0.00000000000E+00  0.16930186857E+04  0.16930186857E+04  0.50400001928E-02 0.  1.
        1   -1    0    0  501    0  0.00000000000E+00  0.00000000000E+00 -0.21613309705E+04  0.21613309705E+04  0.50400001928E-02 0. -1.
    10030    2    1    2    0    0  0.00000000000E+00  0.00000000000E+00 -0.46831228478E+03  0.38543496561E+04  0.38257933655E+04 0.  0.
        2    1    3    3  502    0 -0.56955876948E+03  0.11235399589E+04  0.12161844620E+04  0.17509551327E+04  0.25500000920E-02 0.  1.
       -2    1    3    3    0  502  0.56955876948E+03 -0.11235399589E+04 -0.16844967468E+04  0.21033945234E+04  0.25500000920E-02 0. -1.
</event>
<event>
 5   0  0.2473224E-07  0.3910292E+04  0.7818609E-02  0.8022892E-01
        2   -1    0    0  501    0  0.00000000000E+00  0.00000000000E+00  0.11599049682E+04  0.11599049682E+04  0.25500000920E-02 0.  1.
       -2   -1    0    0    0  501  0.00000000000E+00  0.00000000000E+00 -0.32956112802E+04  0.32956112802E+04  0.25500000920E-02 0. -1.
    10030    2    1    2    0    0  0.00000000000E+00  0.00000000000E+00 -0.21357063120E+04  0.44555162484E+04  0.39102920081E+04 0.  0.
        2    1    3    3  502    0 -0.11161111041E+03 -0.15725353401E+04 -0.23854987971E+04  0.28593581355E+04  0.25500000920E-02 0. -1.
       -2    1    3    3    0  502  0.11161111041E+03  0.15725353401E+04  0.24979248514E+03  0.15961581129E+04  0.25500000920E-02 0.  1.
</event>
<event>
 5   0  0.2473224E-07  0.3946106E+04  0.7818609E-02  0.8015508E-01
       -2   -1    0    0    0  501  0.00000000000E+00  0.00000000000E+00  0.28486778012E+04  0.28486778012E+04  0.25500000920E-02 0.  1.
        2   -1    0    0  501    0  0.00000000000E+00  0.00000000000E+00 -0.13665773437E+04  0.13665773437E+04  0.25500000920E-02 0. -1.
    10030    2    1    2    0    0  0.00000000000E+00  0.00000000000E+00  0.14821004575E+04  0.42152551449E+04  0.39461062036E+04 0.  0.
        2    1    3    3  502    0 -0.14897355326E+04 -0.92534454845E+03 -0.22469565205E+03  0.17680674835E+04  0.25500000920E-02 0. -1.
       -2    1    3    3    0  502  0.14897355326E+04  0.92534454845E+03  0.17067961095E+04  0.24471876614E+04  0.25500000920E-02 0.  1.
</event>
<event>
 5   0  0.7731706E-08  0.3919696E+04  0.7818609E-02  0.8020945E-01
        1   -1    0    0  501    0  0.00000000000E+00  0.00000000000E+00  0.20994589498E+04  0.20994589498E+04  0.50400001928E-02 0. -1.
       -1   -1    0    0    0  501  0.00000000000E+00  0.00000000000E+00 -0.18295212125E+04  0.18295212125E+04  0.50400001928E-02 0.  1.
    10030    2    1    2    0    0  0.00000000000E+00  0.00000000000E+00  0.26993773731E+03  0.39289801624E+04  0.39196962554E+04 0.  0.
        3    1    3    3  502    0  0.56514490285E+03 -0.11154562502E+04  0.16476400434E+04  0.20684170590E+04  0.10100000352E+00 0. -1.
       -3    1    3    3    0  502 -0.56514490285E+03  0.11154562502E+04 -0.13777023060E+04  0.18605631034E+04  0.10100000352E+00 0.  1.
</event>
<event>
 5   0  0.7675750E-08  0.3878604E+04  0.7818609E-02  0.8029494E-01
       -1   -1    0    0    0  501  0.00000000000E+00  0.00000000000E+00  0.18313177912E+04  0.18313177912E+04  0.50400001928E-02 0. -1.
        1   -1    0    0  501    0  0.00000000000E+00  0.00000000000E+00 -0.20536530423E+04  0.20536530423E+04  0.50400001928E-02 0.  1.
    10030    2    1    2    0    0  0.00000000000E+00  0.00000000000E+00 -0.22233525110E+03  0.38849708336E+04  0.38786035391E+04 0.  0.
        2    1    3    3  502    0 -0.96221068319E+03  0.71705383338E+03 -0.16371106529E+04  0.20298144961E+04  0.25500000920E-02 0.  1.
       -2    1    3    3    0  502  0.96221068319E+03 -0.71705383338E+03  0.14147754018E+04  0.18551563374E+04  0.25500000920E-02 0. -1.
</event>
<event>
 5   0  0.2446281E-07  0.3855589E+04  0.7818609E-02  0.8034330E-01
       -2   -1    0    0    0  501  0.00000000000E+00  0.00000000000E+00  0.21596158097E+04  0.21596158097E+04  0.25500000920E-02 0.  1.
        2   -1    0    0  501    0  0.00000000000E+00  0.00000000000E+00 -0.17208579982E+04  0.17208579982E+04  0.25500000920E-02 0. -1.
    10030    2    1    2    0    0  0.00000000000E+00  0.00000000000E+00  0.43875781145E+03  0.38804738079E+04  0.38555892619E+04 0.  0.
        1    1    3    3  502    0 -0.55857926805E+03  0.17280241633E+04  0.87032512166E+03  0.20138381576E+04  0.50400001928E-02 0.  1.
       -1    1    3    3    0  502  0.55857926805E+03 -0.17280241633E+04 -0.43156731021E+03  0.18666356503E+04  0.50400001928E-02 0. -1.
</event>
<event>
 5   0  0.7675750E-08  0.3979657E+04  0.7818609E-02  0.8008663E-01
       -1   -1    0    0    0  501  0.00000000000E+00  0.00000000000E+00  0.16033997183E+04  0.16033997184E+04  0.50400001928E-02 0. -1.
        1   -1    0    0  501    0  0.00000000000E+00  0.00000000000E+00 -0.24693894557E+04  0.24693894558E+04  0.50400001928E-02 0.  1.
    10030    2    1    2    0    0  0.00000000000E+00  0.00000000000E+00 -0.86598973740E+03  0.40727891741E+04  0.39796574515E+04 0.  0.
        4    1    3    3  502    0  0.18779498749E+04  0.61512531543E+03 -0.19442615871E+03  0.19856681572E+04  0.12699999809E+01 0. -1.
       -4    1    3    3    0  502 -0.18779498749E+04 -0.61512531543E+03 -0.67156357869E+03  0.20871210169E+04  0.12699999809E+01 0.  1.
</event>
<event>
 5   0  0.2446281E-07  0.3840641E+04  0.7818609E-02  0.8037489E-01
        2   -1    0    0  501    0  0.00000000000E+00  0.00000000000E+00  0.25081867507E+04  0.25081867507E+04  0.25500000920E-02 0.  1.
       -2   -1    0    0    0  501  0.00000000000E+00  0.00000000000E+00 -0.14702376817E+04  0.14702376817E+04  0.25500000920E-02 0. -1.
    10030    2    1    2    0    0  0.00000000000E+00  0.00000000000E+00  0.10379490690E+04  0.39784244324E+04  0.38406409223E+04 0.  0.
        1    1    3    3  502    0  0.13341295280E+04  0.96104790169E+03  0.15465898211E+04  0.22573113967E+04  0.50400001928E-02 0.  1.
       -1    1    3    3    0  502 -0.13341295280E+04 -0.96104790169E+03 -0.50864075217E+03  0.17211130357E+04  0.50400001928E-02 0. -1.
</event>
<event>
 5   0  0.7675750E-08  0.3917061E+04  0.7818609E-02  0.8021490E-01
       -1   -1    0    0    0  501  0.00000000000E+00  0.00000000000E+00  0.20414371589E+04  0.20414371589E+04  0.50400001928E-02 0.  1.
        1   -1    0    0  501    0  0.00000000000E+00  0.00000000000E+00 -0.18789913145E+04  0.18789913145E+04  0.50400001928E-02 0. -1.
    10030    2    1    2    0    0  0.00000000000E+00  0.00000000000E+00  0.16244584434E+03  0.39204284734E+04  0.39170614959E+04 0.  0.
        1    1    3    3  502    0 -0.15926739032E+04 -0.10840197493E+04  0.43385191439E+03  0.19748256790E+04  0.50400001928E-02 0.  1.
       -1    1    3    3    0  502  0.15926739032E+04  0.10840197493E+04 -0.27140607004E+03  0.19456027944E+04  0.50400001928E-02 0. -1.
</event>
<event>
 5   0  0.2384787E-07  0.3903381E+04  0.7818609E-02  0.8024326E-01
        2   -1    0    0  501    0  0.00000000000E+00  0.00000000000E+00  0.19440746890E+04  0.19440746890E+04  0.25500000920E-02 0. -1.
       -2   -1    0    0    0  501  0.00000000000E+00  0.00000000000E+00 -0.19593358980E+04  0.19593358980E+04  0.25500000920E-02 0.  1.
    10030    2    1    2    0    0  0.00000000000E+00  0.00000000000E+00 -0.15261208973E+02  0.39034105870E+04  0.39033807535E+04 0.  0.
        4    1    3    3  502    0 -0.25287427399E+03  0.11921664135E+04 -0.15320724961E+04  0.19576654214E+04  0.12699999809E+01 0.  1.
       -4    1    3    3    0  502  0.25287427399E+03 -0.11921664135E+04  0.15168112872E+04  0.19457451656E+04  0.12699999809E+01 0. -1.
</event>
<event>
 5   0  0.2395572E-07  0.3900798E+04  0.7818609E-02  0.8024863E-01
       -2   -1    0    0    0  501  0.00000000000E+00  0.00000000000E+00  0.19500875928E+04  0.19500875928E+04  0.25500000920E-02 0. -1.
        2   -1    0    0  501    0  0.00000000000E+00  0.00000000000E+00 -0.19507099836E+04  0.19507099836E+04  0.25500000920E-02 0.  1.
    10030    2    1    2    0    0  0.00000000000E+00  0.00000000000E+00 -0.62239076221E+00  0.39007975763E+04  0.39007975267E+04 0.  0.
        3    1    3    3  502    0 -0.12709290198E+04  0.13801332182E+04  0.53263069623E+03  0.19503137548E+04  0.10100000352E+00 0. -1.
       -3    1    3    3    0  502  0.12709290198E+04 -0.13801332182E+04 -0.53325308699E+03  0.19504838216E+04  0.10100000352E+00 0.  1.
</event>
<event>
 5   0  0.2473224E-07  0.3875778E+04  0.7818609E-02  0.8030086E-01
       -2   -1    0    0    0  501  0.00000000000E+00  0.00000000000E+00  0.15503390888E+04  0.15503390888E+04  0.25500000920E-02 0. -1.
        2   -1    0    0  501    0  0.00000000000E+00  0.00000000000E+00 -0.24223171331E+04  0.24223171331E+04  0.25500000920E-02 0.  1.
    10030    2    1    2    0    0  0.00000000000E+00  0.00000000000E+00 -0.87197804430E+03  0.39726562218E+04  0.38757775668E+04 0.  0.
        2    1    3    3  502    0 -0.86417455272E+03 -0.10784286784E+04  0.95649986619E+03  0.16806838090E+04  0.25500000920E-02 0. -1.
       -2    1    3    3    0  502  0.86417455272E+03  0.10784286784E+04 -0.18284779105E+04  0.22919724128E+04  0.25500000920E-02 0.  1.
</event>
<event>
 5   0  0.2446281E-07  0.3927848E+04  0.7818609E-02  0.8019262E-01
        2   -1    0    0  501    0  0.00000000000E+00  0.00000000000E+00  0.26878574797E+04  0.26878574797E+04  0.25500000920E-02 0. -1.
       -2   -1    0    0    0  501  0.00000000000E+00  0.00000000000E+00 -0.14349707364E+04  0.14349707364E+04  0.25500000920E-02 0.  1.
    10030    2    1    2    0    0  0.00000000000E+00  0.00000000000E+00  0.12528867433E+04  0.41228282162E+04  0.39278476687E+04 0.  0.
        1    1    3    3  502    0 -0.13902889872E+04  0.12760432443E+04  0.11973233672E+04  0.22348988959E+04  0.50400001928E-02 0. -1.
       -1    1    3    3    0  502  0.13902889872E+04 -0.12760432443E+04  0.55563376122E+02  0.18879293203E+04  0.50400001928E-02 0.  1.
</event>
<event>
 5   0  0.7675750E-08  0.3899916E+04  0.7818609E-02  0.8025047E-01
        1   -1    0    0  501    0  0.00000000000E+00  0.00000000000E+00  0.22059745111E+04  0.22059745111E+04  0.50400001928E-02 0. -1.
       -1   -1    0    0    0  501  0.00000000000E+00  0.00000000000E+00 -0.17236538438E+04  0.17236538439E+04  0.50400001928E-02 0.  1.
    10030    2    1    2    0    0  0.00000000000E+00  0.00000000000E+00  0.48232066725E+03  0.39296283550E+04  0.38999161250E+04 0.  0.
        4    1    3    3  502    0  0.89518417610E+03 -0.41119900537E+03 -0.14544842379E+04  0.17566915900E+04  0.12699999809E+01 0.  1.
       -4    1    3    3    0  502 -0.89518417610E+03  0.41119900537E+03  0.19368049051E+04  0.21729367650E+04  0.12699999809E+01 0. -1.
</event>
<event>
 5   0  0.2473224E-07  0.3862117E+04  0.7818609E-02  0.8032955E-01
        2   -1    0    0  501    0  0.00000000000E+00  0.00000000000E+00  0.15329397480E+04  0.15329397480E+04  0.25500000920E-02 0. -1.
       -2   -1    0    0    0  501  0.00000000000E+00  0.00000000000E+00 -0.24325724375E+04  0.24325724375E+04  0.25500000920E-02 0.  1.
    10030    2    1    2    0    0  0.00000000000E+00  0.00000000000E+00 -0.89963268951E+03  0.39655121854E+04  0.38621170253E+04 0.  0.
        2    1    3    3  502    0 -0.16522738261E+04  0.78648689478E+03 -0.10831076994E+04  0.21264272197E+04  0.25500000920E-02 0.  1.
       -2    1    3    3    0  502  0.16522738261E+04 -0.78648689478E+03  0.18347500986E+03  0.18390849658E+04  0.25500000920E-02 0. -1.
</event>
<event>
 5   0  0.7675750E-08  0.3860915E+04  0.7818609E-02  0.8033207E-01
       -1   -1    0    0    0  501  0.00000000000E+00  0.00000000000E+00  0.13277737731E+04  0.13277737731E+04  0.50400001928E-02 0. -1.
        1   -1    0    0  501    0  0.00000000000E+00  0.00000000000E+00 -0.28067032962E+04  0.28067032962E+04  0.50400001928E-02 0.  1.
    10030    2    1    2    0    0  0.00000000000E+00  0.00000000000E+00 -0.14789295231E+04  0.41344770693E+04  0.38609154487E+04 0.  0.
        5    1    3    3  502    0  0.16559087646E+04 -0.77292793806E+02  0.31988920040E+03  0.16883006850E+04  0.46999998093E+01 0. -1.
       -5    1    3    3    0  502 -0.16559087646E+04  0.77292793806E+02 -0.17988187235E+04  0.24461763842E+04  0.46999998093E+01 0.  1.
</event>
<event>
 5   0  0.7675750E-08  0.3898710E+04  0.7818609E-02  0.8025298E-01
       -1   -1    0    0    0  501  0.00000000000E+00  0.00000000000E+00  0.28296765751E+04  0.28296765751E+04  0.50400001928E-02 0. -1.
        1   -1    0    0  501    0  0.00000000000E+00  0.00000000000E+00 -0.13429040898E+04  0.13429040898E+04  0.50400001928E-02 0.  1.
    10030    2    1    2    0    0  0.00000000000E+00  0.00000000000E+00  0.14867724853E+04  0.41725806649E+04  0.38987096561E+04 0.  0.
        4    1    3    3  502    0  0.93748436907E+03  0.16060295612E+04  0.13690684826E+04  0.23092332097E+04  0.12699999809E+01 0.  1.
       -4    1    3    3    0  502 -0.93748436907E+03 -0.16060295612E+04  0.11770400275E+03  0.18633474552E+04  0.12699999809E+01 0. -1.
</event>
<event>
 5   0  0.7675750E-08  0.3900147E+04  0.7818609E-02  0.8024999E-01
       -1   -1    0    0    0  501  0.00000000000E+00  0.00000000000E+00  0.30313797363E+04  0.30313797363E+04  0.50400001928E-02 0. -1.
        1   -1    0    0  501    0  0.00000000000E+00  0.00000000000E+00 -0.12544736575E+04  0.12544736575E+04  0.50400001928E-02 0.  1.
    10030    2    1    2    0    0  0.00000000000E+00  0.00000000000E+00  0.17769060788E+04  0.42858533937E+04  0.39001466767E+04 0.  0.
        2    1    3    3  502    0 -0.18998912707E+04 -0.40370527064E+03  0.10794878457E+04  0.22221293381E+04  0.25500000920E-02 0. -1.
       -2    1    3    3    0  502  0.18998912707E+04  0.40370527064E+03  0.69741823307E+03  0.20637240557E+04  0.25500000920E-02 0.  1.
</event>
<event>
 5   0  0.7675750E-08  0.3884223E+04  0.7818609E-02  0.8028318E-01
        1   -1    0    0  501    0  0.00000000000E+00  0.00000000000E+00  0.21349681723E+04  0.21349681723E+04  0.50400001928E-02 0.  1.
       -1   -1    0    0    0  501  0.00000000000E+00  0.00000000000E+00 -0.17666762582E+04  0.17666762582E+04  0.50400001928E-02 0. -1.
    10030    2    1    2    0    0  0.00000000000E+00  0.00000000000E+00  0.36829191411E+03  0.39016444305E+04  0.38842232593E+04 0.  0.
        5    1    3    3  502    0 -0.59663525191E+03  0.12316084718E+04  0.15683477393E+04  0.20814825901E+04  0.46999998093E+01 0. -1.
       -5    1    3    3    0  502  0.59663525191E+03 -0.12316084718E+04 -0.12000558252E+04  0.18201618404E+04  0.46999998093E+01 0.  1.
</event>
<event>
 5   0  0.2446281E-07  0.3915999E+04  0.7818609E-02  0.8021710E-01
       -2   -1    0    0    0  501  0.00000000000E+00  0.00000000000E+00  0.17945178587E+04  0.17945178587E+04  0.25500000920E-02 0.  1.
        2   -1    0    0  501    0  0.00000000000E+00  0.00000000000E+00 -0.21363747381E+04  0.21363747381E+04  0.25500000920E-02 0. -1.
    10030    2    1    2    0    0  0.00000000000E+00  0.00000000000E+00 -0.34185687943E+03  0.39308925968E+04  0.39159992954E+04 0.  0.
        1    1    3    3  502    0 -0.57394295415E+03 -0.12030324810E+04  0.12687734530E+04  0.18402401310E+04  0.50400001928E-02 0.  1.
       -1    1    3    3    0  502  0.57394295415E+03  0.12030324810E+04 -0.16106303324E+04  0.20906524658E+04  0.50400001928E-02 0. -1.
</event>
<event>
 5   0  0.2384787E-07  0.3844293E+04  0.7818609E-02  0.8036716E-01
       -2   -1    0    0    0  501  0.00000000000E+00  0.00000000000E+00  0.19735917214E+04  0.19735917214E+04  0.25500000920E-02 0.  1.
        2   -1    0    0  501    0  0.00000000000E+00  0.00000000000E+00 -0.18720425204E+04  0.18720425204E+04  0.25500000920E-02 0. -1.
    10030    2    1    2    0    0  0.00000000000E+00  0.00000000000E+00  0.10154920099E+03  0.38456342418E+04  0.38442932356E+04 0.  0.
        4    1    3    3  502    0  0.24937397480E+03  0.18487797702E+04  0.51404735404E+03  0.19350504678E+04  0.12699999809E+01 0.  1.
       -4    1    3    3    0  502 -0.24937397480E+03 -0.18487797702E+04 -0.41249815305E+03  0.19105837739E+04  0.12699999809E+01 0. -1.
</event>
<event>
 5   0  0.2395572E-07  0.3930548E+04  0.7818609E-02  0.8018706E-01
       -2   -1    0    0    0  501  0.00000000000E+00  0.00000000000E+00  0.26702194989E+04  0.26702194989E+04  0.25500000920E-02 0. -1.
        2   -1    0    0  501    0  0.00000000000E+00  0.00000000000E+00 -0.14464363226E+04  0.14464363226E+04  0.25500000920E-02 0.  1.
    10030    2    1    2    0    0  0.00000000000E+00  0.00000000000E+00  0.12237831762E+04  0.41166558215E+04  0.39305482939E+04 0.  0.
        3    1    3    3  502    0  0.55609113452E+03  0.34583597640E+03  0.25525879062E+04  0.26352504438E+04  0.10100000352E+00 0. -1.
       -3    1    3    3    0  502 -0.55609113452E+03 -0.34583597640E+03 -0.13288047300E+04  0.14814053777E+04  0.10100000352E+00 0.  1.
</event>
<event>
 5   0  0.7675750E-08  0.3875941E+04  0.7818609E-02  0.8030052E-01
        1   -1    0    0  501    0  0.00000000000E+00  0.00000000000E+00  0.16028249664E+04  0.16028249664E+04  0.50400001928E-02 0. -1.
       -1   -1    0    0    0  501  0.00000000000E+00  0.00000000000E+00 -0.23431941613E+04  0.23431941613E+04  0.50400001928E-02 0.  1.
    10030    2    1    2    0    0  0.00000000000E+00  0.00000000000E+00 -0.74036919488E+03  0.39460191277E+04  0.38759412291E+04 0.  0.
        2    1    3    3  502    0  0.44576598652E+03 -0.42731893475E+03  0.14999878559E+04  0.16221197104E+04  0.25500000920E-02 0. -1.
       -2    1    3    3    0  502 -0.44576598652E+03  0.42731893475E+03 -0.22403570508E+04  0.23238994173E+04  0.25500000920E-02 0.  1.
</event>
<event>
 5   0  0.7675750E-08  0.3891309E+04  0.7818609E-02  0.8026839E-01
       -1   -1    0    0    0  501  0.00000000000E+00  0.00000000000E+00  0.13915769422E+04  0.13915769422E+04  0.50400001928E-02 0.  1.
        1   -1    0    0  501    0  0.00000000000E+00  0.00000000000E+00 -0.27203465960E+04  0.27203465960E+04  0.50400001928E-02 0. -1.
    10030    2    1    2    0    0  0.00000000000E+00  0.00000000000E+00 -0.13287696538E+04  0.41119235383E+04  0.38913090846E+04 0.  0.
        2    1    3    3  502    0 -0.59834493452E+03  0.51011545514E+03 -0.25449849074E+04  0.26636783997E+04  0.25500000920E-02 0. -1.
       -2    1    3    3    0  502  0.59834493452E+03 -0.51011545514E+03  0.12162152536E+04  0.14482451386E+04  0.25500000920E-02 0.  1.
</event>
<event>
 5   0  0.7675750E-08  0.3884365E+04  0.7818609E-02  0.8028289E-01
        1   -1    0    0  501    0  0.00000000000E+00  0.00000000000E+00  0.17293910026E+04  0.17293910026E+04  0.50400001928E-02 0.  1.
       -1   -1    0    0    0  501  0.00000000000E+00  0.00000000000E+00 -0.21811565404E+04  0.21811565404E+04  0.50400001928E-02 0. -1.
    10030    2    1    2    0    0  0.00000000000E+00  0.00000000000E+00 -0.45176553774E+03  0.39105475430E+04  0.38843648110E+04 0.  0.
        4    1    3    3  502    0 -0.13290195170E+04  0.58454893396E+03 -0.15245704813E+04  0.21053045143E+04  0.12699999809E+01 0. -1.
       -4    1    3    3    0  502  0.13290195170E+04 -0.58454893396E+03  0.10728049436E+04  0.18052430287E+04  0.12699999809E+01 0.  1.
</event>
<event>
 5   0  0.7731706E-08  0.3906211E+04  0.7818609E-02  0.8023739E-01
        1   -1    0    0  501    0  0.00000000000E+00  0.00000000000E+00  0.22863509072E+04  0.22863509072E+04  0.50400001928E-02 0.  1.
       -1   -1    0    0    0  501  0.00000000000E+00  0.00000000000E+00 -0.16684317221E+04  0.16684317221E+04  0.50400001928E-02 0. -1.
    10030    2    1    2    0    0  0.00000000000E+00  0.00000000000E+00  0.61791918510E+03  0.39547826292E+04  0.39062106350E+04 0.  0.
        3    1    3    3  502    0  0.16980837910E+03  0.15461279846E+04  0.15048645611E+04  0.21642467484E+04  0.10100000352E+00 0.  1.
       -3    1    3    3    0  502 -0.16980837910E+03 -0.15461279846E+04 -0.88694537603E+03  0.17905358809E+04  0.10100000352E+00 0. -1.
</event>
<event>
 5   0  0.2384787E-07  0.3924287E+04  0.7818609E-02  0.8019997E-01
       -2   -1    0    0    0  501  0.00000000000E+00  0.00000000000E+00  0.18848595495E+04  0.18848595495E+04  0.25500000920E-02 0.  1.
        2   -1    0    0  501    0  0.00000000000E+00  0.00000000000E+00 -0.20425962783E+04  0.20425962783E+04  0.25500000920E-02 0. -1.
    10030    2    1    2    0    0  0.00000000000E+00  0.00000000000E+00 -0.15773672883E+03  0.39274558277E+04  0.39242869930E+04 0.  0.
        4    1    3    3  502    0  0.17401797872E+04  0.28115647331E+03 -0.94138260653E+03  0.19983687045E+04  0.12699999809E+01 0.  1.
       -4    1    3    3    0  502 -0.17401797872E+04 -0.28115647331E+03  0.78364587770E+03  0.19290871232E+04  0.12699999809E+01 0. -1.
</event>
<event>
 5   0  0.2486268E-07  0.3908097E+04  0.7818609E-02  0.8023347E-01
       -2   -1    0    0    0  501  0.00000000000E+00  0.00000000000E+00  0.17900480992E+04  0.17900480992E+04  0.25500000920E-02 0.  1.
        2   -1    0    0  501    0  0.00000000000E+00  0.00000000000E+00 -0.21330746126E+04  0.21330746126E+04  0.25500000920E-02 0. -1.
    10030    2    1    2    0    0  0.00000000000E+00  0.00000000000E+00 -0.34302651337E+03  0.39231227118E+04  0.39080973149E+04 0.  0.
        5    1    3    3  502    0 -0.11304758016E+04  0.15134269116E+04 -0.67328249959E+03  0.20054346086E+04  0.46999998093E+01 0.  1.
       -5    1    3    3    0  502  0.11304758016E+04 -0.15134269116E+04  0.33025598622E+03  0.19176881033E+04  0.46999998093E+01 0. -1.
</event>
<event>
 5   0  0.7675750E-08  0.3931136E+04  0.7818609E-02  0.8018584E-01
       -1   -1    0    0    0  501  0.00000000000E+00  0.00000000000E+00  0.17840547699E+04  0.17840547699E+04  0.50400001928E-02 0. -1.
        1   -1    0    0  501    0  0.00000000000E+00  0.00000000000E+00 -0.21655492373E+04  0.21655492373E+04  0.50400001928E-02 0.  1.
    10030    2    1    2    0    0  0.00000000000E+00  0.00000000000E+00 -0.38149446749E+03  0.39496040072E+04  0.39311364496E+04 0.  0.
        5    1    3    3  502    0  0.63853632059E+03  0.51733881519E+03 -0.19846514191E+04  0.21480762156E+04  0.46999998093E+01 0.  1.
       -5    1    3    3    0  502 -0.63853632059E+03 -0.51733881519E+03  0.16031569517E+04  0.18015277916E+04  0.46999998093E+01 0. -1.
</event>
<event>
 5   0  0.2446281E-07  0.4047264E+04  0.7818609E-02  0.7995079E-01
        2   -1    0    0  501    0  0.00000000000E+00  0.00000000000E+00  0.24643104572E+04  0.24643104572E+04  0.25500000920E-02 0. -1.
       -2   -1    0    0    0  501  0.00000000000E+00  0.00000000000E+00 -0.16617574263E+04  0.16617574263E+04  0.25500000920E-02 0.  1.
    10030    2    1    2    0    0  0.00000000000E+00  0.00000000000E+00  0.80255303093E+03  0.41260678836E+04  0.40472638674E+04 0.  0.
        1    1    3    3  502    0  0.56487033894E+03  0.15570490880E+04  0.15864989925E+04  0.22935691434E+04  0.50400001928E-02 0. -1.
       -1    1    3    3    0  502 -0.56487033894E+03 -0.15570490880E+04 -0.78394596157E+03  0.18324987402E+04  0.50400001928E-02 0.  1.
</event>
<event>
 5   0  0.2473224E-07  0.3273315E+04  0.7818609E-02  0.8169719E-01
        2   -1    0    0  501    0  0.00000000000E+00  0.00000000000E+00  0.14987880049E+04  0.14987880049E+04  0.25500000920E-02 0. -1.
       -2   -1    0    0    0  501  0.00000000000E+00  0.00000000000E+00 -0.17872092539E+04  0.17872092539E+04  0.25500000920E-02 0.  1.
    10030    2    1    2    0    0  0.00000000000E+00  0.00000000000E+00 -0.28842124899E+03  0.32859972589E+04  0.32733150121E+04 0.  0.
        2    1    3    3  502    0  0.28142158391E+03 -0.30789599966E+03  0.14445296128E+04  0.15035504171E+04  0.25500000920E-02 0. -1.
       -2    1    3    3    0  502 -0.28142158391E+03  0.30789599966E+03 -0.17329508618E+04  0.17824468418E+04  0.25500000920E-02 0.  1.
</event>
<event>
 5   0  0.2473224E-07  0.3983030E+04  0.7818609E-02  0.8007979E-01
        2   -1    0    0  501    0  0.00000000000E+00  0.00000000000E+00  0.24149292720E+04  0.24149292720E+04  0.25500000920E-02 0.  1.
       -2   -1    0    0    0  501  0.00000000000E+00  0.00000000000E+00 -0.16423388246E+04  0.16423388246E+04  0.25500000920E-02 0. -1.
    10030    2    1    2    0    0  0.00000000000E+00  0.00000000000E+00  0.77259044742E+03  0.40572680966E+04  0.39830300536E+04 0.  0.
        2    1    3    3  502    0  0.47682599998E+03  0.72409957962E+03 -0.14400100933E+04  0.16808665337E+04  0.25500000920E-02 0. -1.
       -2    1    3    3    0  502 -0.47682599998E+03 -0.72409957962E+03  0.22126005407E+04  0.23764015629E+04  0.25500000920E-02 0.  1.
</event>
<event>
 5   0  0.7675750E-08  0.3872248E+04  0.7818609E-02  0.8030826E-01
        1   -1    0    0  501    0  0.00000000000E+00  0.00000000000E+00  0.15982178986E+04  0.15982178986E+04  0.50400001928E-02 0.  1.
       -1   -1    0    0    0  501  0.00000000000E+00  0.00000000000E+00 -0.23454720547E+04  0.23454720547E+04  0.50400001928E-02 0. -1.
    10030    2    1    2    0    0  0.00000000000E+00  0.00000000000E+00 -0.74725415606E+03  0.39436899533E+04  0.38722476256E+04 0.  0.
        4    1    3    3  502    0 -0.87960325317E+03 -0.15139759271E+04  0.46790392271E+03  0.18123908752E+04  0.12699999809E+01 0.  1.
       -4    1    3    3    0  502  0.87960325317E+03  0.15139759271E+04 -0.12151580788E+04  0.21312990781E+04  0.12699999809E+01 0. -1.
</event>
<event>
 5   0  0.7675750E-08  0.3932975E+04  0.7818609E-02  0.8018206E-01
        1   -1    0    0  501    0  0.00000000000E+00  0.00000000000E+00  0.17601580730E+04  0.17601580730E+04  0.50400001928E-02 0.  1.
       -1   -1    0    0    0  501  0.00000000000E+00  0.00000000000E+00 -0.21970038363E+04  0.21970038363E+04  0.50400001928E-02 0. -1.
    10030    2    1    2    0    0  0.00000000000E+00  0.00000000000E+00 -0.43684576328E+03  0.39571619093E+04  0.39329754837E+04 0.  0.
        1    1    3    3  502    0 -0.17048715747E+04  0.92213526910E+03  0.11551195473E+03  0.19417166509E+04  0.50400001928E-02 0.  1.
       -1    1    3    3    0  502  0.17048715747E+04 -0.92213526910E+03 -0.55235771802E+03  0.20154452584E+04  0.50400001928E-02 0. -1.
</event>
<event>
 5   0  0.2486268E-07  0.3928184E+04  0.7818609E-02  0.8019193E-01
        2   -1    0    0  501    0  0.00000000000E+00  0.00000000000E+00  0.15021650569E+04  0.15021650569E+04  0.25500000920E-02 0. -1.
       -2   -1    0    0    0  501  0.00000000000E+00  0.00000000000E+00 -0.25680650002E+04  0.25680650002E+04  0.25500000920E-02 0.  1.
    10030    2    1    2    0    0  0.00000000000E+00  0.00000000000E+00 -0.10658999433E+04  0.40702300571E+04  0.39281840625E+04 0.  0.
        5    1    3    3  502    0  0.38811405973E+03 -0.14257296458E+03 -0.25224529995E+04  0.25561202629E+04  0.46999998093E+01 0.  1.
       -5    1    3    3    0  502 -0.38811405973E+03  0.14257296458E+03  0.14565530562E+04  0.15141097943E+04  0.46999998093E+01 0. -1.
</event>
<event>
 5   0  0.7675750E-08  0.3985992E+04  0.7818609E-02  0.8007378E-01
       -1   -1    0    0    0  501  0.00000000000E+00  0.00000000000E+00  0.16908315844E+04  0.16908315844E+04  0.50400001928E-02 0. -1.
        1   -1    0    0  501    0  0.00000000000E+00  0.00000000000E+00 -0.23491598155E+04  0.23491598155E+04  0.50400001928E-02 0.  1.
    10030    2    1    2    0    0  0.00000000000E+00  0.00000000000E+00 -0.65832823117E+03  0.40399913999E+04  0.39859922794E+04 0.  0.
        5    1    3    3  502    0  0.13022241665E+04  0.30177729106E+02 -0.18580130190E+04  0.22691260309E+04  0.46999998093E+01 0.  1.
       -5    1    3    3    0  502 -0.13022241665E+04 -0.30177729106E+02  0.11996847878E+04  0.17708653691E+04  0.46999998093E+01 0. -1.
</event>
<event>
 5   0  0.2473224E-07  0.3864395E+04  0.7818609E-02  0.8032475E-01
        2   -1    0    0  501    0  0.00000000000E+00  0.00000000000E+00  0.24110765092E+04  0.24110765092E+04  0.25500000920E-02 0. -1.
       -2   -1    0    0    0  501  0.00000000000E+00  0.00000000000E+00 -0.15484320416E+04  0.15484320416E+04  0.25500000920E-02 0.  1.
    10030    2    1    2    0    0  0.00000000000E+00  0.00000000000E+00  0.86264446757E+03  0.39595085508E+04  0.38643954879E+04 0.  0.
        2    1    3    3  502    0 -0.10315296217E+04  0.16253296125E+04  0.26098238361E+03  0.19426429199E+04  0.25500000920E-02 0.  1.
       -2    1    3    3    0  502  0.10315296217E+04 -0.16253296125E+04  0.60166208396E+03  0.20168656309E+04  0.25500000920E-02 0. -1.
</event>
<event>
 5   0  0.2384787E-07  0.3934909E+04  0.7818609E-02  0.8017808E-01
       -2   -1    0    0    0  501  0.00000000000E+00  0.00000000000E+00  0.14452157983E+04  0.14452157983E+04  0.25500000920E-02 0. -1.
        2   -1    0    0  501    0  0.00000000000E+00  0.00000000000E+00 -0.26784078853E+04  0.26784078853E+04  0.25500000920E-02 0.  1.
    10030    2    1    2    0    0  0.00000000000E+00  0.00000000000E+00 -0.12331920870E+04  0.41236236836E+04  0.39349090918E+04 0.  0.
        4    1    3    3  502    0 -0.52499320227E+03 -0.60303675315E+03  0.12672848005E+04  0.14984270308E+04  0.12699999809E+01 0. -1.
       -4    1    3    3    0  502  0.52499320227E+03  0.60303675315E+03 -0.25004768875E+04  0.26251966528E+04  0.12699999809E+01 0.  1.
</event>
<event>
 5   0  0.7675750E-08  0.3896128E+04  0.7818609E-02  0.8025835E-01
        1   -1    0    0  501    0  0.00000000000E+00  0.00000000000E+00  0.19138231960E+04  0.19138231960E+04  0.50400001928E-02 0.  1.
       -1   -1    0    0    0  501  0.00000000000E+00  0.00000000000E+00 -0.19829170181E+04  0.19829170181E+04  0.50400001928E-02 0. -1.
    10030    2    1    2    0    0  0.00000000000E+00  0.00000000000E+00 -0.69093822142E+02  0.38967402141E+04  0.38961276083E+04 0.  0.
        4    1    3    3  502    0 -0.63362121480E+02  0.89213807852E+03  0.16963395033E+04  0.19176794396E+04  0.12699999809E+01 0.  1.
       -4    1    3    3    0  502  0.63362121480E+02 -0.89213807852E+03 -0.17654333255E+04  0.19790607745E+04  0.12699999809E+01 0. -1.
</event>
<event>
 5   0  0.2486268E-07  0.3919080E+04  0.7818609E-02  0.8021073E-01
        2   -1    0    0  501    0  0.00000000000E+00  0.00000000000E+00  0.12600881397E+04  0.12600881397E+04  0.25500000920E-02 0. -1.
       -2   -1    0    0    0  501  0.00000000000E+00  0.00000000000E+00 -0.30472448008E+04  0.30472448008E+04  0.25500000920E-02 0.  1.
    10030    2    1    2    0    0  0.00000000000E+00  0.00000000000E+00 -0.17871566611E+04  0.43073329405E+04  0.39190800105E+04 0.  0.
        5    1    3    3  502    0  0.90785049638E+03  0.23796827479E+03  0.99699437618E+03  0.13692484434E+04  0.46999998093E+01 0. -1.
       -5    1    3    3    0  502 -0.90785049638E+03 -0.23796827479E+03 -0.27841510373E+04  0.29380844971E+04  0.46999998093E+01 0.  1.
</event>
<event>
 5   0  0.2395572E-07  0.3854554E+04  0.7818609E-02  0.8034548E-01
       -2   -1    0    0    0  501  0.00000000000E+00  0.00000000000E+00  0.17151433983E+04  0.17151433983E+04  0.25500000920E-02 0. -1.
        2   -1    0    0  501    0  0.00000000000E+00  0.00000000000E+00 -0.21656474024E+04  0.21656474024E+04  0.25500000920E-02 0.  1.
    10030    2    1    2    0    0  0.00000000000E+00  0.00000000000E+00 -0.45050400411E+03  0.38807908007E+04  0.38545535904E+04 0.  0.
        3    1    3    3  502    0 -0.10629215198E+04  0.10913347431E+04  0.96328424888E+03  0.18024234334E+04  0.10100000352E+00 0. -1.
       -3    1    3    3    0  502  0.10629215198E+04 -0.10913347431E+04 -0.14137882530E+04  0.20783673673E+04  0.10100000352E+00 0.  1.
</event>
<event>
 5   0  0.2384787E-07  0.3895124E+04  0.7818609E-02  0.8026044E-01
       -2   -1    0    0    0  501  0.00000000000E+00  0.00000000000E+00  0.30660274917E+04  0.30660274917E+04  0.25500000920E-02 0.  1.
        2   -1    0    0  501    0  0.00000000000E+00  0.00000000000E+00 -0.12371049288E+04  0.12371049288E+04  0.25500000920E-02 0. -1.
    10030    2    1    2    0    0  0.00000000000E+00  0.00000000000E+00  0.18289225629E+04  0.43031324205E+04  0.38951239887E+04 0.  0.
        4    1    3    3  502    0 -0.17300158412E+04 -0.89423199372E+03  0.89263195629E+03  0.21422882840E+04  0.12699999809E+01 0. -1.
       -4    1    3    3    0  502  0.17300158412E+04  0.89423199372E+03  0.93629060661E+03  0.21608441365E+04  0.12699999809E+01 0.  1.
</event>
<event>
 5   0  0.7675750E-08  0.3888296E+04  0.7818609E-02  0.8027468E-01
       -1   -1    0    0    0  501  0.00000000000E+00  0.00000000000E+00  0.20104821197E+04  0.20104821197E+04  0.50400001928E-02 0.  1.
        1   -1    0    0  501    0  0.00000000000E+00  0.00000000000E+00 -0.18800028620E+04  0.18800028621E+04  0.50400001928E-02 0. -1.
    10030    2    1    2    0    0  0.00000000000E+00  0.00000000000E+00  0.13047925761E+03  0.38904849817E+04  0.38882963565E+04 0.  0.
        2    1    3    3  502    0 -0.80305155918E+03  0.15930197795E+04 -0.70792316041E+03  0.19193121230E+04  0.25500000920E-02 0. -1.
       -2    1    3    3    0  502  0.80305155918E+03 -0.15930197795E+04  0.83840241802E+03  0.19711728587E+04  0.25500000920E-02 0.  1.
</event>
<event>
 5   0  0.2395572E-07  0.3863594E+04  0.7818609E-02  0.8032644E-01
        2   -1    0    0  501    0  0.00000000000E+00  0.00000000000E+00  0.21418957646E+04  0.21418957646E+04  0.25500000920E-02 0.  1.
       -2   -1    0    0    0  501  0.00000000000E+00  0.00000000000E+00 -0.17423071946E+04  0.17423071946E+04  0.25500000920E-02 0. -1.
    10030    2    1    2    0    0  0.00000000000E+00  0.00000000000E+00  0.39958857003E+03  0.38842029592E+04  0.38635943891E+04 0.  0.
        3    1    3    3  502    0  0.18662821968E+04 -0.48088595306E+03  0.33309055736E+03  0.19558143745E+04  0.10100000352E+00 0.  1.
       -3    1    3    3    0  502 -0.18662821968E+04  0.48088595306E+03  0.66498012671E+02  0.19283885847E+04  0.10100000352E+00 0. -1.
</event>
<event>
 5   0  0.7675750E-08  0.3927698E+04  0.7818609E-02  0.8019293E-01
       -1   -1    0    0    0  501  0.00000000000E+00  0.00000000000E+00  0.15619803924E+04  0.15619803924E+04  0.50400001928E-02 0.  1.
        1   -1    0    0  501    0  0.00000000000E+00  0.00000000000E+00 -0.24691104112E+04  0.24691104112E+04  0.50400001928E-02 0. -1.
    10030    2    1    2    0    0  0.00000000000E+00  0.00000000000E+00 -0.90713001880E+03  0.40310908035E+04  0.39276975692E+04 0.  0.
        5    1    3    3  502    0  0.15580927084E+04  0.61978626354E+03  0.59554312728E+03  0.17794610439E+04  0.46999998093E+01 0.  1.
       -5    1    3    3    0  502 -0.15580927084E+04 -0.61978626354E+03 -0.15026731461E+04  0.22516297596E+04  0.46999998093E+01 0. -1.
</event>
<event>
 5   0  0.2384787E-07  0.3694819E+04  0.7818609E-02  0.8069111E-01
        2   -1    0    0  501    0  0.00000000000E+00  0.00000000000E+00  0.18205017485E+04  0.18205017485E+04  0.25500000920E-02 0. -1.
       -2   -1    0    0    0  501  0.00000000000E+00  0.00000000000E+00 -0.18747154364E+04  0.18747154364E+04  0.25500000920E-02 0.  1.
    10030    2    1    2    0    0  0.00000000000E+00  0.00000000000E+00 -0.54213687872E+02  0.36952171849E+04  0.36948194705E+04 0.  0.
        4    1    3    3  502    0 -0.24724646396E+03 -0.12938646173E+03 -0.18535151942E+04  0.18744044010E+04  0.12699999809E+01 0.  1.
       -4    1    3    3    0  502  0.24724646396E+03  0.12938646173E+03  0.17993015063E+04  0.18208127839E+04  0.12699999809E+01 0. -1.
</event>
<event>
 5   0  0.7675750E-08  0.3627051E+04  0.7818609E-02  0.8084323E-01
       -1   -1    0    0    0  501  0.00000000000E+00  0.00000000000E+00  0.27570582647E+04  0.27570582647E+04  0.50400001928E-02 0. -1.
        1   -1    0    0  501    0  0.00000000000E+00  0.00000000000E+00 -0.11928926128E+04  0.11928926128E+04  0.50400001928E-02 0.  1.
    10030    2    1    2    0    0  0.00000000000E+00  0.00000000000E+00  0.15641656520E+04  0.39499508775E+04  0.36270508334E+04 0.  0.
        1    1    3    3  502    0 -0.20402939565E+03 -0.63002344302E+03  0.26206716953E+04  0.27030496976E+04  0.50400001928E-02 0. -1.
       -1    1    3    3    0  502  0.20402939565E+03  0.63002344302E+03 -0.10565060433E+04  0.12469011800E+04  0.50400001928E-02 0.  1.
</event>
<event>
 5   0  0.2486268E-07  0.3895925E+04  0.7818609E-02  0.8025877E-01
        2   -1    0    0  501    0  0.00000000000E+00  0.00000000000E+00  0.23593622203E+04  0.23593622203E+04  0.25500000920E-02 0.  1.
       -2   -1    0    0    0  501  0.00000000000E+00  0.00000000000E+00 -0.16082984171E+04  0.16082984171E+04  0.25500000920E-02 0. -1.
    10030    2    1    2    0    0  0.00000000000E+00  0.00000000000E+00  0.75106380323E+03  0.39676606374E+04  0.38959253197E+04 0.  0.
        5    1    3    3  502    0  0.13926512365E+04 -0.10155758072E+04  0.12998024933E+04  0.21587913976E+04  0.46999998093E+01 0.  1.
       -5    1    3    3    0  502 -0.13926512365E+04  0.10155758072E+04 -0.54873869011E+03  0.18088692398E+04  0.46999998093E+01 0. -1.
</event>
<event>
 5   0  0.7675750E-08  0.3970594E+04  0.7818609E-02  0.8010505E-01
       -1   -1    0    0    0  501  0.00000000000E+00  0.00000000000E+00  0.20811048226E+04  0.20811048226E+04  0.50400001928E-02 0.  1.
        1   -1    0    0  501    0  0.00000000000E+00  0.00000000000E+00 -0.18938999048E+04  0.18938999048E+04  0.50400001928E-02 0. -1.
    10030    2    1    2    0    0  0.00000000000E+00  0.00000000000E+00  0.18720491781E+03  0.39750047275E+04  0.39705940238E+04 0.  0.
        5    1    3    3  502    0  0.19807490090E+03 -0.10209071943E+04 -0.15993991027E+04  0.19077695735E+04  0.46999998093E+01 0. -1.
       -5    1    3    3    0  502 -0.19807490090E+03  0.10209071943E+04  0.17866040205E+04  0.20672351540E+04  0.46999998093E+01 0.  1.
</event>
<event>
 5   0  0.7675750E-08  0.3913438E+04  0.7818609E-02  0.8022240E-01
       -1   -1    0    0    0  501  0.00000000000E+00  0.00000000000E+00  0.24127521139E+04  0.24127521139E+04  0.50400001928E-02 0.  1.
        1   -1    0    0  501    0  0.00000000000E+00  0.00000000000E+00 -0.15868806989E+04  0.15868806989E+04  0.50400001928E-02 0. -1.
    10030    2    1    2    0    0  0.00000000000E+00  0.00000000000E+00  0.82587141492E+03  0.39996328128E+04  0.39134382636E+04 0.  0.
        5    1    3    3  502    0 -0.50309130269E+03 -0.18877810469E+04  0.30140127371E+03  0.19767860171E+04  0.46999998093E+01 0. -1.
       -5    1    3    3    0  502  0.50309130269E+03  0.18877810469E+04  0.52447014121E+03  0.20228467957E+04  0.46999998093E+01 0.  1.
</event>
<event>
 5   0  0.2486268E-07  0.3682995E+04  0.7818609E-02  0.8071741E-01
        2   -1    0    0  501    0  0.00000000000E+00  0.00000000000E+00  0.23303002545E+04  0.23303002545E+04  0.25500000920E-02 0. -1.
       -2   -1    0    0    0  501  0.00000000000E+00  0.00000000000E+00 -0.14552260132E+04  0.14552260132E+04  0.25500000920E-02 0.  1.
    10030    2    1    2    0    0  0.00000000000E+00  0.00000000000E+00  0.87507424132E+03  0.37855262676E+04  0.36829952749E+04 0.  0.
        5    1    3    3  502    0 -0.12602819872E+03  0.14977426430E+03  0.23195707237E+04  0.23278199822E+04  0.46999998093E+01 0. -1.
       -5    1    3    3    0  502  0.12602819872E+03 -0.14977426430E+03 -0.14444964824E+04  0.14577062855E+04  0.46999998093E+01 0.  1.
</event>
<event>
 5   0  0.7675750E-08  0.3904843E+04  0.7818609E-02  0.8024023E-01
        1   -1    0    0  501    0  0.00000000000E+00  0.00000000000E+00  0.11714525999E+04  0.11714525999E+04  0.50400001928E-02 0.  1.
       -1   -1    0    0    0  501  0.00000000000E+00  0.00000000000E+00 -0.32540371504E+04  0.32540371504E+04  0.50400001928E-02 0. -1.
    10030    2    1    2    0    0  0.00000000000E+00  0.00000000000E+00 -0.20825845505E+04  0.44254897502E+04  0.39048432900E+04 0.  0.
        1    1    3    3  502    0 -0.18300885902E+04 -0.37986686468E+03 -0.16808250510E+04  0.25137016400E+04  0.50400001928E-02 0. -1.
       -1    1    3    3    0  502  0.18300885902E+04  0.37986686468E+03 -0.40175949951E+03  0.19117881102E+04  0.50400001928E-02 0.  1.
</event>
<event>
 5   0  0.7675750E-08  0.3904322E+04  0.7818609E-02  0.8024131E-01
       -1   -1    0    0    0  501  0.00000000000E+00  0.00000000000E+00  0.23295092274E+04  0.23295092274E+04  0.50400001928E-02 0. -1.
        1   -1    0    0  501    0  0.00000000000E+00  0.00000000000E+00 -0.16359379947E+04  0.16359379947E+04  0.50400001928E-02 0.  1.
    10030    2    1    2    0    0  0.00000000000E+00  0.00000000000E+00  0.69357123267E+03  0.39654472221E+04  0.39043220431E+04 0.  0.
        4    1    3    3  502    0 -0.12460672360E+04  0.14323631736E+04  0.80841566031E+03  0.20634643953E+04  0.12699999809E+01 0.  1.
       -4    1    3    3    0  502  0.12460672360E+04 -0.14323631736E+04 -0.11484442764E+03  0.19019828268E+04  0.12699999809E+01 0. -1.
</event>
<event>
 5   0  0.7675750E-08  0.4003808E+04  0.7818609E-02  0.8003779E-01
       -1   -1    0    0    0  501  0.00000000000E+00  0.00000000000E+00  0.18561866536E+04  0.18561866536E+04  0.50400001928E-02 0.  1.
        1   -1    0    0  501    0  0.00000000000E+00  0.00000000000E+00 -0.21590609543E+04  0.21590609543E+04  0.50400001928E-02 0. -1.
    10030    2    1    2    0    0  0.00000000000E+00  0.00000000000E+00 -0.30287430068E+03  0.40152476079E+04  0.40038082510E+04 0.  0.
        5    1    3    3  502    0  0.36287348155E+03 -0.14248073156E+04 -0.15139376653E+04  0.21103986340E+04  0.46999998093E+01 0. -1.
       -5    1    3    3    0  502 -0.36287348155E+03  0.14248073156E+04  0.12110633646E+04  0.19048489739E+04  0.46999998093E+01 0.  1.
</event>
<event>
 5   0  0.7675750E-08  0.3833292E+04  0.7818609E-02  0.8039048E-01
       -1   -1    0    0    0  501  0.00000000000E+00  0.00000000000E+00  0.16183703017E+04  0.16183703017E+04  0.50400001928E-02 0. -1.
        1   -1    0    0  501    0  0.00000000000E+00  0.00000000000E+00 -0.22698955143E+04  0.22698955143E+04  0.50400001928E-02 0.  1.
    10030    2    1    2    0    0  0.00000000000E+00  0.00000000000E+00 -0.65152521256E+03  0.38882658160E+04  0.38332917908E+04 0.  0.
        4    1    3    3  502    0 -0.32421000187E+03  0.99709366382E+02 -0.22392080144E+04  0.22647534585E+04  0.12699999809E+01 0.  1.
       -4    1    3    3    0  502  0.32421000187E+03 -0.99709366382E+02  0.15876828018E+04  0.16235123576E+04  0.12699999809E+01 0. -1.
</event>
<event>
 5   0  0.7675750E-08  0.3478052E+04  0.7818609E-02  0.8119011E-01
       -1   -1    0    0    0  501  0.00000000000E+00  0.00000000000E+00  0.17291796460E+04  0.17291796460E+04  0.50400001928E-02 0. -1.
        1   -1    0    0  501    0  0.00000000000E+00  0.00000000000E+00 -0.17489283757E+04  0.17489283757E+04  0.50400001928E-02 0.  1.
    10030    2    1    2    0    0  0.00000000000E+00  0.00000000000E+00 -0.19748729699E+02  0.34781080218E+04  0.34780519546E+04 0.  0.
        4    1    3    3  502    0  0.48170006438E+03 -0.13958498968E+04 -0.92846298584E+03  0.17442697656E+04  0.12699999809E+01 0.  1.
       -4    1    3    3    0  502 -0.48170006438E+03  0.13958498968E+04  0.90871425614E+03  0.17338382562E+04  0.12699999809E+01 0. -1.
</event>
<event>
 5   0  0.7675750E-08  0.3928077E+04  0.7818609E-02  0.8019215E-01
        1   -1    0    0  501    0  0.00000000000E+00  0.00000000000E+00  0.22019114662E+04  0.22019114662E+04  0.50400001928E-02 0. -1.
       -1   -1    0    0    0  501  0.00000000000E+00  0.00000000000E+00 -0.17518629571E+04  0.17518629571E+04  0.50400001928E-02 0.  1.
    10030    2    1    2    0    0  0.00000000000E+00  0.00000000000E+00  0.45004850908E+03  0.39537744233E+04  0.39280769506E+04 0.  0.
        4    1    3    3  502    0 -0.19335710958E+04  0.10477549530E+03 -0.10540745220E+03  0.19392749756E+04  0.12699999809E+01 0. -1.
       -4    1    3    3    0  502  0.19335710958E+04 -0.10477549530E+03  0.55545596127E+03  0.20144994477E+04  0.12699999809E+01 0.  1.
</event>
<event>
 5   0  0.7731706E-08  0.4330851E+04  0.7818609E-02  0.7940938E-01
        1   -1    0    0  501    0  0.00000000000E+00  0.00000000000E+00  0.21667429230E+04  0.21667429230E+04  0.50400001928E-02 0.  1.
       -1   -1    0    0    0  501  0.00000000000E+00  0.00000000000E+00 -0.21641090178E+04  0.21641090178E+04  0.50400001928E-02 0. -1.
    10030    2    1    2    0    0  0.00000000000E+00  0.00000000000E+00  0.26339051995E+01  0.43308519408E+04  0.43308511398E+04 0.  0.
        3    1    3    3  502    0  0.17385825383E+04 -0.12754683088E+04  0.20026230657E+03  0.21655469635E+04  0.10100000352E+00 0. -1.
       -3    1    3    3    0  502 -0.17385825383E+04  0.12754683088E+04 -0.19762840137E+03  0.21653049773E+04  0.10100000352E+00 0.  1.
</event>
<event>
 5   0  0.2473224E-07  0.3918065E+04  0.7818609E-02  0.8021283E-01
       -2   -1    0    0    0  501  0.00000000000E+00  0.00000000000E+00  0.17941762785E+04  0.17941762785E+04  0.25500000920E-02 0.  1.
        2   -1    0    0  501    0  0.00000000000E+00  0.00000000000E+00 -0.21390362978E+04  0.21390362978E+04  0.25500000920E-02 0. -1.
    10030    2    1    2    0    0  0.00000000000E+00  0.00000000000E+00 -0.34486001934E+03  0.39332125763E+04  0.39180649226E+04 0.  0.
        2    1    3    3  502    0 -0.14732138878E+02  0.10457875984E+04  0.14904521348E+04  0.18208064979E+04  0.25500000920E-02 0.  1.
       -2    1    3    3    0  502  0.14732138878E+02 -0.10457875984E+04 -0.18353121541E+04  0.21124060784E+04  0.25500000920E-02 0. -1.
</event>
<event>
 5   0  0.7731706E-08  0.3903661E+04  0.7818609E-02  0.8024268E-01
        1   -1    0    0  501    0  0.00000000000E+00  0.00000000000E+00  0.25884153211E+04  0.25884153211E+04  0.50400001928E-02 0. -1.
       -1   -1    0    0    0  501  0.00000000000E+00  0.00000000000E+00 -0.14718048010E+04  0.14718048010E+04  0.50400001928E-02 0.  1.
    10030    2    1    2    0    0  0.00000000000E+00  0.00000000000E+00  0.11166105202E+04  0.40602201221E+04  0.39036608954E+04 0.  0.
        3    1    3    3  502    0  0.64872307967E+03  0.14836091042E+04  0.16918317975E+04  0.23418438140E+04  0.10100000352E+00 0. -1.
       -3    1    3    3    0  502 -0.64872307967E+03 -0.14836091042E+04 -0.57522127737E+03  0.17183763081E+04  0.10100000352E+00 0.  1.
</event>
<event>
 5   0  0.7675750E-08  0.3900221E+04  0.7818609E-02  0.8024983E-01
        1   -1    0    0  501    0  0.00000000000E+00  0.00000000000E+00  0.22548595769E+04  0.22548595769E+04  0.50400001928E-02 0.  1.
       -1   -1    0    0    0  501  0.00000000000E+00  0.00000000000E+00 -0.16865492811E+04  0.16865492811E+04  0.50400001928E-02 0. -1.
    10030    2    1    2    0    0  0.00000000000E+00  0.00000000000E+00  0.56831029578E+03  0.39414088580E+04  0.39002214288E+04 0.  0.
        1    1    3    3  502    0 -0.82585307365E+03  0.11285538807E+04  0.16576491982E+04  0.21687480317E+04  0.50400001928E-02 0.  1.
       -1    1    3    3    0  502  0.82585307365E+03 -0.11285538807E+04 -0.10893389024E+04  0.17726608263E+04  0.50400001928E-02 0. -1.
</event>
<event>
 5   0  0.2486268E-07  0.3713750E+04  0.7818609E-02  0.8064922E-01
        2   -1    0    0  501    0  0.00000000000E+00  0.00000000000E+00  0.23030056068E+04  0.23030056068E+04  0.25500000920E-02 0.  1.
       -2   -1    0    0    0  501  0.00000000000E+00  0.00000000000E+00 -0.14971671460E+04  0.14971671460E+04  0.25500000920E-02 0. -1.
    10030    2    1    2    0    0  0.00000000000E+00  0.00000000000E+00  0.80583846078E+03  0.38001727529E+04  0.37137497663E+04 0.  0.
        5    1    3    3  502    0  0.13789482424E+04  0.11122520094E+04  0.97206354076E+03  0.20207751990E+04  0.46999998093E+01 0.  1.
       -5    1    3    3    0  502 -0.13789482424E+04 -0.11122520094E+04 -0.16622507997E+03  0.17793975539E+04  0.46999998093E+01 0. -1.
</event>
<event>
 5   0  0.2486268E-07  0.3887441E+04  0.7818609E-02  0.8027646E-01
       -2   -1    0    0    0  501  0.00000000000E+00  0.00000000000E+00  0.15405924923E+04  0.15405924923E+04  0.25500000920E-02 0.  1.
        2   -1    0    0  501    0  0.00000000000E+00  0.00000000000E+00 -0.24523348777E+04  0.24523348777E+04  0.25500000920E-02 0. -1.
    10030    2    1    2    0    0  0.00000000000E+00  0.00000000000E+00 -0.91174238540E+03  0.39929273700E+04  0.38874406497E+04 0.  0.
        5    1    3    3  502    0  0.93192470490E+03  0.66570434085E+03  0.11572154477E+04  0.16281325522E+04  0.46999998093E+01 0.  1.
       -5    1    3    3    0  502 -0.93192470490E+03 -0.66570434085E+03 -0.20689578331E+04  0.23647948178E+04  0.46999998093E+01 0. -1.
</event>
<event>
 5   0  0.7675750E-08  0.4040947E+04  0.7818609E-02  0.7996337E-01
       -1   -1    0    0    0  501  0.00000000000E+00  0.00000000000E+00  0.13261979151E+04  0.13261979151E+04  0.50400001928E-02 0. -1.
        1   -1    0    0  501    0  0.00000000000E+00  0.00000000000E+00 -0.30782078357E+04  0.30782078357E+04  0.50400001928E-02 0.  1.
    10030    2    1    2    0    0  0.00000000000E+00  0.00000000000E+00 -0.17520099206E+04  0.44044057508E+04  0.40409468266E+04 0.  0.
        5    1    3    3  502    0  0.88552384866E+03  0.13752193093E+03 -0.28497445697E+04  0.29873284002E+04  0.46999998093E+01 0.  1.
       -5    1    3    3    0  502 -0.88552384866E+03 -0.13752193093E+03  0.10977346490E+04  0.14170773506E+04  0.46999998093E+01 0. -1.
</event>
<event>
 5   0  0.7675750E-08  0.3866104E+04  0.7818609E-02  0.8032116E-01
       -1   -1    0    0    0  501  0.00000000000E+00  0.00000000000E+00  0.25833827032E+04  0.25833827032E+04  0.50400001928E-02 0.  1.
        1   -1    0    0  501    0  0.00000000000E+00  0.00000000000E+00 -0.14464330932E+04  0.14464330932E+04  0.50400001928E-02 0. -1.
    10030    2    1    2    0    0  0.00000000000E+00  0.00000000000E+00  0.11369496099E+04  0.40298157964E+04  0.38661041033E+04 0.  0.
        4    1    3    3  502    0 -0.12616646054E+04 -0.10180810758E+04 -0.52891341739E+03  0.17052969447E+04  0.12699999809E+01 0. -1.
       -4    1    3    3    0  502  0.12616646054E+04  0.10180810758E+04  0.16658630273E+04  0.23245188518E+04  0.12699999809E+01 0.  1.
</event>
<event>
 5   0  0.7675750E-08  0.3966891E+04  0.7818609E-02  0.8011259E-01
       -1   -1    0    0    0  501  0.00000000000E+00  0.00000000000E+00  0.18109843651E+04  0.18109843651E+04  0.50400001928E-02 0.  1.
        1   -1    0    0  501    0  0.00000000000E+00  0.00000000000E+00 -0.21723297054E+04  0.21723297054E+04  0.50400001928E-02 0. -1.
    10030    2    1    2    0    0  0.00000000000E+00  0.00000000000E+00 -0.36134534026E+03  0.39833140705E+04  0.39668905366E+04 0.  0.
        4    1    3    3  502    0  0.41799230046E+03  0.19090100379E+04 -0.52121778595E+03  0.20225495003E+04  0.12699999809E+01 0. -1.
       -4    1    3    3    0  502 -0.41799230046E+03 -0.19090100379E+04  0.15987244569E+03  0.19607645702E+04  0.12699999809E+01 0.  1.
</event>
<event>
 5   0  0.2384787E-07  0.3884104E+04  0.7818609E-02  0.8028343E-01
       -2   -1    0    0    0  501  0.00000000000E+00  0.00000000000E+00  0.14091844952E+04  0.14091844952E+04  0.25500000920E-02 0.  1.
        2   -1    0    0  501    0  0.00000000000E+00  0.00000000000E+00 -0.26764178672E+04  0.26764178672E+04  0.25500000920E-02 0. -1.
    10030    2    1    2    0    0  0.00000000000E+00  0.00000000000E+00 -0.12672333720E+04  0.40856023624E+04  0.38841043041E+04 0.  0.
        4    1    3    3  502    0 -0.48540885470E+03  0.15101686854E+04  0.54492462888E+03  0.16772524195E+04  0.12699999809E+01 0.  1.
       -4    1    3    3    0  502  0.48540885470E+03 -0.15101686854E+04 -0.18121580008E+04  0.24083499429E+04  0.12699999809E+01 0. -1.
</event>
<event>
 5   0  0.7731706E-08  0.3905020E+04  0.7818609E-02  0.8023986E-01
       -1   -1    0    0    0  501  0.00000000000E+00  0.00000000000E+00  0.18436600813E+04  0.18436600813E+04  0.50400001928E-02 0.  1.
        1   -1    0    0  501    0  0.00000000000E+00  0.00000000000E+00 -0.20677862650E+04  0.20677862650E+04  0.50400001928E-02 0. -1.
    10030    2    1    2    0    0  0.00000000000E+00  0.00000000000E+00 -0.22412618371E+03  0.39114463463E+04  0.39050198429E+04 0.  0.
        3    1    3    3  502    0 -0.12357067142E+04 -0.57488731312E+03 -0.15125158422E+04  0.20359692260E+04  0.10100000352E+00 0. -1.
       -3    1    3    3    0  502  0.12357067142E+04  0.57488731312E+03  0.12883896585E+04  0.18754771202E+04  0.10100000352E+00 0.  1.
</event>
<event>
 5   0  0.2473224E-07  0.3857346E+04  0.7818609E-02  0.8033959E-01
        2   -1    0    0  501    0  0.00000000000E+00  0.00000000000E+00  0.16796614018E+04  0.16796614018E+04  0.25500000920E-02 0.  1.
       -2   -1    0    0    0  501  0.00000000000E+00  0.00000000000E+00 -0.22146009104E+04  0.22146009104E+04  0.25500000920E-02 0. -1.
    10030    2    1    2    0    0  0.00000000000E+00  0.00000000000E+00 -0.53493950861E+03  0.38942623122E+04  0.38573460667E+04 0.  0.
        2    1    3    3  502    0 -0.19197789219E+04  0.92977167125E+02 -0.10598959038E+03  0.19249492606E+04  0.25500000920E-02 0.  1.
       -2    1    3    3    0  502  0.19197789219E+04 -0.92977167125E+02 -0.42894991823E+03  0.19693130516E+04  0.25500000920E-02 0. -1.
</event>
<event>
 5   0  0.2486268E-07  0.3830213E+04  0.7818609E-02  0.8039702E-01
       -2   -1    0    0    0  501  0.00000000000E+00  0.00000000000E+00  0.28106350935E+04  0.28106350935E+04  0.25500000920E-02 0. -1.
        2   -1    0    0  501    0  0.00000000000E+00  0.00000000000E+00 -0.13049126814E+04  0.13049126814E+04  0.25500000920E-02 0.  1.
    10030    2    1    2    0    0  0.00000000000E+00  0.00000000000E+00  0.15057224120E+04  0.41155477749E+04  0.38302132454E+04 0.  0.
        5    1    3    3  502    0 -0.45910832199E+03 -0.66867341530E+03  0.26169507961E+04  0.27397733751E+04  0.46999998093E+01 0. -1.
       -5    1    3    3    0  502  0.45910832199E+03  0.66867341530E+03 -0.11112283841E+04  0.13757743998E+04  0.46999998093E+01 0.  1.
</event>
<event>
 5   0  0.2395572E-07  0.3341114E+04  0.7818609E-02  0.8152512E-01
        2   -1    0    0  501    0  0.00000000000E+00  0.00000000000E+00  0.99694380222E+03  0.99694380223E+03  0.25500000920E-02 0.  1.
       -2   -1    0    0    0  501  0.00000000000E+00  0.00000000000E+00 -0.27993161210E+04  0.27993161210E+04  0.25500000920E-02 0. -1.
    10030    2    1    2    0    0  0.00000000000E+00  0.00000000000E+00 -0.18023723187E+04  0.37962599232E+04  0.33411141000E+04 0.  0.
        3    1    3    3  502    0  0.28298287551E+03 -0.63271210865E+03 -0.26282332227E+04  0.27180901021E+04  0.10100000352E+00 0. -1.
       -3    1    3    3    0  502 -0.28298287551E+03  0.63271210865E+03  0.82586090392E+03  0.10781698211E+04  0.10100000352E+00 0.  1.
</event>
<event>
 5   0  0.7675750E-08  0.3839699E+04  0.7818609E-02  0.8037689E-01
       -1   -1    0    0    0  501  0.00000000000E+00  0.00000000000E+00  0.13534675102E+04  0.13534675102E+04  0.50400001928E-02 0.  1.
        1   -1    0    0  501    0  0.00000000000E+00  0.00000000000E+00 -0.27232437945E+04  0.27232437945E+04  0.50400001928E-02 0. -1.
    10030    2    1    2    0    0  0.00000000000E+00  0.00000000000E+00 -0.13697762843E+04  0.40767113047E+04  0.38396989456E+04 0.  0.
        2    1    3    3  502    0  0.13018975617E+04 -0.13967662207E+04 -0.47273168784E+03  0.19670710168E+04  0.25500000920E-02 0.  1.
       -2    1    3    3    0  502 -0.13018975617E+04  0.13967662207E+04 -0.89704459647E+03  0.21096402879E+04  0.25500000920E-02 0. -1.
</event>
<event>
 5   0  0.2395572E-07  0.3888708E+04  0.7818609E-02  0.8027382E-01
        2   -1    0    0  501    0  0.00000000000E+00  0.00000000000E+00  0.24110365661E+04  0.24110365661E+04  0.25500000920E-02 0.  1.
       -2   -1    0    0    0  501  0.00000000000E+00  0.00000000000E+00 -0.15680029117E+04  0.15680029117E+04  0.25500000920E-02 0. -1.
    10030    2    1    2    0    0  0.00000000000E+00  0.00000000000E+00  0.84303365439E+03  0.39790394778E+04  0.38887079375E+04 0.  0.
        3    1    3    3  502    0  0.25579257315E+03 -0.74225170459E+03 -0.13986077082E+04  0.16038924419E+04  0.10100000352E+00 0. -1.
       -3    1    3    3    0  502 -0.25579257315E+03  0.74225170459E+03  0.22416413626E+04  0.23751470359E+04  0.10100000352E+00 0.  1.
</event>
<event>
 5   0  0.7675750E-08  0.3930543E+04  0.7818609E-02  0.8018707E-01
        1   -1    0    0  501    0  0.00000000000E+00  0.00000000000E+00  0.23264009555E+04  0.23264009555E+04  0.50400001928E-02 0.  1.
       -1   -1    0    0    0  501  0.00000000000E+00  0.00000000000E+00 -0.16602008005E+04  0.16602008005E+04  0.50400001928E-02 0. -1.
    10030    2    1    2    0    0  0.00000000000E+00  0.00000000000E+00  0.66620015492E+03  0.39866017560E+04  0.39305433358E+04 0.  0.
        5    1    3    3  502    0  0.40581135189E+03 -0.76246227541E+03 -0.14573641502E+04  0.16940967892E+04  0.46999998093E+01 0. -1.
       -5    1    3    3    0  502 -0.40581135189E+03  0.76246227541E+03  0.21235643051E+04  0.22925049668E+04  0.46999998093E+01 0.  1.
</event>
<event>
 5   0  0.7731706E-08  0.3865261E+04  0.7818609E-02  0.8032293E-01
        1   -1    0    0  501    0  0.00000000000E+00  0.00000000000E+00  0.23402368115E+04  0.23402368115E+04  0.50400001928E-02 0.  1.
       -1   -1    0    0    0  501  0.00000000000E+00  0.00000000000E+00 -0.15960182383E+04  0.15960182384E+04  0.50400001928E-02 0. -1.
    10030    2    1    2    0    0  0.00000000000E+00  0.00000000000E+00  0.74421857316E+03  0.39362550499E+04  0.38652609916E+04 0.  0.
        3    1    3    3  502    0 -0.14201355005E+04 -0.15276582202E+03 -0.95370094066E+03  0.17174596736E+04  0.10100000352E+00 0. -1.
       -3    1    3    3    0  502  0.14201355005E+04  0.15276582202E+03  0.16979195138E+04  0.22187953763E+04  0.10100000352E+00 0.  1.
</event>
<event>
 5   0  0.7675750E-08  0.3946021E+04  0.7818609E-02  0.8015525E-01
        1   -1    0    0  501    0  0.00000000000E+00  0.00000000000E+00  0.29969538350E+04  0.29969538350E+04  0.50400001928E-02 0.  1.
       -1   -1    0    0    0  501  0.00000000000E+00  0.00000000000E+00 -0.12989087709E+04  0.12989087709E+04  0.50400001928E-02 0. -1.
    10030    2    1    2    0    0  0.00000000000E+00  0.00000000000E+00  0.16980450641E+04  0.42958626058E+04  0.39460205890E+04 0.  0.
        1    1    3    3  502    0  0.18557886196E+04 -0.65846684463E+03  0.98341605410E+03  0.22010536389E+04  0.50400001928E-02 0.  1.
       -1    1    3    3    0  502 -0.18557886196E+04  0.65846684463E+03  0.71462900998E+03  0.20948089669E+04  0.50400001928E-02 0. -1.
</event>
<event>
 5   0  0.2384787E-07  0.3882506E+04  0.7818609E-02  0.8028678E-01
        2   -1    0    0  501    0  0.00000000000E+00  0.00000000000E+00  0.27992073876E+04  0.27992073876E+04  0.25500000920E-02 0.  1.
       -2   -1    0    0    0  501  0.00000000000E+00  0.00000000000E+00 -0.13462606913E+04  0.13462606913E+04  0.25500000920E-02 0. -1.
    10030    2    1    2    0    0  0.00000000000E+00  0.00000000000E+00  0.14529466964E+04  0.41454680789E+04  0.38825058262E+04 0.  0.
        4    1    3    3  502    0 -0.92889212505E+03 -0.71694203899E+03 -0.92475476702E+03  0.14939944643E+04  0.12699999809E+01 0. -1.
       -4    1    3    3    0  502  0.92889212505E+03  0.71694203899E+03  0.23777014634E+04  0.26514736146E+04  0.12699999809E+01 0.  1.
</event>
<event>
 5   0  0.7675750E-08  0.3937250E+04  0.7818609E-02  0.8017326E-01
       -1   -1    0    0    0  501  0.00000000000E+00  0.00000000000E+00  0.17550165958E+04  0.17550165958E+04  0.50400001928E-02 0. -1.
        1   -1    0    0  501    0  0.00000000000E+00  0.00000000000E+00 -0.22082327620E+04  0.22082327620E+04  0.50400001928E-02 0.  1.
    10030    2    1    2    0    0  0.00000000000E+00  0.00000000000E+00 -0.45321616618E+03  0.39632493579E+04  0.39372503831E+04 0.  0.
        4    1    3    3  502    0 -0.11782889319E+04  0.82602188860E+03  0.11256939313E+04  0.18269825964E+04  0.12699999809E+01 0. -1.
       -4    1    3    3    0  502  0.11782889319E+04 -0.82602188860E+03 -0.15789100975E+04  0.21362667615E+04  0.12699999809E+01 0.  1.
</event>
<event>
 5   0  0.2486268E-07  0.3921925E+04  0.7818609E-02  0.8020485E-01
       -2   -1    0    0    0  501  0.00000000000E+00  0.00000000000E+00  0.24392738317E+04  0.24392738317E+04  0.25500000920E-02 0. -1.
        2   -1    0    0  501    0  0.00000000000E+00  0.00000000000E+00 -0.15764422564E+04  0.15764422564E+04  0.25500000920E-02 0.  1.
    10030    2    1    2    0    0  0.00000000000E+00  0.00000000000E+00  0.86283157528E+03  0.40157160881E+04  0.39219252125E+04 0.  0.
        5    1    3    3  502    0 -0.14393440690E+04  0.32369083940E+03  0.17541552634E+04  0.22920667283E+04  0.46999998093E+01 0. -1.
       -5    1    3    3    0  502  0.14393440690E+04 -0.32369083940E+03 -0.89132368815E+03  0.17236493598E+04  0.46999998093E+01 0.  1.
</event>
<event>
 5   0  0.7675750E-08  0.3894653E+04  0.7818609E-02  0.8026142E-01
       -1   -1    0    0    0  501  0.00000000000E+00  0.00000000000E+00  0.16000959452E+04  0.16000959452E+04  0.50400001928E-02 0. -1.
        1   -1    0    0  501    0  0.00000000000E+00  0.00000000000E+00 -0.23699086216E+04  0.23699086216E+04  0.50400001928E-02 0.  1.
    10030    2    1    2    0    0  0.00000000000E+00  0.00000000000E+00 -0.76981267633E+03  0.39700045668E+04  0.38946533483E+04 0.  0.
        5    1    3    3  502    0 -0.28914176654E+03 -0.20201529610E+03  0.15672558661E+04  0.16064638747E+04  0.46999998093E+01 0. -1.
       -5    1    3    3    0  502  0.28914176654E+03  0.20201529610E+03 -0.23370685424E+04  0.23635406921E+04  0.46999998093E+01 0.  1.
</event>
<event>
 5   0  0.2473224E-07  0.3749599E+04  0.7818609E-02  0.8057058E-01
        2   -1    0    0  501    0  0.00000000000E+00  0.00000000000E+00  0.24189624160E+04  0.24189624160E+04  0.25500000920E-02 0. -1.
       -2   -1    0    0    0  501  0.00000000000E+00  0.00000000000E+00 -0.14530495598E+04  0.14530495598E+04  0.25500000920E-02 0.  1.
    10030    2    1    2    0    0  0.00000000000E+00  0.00000000000E+00  0.96591285620E+03  0.38720119758E+04  0.37495985245E+04 0.  0.
        2    1    3    3  502    0  0.11445753617E+04 -0.36806083228E+03 -0.10025309823E+04  0.15654360112E+04  0.25500000920E-02 0.  1.
       -2    1    3    3    0  502 -0.11445753617E+04  0.36806083228E+03  0.19684438385E+04  0.23065759646E+04  0.25500000920E-02 0. -1.
</event>
<event>
 5   0  0.2384787E-07  0.3904929E+04  0.7818609E-02  0.8024005E-01
       -2   -1    0    0    0  501  0.00000000000E+00  0.00000000000E+00  0.18384212854E+04  0.18384212854E+04  0.25500000920E-02 0. -1.
        2   -1    0    0  501    0  0.00000000000E+00  0.00000000000E+00 -0.20735824118E+04  0.20735824118E+04  0.25500000920E-02 0.  1.
    10030    2    1    2    0    0  0.00000000000E+00  0.00000000000E+00 -0.23516112639E+03  0.39120036972E+04  0.39049292147E+04 0.  0.
        4    1    3    3  502    0 -0.89242630426E+03  0.81492173056E+03 -0.16538496432E+04  0.20483511395E+04  0.12699999809E+01 0.  1.
       -4    1    3    3    0  502  0.89242630426E+03 -0.81492173056E+03  0.14186885168E+04  0.18636525578E+04  0.12699999809E+01 0. -1.
</event>
<event>
 5   0  0.2473224E-07  0.3576285E+04  0.7818609E-02  0.8095946E-01
        2   -1    0    0  501    0  0.00000000000E+00  0.00000000000E+00  0.27587634922E+04  0.27587634922E+04  0.25500000920E-02 0. -1.
       -2   -1    0    0    0  501  0.00000000000E+00  0.00000000000E+00 -0.11590168971E+04  0.11590168971E+04  0.25500000920E-02 0.  1.
    10030    2    1    2    0    0  0.00000000000E+00  0.00000000000E+00  0.15997465951E+04  0.39177803893E+04  0.35762849454E+04 0.  0.
        2    1    3    3  502    0  0.11020410731E+04  0.11957178044E+04  0.16146828065E+04  0.22916012218E+04  0.25500000920E-02 0. -1.
       -2    1    3    3    0  502 -0.11020410731E+04 -0.11957178044E+04 -0.14936211395E+02  0.16261791675E+04  0.25500000920E-02 0.  1.
</event>
<event>
 5   0  0.7675750E-08  0.3906974E+04  0.7818609E-02  0.8023580E-01
        1   -1    0    0  501    0  0.00000000000E+00  0.00000000000E+00  0.31333377123E+04  0.31333377123E+04  0.50400001928E-02 0.  1.
       -1   -1    0    0    0  501  0.00000000000E+00  0.00000000000E+00 -0.12179063387E+04  0.12179063387E+04  0.50400001928E-02 0. -1.
    10030    2    1    2    0    0  0.00000000000E+00  0.00000000000E+00  0.19154313737E+04  0.43512440510E+04  0.39069742057E+04 0.  0.
        4    1    3    3  502    0  0.88440688219E+03 -0.17050667532E+04  0.56131856323E+03  0.20011267598E+04  0.12699999809E+01 0. -1.
       -4    1    3    3    0  502 -0.88440688219E+03  0.17050667532E+04  0.13541128104E+04  0.23501172912E+04  0.12699999809E+01 0.  1.
</event>
<event>
 5   0  0.2486268E-07  0.3538772E+04  0.7818609E-02  0.8104662E-01
        2   -1    0    0  501    0  0.00000000000E+00  0.00000000000E+00  0.14299636282E+04  0.14299636282E+04  0.25500000920E-02 0. -1.
       -2   -1    0    0    0  501  0.00000000000E+00  0.00000000000E+00 -0.21893755577E+04  0.21893755577E+04  0.25500000920E-02 0.  1.
    10030    2    1    2    0    0  0.00000000000E+00  0.00000000000E+00 -0.75941192956E+03  0.36193391859E+04  0.35387723385E+04 0.  0.
        5    1    3    3  502    0  0.11626159370E+03  0.98485058455E+03  0.11190080379E+04  0.14952085175E+04  0.46999998093E+01 0. -1.
       -5    1    3    3    0  502 -0.11626159370E+03 -0.98485058455E+03 -0.18784199675E+04  0.21241306683E+04  0.46999998093E+01 0.  1.
</event>
<event>
 5   0  0.7675750E-08  0.3925876E+04  0.7818609E-02  0.8019669E-01
       -1   -1    0    0    0  501  0.00000000000E+00  0.00000000000E+00  0.16977458863E+04  0.16977458863E+04  0.50400001928E-02 0. -1.
        1   -1    0    0  501    0  0.00000000000E+00  0.00000000000E+00 -0.22695541566E+04  0.22695541566E+04  0.50400001928E-02 0.  1.
    10030    2    1    2    0    0  0.00000000000E+00  0.00000000000E+00 -0.57180827025E+03  0.39673000429E+04  0.39258763267E+04 0.  0.
        2    1    3    3  502    0 -0.10998316421E+04 -0.90267505171E+03  0.10806493010E+04  0.17866882217E+04  0.25500000920E-02 0. -1.
       -2    1    3    3    0  502  0.10998316421E+04  0.90267505171E+03 -0.16524575712E+04  0.21806118212E+04  0.25500000920E-02 0.  1.
</event>
<event>
 5   0  0.7675750E-08  0.3879682E+04  0.7818609E-02  0.8029268E-01
        1   -1    0    0  501    0  0.00000000000E+00  0.00000000000E+00  0.20942018914E+04  0.20942018914E+04  0.50400001928E-02 0. -1.
       -1   -1    0    0    0  501  0.00000000000E+00  0.00000000000E+00 -0.17968574389E+04  0.17968574389E+04  0.50400001928E-02 0.  1.
    10030    2    1    2    0    0  0.00000000000E+00  0.00000000000E+00  0.29734445245E+03  0.38910593303E+04  0.38796815576E+04 0.  0.
        1    1    3    3  502    0  0.30682422850E+03  0.14360057198E+04 -0.11226131459E+04  0.18483814027E+04  0.50400001928E-02 0.  1.
       -1    1    3    3    0  502 -0.30682422850E+03 -0.14360057198E+04  0.14199575984E+04  0.20426779275E+04  0.50400001928E-02 0. -1.
</event>
<event>
 5   0  0.7675750E-08  0.3903480E+04  0.7818609E-02  0.8024306E-01
        1   -1    0    0  501    0  0.00000000000E+00  0.00000000000E+00  0.25614653564E+04  0.25614653564E+04  0.50400001928E-02 0.  1.
       -1   -1    0    0    0  501  0.00000000000E+00  0.00000000000E+00 -0.14871520590E+04  0.14871520590E+04  0.50400001928E-02 0. -1.
    10030    2    1    2    0    0  0.00000000000E+00  0.00000000000E+00  0.10743132975E+04  0.40486174154E+04  0.39034797188E+04 0.  0.
        5    1    3    3  502    0 -0.97967779294E+01 -0.18113407779E+04 -0.21665036836E+03  0.18242836574E+04  0.46999998093E+01 0.  1.
       -5    1    3    3    0  502  0.97967779294E+01  0.18113407779E+04  0.12909636658E+04  0.22243337580E+04  0.46999998093E+01 0. -1.
</event>
<event>
 5   0  0.7675750E-08  0.3850299E+04  0.7818609E-02  0.8035446E-01
       -1   -1    0    0    0  501  0.00000000000E+00  0.00000000000E+00  0.13193436724E+04  0.13193436724E+04  0.50400001928E-02 0.  1.
        1   -1    0    0  501    0  0.00000000000E+00  0.00000000000E+00 -0.28091250596E+04  0.28091250596E+04  0.50400001928E-02 0. -1.
    10030    2    1    2    0    0  0.00000000000E+00  0.00000000000E+00 -0.14897813872E+04  0.41284687320E+04  0.38502994026E+04 0.  0.
        4    1    3    3  502    0 -0.17361187530E+04 -0.28087870771E+03  0.94753077153E+02  0.17612441431E+04  0.12699999809E+01 0.  1.
       -4    1    3    3    0  502  0.17361187530E+04  0.28087870771E+03 -0.15845344644E+04  0.23672245890E+04  0.12699999809E+01 0. -1.
</event>
<event>
 5   0  0.2446281E-07  0.3934417E+04  0.7818609E-02  0.8017909E-01
       -2   -1    0    0    0  501  0.00000000000E+00  0.00000000000E+00  0.16944806679E+04  0.16944806679E+04  0.25500000920E-02 0. -1.
        2   -1    0    0  501    0  0.00000000000E+00  0.00000000000E+00 -0.22838319091E+04  0.22838319091E+04  0.25500000920E-02 0.  1.
    10030    2    1    2    0    0  0.00000000000E+00  0.00000000000E+00 -0.58935124121E+03  0.39783125770E+04  0.39344168659E+04 0.  0.
        1    1    3    3  502    0 -0.79374028605E+03  0.47502576799E+02 -0.21140918421E+04  0.22586864442E+04  0.50400001928E-02 0.  1.
       -1    1    3    3    0  502  0.79374028605E+03 -0.47502576799E+02  0.15247406009E+04  0.17196261328E+04  0.50400001928E-02 0. -1.
</event>
<event>
 5   0  0.7675750E-08  0.3926670E+04  0.7818609E-02  0.8019505E-01
        1   -1    0    0  501    0  0.00000000000E+00  0.00000000000E+00  0.28251155623E+04  0.28251155624E+04  0.50400001928E-02 0. -1.
       -1   -1    0    0    0  501  0.00000000000E+00  0.00000000000E+00 -0.13644343789E+04  0.13644343789E+04  0.50400001928E-02 0.  1.
    10030    2    1    2    0    0  0.00000000000E+00  0.00000000000E+00  0.14606811834E+04  0.41895499413E+04  0.39266702422E+04 0.  0.
        1    1    3    3  502    0 -0.18366831982E+04  0.12846931107E+03  0.14577257634E+04  0.23483768726E+04  0.50400001928E-02 0. -1.
       -1    1    3    3    0  502  0.18366831982E+04 -0.12846931107E+03  0.29554200520E+01  0.18411730687E+04  0.50400001928E-02 0.  1.
</event>
<event>
 5   0  0.2395572E-07  0.4102579E+04  0.7818609E-02  0.7984167E-01
        2   -1    0    0  501    0  0.00000000000E+00  0.00000000000E+00  0.21272198611E+04  0.21272198611E+04  0.25500000920E-02 0.  1.
       -2   -1    0    0    0  501  0.00000000000E+00  0.00000000000E+00 -0.19780694810E+04  0.19780694810E+04  0.25500000920E-02 0. -1.
    10030    2    1    2    0    0  0.00000000000E+00  0.00000000000E+00  0.14915038013E+03  0.41052893421E+04  0.41025790359E+04 0.  0.
        3    1    3    3  502    0  0.14663972921E+04  0.12144412802E+04  0.83836184938E+03  0.20803940112E+04  0.10100000352E+00 0.  1.
       -3    1    3    3    0  502 -0.14663972921E+04 -0.12144412802E+04 -0.68921146925E+03  0.20248953308E+04  0.10100000352E+00 0. -1.
</event>
<event>
 5   0  0.2446281E-07  0.3964007E+04  0.7818609E-02  0.8011847E-01
        2   -1    0    0  501    0  0.00000000000E+00  0.00000000000E+00  0.33545077536E+04  0.33545077536E+04  0.25500000920E-02 0.  1.
       -2   -1    0    0    0  501  0.00000000000E+00  0.00000000000E+00 -0.11710623454E+04  0.11710623454E+04  0.25500000920E-02 0. -1.
    10030    2    1    2    0    0  0.00000000000E+00  0.00000000000E+00  0.21834454082E+04  0.45255700989E+04  0.39640069210E+04 0.  0.
        1    1    3    3  502    0 -0.11813109639E+04 -0.13470402261E+04  0.12411502032E+03  0.17959447381E+04  0.50400001928E-02 0. -1.
       -1    1    3    3    0  502  0.11813109639E+04  0.13470402261E+04  0.20593303879E+04  0.27296253608E+04  0.50400001928E-02 0.  1.
</event>
<event>
 5   0  0.2446281E-07  0.3881899E+04  0.7818609E-02  0.8028804E-01
       -2   -1    0    0    0  501  0.00000000000E+00  0.00000000000E+00  0.13330363919E+04  0.13330363919E+04  0.25500000920E-02 0.  1.
        2   -1    0    0  501    0  0.00000000000E+00  0.00000000000E+00 -0.28260933463E+04  0.28260933463E+04  0.25500000920E-02 0. -1.
    10030    2    1    2    0    0  0.00000000000E+00  0.00000000000E+00 -0.14930569544E+04  0.41591297383E+04  0.38818991629E+04 0.  0.
        1    1    3    3  502    0 -0.11949257773E+04  0.15218632225E+04 -0.91031853673E+03  0.21383627194E+04  0.50400001928E-02 0. -1.
       -1    1    3    3    0  502  0.11949257773E+04 -0.15218632225E+04 -0.58273841766E+03  0.20207670189E+04  0.50400001928E-02 0.  1.
</event>
<event>
 5   0  0.2486268E-07  0.3900184E+04  0.7818609E-02  0.8024991E-01
        2   -1    0    0  501    0  0.00000000000E+00  0.00000000000E+00  0.13126393733E+04  0.13126393733E+04  0.25500000920E-02 0. -1.
       -2   -1    0    0    0  501  0.00000000000E+00  0.00000000000E+00 -0.28971086118E+04  0.28971086118E+04  0.25500000920E-02 0.  1.
    10030    2    1    2    0    0  0.00000000000E+00  0.00000000000E+00 -0.15844692385E+04  0.42097479851E+04  0.39001840124E+04 0.  0.
        5    1    3    3  502    0 -0.22566631129E+03  0.17194747826E+04 -0.17548247108E+04  0.24671746326E+04  0.46999998093E+01 0.  1.
       -5    1    3    3    0  502  0.22566631129E+03 -0.17194747826E+04  0.17035547232E+03  0.17425733525E+04  0.46999998093E+01 0. -1.
</event>
<event>
 5   0  0.7675750E-08  0.3887012E+04  0.7818609E-02  0.8027736E-01
       -1   -1    0    0    0  501  0.00000000000E+00  0.00000000000E+00  0.19425646581E+04  0.19425646581E+04  0.50400001928E-02 0.  1.
        1   -1    0    0  501    0  0.00000000000E+00  0.00000000000E+00 -0.19444480077E+04  0.19444480077E+04  0.50400001928E-02 0. -1.
    10030    2    1    2    0    0  0.00000000000E+00  0.00000000000E+00 -0.18833495818E+01  0.38870126658E+04  0.38870122096E+04 0.  0.
        5    1    3    3  502    0  0.16899293923E+04 -0.94363423422E+03  0.17480523876E+03  0.19434211794E+04  0.46999998093E+01 0.  1.
       -5    1    3    3    0  502 -0.16899293923E+04  0.94363423422E+03 -0.17668858834E+03  0.19435914864E+04  0.46999998093E+01 0. -1.
</event>
<event>
 5   0  0.2395572E-07  0.3825792E+04  0.7818609E-02  0.8040643E-01
       -2   -1    0    0    0  501  0.00000000000E+00  0.00000000000E+00  0.13972217537E+04  0.13972217537E+04  0.25500000920E-02 0. -1.
        2   -1    0    0  501    0  0.00000000000E+00  0.00000000000E+00 -0.26188908177E+04  0.26188908177E+04  0.25500000920E-02 0.  1.
    10030    2    1    2    0    0  0.00000000000E+00  0.00000000000E+00 -0.12216690640E+04  0.40161125714E+04  0.38257920597E+04 0.  0.
        3    1    3    3  502    0  0.10790491752E+04  0.15008876155E+04 -0.94256269462E+02  0.18509173432E+04  0.10100000352E+00 0. -1.
       -3    1    3    3    0  502 -0.10790491752E+04 -0.15008876155E+04 -0.11274127945E+04  0.21651952282E+04  0.10100000352E+00 0.  1.
</event>
<event>
 5   0  0.7675750E-08  0.3803697E+04  0.7818609E-02  0.8045362E-01
        1   -1    0    0  501    0  0.00000000000E+00  0.00000000000E+00  0.16770912785E+04  0.16770912785E+04  0.50400001928E-02 0. -1.
       -1   -1    0    0    0  501  0.00000000000E+00  0.00000000000E+00 -0.21567265127E+04  0.21567265127E+04  0.50400001928E-02 0.  1.
    10030    2    1    2    0    0  0.00000000000E+00  0.00000000000E+00 -0.47963523420E+03  0.38338177912E+04  0.38036967411E+04 0.  0.
        2    1    3    3  502    0 -0.84422234661E+03  0.56206927505E+01  0.14778737964E+04  0.17020146653E+04  0.25500000920E-02 0. -1.
       -2    1    3    3    0  502  0.84422234661E+03 -0.56206927505E+01 -0.19575090306E+04  0.21318031259E+04  0.25500000920E-02 0.  1.
</event>
<event>
 5   0  0.7675750E-08  0.3852702E+04  0.7818609E-02  0.8034939E-01
        1   -1    0    0  501    0  0.00000000000E+00  0.00000000000E+00  0.24415776803E+04  0.24415776803E+04  0.50400001928E-02 0. -1.
       -1   -1    0    0    0  501  0.00000000000E+00  0.00000000000E+00 -0.15198485522E+04  0.15198485522E+04  0.50400001928E-02 0.  1.
    10030    2    1    2    0    0  0.00000000000E+00  0.00000000000E+00  0.92172912807E+03  0.39614262325E+04  0.38527020661E+04 0.  0.
        1    1    3    3  502    0  0.17794892896E+04 -0.72518647441E+03  0.60015234884E+03  0.20131220521E+04  0.50400001928E-02 0. -1.
       -1    1    3    3    0  502 -0.17794892896E+04  0.72518647441E+03  0.32157677922E+03  0.19483041805E+04  0.50400001928E-02 0.  1.
</event>
<event>
 5   0  0.7731706E-08  0.3464071E+04  0.7818609E-02  0.8122358E-01
        1   -1    0    0  501    0  0.00000000000E+00  0.00000000000E+00  0.15818766233E+04  0.15818766233E+04  0.50400001928E-02 0. -1.
       -1   -1    0    0    0  501  0.00000000000E+00  0.00000000000E+00 -0.18964478713E+04  0.18964478713E+04  0.50400001928E-02 0.  1.
    10030    2    1    2    0    0  0.00000000000E+00  0.00000000000E+00 -0.31457124803E+03  0.34783244946E+04  0.34640707584E+04 0.  0.
        3    1    3    3  502    0  0.69635008805E+03 -0.10708977145E+04  0.10172372951E+04  0.16329412374E+04  0.10100000352E+00 0. -1.
       -3    1    3    3    0  502 -0.69635008805E+03  0.10708977145E+04 -0.13318085431E+04  0.18453832572E+04  0.10100000352E+00 0.  1.
</event>
<event>
 5   0  0.7731706E-08  0.3900540E+04  0.7818609E-02  0.8024917E-01
       -1   -1    0    0    0  501  0.00000000000E+00  0.00000000000E+00  0.22117352202E+04  0.22117352203E+04  0.50400001928E-02 0.  1.
        1   -1    0    0  501    0  0.00000000000E+00  0.00000000000E+00 -0.17197144063E+04  0.17197144063E+04  0.50400001928E-02 0. -1.
    10030    2    1    2    0    0  0.00000000000E+00  0.00000000000E+00  0.49202081393E+03  0.39314496266E+04  0.39005399222E+04 0.  0.
        3    1    3    3  502    0 -0.34061746741E+03 -0.19038368692E+04 -0.68517638462E+01  0.19340791195E+04  0.10100000352E+00 0. -1.
       -3    1    3    3    0  502  0.34061746741E+03  0.19038368692E+04  0.49887257778E+03  0.19973705071E+04  0.10100000352E+00 0.  1.
</event>
<event>
 5   0  0.2473224E-07  0.3932068E+04  0.7818609E-02  0.8018392E-01
       -2   -1    0    0    0  501  0.00000000000E+00  0.00000000000E+00  0.13251618673E+04  0.13251618673E+04  0.25500000920E-02 0. -1.
        2   -1    0    0  501    0  0.00000000000E+00  0.00000000000E+00 -0.29168441107E+04  0.29168441107E+04  0.25500000920E-02 0.  1.
    10030    2    1    2    0    0  0.00000000000E+00  0.00000000000E+00 -0.15916822434E+04  0.42420059780E+04  0.39320684574E+04 0.  0.
        2    1    3    3  502    0  0.19029158008E+04  0.49121381145E+03 -0.85404794531E+03  0.21428433089E+04  0.25500000920E-02 0.  1.
       -2    1    3    3    0  502 -0.19029158008E+04 -0.49121381145E+03 -0.73763429812E+03  0.20991626691E+04  0.25500000920E-02 0. -1.
</event>
<event>
 5   0  0.7675750E-08  0.3425930E+04  0.7818609E-02  0.8131572E-01
        1   -1    0    0  501    0  0.00000000000E+00  0.00000000000E+00  0.19925579021E+04  0.19925579021E+04  0.50400001928E-02 0.  1.
       -1   -1    0    0    0  501  0.00000000000E+00  0.00000000000E+00 -0.14726037818E+04  0.14726037819E+04  0.50400001928E-02 0. -1.
    10030    2    1    2    0    0  0.00000000000E+00  0.00000000000E+00  0.51995412028E+03  0.34651616840E+04  0.34259295394E+04 0.  0.
        5    1    3    3  502    0 -0.33134031296E+03  0.20670509448E+03 -0.14269691013E+04  0.14794513527E+04  0.46999998093E+01 0. -1.
       -5    1    3    3    0  502  0.33134031296E+03 -0.20670509448E+03  0.19469232216E+04  0.19857103313E+04  0.46999998093E+01 0.  1.
</event>
<event>
 5   0  0.2486268E-07  0.3871394E+04  0.7818609E-02  0.8031005E-01
       -2   -1    0    0    0  501  0.00000000000E+00  0.00000000000E+00  0.16426686940E+04  0.16426686940E+04  0.25500000920E-02 0.  1.
        2   -1    0    0  501    0  0.00000000000E+00  0.00000000000E+00 -0.22809972957E+04  0.22809972957E+04  0.25500000920E-02 0. -1.
    10030    2    1    2    0    0  0.00000000000E+00  0.00000000000E+00 -0.63832860175E+03  0.39236659897E+04  0.38713939860E+04 0.  0.
        5    1    3    3  502    0  0.13943021172E+03  0.17313244941E+04 -0.11850863383E+04  0.21027070664E+04  0.46999998093E+01 0. -1.
       -5    1    3    3    0  502 -0.13943021172E+03 -0.17313244941E+04  0.54675773654E+03  0.18209589233E+04  0.46999998093E+01 0.  1.
</event>
<event>
 5   0  0.7675750E-08  0.3832655E+04  0.7818609E-02  0.8039183E-01
        1   -1    0    0  501    0  0.00000000000E+00  0.00000000000E+00  0.14157205818E+04  0.14157205818E+04  0.50400001928E-02 0.  1.
       -1   -1    0    0    0  501  0.00000000000E+00  0.00000000000E+00 -0.25939516388E+04  0.25939516388E+04  0.50400001928E-02 0. -1.
    10030    2    1    2    0    0  0.00000000000E+00  0.00000000000E+00 -0.11782310570E+04  0.40096722207E+04  0.38326548101E+04 0.  0.
        2    1    3    3  502    0  0.16632772429E+04 -0.66726652486E+03 -0.12991170984E+04  0.22134681017E+04  0.25500000920E-02 0. -1.
       -2    1    3    3    0  502 -0.16632772429E+04  0.66726652486E+03  0.12088604141E+03  0.17962041190E+04  0.25500000920E-02 0.  1.
</event>
<event>
 5   0  0.7675750E-08  0.3903747E+04  0.7818609E-02  0.8024250E-01
       -1   -1    0    0    0  501  0.00000000000E+00  0.00000000000E+00  0.18555677878E+04  0.18555677878E+04  0.50400001928E-02 0.  1.
        1   -1    0    0  501    0  0.00000000000E+00  0.00000000000E+00 -0.20531772170E+04  0.20531772170E+04  0.50400001928E-02 0. -1.
    10030    2    1    2    0    0  0.00000000000E+00  0.00000000000E+00 -0.19760942924E+03  0.39087450048E+04  0.39037466652E+04 0.  0.
        2    1    3    3  502    0 -0.14156604839E+04 -0.13701054765E+03 -0.14372821809E+04  0.20220401983E+04  0.25500000920E-02 0. -1.
       -2    1    3    3    0  502  0.14156604839E+04  0.13701054765E+03  0.12396727517E+04  0.18867048066E+04  0.25500000920E-02 0.  1.
</event>
<event>
 5   0  0.7675750E-08  0.3902136E+04  0.7818609E-02  0.8024585E-01
       -1   -1    0    0    0  501  0.00000000000E+00  0.00000000000E+00  0.18781880542E+04  0.18781880542E+04  0.50400001928E-02 0.  1.
        1   -1    0    0  501    0  0.00000000000E+00  0.00000000000E+00 -0.20267763254E+04  0.20267763254E+04  0.50400001928E-02 0. -1.
    10030    2    1    2    0    0  0.00000000000E+00  0.00000000000E+00 -0.14858827115E+03  0.39049643796E+04  0.39021363804E+04 0.  0.
        1    1    3    3  502    0 -0.19365648481E+04  0.23582190170E+03 -0.10209380140E+03  0.19535399982E+04  0.50400001928E-02 0.  1.
       -1    1    3    3    0  502  0.19365648481E+04 -0.23582190170E+03 -0.46494469749E+02  0.19514243813E+04  0.50400001928E-02 0. -1.
</event>
<event>
 5   0  0.7675750E-08  0.4399434E+04  0.7818609E-02  0.7928483E-01
        1   -1    0    0  501    0  0.00000000000E+00  0.00000000000E+00  0.17966547104E+04  0.17966547104E+04  0.50400001928E-02 0. -1.
       -1   -1    0    0    0  501  0.00000000000E+00  0.00000000000E+00 -0.26932025340E+04  0.26932025340E+04  0.50400001928E-02 0.  1.
    10030    2    1    2    0    0  0.00000000000E+00  0.00000000000E+00 -0.89654782355E+03  0.44898572444E+04  0.43994340631E+04 0.  0.
        2    1    3    3  502    0  0.13379981743E+04  0.38168718294E+03 -0.21870616977E+04  0.25921348518E+04  0.25500000920E-02 0.  1.
       -2    1    3    3    0  502 -0.13379981743E+04 -0.38168718294E+03  0.12905138742E+04  0.18977223926E+04  0.25500000920E-02 0. -1.
</event>
<event>
 5   0  0.2446281E-07  0.3960481E+04  0.7818609E-02  0.8012567E-01
       -2   -1    0    0    0  501  0.00000000000E+00  0.00000000000E+00  0.17473427482E+04  0.17473427482E+04  0.25500000920E-02 0.  1.
        2   -1    0    0  501    0  0.00000000000E+00  0.00000000000E+00 -0.22441803810E+04  0.22441803810E+04  0.25500000920E-02 0. -1.
    10030    2    1    2    0    0  0.00000000000E+00  0.00000000000E+00 -0.49683763281E+03  0.39915231293E+04  0.39604809377E+04 0.  0.
        1    1    3    3  502    0 -0.11417119822E+04  0.12803920377E+04  0.74849664451E+03  0.18716723131E+04  0.50400001928E-02 0.  1.
       -1    1    3    3    0  502  0.11417119822E+04 -0.12803920377E+04 -0.12453342773E+04  0.21198508162E+04  0.50400001928E-02 0. -1.
</event>
<event>
 5   0  0.2446281E-07  0.3861175E+04  0.7818609E-02  0.8033153E-01
        2   -1    0    0  501    0  0.00000000000E+00  0.00000000000E+00  0.26050148937E+04  0.26050148937E+04  0.25500000920E-02 0. -1.
       -2   -1    0    0    0  501  0.00000000000E+00  0.00000000000E+00 -0.14307662097E+04  0.14307662097E+04  0.25500000920E-02 0.  1.
    10030    2    1    2    0    0  0.00000000000E+00  0.00000000000E+00  0.11742486840E+04  0.40357811034E+04  0.38611745807E+04 0.  0.
        1    1    3    3  502    0 -0.17170965474E+04  0.34567615562E+03  0.14357864088E+04  0.22648168070E+04  0.50400001928E-02 0. -1.
       -1    1    3    3    0  502  0.17170965474E+04 -0.34567615562E+03 -0.26153772479E+03  0.17709642964E+04  0.50400001928E-02 0.  1.
</event>
<event>
 5   0  0.7675750E-08  0.3802350E+04  0.7818609E-02  0.8045651E-01
        1   -1    0    0  501    0  0.00000000000E+00  0.00000000000E+00  0.24586331851E+04  0.24586331851E+04  0.50400001928E-02 0.  1.
       -1   -1    0    0    0  501  0.00000000000E+00  0.00000000000E+00 -0.14701122296E+04  0.14701122296E+04  0.50400001928E-02 0. -1.
    10030    2    1    2    0    0  0.00000000000E+00  0.00000000000E+00  0.98852095547E+03  0.39287454147E+04  0.38023501751E+04 0.  0.
        4    1    3    3  502    0  0.77737814424E+03 -0.92229092939E+03 -0.10241219624E+04  0.15823288989E+04  0.12699999809E+01 0. -1.
       -4    1    3    3    0  502 -0.77737814424E+03  0.92229092939E+03  0.20126429179E+04  0.23464165158E+04  0.12699999809E+01 0.  1.
</event>
<event>
 5   0  0.2486268E-07  0.3895037E+04  0.7818609E-02  0.8026062E-01
        2   -1    0    0  501    0  0.00000000000E+00  0.00000000000E+00  0.26469043324E+04  0.26469043324E+04  0.25500000920E-02 0. -1.
       -2   -1    0    0    0  501  0.00000000000E+00  0.00000000000E+00 -0.14329296918E+04  0.14329296918E+04  0.25500000920E-02 0.  1.
    10030    2    1    2    0    0  0.00000000000E+00  0.00000000000E+00  0.12139746406E+04  0.40798340242E+04  0.38950367440E+04 0.  0.
        5    1    3    3  502    0  0.69674740816E+03  0.16844382811E+04  0.13250915148E+04  0.22535924401E+04  0.46999998093E+01 0. -1.
       -5    1    3    3    0  502 -0.69674740816E+03 -0.16844382811E+04 -0.11111687419E+03  0.18262415841E+04  0.46999998093E+01 0.  1.
</event>
<event>
 5   0  0.7675750E-08  0.3872662E+04  0.7818609E-02  0.8030739E-01
       -1   -1    0    0    0  501  0.00000000000E+00  0.00000000000E+00  0.29441536033E+04  0.29441536033E+04  0.50400001928E-02 0.  1.
        1   -1    0    0  501    0  0.00000000000E+00  0.00000000000E+00 -0.12734994064E+04  0.12734994064E+04  0.50400001928E-02 0. -1.
    10030    2    1    2    0    0  0.00000000000E+00  0.00000000000E+00  0.16706541969E+04  0.42176530097E+04  0.38726620644E+04 0.  0.
        5    1    3    3  502    0  0.12107721961E+04  0.19780319546E+01  0.24810267793E+04  0.27607044740E+04  0.46999998093E+01 0.  1.
       -5    1    3    3    0  502 -0.12107721961E+04 -0.19780319546E+01 -0.81037258233E+03  0.14569485357E+04  0.46999998093E+01 0. -1.
</event>
<event>
 5   0  0.7675750E-08  0.3870255E+04  0.7818609E-02  0.8031244E-01
        1   -1    0    0  501    0  0.00000000000E+00  0.00000000000E+00  0.22711892803E+04  0.22711892803E+04  0.50400001928E-02 0.  1.
       -1   -1    0    0    0  501  0.00000000000E+00  0.00000000000E+00 -0.16487922248E+04  0.16487922248E+04  0.50400001928E-02 0. -1.
    10030    2    1    2    0    0  0.00000000000E+00  0.00000000000E+00  0.62239705551E+03  0.39199815051E+04  0.38702554057E+04 0.  0.
        2    1    3    3  502    0 -0.10547312279E+04  0.46072855932E+03  0.18868175627E+04  0.22101604655E+04  0.25500000920E-02 0.  1.
       -2    1    3    3    0  502  0.10547312279E+04 -0.46072855932E+03 -0.12644205072E+04  0.17098210396E+04  0.25500000920E-02 0. -1.
</event>
<event>
 5   0  0.2486268E-07  0.3909024E+04  0.7818609E-02  0.8023155E-01
       -2   -1    0    0    0  501  0.00000000000E+00  0.00000000000E+00  0.18606242017E+04  0.18606242017E+04  0.25500000920E-02 0.  1.
        2   -1    0    0  501    0  0.00000000000E+00  0.00000000000E+00 -0.20531373137E+04  0.20531373137E+04  0.25500000920E-02 0. -1.
    10030    2    1    2    0    0  0.00000000000E+00  0.00000000000E+00 -0.19251311198E+03  0.39137615153E+04  0.39090239064E+04 0.  0.
        5    1    3    3  502    0  0.96195181674E+03  0.15883097318E+04 -0.70692673822E+03  0.19869188723E+04  0.46999998093E+01 0. -1.
       -5    1    3    3    0  502 -0.96195181674E+03 -0.15883097318E+04  0.51441362624E+03  0.19268426430E+04  0.46999998093E+01 0.  1.
</event>
<event>
 5   0  0.2446281E-07  0.3914544E+04  0.7818609E-02  0.8022011E-01
       -2   -1    0    0    0  501  0.00000000000E+00  0.00000000000E+00  0.18198658851E+04  0.18198658851E+04  0.25500000920E-02 0. -1.
        2   -1    0    0  501    0  0.00000000000E+00  0.00000000000E+00 -0.21050530764E+04  0.21050530764E+04  0.25500000920E-02 0.  1.
    10030    2    1    2    0    0  0.00000000000E+00  0.00000000000E+00 -0.28518719130E+03  0.39249189615E+04  0.39145443055E+04 0.  0.
        1    1    3    3  502    0  0.11956099379E+04 -0.14664902461E+04  0.35957057851E+03  0.19259719018E+04  0.50400001928E-02 0. -1.
       -1    1    3    3    0  502 -0.11956099379E+04  0.14664902461E+04 -0.64475776981E+03  0.19989470597E+04  0.50400001928E-02 0.  1.
</event>
<event>
 5   0  0.7675750E-08  0.3899378E+04  0.7818609E-02  0.8025159E-01
        1   -1    0    0  501    0  0.00000000000E+00  0.00000000000E+00  0.24254454029E+04  0.24254454029E+04  0.50400001928E-02 0. -1.
       -1   -1    0    0    0  501  0.00000000000E+00  0.00000000000E+00 -0.15672532881E+04  0.15672532881E+04  0.50400001928E-02 0.  1.
    10030    2    1    2    0    0  0.00000000000E+00  0.00000000000E+00  0.85819211487E+03  0.39926986910E+04  0.38993780442E+04 0.  0.
        4    1    3    3  502    0  0.32871709544E+03  0.93128531380E+03 -0.12921879797E+04  0.16263759259E+04  0.12699999809E+01 0.  1.
       -4    1    3    3    0  502 -0.32871709544E+03 -0.93128531380E+03  0.21503800946E+04  0.23663227651E+04  0.12699999809E+01 0. -1.
</event>
<event>
 5   0  0.7675750E-08  0.3917477E+04  0.7818609E-02  0.8021404E-01
        3   -1    0    0  501    0  0.00000000000E+00  0.00000000000E+00  0.20273882472E+04  0.20273882497E+04  0.10100000352E+00 0.  1.
       -3   -1    0    0    0  501  0.00000000000E+00  0.00000000000E+00 -0.18924136608E+04  0.18924136635E+04  0.10100000352E+00 0. -1.
    10030    2    1    2    0    0  0.00000000000E+00  0.00000000000E+00  0.13497458639E+03  0.39198019132E+04  0.39174773643E+04 0.  0.
        5    1    3    3  502    0 -0.31801932606E+03 -0.24685077484E+03  0.19855398602E+04  0.20259472410E+04  0.46999998093E+01 0.  1.
       -5    1    3    3    0  502  0.31801932606E+03  0.24685077484E+03 -0.18505652738E+04  0.18938546722E+04  0.46999998093E+01 0. -1.
</event>
<event>
 5   0  0.7675750E-08  0.3932716E+04  0.7818609E-02  0.8018259E-01
       -1   -1    0    0    0  501  0.00000000000E+00  0.00000000000E+00  0.20476062777E+04  0.20476062777E+04  0.50400001928E-02 0. -1.
        1   -1    0    0  501    0  0.00000000000E+00  0.00000000000E+00 -0.18883340977E+04  0.18883340977E+04  0.50400001928E-02 0.  1.
    10030    2    1    2    0    0  0.00000000000E+00  0.00000000000E+00  0.15927217994E+03  0.39359403754E+04  0.39327164927E+04 0.  0.
        5    1    3    3  502    0  0.57096672898E+03  0.18816289045E+04  0.83149362464E+02  0.19681123562E+04  0.46999998093E+01 0.  1.
       -5    1    3    3    0  502 -0.57096672898E+03 -0.18816289045E+04  0.76122817472E+02  0.19678280193E+04  0.46999998093E+01 0. -1.
</event>
<event>
 5   0  0.7731706E-08  0.3893938E+04  0.7818609E-02  0.8026291E-01
        1   -1    0    0  501    0  0.00000000000E+00  0.00000000000E+00  0.14850048757E+04  0.14850048757E+04  0.50400001928E-02 0.  1.
       -1   -1    0    0    0  501  0.00000000000E+00  0.00000000000E+00 -0.25526435422E+04  0.25526435422E+04  0.50400001928E-02 0. -1.
    10030    2    1    2    0    0  0.00000000000E+00  0.00000000000E+00 -0.10676386665E+04  0.40376484179E+04  0.38939379071E+04 0.  0.
        3    1    3    3  502    0  0.33418776031E+03 -0.47211274723E+03 -0.24614935783E+04  0.25285415859E+04  0.10100000352E+00 0. -1.
       -3    1    3    3    0  502 -0.33418776031E+03  0.47211274723E+03  0.13938549118E+04  0.15091068321E+04  0.10100000352E+00 0.  1.
</event>
<event>
 5   0  0.7675750E-08  0.3900755E+04  0.7818609E-02  0.8024872E-01
        3   -1    0    0  501    0  0.00000000000E+00  0.00000000000E+00  0.18424793820E+04  0.18424793847E+04  0.10100000352E+00 0. -1.
       -3   -1    0    0    0  501  0.00000000000E+00  0.00000000000E+00 -0.20645937700E+04  0.20645937725E+04  0.10100000352E+00 0.  1.
    10030    2    1    2    0    0  0.00000000000E+00  0.00000000000E+00 -0.22211438802E+03  0.39070731572E+04  0.39007545237E+04 0.  0.
        2    1    3    3  502    0  0.65010463894E+03  0.13412586013E+04  0.11488996741E+04  0.18819089081E+04  0.25500000920E-02 0. -1.
       -2    1    3    3    0  502 -0.65010463894E+03 -0.13412586013E+04 -0.13710140622E+04  0.20251642491E+04  0.25500000920E-02 0.  1.
</event>
<event>
 5   0  0.7675750E-08  0.3885489E+04  0.7818609E-02  0.8028054E-01
        1   -1    0    0  501    0  0.00000000000E+00  0.00000000000E+00  0.13557006101E+04  0.13557006101E+04  0.50400001928E-02 0. -1.
       -1   -1    0    0    0  501  0.00000000000E+00  0.00000000000E+00 -0.27839895933E+04  0.27839895933E+04  0.50400001928E-02 0.  1.
    10030    2    1    2    0    0  0.00000000000E+00  0.00000000000E+00 -0.14282889832E+04  0.41396902034E+04  0.38854891018E+04 0.  0.
        4    1    3    3  502    0 -0.19325982024E+04 -0.98373600578E+02 -0.89757559053E+03  0.21331330785E+04  0.12699999809E+01 0. -1.
       -4    1    3    3    0  502  0.19325982024E+04  0.98373600578E+02 -0.53071339267E+03  0.20065571248E+04  0.12699999809E+01 0.  1.
</event>
<event>
 5   0  0.7675750E-08  0.3912332E+04  0.7818609E-02  0.8022469E-01
        1   -1    0    0  501    0  0.00000000000E+00  0.00000000000E+00  0.18102521933E+04  0.18102521933E+04  0.50400001928E-02 0. -1.
       -1   -1    0    0    0  501  0.00000000000E+00  0.00000000000E+00 -0.21138407210E+04  0.21138407211E+04  0.50400001928E-02 0.  1.
    10030    2    1    2    0    0  0.00000000000E+00  0.00000000000E+00 -0.30358852776E+03  0.39240929144E+04  0.39123316841E+04 0.  0.
        5    1    3    3  502    0  0.19085450074E+04  0.28797220581E+03 -0.47069767385E+03  0.19867185072E+04  0.46999998093E+01 0.  1.
       -5    1    3    3    0  502 -0.19085450074E+04 -0.28797220581E+03  0.16710914610E+03  0.19373744071E+04  0.46999998093E+01 0. -1.
</event>
<event>
 5   0  0.2384787E-07  0.3894942E+04  0.7818609E-02  0.8026082E-01
       -2   -1    0    0    0  501  0.00000000000E+00  0.00000000000E+00  0.26825457454E+04  0.26825457454E+04  0.25500000920E-02 0.  1.
        2   -1    0    0  501    0  0.00000000000E+00  0.00000000000E+00 -0.14138221851E+04  0.14138221852E+04  0.25500000920E-02 0. -1.
    10030    2    1    2    0    0  0.00000000000E+00  0.00000000000E+00  0.12687235602E+04  0.40963679305E+04  0.38949416876E+04 0.  0.
        4    1    3    3  502    0 -0.93715147868E+03  0.13615909545E+04 -0.44867894030E+03  0.17127455227E+04  0.12699999809E+01 0. -1.
       -4    1    3    3    0  502  0.93715147868E+03 -0.13615909545E+04  0.17174025005E+04  0.23836224078E+04  0.12699999809E+01 0.  1.
</event>
<event>
 5   0  0.7675750E-08  0.3812812E+04  0.7818609E-02  0.8043411E-01
        1   -1    0    0  501    0  0.00000000000E+00  0.00000000000E+00  0.27653042285E+04  0.27653042285E+04  0.50400001928E-02 0.  1.
       -1   -1    0    0    0  501  0.00000000000E+00  0.00000000000E+00 -0.13142801966E+04  0.13142801966E+04  0.50400001928E-02 0. -1.
    10030    2    1    2    0    0  0.00000000000E+00  0.00000000000E+00  0.14510240319E+04  0.40795844251E+04  0.38128123925E+04 0.  0.
        5    1    3    3  502    0  0.38467415979E+03 -0.10311461627E+04  0.23910650898E+04  0.26321950861E+04  0.46999998093E+01 0.  1.
       -5    1    3    3    0  502 -0.38467415979E+03  0.10311461627E+04 -0.94004105789E+03  0.14473893389E+04  0.46999998093E+01 0. -1.
</event>
<event>
 5   0  0.2395572E-07  0.3948348E+04  0.7818609E-02  0.8015048E-01
       -2   -1    0    0    0  501  0.00000000000E+00  0.00000000000E+00  0.16191889188E+04  0.16191889188E+04  0.25500000920E-02 0.  1.
        2   -1    0    0  501    0  0.00000000000E+00  0.00000000000E+00 -0.24069846055E+04  0.24069846055E+04  0.25500000920E-02 0. -1.
    10030    2    1    2    0    0  0.00000000000E+00  0.00000000000E+00 -0.78779568671E+03  0.40261735242E+04  0.39483479081E+04 0.  0.
        3    1    3    3  502    0  0.15837602497E+04 -0.11184794089E+04 -0.77279980524E+03  0.20872259738E+04  0.10100000352E+00 0. -1.
       -3    1    3    3    0  502 -0.15837602497E+04  0.11184794089E+04 -0.14995881471E+02  0.19389475504E+04  0.10100000352E+00 0.  1.
</event>
<event>
 5   0  0.2395572E-07  0.3599257E+04  0.7818609E-02  0.8090662E-01
        2   -1    0    0  501    0  0.00000000000E+00  0.00000000000E+00  0.26190021963E+04  0.26190021963E+04  0.25500000920E-02 0.  1.
       -2   -1    0    0    0  501  0.00000000000E+00  0.00000000000E+00 -0.12366020562E+04  0.12366020562E+04  0.25500000920E-02 0. -1.
    10030    2    1    2    0    0  0.00000000000E+00  0.00000000000E+00  0.13824001400E+04  0.38556042525E+04  0.35992574241E+04 0.  0.
        3    1    3    3  502    0 -0.14723269164E+04 -0.86366861833E+03  0.13018845069E+04  0.21467587919E+04  0.10100000352E+00 0.  1.
       -3    1    3    3    0  502  0.14723269164E+04  0.86366861833E+03  0.80515633151E+02  0.17088454606E+04  0.10100000352E+00 0. -1.
</event>
<event>
 5   0  0.7675750E-08  0.3836784E+04  0.7818609E-02  0.8038307E-01
        1   -1    0    0  501    0  0.00000000000E+00  0.00000000000E+00  0.23918664504E+04  0.23918664504E+04  0.50400001928E-02 0.  1.
       -1   -1    0    0    0  501  0.00000000000E+00  0.00000000000E+00 -0.15386427366E+04  0.15386427366E+04  0.50400001928E-02 0. -1.
    10030    2    1    2    0    0  0.00000000000E+00  0.00000000000E+00  0.85322371377E+03  0.39305091870E+04  0.38367840392E+04 0.  0.
        2    1    3    3  502    0  0.92547057094E+03 -0.22005380203E+03 -0.12800091727E+04  0.15947861724E+04  0.25500000920E-02 0. -1.
       -2    1    3    3    0  502 -0.92547057094E+03  0.22005380203E+03  0.21332328864E+04  0.23357230147E+04  0.25500000920E-02 0.  1.
</event>
<event>
 5   0  0.2486268E-07  0.3938692E+04  0.7818609E-02  0.8017030E-01
        2   -1    0    0  501    0  0.00000000000E+00  0.00000000000E+00  0.19000562694E+04  0.19000562694E+04  0.25500000920E-02 0. -1.
       -2   -1    0    0    0  501  0.00000000000E+00  0.00000000000E+00 -0.20411626977E+04  0.20411626977E+04  0.25500000920E-02 0.  1.
    10030    2    1    2    0    0  0.00000000000E+00  0.00000000000E+00 -0.14110642830E+03  0.39412189671E+04  0.39386921589E+04 0.  0.
        5    1    3    3  502    0  0.76188322047E+03  0.30388171975E+03 -0.18620905255E+04  0.20347514237E+04  0.46999998093E+01 0.  1.
       -5    1    3    3    0  502 -0.76188322047E+03 -0.30388171975E+03  0.17209840972E+04  0.19064675434E+04  0.46999998093E+01 0. -1.
</event>
<event>
 5   0  0.7675750E-08  0.3921861E+04  0.7818609E-02  0.8020498E-01
        3   -1    0    0  501    0  0.00000000000E+00  0.00000000000E+00  0.13022035567E+04  0.13022035606E+04  0.10100000352E+00 0.  1.
       -3   -1    0    0    0  501  0.00000000000E+00  0.00000000000E+00 -0.29528787842E+04  0.29528787859E+04  0.10100000352E+00 0. -1.
    10030    2    1    2    0    0  0.00000000000E+00  0.00000000000E+00 -0.16506752275E+04  0.42550823465E+04  0.39218614291E+04 0.  0.
        2    1    3    3  502    0 -0.18874125666E+04  0.49729678425E+03 -0.62057226850E+03  0.20481064983E+04  0.25500000920E-02 0.  1.
       -2    1    3    3    0  502  0.18874125666E+04 -0.49729678425E+03 -0.10301029590E+04  0.22069758481E+04  0.25500000920E-02 0. -1.
</event>
<event>
 5   0  0.7675750E-08  0.3902911E+04  0.7818609E-02  0.8024424E-01
        1   -1    0    0  501    0  0.00000000000E+00  0.00000000000E+00  0.14953722421E+04  0.14953722421E+04  0.50400001928E-02 0. -1.
       -1   -1    0    0    0  501  0.00000000000E+00  0.00000000000E+00 -0.25466429904E+04  0.25466429904E+04  0.50400001928E-02 0.  1.
    10030    2    1    2    0    0  0.00000000000E+00  0.00000000000E+00 -0.10512707484E+04  0.40420152325E+04  0.39029113433E+04 0.  0.
        2    1    3    3  502    0 -0.58164105404E+03  0.57046736708E+03 -0.23620929888E+04  0.24986441564E+04  0.25500000920E-02 0.  1.
       -2    1    3    3    0  502  0.58164105404E+03 -0.57046736708E+03  0.13108222404E+04  0.15433710761E+04  0.25500000920E-02 0. -1.
</event>
<event>
 5   0  0.2486268E-07  0.3892262E+04  0.7818609E-02  0.8026640E-01
        2   -1    0    0  501    0  0.00000000000E+00  0.00000000000E+00  0.15395807452E+04  0.15395807452E+04  0.25500000920E-02 0. -1.
       -2   -1    0    0    0  501  0.00000000000E+00  0.00000000000E+00 -0.24600371988E+04  0.24600371988E+04  0.25500000920E-02 0.  1.
    10030    2    1    2    0    0  0.00000000000E+00  0.00000000000E+00 -0.92045645361E+03  0.39996179440E+04  0.38922620178E+04 0.  0.
        5    1    3    3  502    0  0.13019105950E+04 -0.83021194814E+03 -0.16774599071E+04  0.22799379171E+04  0.46999998093E+01 0.  1.
       -5    1    3    3    0  502 -0.13019105950E+04  0.83021194814E+03  0.75700345346E+03  0.17196800269E+04  0.46999998093E+01 0. -1.
</event>
<event>
 5   0  0.2446281E-07  0.3922047E+04  0.7818609E-02  0.8020460E-01
       -2   -1    0    0    0  501  0.00000000000E+00  0.00000000000E+00  0.17997558601E+04  0.17997558601E+04  0.25500000920E-02 0.  1.
        2   -1    0    0  501    0  0.00000000000E+00  0.00000000000E+00 -0.21367411090E+04  0.21367411090E+04  0.25500000920E-02 0. -1.
    10030    2    1    2    0    0  0.00000000000E+00  0.00000000000E+00 -0.33698524893E+03  0.39364969691E+04  0.39220465741E+04 0.  0.
        1    1    3    3  502    0 -0.12794489774E+04  0.82960390061E+03 -0.14060725350E+04  0.20741919611E+04  0.50400001928E-02 0. -1.
       -1    1    3    3    0  502  0.12794489774E+04 -0.82960390061E+03  0.10690872860E+04  0.18623050080E+04  0.50400001928E-02 0.  1.
</event>
<event>
 5   0  0.7675750E-08  0.3851327E+04  0.7818609E-02  0.8035229E-01
       -1   -1    0    0    0  501  0.00000000000E+00  0.00000000000E+00  0.14118578610E+04  0.14118578610E+04  0.50400001928E-02 0.  1.
        1   -1    0    0  501    0  0.00000000000E+00  0.00000000000E+00 -0.26264535031E+04  0.26264535031E+04  0.50400001928E-02 0. -1.
    10030    2    1    2    0    0  0.00000000000E+00  0.00000000000E+00 -0.12145956421E+04  0.40383113641E+04  0.38513265376E+04 0.  0.
        2    1    3    3  502    0 -0.76305532518E+03  0.17368950565E+04 -0.26092489151E+03  0.19149777193E+04  0.25500000920E-02 0.  1.
       -2    1    3    3    0  502  0.76305532518E+03 -0.17368950565E+04 -0.95367075061E+03  0.21233336448E+04  0.25500000920E-02 0. -1.
</event>
<event>
 5   0  0.2446281E-07  0.3889549E+04  0.7818609E-02  0.8027206E-01
        2   -1    0    0  501    0  0.00000000000E+00  0.00000000000E+00  0.22058837402E+04  0.22058837402E+04  0.25500000920E-02 0.  1.
       -2   -1    0    0    0  501  0.00000000000E+00  0.00000000000E+00 -0.17145724039E+04  0.17145724039E+04  0.25500000920E-02 0. -1.
    10030    2    1    2    0    0  0.00000000000E+00  0.00000000000E+00  0.49131133637E+03  0.39204561441E+04  0.38895487590E+04 0.  0.
        1    1    3    3  502    0 -0.13309661809E+04 -0.98955074837E+01  0.16748717556E+04  0.21393373492E+04  0.50400001928E-02 0.  1.
       -1    1    3    3    0  502  0.13309661809E+04  0.98955074837E+01 -0.11835604193E+04  0.17811187950E+04  0.50400001928E-02 0. -1.
</event>
<event>
 5   0  0.7675750E-08  0.3841841E+04  0.7818609E-02  0.8037235E-01
        1   -1    0    0  501    0  0.00000000000E+00  0.00000000000E+00  0.16818379471E+04  0.16818379471E+04  0.50400001928E-02 0. -1.
       -1   -1    0    0    0  501  0.00000000000E+00  0.00000000000E+00 -0.21939895939E+04  0.21939895939E+04  0.50400001928E-02 0.  1.
    10030    2    1    2    0    0  0.00000000000E+00  0.00000000000E+00 -0.51215164678E+03  0.38758275410E+04  0.38418406811E+04 0.  0.
        4    1    3    3  502    0 -0.65607028118E+03 -0.12624081344E+03 -0.20729992427E+04  0.21780019353E+04  0.12699999809E+01 0.  1.
       -4    1    3    3    0  502  0.65607028118E+03  0.12624081344E+03  0.15608475960E+04  0.16978256058E+04  0.12699999809E+01 0. -1.
</event>
<event>
 5   0  0.2395572E-07  0.3566051E+04  0.7818609E-02  0.8098313E-01
        2   -1    0    0  501    0  0.00000000000E+00  0.00000000000E+00  0.16138434259E+04  0.16138434259E+04  0.25500000920E-02 0.  1.
       -2   -1    0    0    0  501  0.00000000000E+00  0.00000000000E+00 -0.19699429156E+04  0.19699429156E+04  0.25500000920E-02 0. -1.
    10030    2    1    2    0    0  0.00000000000E+00  0.00000000000E+00 -0.35609948977E+03  0.35837863415E+04  0.35660507140E+04 0.  0.
        3    1    3    3  502    0  0.14796877565E+04  0.58194085698E+03  0.63283892326E+03  0.17113199966E+04  0.10100000352E+00 0.  1.
       -3    1    3    3    0  502 -0.14796877565E+04 -0.58194085698E+03 -0.98893841302E+03  0.18724663449E+04  0.10100000352E+00 0. -1.
</event>
<event>
 5   0  0.7675750E-08  0.3870344E+04  0.7818609E-02  0.8031226E-01
        1   -1    0    0  501    0  0.00000000000E+00  0.00000000000E+00  0.24213763116E+04  0.24213763116E+04  0.50400001928E-02 0. -1.
       -1   -1    0    0    0  501  0.00000000000E+00  0.00000000000E+00 -0.15465957364E+04  0.15465957364E+04  0.50400001928E-02 0.  1.
    10030    2    1    2    0    0  0.00000000000E+00  0.00000000000E+00  0.87478057513E+03  0.39679720480E+04  0.38703437986E+04 0.  0.
        4    1    3    3  502    0 -0.14586872904E+04 -0.71138625669E+02 -0.86430572096E+03  0.16970136439E+04  0.12699999809E+01 0.  1.
       -4    1    3    3    0  502  0.14586872904E+04  0.71138625669E+02  0.17390862961E+04  0.22709584042E+04  0.12699999809E+01 0. -1.
</event>
<event>
 5   0  0.2395572E-07  0.3954054E+04  0.7818609E-02  0.8013880E-01
        2   -1    0    0  501    0  0.00000000000E+00  0.00000000000E+00  0.10920630614E+04  0.10920630614E+04  0.25500000920E-02 0. -1.
       -2   -1    0    0    0  501  0.00000000000E+00  0.00000000000E+00 -0.35791292590E+04  0.35791292590E+04  0.25500000920E-02 0.  1.
    10030    2    1    2    0    0  0.00000000000E+00  0.00000000000E+00 -0.24870661977E+04  0.46711923204E+04  0.39540535432E+04 0.  0.
        3    1    3    3  502    0 -0.17845428561E+04 -0.57467620145E+03 -0.50219394249E+03  0.19408876082E+04  0.10100000352E+00 0. -1.
       -3    1    3    3    0  502  0.17845428561E+04  0.57467620145E+03 -0.19848722552E+04  0.27303047122E+04  0.10100000352E+00 0.  1.
</event>
<event>
 5   0  0.2384787E-07  0.3517637E+04  0.7818609E-02  0.8109623E-01
       -2   -1    0    0    0  501  0.00000000000E+00  0.00000000000E+00  0.13738509037E+04  0.13738509037E+04  0.25500000920E-02 0.  1.
        2   -1    0    0  501    0  0.00000000000E+00  0.00000000000E+00 -0.22516587034E+04  0.22516587034E+04  0.25500000920E-02 0. -1.
    10030    2    1    2    0    0  0.00000000000E+00  0.00000000000E+00 -0.87780779966E+03  0.36255096071E+04  0.35176374711E+04 0.  0.
        4    1    3    3  502    0 -0.21390754746E+03  0.51065503130E+03  0.12816963351E+04  0.13961633530E+04  0.12699999809E+01 0.  1.
       -4    1    3    3    0  502  0.21390754746E+03 -0.51065503130E+03 -0.21595041348E+04  0.22293462542E+04  0.12699999809E+01 0. -1.
</event>
<event>
 5   0  0.2473224E-07  0.3902726E+04  0.7818609E-02  0.8024462E-01
       -2   -1    0    0    0  501  0.00000000000E+00  0.00000000000E+00  0.25114448325E+04  0.25114448325E+04  0.25500000920E-02 0.  1.
        2   -1    0    0  501    0  0.00000000000E+00  0.00000000000E+00 -0.15161862643E+04  0.15161862643E+04  0.25500000920E-02 0. -1.
    10030    2    1    2    0    0  0.00000000000E+00  0.00000000000E+00  0.99525856826E+03  0.40276310968E+04  0.39027263079E+04 0.  0.
        2    1    3    3  502    0 -0.17641208772E+03 -0.15455585050E+04 -0.71818670196E+03  0.17133780832E+04  0.25500000920E-02 0. -1.
       -2    1    3    3    0  502  0.17641208772E+03  0.15455585050E+04  0.17134452702E+04  0.23142530136E+04  0.25500000920E-02 0.  1.
</event>
<event>
 5   0  0.2473224E-07  0.3805809E+04  0.7818609E-02  0.8044909E-01
       -2   -1    0    0    0  501  0.00000000000E+00  0.00000000000E+00  0.13509388451E+04  0.13509388452E+04  0.25500000920E-02 0. -1.
        2   -1    0    0  501    0  0.00000000000E+00  0.00000000000E+00 -0.26803921935E+04  0.26803921935E+04  0.25500000920E-02 0.  1.
    10030    2    1    2    0    0  0.00000000000E+00  0.00000000000E+00 -0.13294533484E+04  0.40313310387E+04  0.38058092093E+04 0.  0.
        2    1    3    3  502    0 -0.14578827396E+04 -0.40899849000E+03 -0.18855610321E+04  0.24182725762E+04  0.25500000920E-02 0.  1.
       -2    1    3    3    0  502  0.14578827396E+04  0.40899849000E+03  0.55610768369E+03  0.16130584624E+04  0.25500000920E-02 0. -1.
</event>
<event>
 5   0  0.7675750E-08  0.4207843E+04  0.7818609E-02  0.7963882E-01
       -1   -1    0    0    0  501  0.00000000000E+00  0.00000000000E+00  0.28840595011E+04  0.28840595011E+04  0.50400001928E-02 0. -1.
        1   -1    0    0  501    0  0.00000000000E+00  0.00000000000E+00 -0.15348104722E+04  0.15348104722E+04  0.50400001928E-02 0.  1.
    10030    2    1    2    0    0  0.00000000000E+00  0.00000000000E+00  0.13492490289E+04  0.44188699733E+04  0.42078425468E+04 0.  0.
        4    1    3    3  502    0  0.72100695810E+03  0.14917129942E+04 -0.68710364159E+03  0.17936476013E+04  0.12699999809E+01 0.  1.
       -4    1    3    3    0  502 -0.72100695810E+03 -0.14917129942E+04  0.20363526705E+04  0.26252223720E+04  0.12699999809E+01 0. -1.
</event>
<event>
 5   0  0.2473224E-07  0.3884022E+04  0.7818609E-02  0.8028360E-01
       -2   -1    0    0    0  501  0.00000000000E+00  0.00000000000E+00  0.17196212236E+04  0.17196212236E+04  0.25500000920E-02 0.  1.
        2   -1    0    0  501    0  0.00000000000E+00  0.00000000000E+00 -0.21931617803E+04  0.21931617803E+04  0.25500000920E-02 0. -1.
    10030    2    1    2    0    0  0.00000000000E+00  0.00000000000E+00 -0.47354055668E+03  0.39127830040E+04  0.38840224223E+04 0.  0.
        2    1    3    3  502    0  0.15339916756E+04  0.93044967112E+03 -0.98560520177E+03  0.20470184818E+04  0.25500000920E-02 0. -1.
       -2    1    3    3    0  502 -0.15339916756E+04 -0.93044967112E+03  0.51206464509E+03  0.18657645221E+04  0.25500000920E-02 0.  1.
</event>
<event>
 5   0  0.2486268E-07  0.3895303E+04  0.7818609E-02  0.8026007E-01
        2   -1    0    0  501    0  0.00000000000E+00  0.00000000000E+00  0.20179833807E+04  0.20179833807E+04  0.25500000920E-02 0.  1.
       -2   -1    0    0    0  501  0.00000000000E+00  0.00000000000E+00 -0.18797711648E+04  0.18797711648E+04  0.25500000920E-02 0. -1.
    10030    2    1    2    0    0  0.00000000000E+00  0.00000000000E+00  0.13821221592E+03  0.38977545455E+04  0.38953033104E+04 0.  0.
        5    1    3    3  502    0  0.45932335664E+03 -0.34496117577E+03 -0.17930724341E+04  0.18828454537E+04  0.46999998093E+01 0. -1.
       -5    1    3    3    0  502 -0.45932335664E+03  0.34496117577E+03  0.19312846500E+04  0.20149090918E+04  0.46999998093E+01 0.  1.
</event>
<event>
 5   0  0.2486268E-07  0.3893863E+04  0.7818609E-02  0.8026307E-01
        2   -1    0    0  501    0  0.00000000000E+00  0.00000000000E+00  0.16439101705E+04  0.16439101705E+04  0.25500000920E-02 0. -1.
       -2   -1    0    0    0  501  0.00000000000E+00  0.00000000000E+00 -0.23058089669E+04  0.23058089669E+04  0.25500000920E-02 0.  1.
    10030    2    1    2    0    0  0.00000000000E+00  0.00000000000E+00 -0.66189879632E+03  0.39497191374E+04  0.38938632806E+04 0.  0.
        5    1    3    3  502    0 -0.18391304059E+03  0.16179950121E+04 -0.14133975913E+04  0.21562575697E+04  0.46999998093E+01 0.  1.
       -5    1    3    3    0  502  0.18391304059E+03 -0.16179950121E+04  0.75149879502E+03  0.17934615677E+04  0.46999998093E+01 0. -1.
</event>
<event>
 5   0  0.2395572E-07  0.3919943E+04  0.7818609E-02  0.8020894E-01
       -2   -1    0    0    0  501  0.00000000000E+00  0.00000000000E+00  0.17573762731E+04  0.17573762731E+04  0.25500000920E-02 0. -1.
        2   -1    0    0  501    0  0.00000000000E+00  0.00000000000E+00 -0.21859227627E+04  0.21859227627E+04  0.25500000920E-02 0.  1.
    10030    2    1    2    0    0  0.00000000000E+00  0.00000000000E+00 -0.42854648965E+03  0.39432990358E+04  0.39199432639E+04 0.  0.
        3    1    3    3  502    0 -0.11191975140E+04 -0.65641673477E+03  0.12634936444E+04  0.18110500282E+04  0.10100000352E+00 0. -1.
       -3    1    3    3    0  502  0.11191975140E+04  0.65641673477E+03 -0.16920401340E+04  0.21322490076E+04  0.10100000352E+00 0.  1.
</event>
<event>
 5   0  0.7675750E-08  0.3897847E+04  0.7818609E-02  0.8025477E-01
        1   -1    0    0  501    0  0.00000000000E+00  0.00000000000E+00  0.27155195981E+04  0.27155195981E+04  0.50400001928E-02 0. -1.
       -1   -1    0    0    0  501  0.00000000000E+00  0.00000000000E+00 -0.13987391672E+04  0.13987391672E+04  0.50400001928E-02 0.  1.
    10030    2    1    2    0    0  0.00000000000E+00  0.00000000000E+00  0.13167804309E+04  0.41142587652E+04  0.38978474167E+04 0.  0.
        5    1    3    3  502    0 -0.10555699302E+04  0.98831496469E+03  0.20375673831E+04  0.24985390286E+04  0.46999998093E+01 0. -1.
       -5    1    3    3    0  502  0.10555699302E+04 -0.98831496469E+03 -0.72078695215E+03  0.16157197366E+04  0.46999998093E+01 0.  1.
</event>
<event>
 5   0  0.7675750E-08  0.3960158E+04  0.7818609E-02  0.8012632E-01
       -1   -1    0    0    0  501  0.00000000000E+00  0.00000000000E+00  0.24742362490E+04  0.24742362490E+04  0.50400001928E-02 0. -1.
        1   -1    0    0  501    0  0.00000000000E+00  0.00000000000E+00 -0.15846155816E+04  0.15846155816E+04  0.50400001928E-02 0.  1.
    10030    2    1    2    0    0  0.00000000000E+00  0.00000000000E+00  0.88962066740E+03  0.40588518306E+04  0.39601582356E+04 0.  0.
        1    1    3    3  502    0 -0.76037101991E+03  0.38178465669E+03  0.22773259822E+04  0.24310773829E+04  0.50400001928E-02 0. -1.
       -1    1    3    3    0  502  0.76037101991E+03 -0.38178465669E+03 -0.13877053148E+04  0.16277744478E+04  0.50400001928E-02 0.  1.
</event>
<event>
 5   0  0.2395572E-07  0.3957501E+04  0.7818609E-02  0.8013175E-01
       -2   -1    0    0    0  501  0.00000000000E+00  0.00000000000E+00  0.18907492842E+04  0.18907492842E+04  0.25500000920E-02 0.  1.
        2   -1    0    0  501    0  0.00000000000E+00  0.00000000000E+00 -0.20708476195E+04  0.20708476195E+04  0.25500000920E-02 0. -1.
    10030    2    1    2    0    0  0.00000000000E+00  0.00000000000E+00 -0.18009833533E+03  0.39615969037E+04  0.39575010571E+04 0.  0.
        3    1    3    3  502    0  0.62244855347E+02 -0.87677959463E+03  0.16845903838E+04  0.19001214832E+04  0.10100000352E+00 0.  1.
       -3    1    3    3    0  502 -0.62244855347E+02  0.87677959463E+03 -0.18646887192E+04  0.20614754205E+04  0.10100000352E+00 0. -1.
</event>
<event>
 5   0  0.7675750E-08  0.3883759E+04  0.7818609E-02  0.8028416E-01
       -1   -1    0    0    0  501  0.00000000000E+00  0.00000000000E+00  0.27923857188E+04  0.27923857188E+04  0.50400001928E-02 0.  1.
        1   -1    0    0  501    0  0.00000000000E+00  0.00000000000E+00 -0.13504208618E+04  0.13504208618E+04  0.50400001928E-02 0. -1.
    10030    2    1    2    0    0  0.00000000000E+00  0.00000000000E+00  0.14419648570E+04  0.41428065807E+04  0.38837589673E+04 0.  0.
        2    1    3    3  502    0 -0.10417664032E+04  0.30305465208E+03  0.24389251101E+04  0.26693585472E+04  0.25500000920E-02 0.  1.
       -2    1    3    3    0  502  0.10417664032E+04 -0.30305465208E+03 -0.99696025311E+03  0.14734480334E+04  0.25500000920E-02 0. -1.
</event>
<event>
 5   0  0.2384787E-07  0.3875187E+04  0.7818609E-02  0.8030210E-01
       -2   -1    0    0    0  501  0.00000000000E+00  0.00000000000E+00  0.26672395787E+04  0.26672395787E+04  0.25500000920E-02 0. -1.
        2   -1    0    0  501    0  0.00000000000E+00  0.00000000000E+00 -0.14075484830E+04  0.14075484830E+04  0.25500000920E-02 0.  1.
    10030    2    1    2    0    0  0.00000000000E+00  0.00000000000E+00  0.12596910957E+04  0.40747880617E+04  0.38751872330E+04 0.  0.
        4    1    3    3  502    0  0.15726834495E+04  0.10581844360E+04  0.10519964720E+04  0.21678989190E+04  0.12699999809E+01 0.  1.
       -4    1    3    3    0  502 -0.15726834495E+04 -0.10581844360E+04  0.20769462366E+03  0.19068891427E+04  0.12699999809E+01 0. -1.
</event>
<event>
 5   0  0.7675750E-08  0.3931108E+04  0.7818609E-02  0.8018590E-01
       -1   -1    0    0    0  501  0.00000000000E+00  0.00000000000E+00  0.19553913241E+04  0.19553913241E+04  0.50400001928E-02 0.  1.
        1   -1    0    0  501    0  0.00000000000E+00  0.00000000000E+00 -0.19757692933E+04  0.19757692933E+04  0.50400001928E-02 0. -1.
    10030    2    1    2    0    0  0.00000000000E+00  0.00000000000E+00 -0.20377969211E+02  0.39311606174E+04  0.39311078004E+04 0.  0.
        4    1    3    3  502    0  0.12628314651E+03  0.72131221597E+03 -0.18342644166E+04  0.19750357740E+04  0.12699999809E+01 0. -1.
       -4    1    3    3    0  502 -0.12628314651E+03 -0.72131221597E+03  0.18138864473E+04  0.19561248434E+04  0.12699999809E+01 0.  1.
</event>
<event>
 5   0  0.2384787E-07  0.3903929E+04  0.7818609E-02  0.8024212E-01
       -2   -1    0    0    0  501  0.00000000000E+00  0.00000000000E+00  0.16308155884E+04  0.16308155884E+04  0.25500000920E-02 0. -1.
        2   -1    0    0  501    0  0.00000000000E+00  0.00000000000E+00 -0.23363562895E+04  0.23363562895E+04  0.25500000920E-02 0.  1.
    10030    2    1    2    0    0  0.00000000000E+00  0.00000000000E+00 -0.70554070108E+03  0.39671718780E+04  0.39039294344E+04 0.  0.
        4    1    3    3  502    0 -0.14850050926E+04 -0.12557224930E+04 -0.18246807747E+03  0.19532985734E+04  0.12699999809E+01 0. -1.
       -4    1    3    3    0  502  0.14850050926E+04  0.12557224930E+04 -0.52307262361E+03  0.20138733046E+04  0.12699999809E+01 0.  1.
</event>
<event>
 5   0  0.2446281E-07  0.3886060E+04  0.7818609E-02  0.8027935E-01
       -2   -1    0    0    0  501  0.00000000000E+00  0.00000000000E+00  0.16497892221E+04  0.16497892221E+04  0.25500000920E-02 0. -1.
        2   -1    0    0  501    0  0.00000000000E+00  0.00000000000E+00 -0.22883928365E+04  0.22883928365E+04  0.25500000920E-02 0.  1.
    10030    2    1    2    0    0  0.00000000000E+00  0.00000000000E+00 -0.63860361443E+03  0.39381820586E+04  0.38860601321E+04 0.  0.
        1    1    3    3  502    0 -0.16402846307E+04 -0.48957061880E+03  0.61235054388E+03  0.18180171201E+04  0.50400001928E-02 0. -1.
       -1    1    3    3    0  502  0.16402846307E+04  0.48957061880E+03 -0.12509541583E+04  0.21201649385E+04  0.50400001928E-02 0.  1.
</event>
<event>
 5   0  0.2473224E-07  0.3917171E+04  0.7818609E-02  0.8021467E-01
       -2   -1    0    0    0  501  0.00000000000E+00  0.00000000000E+00  0.13938390508E+04  0.13938390508E+04  0.25500000920E-02 0.  1.
        2   -1    0    0  501    0  0.00000000000E+00  0.00000000000E+00 -0.27521517161E+04  0.27521517161E+04  0.25500000920E-02 0. -1.
    10030    2    1    2    0    0  0.00000000000E+00  0.00000000000E+00 -0.13583126652E+04  0.41459907669E+04  0.39171706808E+04 0.  0.
        2    1    3    3  502    0 -0.41957076102E+03 -0.13318716577E+04 -0.21327472455E+04  0.25492219498E+04  0.25500000920E-02 0. -1.
       -2    1    3    3    0  502  0.41957076102E+03  0.13318716577E+04  0.77443458029E+03  0.15967688171E+04  0.25500000920E-02 0.  1.
</event>
<event>
 5   0  0.7731706E-08  0.3837120E+04  0.7818609E-02  0.8038236E-01
        1   -1    0    0  501    0  0.00000000000E+00  0.00000000000E+00  0.20465726436E+04  0.20465726436E+04  0.50400001928E-02 0. -1.
       -1   -1    0    0    0  501  0.00000000000E+00  0.00000000000E+00 -0.17985541840E+04  0.17985541840E+04  0.50400001928E-02 0.  1.
    10030    2    1    2    0    0  0.00000000000E+00  0.00000000000E+00  0.24801845966E+03  0.38451268276E+04  0.38371196442E+04 0.  0.
        3    1    3    3  502    0  0.46071913010E+03  0.16928820111E+04  0.90200564888E+03  0.19727457568E+04  0.10100000352E+00 0. -1.
       -3    1    3    3    0  502 -0.46071913010E+03 -0.16928820111E+04 -0.65398718922E+03  0.18723810708E+04  0.10100000352E+00 0.  1.
</event>
<event>
 5   0  0.7675750E-08  0.3826597E+04  0.7818609E-02  0.8040471E-01
        1   -1    0    0  501    0  0.00000000000E+00  0.00000000000E+00  0.22728186134E+04  0.22728186134E+04  0.50400001928E-02 0. -1.
       -1   -1    0    0    0  501  0.00000000000E+00  0.00000000000E+00 -0.16106483545E+04  0.16106483545E+04  0.50400001928E-02 0.  1.
    10030    2    1    2    0    0  0.00000000000E+00  0.00000000000E+00  0.66217025890E+03  0.38834669678E+04  0.38265972140E+04 0.  0.
        1    1    3    3  502    0 -0.17182124737E+03  0.11835929037E+04 -0.11845274480E+04  0.16833062638E+04  0.50400001928E-02 0.  1.
       -1    1    3    3    0  502  0.17182124737E+03 -0.11835929037E+04  0.18466977069E+04  0.22001607040E+04  0.50400001928E-02 0. -1.
</event>
<event>
 5   0  0.7675750E-08  0.3873312E+04  0.7818609E-02  0.8030603E-01
       -1   -1    0    0    0  501  0.00000000000E+00  0.00000000000E+00  0.27209782234E+04  0.27209782234E+04  0.50400001928E-02 0. -1.
        1   -1    0    0  501    0  0.00000000000E+00  0.00000000000E+00 -0.13784146817E+04  0.13784146817E+04  0.50400001928E-02 0.  1.
    10030    2    1    2    0    0  0.00000000000E+00  0.00000000000E+00  0.13425635417E+04  0.40993929051E+04  0.38733119325E+04 0.  0.
        2    1    3    3  502    0 -0.23745054965E+03  0.19951568106E+03 -0.13519605879E+04  0.13870784772E+04  0.25500000920E-02 0.  1.
       -2    1    3    3    0  502  0.23745054965E+03 -0.19951568106E+03  0.26945241297E+04  0.27123144279E+04  0.25500000920E-02 0. -1.
</event>
<event>
 5   0  0.2473224E-07  0.3625814E+04  0.7818609E-02  0.8084604E-01
        2   -1    0    0  501    0  0.00000000000E+00  0.00000000000E+00  0.16717452740E+04  0.16717452740E+04  0.25500000920E-02 0. -1.
       -2   -1    0    0    0  501  0.00000000000E+00  0.00000000000E+00 -0.19659881998E+04  0.19659881998E+04  0.25500000920E-02 0.  1.
    10030    2    1    2    0    0  0.00000000000E+00  0.00000000000E+00 -0.29424292582E+03  0.36377334738E+04  0.36258138296E+04 0.  0.
        2    1    3    3  502    0  0.17294537461E+04  0.11591210780E+03  0.38583631305E+03  0.17757577361E+04  0.25500000920E-02 0. -1.
       -2    1    3    3    0  502 -0.17294537461E+04 -0.11591210780E+03 -0.68007923888E+03  0.18619757377E+04  0.25500000920E-02 0.  1.
</event>
<event>
 5   0  0.2486268E-07  0.3395167E+04  0.7818609E-02  0.8139094E-01
       -2   -1    0    0    0  501  0.00000000000E+00  0.00000000000E+00  0.20024440949E+04  0.20024440949E+04  0.25500000920E-02 0.  1.
        2   -1    0    0  501    0  0.00000000000E+00  0.00000000000E+00 -0.14391359909E+04  0.14391359909E+04  0.25500000920E-02 0. -1.
    10030    2    1    2    0    0  0.00000000000E+00  0.00000000000E+00  0.56330810393E+03  0.34415800858E+04  0.33951667805E+04 0.  0.
        5    1    3    3  502    0 -0.12110269619E+04 -0.10256286217E+04  0.89260969971E+03  0.18207895370E+04  0.46999998093E+01 0. -1.
       -5    1    3    3    0  502  0.12110269619E+04  0.10256286217E+04 -0.32930159578E+03  0.16207905488E+04  0.46999998093E+01 0.  1.
</event>
<event>
 5   0  0.7675750E-08  0.3937247E+04  0.7818609E-02  0.8017327E-01
        1   -1    0    0  501    0  0.00000000000E+00  0.00000000000E+00  0.26883878133E+04  0.26883878133E+04  0.50400001928E-02 0.  1.
       -1   -1    0    0    0  501  0.00000000000E+00  0.00000000000E+00 -0.14415622091E+04  0.14415622092E+04  0.50400001928E-02 0. -1.
    10030    2    1    2    0    0  0.00000000000E+00  0.00000000000E+00  0.12468256041E+04  0.41299500224E+04  0.39372468935E+04 0.  0.
        1    1    3    3  502    0  0.15565842154E+04  0.36830380317E+02 -0.64019093229E+03  0.16834949737E+04  0.50400001928E-02 0. -1.
       -1    1    3    3    0  502 -0.15565842154E+04 -0.36830380317E+02  0.18870165364E+04  0.24464550487E+04  0.50400001928E-02 0.  1.
</event>
<event>
 5   0  0.2446281E-07  0.3911919E+04  0.7818609E-02  0.8022555E-01
        2   -1    0    0  501    0  0.00000000000E+00  0.00000000000E+00  0.20142676974E+04  0.20142676974E+04  0.25500000920E-02 0. -1.
       -2   -1    0    0    0  501  0.00000000000E+00  0.00000000000E+00 -0.18993394750E+04  0.18993394750E+04  0.25500000920E-02 0.  1.
    10030    2    1    2    0    0  0.00000000000E+00  0.00000000000E+00  0.11492822240E+03  0.39136071724E+04  0.39119192992E+04 0.  0.
        1    1    3    3  502    0  0.40900079504E+03 -0.11514740001E+04  0.15854096128E+04  0.20016737156E+04  0.50400001928E-02 0. -1.
       -1    1    3    3    0  502 -0.40900079504E+03  0.11514740001E+04 -0.14704813904E+04  0.19119334567E+04  0.50400001928E-02 0.  1.
</event>
<event>
 5   0  0.7675750E-08  0.3880166E+04  0.7818609E-02  0.8029167E-01
       -1   -1    0    0    0  501  0.00000000000E+00  0.00000000000E+00  0.28748838185E+04  0.28748838185E+04  0.50400001928E-02 0. -1.
        1   -1    0    0  501    0  0.00000000000E+00  0.00000000000E+00 -0.13092428490E+04  0.13092428490E+04  0.50400001928E-02 0.  1.
    10030    2    1    2    0    0  0.00000000000E+00  0.00000000000E+00  0.15656409695E+04  0.41841266675E+04  0.38801655021E+04 0.  0.
        1    1    3    3  502    0  0.14739083061E+04 -0.52676928433E+03  0.20189305203E+04  0.25545982110E+04  0.50400001928E-02 0. -1.
       -1    1    3    3    0  502 -0.14739083061E+04  0.52676928433E+03 -0.45328955077E+03  0.16295284565E+04  0.50400001928E-02 0.  1.
</event>
<event>
 5   0  0.2486268E-07  0.3879522E+04  0.7818609E-02  0.8029302E-01
        2   -1    0    0  501    0  0.00000000000E+00  0.00000000000E+00  0.16982516709E+04  0.16982516709E+04  0.25500000920E-02 0.  1.
       -2   -1    0    0    0  501  0.00000000000E+00  0.00000000000E+00 -0.22156156617E+04  0.22156156617E+04  0.25500000920E-02 0. -1.
    10030    2    1    2    0    0  0.00000000000E+00  0.00000000000E+00 -0.51736399081E+03  0.39138673327E+04  0.38795221354E+04 0.  0.
        5    1    3    3  502    0 -0.10797301683E+04  0.14258002895E+04 -0.10162809915E+04  0.20570787164E+04  0.46999998093E+01 0. -1.
       -5    1    3    3    0  502  0.10797301683E+04 -0.14258002895E+04  0.49891700066E+03  0.18567886163E+04  0.46999998093E+01 0.  1.
</event>
<event>
 5   0  0.2384787E-07  0.3831881E+04  0.7818609E-02  0.8039348E-01
        2   -1    0    0  501    0  0.00000000000E+00  0.00000000000E+00  0.26321432127E+04  0.26321432127E+04  0.25500000920E-02 0. -1.
       -2   -1    0    0    0  501  0.00000000000E+00  0.00000000000E+00 -0.13946157209E+04  0.13946157209E+04  0.25500000920E-02 0.  1.
    10030    2    1    2    0    0  0.00000000000E+00  0.00000000000E+00  0.12375274918E+04  0.40267589335E+04  0.38318811589E+04 0.  0.
        4    1    3    3  502    0 -0.15044404208E+04  0.25045567165E+03 -0.59984871316E+03  0.16388682420E+04  0.12699999809E+01 0.  1.
       -4    1    3    3    0  502  0.15044404208E+04 -0.25045567165E+03  0.18373762050E+04  0.23878906915E+04  0.12699999809E+01 0. -1.
</event>
<event>
 5   0  0.2486268E-07  0.3856659E+04  0.7818609E-02  0.8034104E-01
       -2   -1    0    0    0  501  0.00000000000E+00  0.00000000000E+00  0.28103161528E+04  0.28103161528E+04  0.25500000920E-02 0.  1.
        2   -1    0    0  501    0  0.00000000000E+00  0.00000000000E+00 -0.13231445640E+04  0.13231445640E+04  0.25500000920E-02 0. -1.
    10030    2    1    2    0    0  0.00000000000E+00  0.00000000000E+00  0.14871715887E+04  0.41334607168E+04  0.38566589379E+04 0.  0.
        5    1    3    3  502    0  0.13189114635E+04  0.10193793492E+04  0.17825809945E+04  0.24405488723E+04  0.46999998093E+01 0.  1.
       -5    1    3    3    0  502 -0.13189114635E+04 -0.10193793492E+04 -0.29540940571E+03  0.16929118445E+04  0.46999998093E+01 0. -1.
</event>
<event>
 5   0  0.2486268E-07  0.3849685E+04  0.7818609E-02  0.8035576E-01
        2   -1    0    0  501    0  0.00000000000E+00  0.00000000000E+00  0.18556478758E+04  0.18556478758E+04  0.25500000920E-02 0. -1.
       -2   -1    0    0    0  501  0.00000000000E+00  0.00000000000E+00 -0.19966172380E+04  0.19966172380E+04  0.25500000920E-02 0.  1.
    10030    2    1    2    0    0  0.00000000000E+00  0.00000000000E+00 -0.14096936216E+03  0.38522651138E+04  0.38496849411E+04 0.  0.
        5    1    3    3  502    0 -0.90693843178E+03  0.12913656602E+04  0.10324490613E+04  0.18857719219E+04  0.46999998093E+01 0. -1.
       -5    1    3    3    0  502  0.90693843178E+03 -0.12913656602E+04 -0.11734184235E+04  0.19664931919E+04  0.46999998093E+01 0.  1.
</event>
<event>
 5   0  0.7675750E-08  0.3800145E+04  0.7818609E-02  0.8046124E-01
       -1   -1    0    0    0  501  0.00000000000E+00  0.00000000000E+00  0.29605790758E+04  0.29605790758E+04  0.50400001928E-02 0. -1.
        1   -1    0    0  501    0  0.00000000000E+00  0.00000000000E+00 -0.12194488120E+04  0.12194488120E+04  0.50400001928E-02 0.  1.
    10030    2    1    2    0    0  0.00000000000E+00  0.00000000000E+00  0.17411302638E+04  0.41800278878E+04  0.38001445429E+04 0.  0.
        2    1    3    3  502    0 -0.71189547499E+03 -0.98718044460E+03  0.24755177913E+04  0.27585338013E+04  0.25500000920E-02 0. -1.
       -2    1    3    3    0  502  0.71189547499E+03  0.98718044460E+03 -0.73438752751E+03  0.14214940865E+04  0.25500000920E-02 0.  1.
</event>
<event>
 5   0  0.2446281E-07  0.3837773E+04  0.7818609E-02  0.8038097E-01
       -2   -1    0    0    0  501  0.00000000000E+00  0.00000000000E+00  0.11138273837E+04  0.11138273837E+04  0.25500000920E-02 0. -1.
        2   -1    0    0  501    0  0.00000000000E+00  0.00000000000E+00 -0.33058308167E+04  0.33058308167E+04  0.25500000920E-02 0.  1.
    10030    2    1    2    0    0  0.00000000000E+00  0.00000000000E+00 -0.21920034330E+04  0.44196582004E+04  0.38377727340E+04 0.  0.
        1    1    3    3  502    0  0.69551204135E+02  0.11942508063E+04  0.63183319929E+03  0.13528804640E+04  0.50400001928E-02 0. -1.
       -1    1    3    3    0  502 -0.69551204135E+02 -0.11942508063E+04 -0.28238366323E+04  0.30667777363E+04  0.50400001928E-02 0.  1.
</event>
<event>
 5   0  0.7675750E-08  0.3932942E+04  0.7818609E-02  0.8018213E-01
        1   -1    0    0  501    0  0.00000000000E+00  0.00000000000E+00  0.21270904093E+04  0.21270904093E+04  0.50400001928E-02 0. -1.
       -1   -1    0    0    0  501  0.00000000000E+00  0.00000000000E+00 -0.18179798556E+04  0.18179798556E+04  0.50400001928E-02 0.  1.
    10030    2    1    2    0    0  0.00000000000E+00  0.00000000000E+00  0.30911055370E+03  0.39450702649E+04  0.39329416548E+04 0.  0.
        2    1    3    3  502    0  0.49689466957E+03  0.78612076274E+03  0.18925604755E+04  0.21087141389E+04  0.25500000920E-02 0. -1.
       -2    1    3    3    0  502 -0.49689466957E+03 -0.78612076274E+03 -0.15834499218E+04  0.18363561259E+04  0.25500000920E-02 0.  1.
</event>
<event>
 5   0  0.2384787E-07  0.4009761E+04  0.7818609E-02  0.8002580E-01
       -2   -1    0    0    0  501  0.00000000000E+00  0.00000000000E+00  0.29686237391E+04  0.29686237391E+04  0.25500000920E-02 0.  1.
        2   -1    0    0  501    0  0.00000000000E+00  0.00000000000E+00 -0.13540101921E+04  0.13540101921E+04  0.25500000920E-02 0. -1.
    10030    2    1    2    0    0  0.00000000000E+00  0.00000000000E+00  0.16146135470E+04  0.43226339312E+04  0.40097614888E+04 0.  0.
        4    1    3    3  502    0  0.67699803671E+02  0.21042282300E+03 -0.13408332627E+04  0.13589321098E+04  0.12699999809E+01 0. -1.
       -4    1    3    3    0  502 -0.67699803671E+02 -0.21042282300E+03  0.29554468097E+04  0.29637018213E+04  0.12699999809E+01 0.  1.
</event>
<event>
 5   0  0.7731706E-08  0.3959736E+04  0.7818609E-02  0.8012719E-01
        1   -1    0    0  501    0  0.00000000000E+00  0.00000000000E+00  0.23806464109E+04  0.23806464109E+04  0.50400001928E-02 0.  1.
       -1   -1    0    0    0  501  0.00000000000E+00  0.00000000000E+00 -0.16465603702E+04  0.16465603702E+04  0.50400001928E-02 0. -1.
    10030    2    1    2    0    0  0.00000000000E+00  0.00000000000E+00  0.73408604070E+03  0.40272067812E+04  0.39597363729E+04 0.  0.
        3    1    3    3  502    0  0.12918513477E+04  0.59940913757E+03  0.17658718352E+04  0.22685842649E+04  0.10100000352E+00 0.  1.
       -3    1    3    3    0  502 -0.12918513477E+04 -0.59940913757E+03 -0.10317857945E+04  0.17586225162E+04  0.10100000352E+00 0. -1.
</event>
<event>
 5   0  0.2395572E-07  0.3933744E+04  0.7818609E-02  0.8018047E-01
        2   -1    0    0  501    0  0.00000000000E+00  0.00000000000E+00  0.14524091103E+04  0.14524091103E+04  0.25500000920E-02 0.  1.
       -2   -1    0    0    0  501  0.00000000000E+00  0.00000000000E+00 -0.26635650451E+04  0.26635650451E+04  0.25500000920E-02 0. -1.
    10030    2    1    2    0    0  0.00000000000E+00  0.00000000000E+00 -0.12111559348E+04  0.41159741554E+04  0.39337443422E+04 0.  0.
        3    1    3    3  502    0 -0.26615628419E+03 -0.26746407130E+03  0.14141838940E+04  0.14636571639E+04  0.10100000352E+00 0.  1.
       -3    1    3    3    0  502  0.26615628419E+03  0.26746407130E+03 -0.26253398288E+04  0.26523169916E+04  0.10100000352E+00 0. -1.
</event>
<event>
 5   0  0.7675750E-08  0.3888753E+04  0.7818609E-02  0.8027372E-01
        1   -1    0    0  501    0  0.00000000000E+00  0.00000000000E+00  0.15665077490E+04  0.15665077490E+04  0.50400001928E-02 0.  1.
       -1   -1    0    0    0  501  0.00000000000E+00  0.00000000000E+00 -0.24133935131E+04  0.24133935131E+04  0.50400001928E-02 0. -1.
    10030    2    1    2    0    0  0.00000000000E+00  0.00000000000E+00 -0.84688576412E+03  0.39799012622E+04  0.38887528282E+04 0.  0.
        4    1    3    3  502    0 -0.11128611128E+04 -0.15943427203E+04 -0.43825487395E+03  0.19931024844E+04  0.12699999809E+01 0. -1.
       -4    1    3    3    0  502  0.11128611128E+04  0.15943427203E+04 -0.40863089017E+03  0.19867987778E+04  0.12699999809E+01 0.  1.
</event>
<event>
 5   0  0.2446281E-07  0.3886797E+04  0.7818609E-02  0.8027781E-01
       -2   -1    0    0    0  501  0.00000000000E+00  0.00000000000E+00  0.12385134979E+04  0.12385134979E+04  0.25500000920E-02 0. -1.
        2   -1    0    0  501    0  0.00000000000E+00  0.00000000000E+00 -0.30494600134E+04  0.30494600134E+04  0.25500000920E-02 0.  1.
    10030    2    1    2    0    0  0.00000000000E+00  0.00000000000E+00 -0.18109465155E+04  0.42879735113E+04  0.38867968241E+04 0.  0.
        1    1    3    3  502    0 -0.88607661456E+03  0.49922823724E+03 -0.27324312757E+04  0.29155687740E+04  0.50400001928E-02 0.  1.
       -1    1    3    3    0  502  0.88607661456E+03 -0.49922823724E+03  0.92148476015E+03  0.13724047373E+04  0.50400001928E-02 0. -1.
</event>
<event>
 5   0  0.7675750E-08  0.3896654E+04  0.7818609E-02  0.8025725E-01
        1   -1    0    0  501    0  0.00000000000E+00  0.00000000000E+00  0.14520466939E+04  0.14520466939E+04  0.50400001928E-02 0.  1.
       -1   -1    0    0    0  501  0.00000000000E+00  0.00000000000E+00 -0.26142264934E+04  0.26142264934E+04  0.50400001928E-02 0. -1.
    10030    2    1    2    0    0  0.00000000000E+00  0.00000000000E+00 -0.11621797995E+04  0.40662731873E+04  0.38966544301E+04 0.  0.
        5    1    3    3  502    0 -0.68726091049E+03  0.17835144517E+04 -0.97529750433E+03  0.21458049004E+04  0.46999998093E+01 0. -1.
       -5    1    3    3    0  502  0.68726091049E+03 -0.17835144517E+04 -0.18688229517E+03  0.19204682869E+04  0.46999998093E+01 0.  1.
</event>
<event>
 5   0  0.7675750E-08  0.3884676E+04  0.7818609E-02  0.8028224E-01
       -1   -1    0    0    0  501  0.00000000000E+00  0.00000000000E+00  0.14489932011E+04  0.14489932011E+04  0.50400001928E-02 0.  1.
        1   -1    0    0  501    0  0.00000000000E+00  0.00000000000E+00 -0.26036541588E+04  0.26036541588E+04  0.50400001928E-02 0. -1.
    10030    2    1    2    0    0  0.00000000000E+00  0.00000000000E+00 -0.11546609577E+04  0.40526473598E+04  0.38846761378E+04 0.  0.
        4    1    3    3  502    0 -0.22338380853E+03  0.13266616457E+04  0.88422679673E+03  0.16099037515E+04  0.12699999809E+01 0.  1.
       -4    1    3    3    0  502  0.22338380853E+03 -0.13266616457E+04 -0.20388877544E+04  0.24427436084E+04  0.12699999809E+01 0. -1.
</event>
<event>
 5   0  0.2395572E-07  0.3841965E+04  0.7818609E-02  0.8037209E-01
       -2   -1    0    0    0  501  0.00000000000E+00  0.00000000000E+00  0.30184308540E+04  0.30184308540E+04  0.25500000920E-02 0. -1.
        2   -1    0    0  501    0  0.00000000000E+00  0.00000000000E+00 -0.12225473422E+04  0.12225473422E+04  0.25500000920E-02 0.  1.
    10030    2    1    2    0    0  0.00000000000E+00  0.00000000000E+00  0.17958835118E+04  0.42409781962E+04  0.38419654440E+04 0.  0.
        3    1    3    3  502    0  0.70536037458E+03 -0.15449892981E+04 -0.92857414664E+02  0.17009255419E+04  0.10100000352E+00 0.  1.
       -3    1    3    3    0  502 -0.70536037458E+03  0.15449892981E+04  0.18887409265E+04  0.25400526544E+04  0.10100000352E+00 0. -1.
</event>
<event>
 5   0  0.7675750E-08  0.3900654E+04  0.7818609E-02  0.8024893E-01
        3   -1    0    0  501    0  0.00000000000E+00  0.00000000000E+00  0.26983522940E+04  0.26983522959E+04  0.10100000352E+00 0.  1.
       -3   -1    0    0    0  501  0.00000000000E+00  0.00000000000E+00 -0.14096658820E+04  0.14096658856E+04  0.10100000352E+00 0. -1.
    10030    2    1    2    0    0  0.00000000000E+00  0.00000000000E+00  0.12886864120E+04  0.41080181815E+04  0.39006538825E+04 0.  0.
        1    1    3    3  502    0 -0.94032805607E+03 -0.16306743427E+04  0.11818266028E+04  0.22226177774E+04  0.50400001928E-02 0.  1.
       -1    1    3    3    0  502  0.94032805607E+03  0.16306743427E+04  0.10685980923E+03  0.18854004041E+04  0.50400001928E-02 0. -1.
</event>
<event>
 5   0  0.7731706E-08  0.3856983E+04  0.7818609E-02  0.8034036E-01
        1   -1    0    0  501    0  0.00000000000E+00  0.00000000000E+00  0.17174844601E+04  0.17174844601E+04  0.50400001928E-02 0.  1.
       -1   -1    0    0    0  501  0.00000000000E+00  0.00000000000E+00 -0.21654226580E+04  0.21654226580E+04  0.50400001928E-02 0. -1.
    10030    2    1    2    0    0  0.00000000000E+00  0.00000000000E+00 -0.44793819790E+03  0.38829071180E+04  0.38569831550E+04 0.  0.
        3    1    3    3  502    0  0.17334585919E+04  0.31182530672E+03 -0.10147203553E+04  0.20326758525E+04  0.10100000352E+00 0. -1.
       -3    1    3    3    0  502 -0.17334585919E+04 -0.31182530672E+03  0.56678215745E+03  0.18502312655E+04  0.10100000352E+00 0.  1.
</event>
<event>
 5   0  0.7675750E-08  0.3885556E+04  0.7818609E-02  0.8028040E-01
       -1   -1    0    0    0  501  0.00000000000E+00  0.00000000000E+00  0.15052817386E+04  0.15052817386E+04  0.50400001928E-02 0.  1.
        1   -1    0    0  501    0  0.00000000000E+00  0.00000000000E+00 -0.25074283747E+04  0.25074283747E+04  0.50400001928E-02 0. -1.
    10030    2    1    2    0    0  0.00000000000E+00  0.00000000000E+00 -0.10021466361E+04  0.40127101133E+04  0.38855558898E+04 0.  0.
        2    1    3    3  502    0 -0.14451090548E+04  0.73550560404E+03 -0.16061745449E+04  0.22823464554E+04  0.25500000920E-02 0. -1.
       -2    1    3    3    0  502  0.14451090548E+04 -0.73550560404E+03  0.60402790878E+03  0.17303636579E+04  0.25500000920E-02 0.  1.
</event>
<event>
 5   0  0.2473224E-07  0.3895150E+04  0.7818609E-02  0.8026039E-01
       -2   -1    0    0    0  501  0.00000000000E+00  0.00000000000E+00  0.14091855635E+04  0.14091855635E+04  0.25500000920E-02 0. -1.
        2   -1    0    0  501    0  0.00000000000E+00  0.00000000000E+00 -0.26916600184E+04  0.26916600184E+04  0.25500000920E-02 0.  1.
    10030    2    1    2    0    0  0.00000000000E+00  0.00000000000E+00 -0.12824744549E+04  0.41008455818E+04  0.38951500303E+04 0.  0.
        2    1    3    3  502    0 -0.10699897239E+04 -0.13427951982E+04 -0.16090602528E+04  0.23530941015E+04  0.25500000920E-02 0.  1.
       -2    1    3    3    0  502  0.10699897239E+04  0.13427951982E+04  0.32658579785E+03  0.17477514803E+04  0.25500000920E-02 0. -1.
</event>
<event>
 5   0  0.7675750E-08  0.3892717E+04  0.7818609E-02  0.8026546E-01
       -1   -1    0    0    0  501  0.00000000000E+00  0.00000000000E+00  0.13167066959E+04  0.13167066959E+04  0.50400001928E-02 0. -1.
        1   -1    0    0  501    0  0.00000000000E+00  0.00000000000E+00 -0.28771118034E+04  0.28771118034E+04  0.50400001928E-02 0.  1.
    10030    2    1    2    0    0  0.00000000000E+00  0.00000000000E+00 -0.15604051075E+04  0.41938184993E+04  0.38927174962E+04 0.  0.
        4    1    3    3  502    0  0.12519676738E+04  0.12290618897E+04 -0.16881819504E+04  0.24347435380E+04  0.12699999809E+01 0.  1.
       -4    1    3    3    0  502 -0.12519676738E+04 -0.12290618897E+04  0.12777684289E+03  0.17590749613E+04  0.12699999809E+01 0. -1.
</event>
<event>
 5   0  0.7675750E-08  0.3887563E+04  0.7818609E-02  0.8027621E-01
       -1   -1    0    0    0  501  0.00000000000E+00  0.00000000000E+00  0.25577234801E+04  0.25577234801E+04  0.50400001928E-02 0.  1.
        1   -1    0    0  501    0  0.00000000000E+00  0.00000000000E+00 -0.14772066732E+04  0.14772066732E+04  0.50400001928E-02 0. -1.
    10030    2    1    2    0    0  0.00000000000E+00  0.00000000000E+00  0.10805168069E+04  0.40349301534E+04  0.38875628320E+04 0.  0.
        2    1    3    3  502    0 -0.62874609131E+03 -0.89371619898E+03  0.22087525131E+04  0.24642722974E+04  0.25500000920E-02 0.  1.
       -2    1    3    3    0  502  0.62874609131E+03  0.89371619898E+03 -0.11282357062E+04  0.15706578559E+04  0.25500000920E-02 0. -1.
</event>
<event>
 5   0  0.7731706E-08  0.3914774E+04  0.7818609E-02  0.8021963E-01
        1   -1    0    0  501    0  0.00000000000E+00  0.00000000000E+00  0.15536724240E+04  0.15536724240E+04  0.50400001928E-02 0. -1.
       -1   -1    0    0    0  501  0.00000000000E+00  0.00000000000E+00 -0.24660052898E+04  0.24660052898E+04  0.50400001928E-02 0.  1.
    10030    2    1    2    0    0  0.00000000000E+00  0.00000000000E+00 -0.91233286581E+03  0.40196777138E+04  0.39147742802E+04 0.  0.
        3    1    3    3  502    0  0.26087427481E+02 -0.11524769181E+04  0.11681471842E+04  0.16411738039E+04  0.10100000352E+00 0. -1.
       -3    1    3    3    0  502 -0.26087427481E+02  0.11524769181E+04 -0.20804800500E+04  0.23785039099E+04  0.10100000352E+00 0.  1.
</event>
<event>
 5   0  0.2446281E-07  0.3905135E+04  0.7818609E-02  0.8023962E-01
        2   -1    0    0  501    0  0.00000000000E+00  0.00000000000E+00  0.25842196767E+04  0.25842196767E+04  0.25500000920E-02 0.  1.
       -2   -1    0    0    0  501  0.00000000000E+00  0.00000000000E+00 -0.14753081391E+04  0.14753081391E+04  0.25500000920E-02 0. -1.
    10030    2    1    2    0    0  0.00000000000E+00  0.00000000000E+00  0.11089115377E+04  0.40595278158E+04  0.39051352459E+04 0.  0.
        1    1    3    3  502    0  0.17743679318E+04 -0.38044957575E+03 -0.19472929877E+03  0.18251144996E+04  0.50400001928E-02 0.  1.
       -1    1    3    3    0  502 -0.17743679318E+04  0.38044957575E+03  0.13036408364E+04  0.22344133162E+04  0.50400001928E-02 0. -1.
</event>
<event>
 5   0  0.2384787E-07  0.4184957E+04  0.7818609E-02  0.7968240E-01
       -2   -1    0    0    0  501  0.00000000000E+00  0.00000000000E+00  0.19446394537E+04  0.19446394537E+04  0.25500000920E-02 0.  1.
        2   -1    0    0  501    0  0.00000000000E+00  0.00000000000E+00 -0.22515571724E+04  0.22515571724E+04  0.25500000920E-02 0. -1.
    10030    2    1    2    0    0  0.00000000000E+00  0.00000000000E+00 -0.30691771865E+03  0.41961966261E+04  0.41849573043E+04 0.  0.
        4    1    3    3  502    0  0.16726748530E+04 -0.15106967626E+03 -0.14049302883E+04  0.21896332887E+04  0.12699999809E+01 0. -1.
       -4    1    3    3    0  502 -0.16726748530E+04  0.15106967626E+03  0.10980125697E+04  0.20065633374E+04  0.12699999809E+01 0.  1.
</event>
<event>
 5   0  0.7731706E-08  0.3908185E+04  0.7818609E-02  0.8023329E-01
        1   -1    0    0  501    0  0.00000000000E+00  0.00000000000E+00  0.17029538203E+04  0.17029538203E+04  0.50400001928E-02 0. -1.
       -1   -1    0    0    0  501  0.00000000000E+00  0.00000000000E+00 -0.22422674220E+04  0.22422674220E+04  0.50400001928E-02 0.  1.
    10030    2    1    2    0    0  0.00000000000E+00  0.00000000000E+00 -0.53931360162E+03  0.39452212423E+04  0.39081851914E+04 0.  0.
        3    1    3    3  502    0 -0.12067809961E+04  0.92762370720E+02  0.12790107029E+04  0.17609070441E+04  0.10100000352E+00 0. -1.
       -3    1    3    3    0  502  0.12067809961E+04 -0.92762370720E+02 -0.18183243045E+04  0.21843141982E+04  0.10100000352E+00 0.  1.
</event>
<event>
 5   0  0.2446281E-07  0.3881659E+04  0.7818609E-02  0.8028855E-01
        2   -1    0    0  501    0  0.00000000000E+00  0.00000000000E+00  0.13075087023E+04  0.13075087023E+04  0.25500000920E-02 0.  1.
       -2   -1    0    0    0  501  0.00000000000E+00  0.00000000000E+00 -0.28809139158E+04  0.28809139158E+04  0.25500000920E-02 0. -1.
    10030    2    1    2    0    0  0.00000000000E+00  0.00000000000E+00 -0.15734052134E+04  0.41884226181E+04  0.38816594470E+04 0.  0.
        1    1    3    3  502    0  0.71234543568E+03 -0.45265343808E+03  0.10991265177E+04  0.13857886768E+04  0.50400001928E-02 0.  1.
       -1    1    3    3    0  502 -0.71234543568E+03  0.45265343808E+03 -0.26725317312E+04  0.28026339413E+04  0.50400001928E-02 0. -1.
</event>
<event>
 5   0  0.2384787E-07  0.3866424E+04  0.7818609E-02  0.8032049E-01
        2   -1    0    0  501    0  0.00000000000E+00  0.00000000000E+00  0.21937798877E+04  0.21937798877E+04  0.25500000920E-02 0.  1.
       -2   -1    0    0    0  501  0.00000000000E+00  0.00000000000E+00 -0.17035934648E+04  0.17035934648E+04  0.25500000920E-02 0. -1.
    10030    2    1    2    0    0  0.00000000000E+00  0.00000000000E+00  0.49018642285E+03  0.38973733525E+04  0.38664242291E+04 0.  0.
        4    1    3    3  502    0  0.26957563624E+03  0.15631737263E+04 -0.86879716681E+03  0.18085887460E+04  0.12699999809E+01 0. -1.
       -4    1    3    3    0  502 -0.26957563624E+03 -0.15631737263E+04  0.13589835897E+04  0.20887846065E+04  0.12699999809E+01 0.  1.
</event>
<event>
 5   0  0.2486268E-07  0.3896211E+04  0.7818609E-02  0.8025818E-01
        2   -1    0    0  501    0  0.00000000000E+00  0.00000000000E+00  0.21329664068E+04  0.21329664068E+04  0.25500000920E-02 0. -1.
       -2   -1    0    0    0  501  0.00000000000E+00  0.00000000000E+00 -0.17792666236E+04  0.17792666236E+04  0.25500000920E-02 0.  1.
    10030    2    1    2    0    0  0.00000000000E+00  0.00000000000E+00  0.35369978317E+03  0.39122330304E+04  0.38962114608E+04 0.  0.
        5    1    3    3  502    0  0.13933925503E+04 -0.48058920202E+03 -0.11021954292E+04  0.18404797295E+04  0.46999998093E+01 0.  1.
       -5    1    3    3    0  502 -0.13933925503E+04  0.48058920202E+03  0.14558952124E+04  0.20717533009E+04  0.46999998093E+01 0. -1.
</event>
<event>
 5   0  0.2446281E-07  0.3900231E+04  0.7818609E-02  0.8024981E-01
       -2   -1    0    0    0  501  0.00000000000E+00  0.00000000000E+00  0.13140571345E+04  0.13140571345E+04  0.25500000920E-02 0.  1.
        2   -1    0    0  501    0  0.00000000000E+00  0.00000000000E+00 -0.28940526074E+04  0.28940526074E+04  0.25500000920E-02 0. -1.
    10030    2    1    2    0    0  0.00000000000E+00  0.00000000000E+00 -0.15799954729E+04  0.42081097418E+04  0.39002310066E+04 0.  0.
        1    1    3    3  502    0  0.14739794601E+04 -0.83107661787E+03 -0.18358708989E+04  0.24967430286E+04  0.50400001928E-02 0. -1.
       -1    1    3    3    0  502 -0.14739794601E+04  0.83107661787E+03  0.25587542596E+03  0.17113667132E+04  0.50400001928E-02 0.  1.
</event>
<event>
 5   0  0.2486268E-07  0.3889248E+04  0.7818609E-02  0.8027269E-01
       -2   -1    0    0    0  501  0.00000000000E+00  0.00000000000E+00  0.21799877101E+04  0.21799877101E+04  0.25500000920E-02 0. -1.
        2   -1    0    0  501    0  0.00000000000E+00  0.00000000000E+00 -0.17346711781E+04  0.17346711781E+04  0.25500000920E-02 0.  1.
    10030    2    1    2    0    0  0.00000000000E+00  0.00000000000E+00  0.44531653200E+03  0.39146588881E+04  0.38892476646E+04 0.  0.
        5    1    3    3  502    0  0.60498756096E+03  0.13552475202E+04  0.14873845846E+04  0.21011998436E+04  0.46999998093E+01 0. -1.
       -5    1    3    3    0  502 -0.60498756096E+03 -0.13552475202E+04 -0.10420680526E+04  0.18134590446E+04  0.46999998093E+01 0.  1.
</event>
<event>
 5   0  0.2446281E-07  0.3822984E+04  0.7818609E-02  0.8041241E-01
        2   -1    0    0  501    0  0.00000000000E+00  0.00000000000E+00  0.20003547706E+04  0.20003547706E+04  0.25500000920E-02 0.  1.
       -2   -1    0    0    0  501  0.00000000000E+00  0.00000000000E+00 -0.18265764294E+04  0.18265764294E+04  0.25500000920E-02 0. -1.
    10030    2    1    2    0    0  0.00000000000E+00  0.00000000000E+00  0.17377834124E+03  0.38269312000E+04  0.38229835858E+04 0.  0.
        1    1    3    3  502    0 -0.14363385915E+04 -0.79802585000E+02  0.13469040876E+04  0.19706820198E+04  0.50400001928E-02 0.  1.
       -1    1    3    3    0  502  0.14363385915E+04  0.79802585000E+02 -0.11731257463E+04  0.18562491802E+04  0.50400001928E-02 0. -1.
</event>
<event>
 5   0  0.7675750E-08  0.3917614E+04  0.7818609E-02  0.8021376E-01
        1   -1    0    0  501    0  0.00000000000E+00  0.00000000000E+00  0.26806815105E+04  0.26806815105E+04  0.50400001928E-02 0.  1.
       -1   -1    0    0    0  501  0.00000000000E+00  0.00000000000E+00 -0.14313241361E+04  0.14313241361E+04  0.50400001928E-02 0. -1.
    10030    2    1    2    0    0  0.00000000000E+00  0.00000000000E+00  0.12493573744E+04  0.41120056466E+04  0.39176136344E+04 0.  0.
        4    1    3    3  502    0 -0.13686645078E+04  0.14011875942E+04  0.64440833942E+03  0.20619973157E+04  0.12699999809E+01 0. -1.
       -4    1    3    3    0  502  0.13686645078E+04 -0.14011875942E+04  0.60494903498E+03  0.20500083309E+04  0.12699999809E+01 0.  1.
</event>
<event>
 5   0  0.7731706E-08  0.3902098E+04  0.7818609E-02  0.8024593E-01
       -1   -1    0    0    0  501  0.00000000000E+00  0.00000000000E+00  0.14457277477E+04  0.14457277477E+04  0.50400001928E-02 0. -1.
        1   -1    0    0  501    0  0.00000000000E+00  0.00000000000E+00 -0.26329936478E+04  0.26329936479E+04  0.50400001928E-02 0.  1.
    10030    2    1    2    0    0  0.00000000000E+00  0.00000000000E+00 -0.11872659001E+04  0.40787213956E+04  0.39020978851E+04 0.  0.
        3    1    3    3  502    0 -0.16180820910E+04 -0.59257971278E+02 -0.17314306363E+04  0.23705596847E+04  0.10100000352E+00 0.  1.
       -3    1    3    3    0  502  0.16180820910E+04  0.59257971278E+02  0.54416473615E+03  0.17081617109E+04  0.10100000352E+00 0. -1.
</event>
<event>
 5   0  0.2446281E-07  0.3895824E+04  0.7818609E-02  0.8025898E-01
       -2   -1    0    0    0  501  0.00000000000E+00  0.00000000000E+00  0.25281429641E+04  0.25281429641E+04  0.25500000920E-02 0. -1.
        2   -1    0    0  501    0  0.00000000000E+00  0.00000000000E+00 -0.15008487928E+04  0.15008487928E+04  0.25500000920E-02 0.  1.
    10030    2    1    2    0    0  0.00000000000E+00  0.00000000000E+00  0.10272941713E+04  0.40289917568E+04  0.38958235666E+04 0.  0.
        1    1    3    3  502    0 -0.17824813091E+04  0.36134111832E+03 -0.20772994059E+03  0.18305624134E+04  0.50400001928E-02 0.  1.
       -1    1    3    3    0  502  0.17824813091E+04 -0.36134111832E+03  0.12350241119E+04  0.21984293434E+04  0.50400001928E-02 0. -1.
</event>
<event>
 5   0  0.7675750E-08  0.3851248E+04  0.7818609E-02  0.8035246E-01
       -1   -1    0    0    0  501  0.00000000000E+00  0.00000000000E+00  0.24996151289E+04  0.24996151289E+04  0.50400001928E-02 0. -1.
        1   -1    0    0  501    0  0.00000000000E+00  0.00000000000E+00 -0.14834397814E+04  0.14834397814E+04  0.50400001928E-02 0.  1.
    10030    2    1    2    0    0  0.00000000000E+00  0.00000000000E+00  0.10161753475E+04  0.39830549103E+04  0.38512483796E+04 0.  0.
        2    1    3    3  502    0 -0.33938009081E+03 -0.10723189266E+04  0.21245845893E+04  0.24039356072E+04  0.25500000920E-02 0. -1.
       -2    1    3    3    0  502  0.33938009081E+03  0.10723189266E+04 -0.11084092417E+04  0.15791193031E+04  0.25500000920E-02 0.  1.
</event>
<event>
 5   0  0.2473224E-07  0.3926031E+04  0.7818609E-02  0.8019637E-01
        2   -1    0    0  501    0  0.00000000000E+00  0.00000000000E+00  0.23470058491E+04  0.23470058491E+04  0.25500000920E-02 0.  1.
       -2   -1    0    0    0  501  0.00000000000E+00  0.00000000000E+00 -0.16418493165E+04  0.16418493165E+04  0.25500000920E-02 0. -1.
    10030    2    1    2    0    0  0.00000000000E+00  0.00000000000E+00  0.70515653265E+03  0.39888551656E+04  0.39260310489E+04 0.  0.
        2    1    3    3  502    0 -0.18885751629E+04 -0.20809714072E+03 -0.14868190207E+03  0.19058139662E+04  0.25500000920E-02 0. -1.
       -2    1    3    3    0  502  0.18885751629E+04  0.20809714072E+03  0.85383843472E+03  0.20830411994E+04  0.25500000920E-02 0.  1.
</event>
<event>
 5   0  0.7675750E-08  0.3853625E+04  0.7818609E-02  0.8034744E-01
        1   -1    0    0  501    0  0.00000000000E+00  0.00000000000E+00  0.12233308519E+04  0.12233308519E+04  0.50400001928E-02 0. -1.
       -1   -1    0    0    0  501  0.00000000000E+00  0.00000000000E+00 -0.30348348562E+04  0.30348348562E+04  0.50400001928E-02 0.  1.
    10030    2    1    2    0    0  0.00000000000E+00  0.00000000000E+00 -0.18115040043E+04  0.42581657081E+04  0.38536253633E+04 0.  0.
        4    1    3    3  502    0 -0.52371305334E+03  0.14108599781E+04  0.42380815188E+03  0.15634628881E+04  0.12699999809E+01 0. -1.
       -4    1    3    3    0  502  0.52371305334E+03 -0.14108599781E+04 -0.22353121562E+04  0.26947028200E+04  0.12699999809E+01 0.  1.
</event>
<event>
 5   0  0.2486268E-07  0.3879597E+04  0.7818609E-02  0.8029286E-01
       -2   -1    0    0    0  501  0.00000000000E+00  0.00000000000E+00  0.14516586334E+04  0.14516586334E+04  0.25500000920E-02 0. -1.
        2   -1    0    0  501    0  0.00000000000E+00  0.00000000000E+00 -0.25920823687E+04  0.25920823687E+04  0.25500000920E-02 0.  1.
    10030    2    1    2    0    0  0.00000000000E+00  0.00000000000E+00 -0.11404237353E+04  0.40437410022E+04  0.38795972725E+04 0.  0.
        5    1    3    3  502    0  0.10935494506E+04 -0.12336037107E+04 -0.16358009648E+04  0.23223900195E+04  0.46999998093E+01 0.  1.
       -5    1    3    3    0  502 -0.10935494506E+04  0.12336037107E+04  0.49537722952E+03  0.17213509827E+04  0.46999998093E+01 0. -1.
</event>
<event>
 5   0  0.7675750E-08  0.3841779E+04  0.7818609E-02  0.8037248E-01
       -1   -1    0    0    0  501  0.00000000000E+00  0.00000000000E+00  0.27423798423E+04  0.27423798423E+04  0.50400001928E-02 0.  1.
        1   -1    0    0  501    0  0.00000000000E+00  0.00000000000E+00 -0.13454799898E+04  0.13454799898E+04  0.50400001928E-02 0. -1.
    10030    2    1    2    0    0  0.00000000000E+00  0.00000000000E+00  0.13968998525E+04  0.40878598321E+04  0.38417793805E+04 0.  0.
        1    1    3    3  502    0  0.17175441022E+04 -0.80814816761E+03  0.38503957897E+03  0.19368316089E+04  0.50400001928E-02 0.  1.
       -1    1    3    3    0  502 -0.17175441022E+04  0.80814816761E+03  0.10118602735E+04  0.21510282232E+04  0.50400001928E-02 0. -1.
</event>
<event>
 5   0  0.2446281E-07  0.3833499E+04  0.7818609E-02  0.8039004E-01
        2   -1    0    0  501    0  0.00000000000E+00  0.00000000000E+00  0.19741274152E+04  0.19741274152E+04  0.25500000920E-02 0. -1.
       -2   -1    0    0    0  501  0.00000000000E+00  0.00000000000E+00 -0.18610392603E+04  0.18610392603E+04  0.25500000920E-02 0.  1.
    10030    2    1    2    0    0  0.00000000000E+00  0.00000000000E+00  0.11308815491E+03  0.38351666755E+04  0.38334989890E+04 0.  0.
        1    1    3    3  502    0 -0.98762424297E+02 -0.12238144702E+04 -0.14159837165E+04  0.18741626822E+04  0.50400001928E-02 0.  1.
       -1    1    3    3    0  502  0.98762424297E+02  0.12238144702E+04  0.15290718714E+04  0.19610039933E+04  0.50400001928E-02 0. -1.
</event>
<event>
 5   0  0.7675750E-08  0.3897247E+04  0.7818609E-02  0.8025602E-01
        1   -1    0    0  501    0  0.00000000000E+00  0.00000000000E+00  0.25268064647E+04  0.25268064648E+04  0.50400001928E-02 0.  1.
       -1   -1    0    0    0  501  0.00000000000E+00  0.00000000000E+00 -0.15027399945E+04  0.15027399945E+04  0.50400001928E-02 0. -1.
    10030    2    1    2    0    0  0.00000000000E+00  0.00000000000E+00  0.10240664703E+04  0.40295464592E+04  0.38972467886E+04 0.  0.
        2    1    3    3  502    0  0.18508143637E+04 -0.28945756027E+03 -0.42680651494E+02  0.18737985821E+04  0.25500000920E-02 0.  1.
       -2    1    3    3    0  502 -0.18508143637E+04  0.28945756027E+03  0.10667471218E+04  0.21557478772E+04  0.25500000920E-02 0. -1.
</event>
<event>
 5   0  0.7675750E-08  0.3952167E+04  0.7818609E-02  0.8014266E-01
       -1   -1    0    0    0  501  0.00000000000E+00  0.00000000000E+00  0.14335434271E+04  0.14335434271E+04  0.50400001928E-02 0.  1.
        1   -1    0    0  501    0  0.00000000000E+00  0.00000000000E+00 -0.27239538793E+04  0.27239538793E+04  0.50400001928E-02 0. -1.
    10030    2    1    2    0    0  0.00000000000E+00  0.00000000000E+00 -0.12904104522E+04  0.41574973064E+04  0.39521670913E+04 0.  0.
        2    1    3    3  502    0 -0.15505737921E+04  0.89695590179E+03  0.23246552189E+03  0.18063358473E+04  0.25500000920E-02 0.  1.
       -2    1    3    3    0  502  0.15505737921E+04 -0.89695590179E+03 -0.15228759741E+04  0.23511614591E+04  0.25500000920E-02 0. -1.
</event>
<event>
 5   0  0.7675750E-08  0.3902046E+04  0.7818609E-02  0.8024604E-01
        1   -1    0    0  501    0  0.00000000000E+00  0.00000000000E+00  0.13451011375E+04  0.13451011375E+04  0.50400001928E-02 0. -1.
       -1   -1    0    0    0  501  0.00000000000E+00  0.00000000000E+00 -0.28298915734E+04  0.28298915735E+04  0.50400001928E-02 0.  1.
    10030    2    1    2    0    0  0.00000000000E+00  0.00000000000E+00 -0.14847904360E+04  0.41749927110E+04  0.39020458093E+04 0.  0.
        5    1    3    3  502    0  0.50620371561E+03  0.12563622394E+04 -0.22448194766E+04  0.26218170895E+04  0.46999998093E+01 0. -1.
       -5    1    3    3    0  502 -0.50620371561E+03 -0.12563622394E+04  0.76002904068E+03  0.15531756214E+04  0.46999998093E+01 0.  1.
</event>
<event>
 5   0  0.7675750E-08  0.3886673E+04  0.7818609E-02  0.8027807E-01
       -1   -1    0    0    0  501  0.00000000000E+00  0.00000000000E+00  0.23512662163E+04  0.23512662163E+04  0.50400001928E-02 0.  1.
        1   -1    0    0  501    0  0.00000000000E+00  0.00000000000E+00 -0.16061803804E+04  0.16061803804E+04  0.50400001928E-02 0. -1.
    10030    2    1    2    0    0  0.00000000000E+00  0.00000000000E+00  0.74508583594E+03  0.39574465967E+04  0.38866734700E+04 0.  0.
        5    1    3    3  502    0  0.16247471826E+04 -0.59603878640E+02  0.14564358157E+04  0.21827925703E+04  0.46999998093E+01 0.  1.
       -5    1    3    3    0  502 -0.16247471826E+04  0.59603878640E+02 -0.71134997973E+03  0.17746540264E+04  0.46999998093E+01 0. -1.
</event>
<event>
 5   0  0.7675750E-08  0.3916739E+04  0.7818609E-02  0.8021557E-01
        1   -1    0    0  501    0  0.00000000000E+00  0.00000000000E+00  0.24707954907E+04  0.24707954908E+04  0.50400001928E-02 0.  1.
       -1   -1    0    0    0  501  0.00000000000E+00  0.00000000000E+00 -0.15522174334E+04  0.15522174334E+04  0.50400001928E-02 0. -1.
    10030    2    1    2    0    0  0.00000000000E+00  0.00000000000E+00  0.91857805733E+03  0.40230129242E+04  0.39167393762E+04 0.  0.
        4    1    3    3  502    0  0.57652296065E+03 -0.59541192607E+03  0.22817822486E+04  0.24276379320E+04  0.12699999809E+01 0.  1.
       -4    1    3    3    0  502 -0.57652296065E+03  0.59541192607E+03 -0.13632041912E+04  0.15953749922E+04  0.12699999809E+01 0. -1.
</event>
<event>
 5   0  0.2384787E-07  0.3851503E+04  0.7818609E-02  0.8035192E-01
       -2   -1    0    0    0  501  0.00000000000E+00  0.00000000000E+00  0.16242071140E+04  0.16242071140E+04  0.25500000920E-02 0.  1.
        2   -1    0    0  501    0  0.00000000000E+00  0.00000000000E+00 -0.22832790351E+04  0.22832790351E+04  0.25500000920E-02 0. -1.
    10030    2    1    2    0    0  0.00000000000E+00  0.00000000000E+00 -0.65907192107E+03  0.39074861491E+04  0.38515025910E+04 0.  0.
        4    1    3    3  502    0  0.12164618494E+02  0.18870943593E+04  0.59764649106E+02  0.18880801161E+04  0.12699999809E+01 0.  1.
       -4    1    3    3    0  502 -0.12164618494E+02 -0.18870943593E+04 -0.71883657018E+03  0.20194060330E+04  0.12699999809E+01 0. -1.
</event>
<event>
 5   0  0.2446281E-07  0.3872786E+04  0.7818609E-02  0.8030713E-01
       -2   -1    0    0    0  501  0.00000000000E+00  0.00000000000E+00  0.18440017544E+04  0.18440017544E+04  0.25500000920E-02 0.  1.
        2   -1    0    0  501    0  0.00000000000E+00  0.00000000000E+00 -0.20334138314E+04  0.20334138314E+04  0.25500000920E-02 0. -1.
    10030    2    1    2    0    0  0.00000000000E+00  0.00000000000E+00 -0.18941207696E+03  0.38774155858E+04  0.38727864245E+04 0.  0.
        1    1    3    3  502    0 -0.64632846999E+03  0.15490497713E+04 -0.10614289255E+04  0.19859322871E+04  0.50400001928E-02 0. -1.
       -1    1    3    3    0  502  0.64632846999E+03 -0.15490497713E+04  0.87201684856E+03  0.18914832987E+04  0.50400001928E-02 0.  1.
</event>
<event>
 5   0  0.2486268E-07  0.3938555E+04  0.7818609E-02  0.8017058E-01
        2   -1    0    0  501    0  0.00000000000E+00  0.00000000000E+00  0.24657729475E+04  0.24657729475E+04  0.25500000920E-02 0. -1.
       -2   -1    0    0    0  501  0.00000000000E+00  0.00000000000E+00 -0.15727541685E+04  0.15727541685E+04  0.25500000920E-02 0.  1.
    10030    2    1    2    0    0  0.00000000000E+00  0.00000000000E+00  0.89301877897E+03  0.40385271159E+04  0.39385554111E+04 0.  0.
        5    1    3    3  502    0  0.88321730727E+03 -0.57129837378E+03 -0.12605537782E+04  0.16417894388E+04  0.46999998093E+01 0.  1.
       -5    1    3    3    0  502 -0.88321730727E+03  0.57129837378E+03  0.21535725572E+04  0.23967376771E+04  0.46999998093E+01 0. -1.
</event>
<event>
 5   0  0.2473224E-07  0.4139316E+04  0.7818609E-02  0.7977017E-01
       -2   -1    0    0    0  501  0.00000000000E+00  0.00000000000E+00  0.13326908560E+04  0.13326908560E+04  0.25500000920E-02 0.  1.
        2   -1    0    0  501    0  0.00000000000E+00  0.00000000000E+00 -0.32141616320E+04  0.32141616320E+04  0.25500000920E-02 0. -1.
    10030    2    1    2    0    0  0.00000000000E+00  0.00000000000E+00 -0.18814707759E+04  0.45468524880E+04  0.41393157970E+04 0.  0.
        2    1    3    3  502    0  0.74143444387E+03  0.15139524424E+04  0.37819166090E+03  0.17276590997E+04  0.25500000920E-02 0.  1.
       -2    1    3    3    0  502 -0.74143444387E+03 -0.15139524424E+04 -0.22596624368E+04  0.28191933883E+04  0.25500000920E-02 0. -1.
</event>
<event>
 5   0  0.7675750E-08  0.3900279E+04  0.7818609E-02  0.8024971E-01
        1   -1    0    0  501    0  0.00000000000E+00  0.00000000000E+00  0.23691065999E+04  0.23691065999E+04  0.50400001928E-02 0. -1.
       -1   -1    0    0    0  501  0.00000000000E+00  0.00000000000E+00 -0.16052653499E+04  0.16052653499E+04  0.50400001928E-02 0.  1.
    10030    2    1    2    0    0  0.00000000000E+00  0.00000000000E+00  0.76384124998E+03  0.39743719498E+04  0.39002793413E+04 0.  0.
        2    1    3    3  502    0 -0.93885735251E+03 -0.47558112750E+03 -0.12910393555E+04  0.16656569739E+04  0.25500000920E-02 0.  1.
       -2    1    3    3    0  502  0.93885735251E+03  0.47558112750E+03  0.20548806055E+04  0.23087149759E+04  0.25500000920E-02 0. -1.
</event>
<event>
 5   0  0.7675750E-08  0.3852746E+04  0.7818609E-02  0.8034930E-01
        1   -1    0    0  501    0  0.00000000000E+00  0.00000000000E+00  0.19718067353E+04  0.19718067354E+04  0.50400001928E-02 0.  1.
       -1   -1    0    0    0  501  0.00000000000E+00  0.00000000000E+00 -0.18819862185E+04  0.18819862185E+04  0.50400001928E-02 0. -1.
    10030    2    1    2    0    0  0.00000000000E+00  0.00000000000E+00  0.89820516877E+02  0.38537929538E+04  0.38527460863E+04 0.  0.
        1    1    3    3  502    0 -0.17327796090E+04  0.51499548814E+03 -0.62097895357E+03  0.19113765686E+04  0.50400001928E-02 0.  1.
       -1    1    3    3    0  502  0.17327796090E+04 -0.51499548814E+03  0.71079947045E+03  0.19424163852E+04  0.50400001928E-02 0. -1.
</event>
<event>
 5   0  0.2486268E-07  0.3927251E+04  0.7818609E-02  0.8019385E-01
        2   -1    0    0  501    0  0.00000000000E+00  0.00000000000E+00  0.15811403951E+04  0.15811403951E+04  0.25500000920E-02 0.  1.
       -2   -1    0    0    0  501  0.00000000000E+00  0.00000000000E+00 -0.24386352861E+04  0.24386352861E+04  0.25500000920E-02 0. -1.
    10030    2    1    2    0    0  0.00000000000E+00  0.00000000000E+00 -0.85749489104E+03  0.40197756812E+04  0.39272508245E+04 0.  0.
        5    1    3    3  502    0 -0.10831118991E+04 -0.16343070115E+04 -0.53951853055E+03  0.20335174277E+04  0.46999998093E+01 0.  1.
       -5    1    3    3    0  502  0.10831118991E+04  0.16343070115E+04 -0.31797636049E+03  0.19862582535E+04  0.46999998093E+01 0. -1.
</event>
<event>
 5   0  0.2446281E-07  0.3935509E+04  0.7818609E-02  0.8017684E-01
        2   -1    0    0  501    0  0.00000000000E+00  0.00000000000E+00  0.26669784018E+04  0.26669784018E+04  0.25500000920E-02 0. -1.
       -2   -1    0    0    0  501  0.00000000000E+00  0.00000000000E+00 -0.14518519194E+04  0.14518519194E+04  0.25500000920E-02 0.  1.
    10030    2    1    2    0    0  0.00000000000E+00  0.00000000000E+00  0.12151264824E+04  0.41188303213E+04  0.39355089692E+04 0.  0.
        1    1    3    3  502    0 -0.53458978997E+03 -0.81065198093E+03  0.23987513351E+04  0.25878467585E+04  0.50400001928E-02 0. -1.
       -1    1    3    3    0  502  0.53458978997E+03  0.81065198093E+03 -0.11836248526E+04  0.15309835628E+04  0.50400001928E-02 0.  1.
</event>
<event>
 5   0  0.7675750E-08  0.3939821E+04  0.7818609E-02  0.8016798E-01
       -3   -1    0    0    0  501  0.00000000000E+00  0.00000000000E+00  0.20279297873E+04  0.20279297898E+04  0.10100000352E+00 0.  1.
        3   -1    0    0  501    0  0.00000000000E+00  0.00000000000E+00 -0.19135508797E+04  0.19135508824E+04  0.10100000352E+00 0. -1.
    10030    2    1    2    0    0  0.00000000000E+00  0.00000000000E+00  0.11437890751E+03  0.39414806722E+04  0.39398207262E+04 0.  0.
        1    1    3    3  502    0 -0.10540156013E+04  0.11887017554E+04  0.12224059385E+04  0.20045540725E+04  0.50400001928E-02 0.  1.
       -1    1    3    3    0  502  0.10540156013E+04 -0.11887017554E+04 -0.11080270310E+04  0.19369265997E+04  0.50400001928E-02 0. -1.
</event>
<event>
 5   0  0.7731706E-08  0.3522329E+04  0.7818609E-02  0.8108518E-01
        1   -1    0    0  501    0  0.00000000000E+00  0.00000000000E+00  0.10742953684E+04  0.10742953684E+04  0.50400001928E-02 0. -1.
       -1   -1    0    0    0  501  0.00000000000E+00  0.00000000000E+00 -0.28871959825E+04  0.28871959825E+04  0.50400001928E-02 0.  1.
    10030    2    1    2    0    0  0.00000000000E+00  0.00000000000E+00 -0.18129006141E+04  0.39614913509E+04  0.35223294972E+04 0.  0.
        3    1    3    3  502    0 -0.16807068410E+04  0.35713984178E+03 -0.47176949739E+03  0.17818223314E+04  0.10100000352E+00 0. -1.
       -3    1    3    3    0  502  0.16807068410E+04 -0.35713984178E+03 -0.13411311167E+04  0.21796690194E+04  0.10100000352E+00 0.  1.
</event>
<event>
 5   0  0.2486268E-07  0.3901721E+04  0.7818609E-02  0.8024671E-01
        2   -1    0    0  501    0  0.00000000000E+00  0.00000000000E+00  0.16444255243E+04  0.16444255243E+04  0.25500000920E-02 0. -1.
       -2   -1    0    0    0  501  0.00000000000E+00  0.00000000000E+00 -0.23143984097E+04  0.23143984097E+04  0.25500000920E-02 0.  1.
    10030    2    1    2    0    0  0.00000000000E+00  0.00000000000E+00 -0.66997288536E+03  0.39588239340E+04  0.39017205530E+04 0.  0.
        5    1    3    3  502    0  0.29980497710E+03  0.18330383164E+04  0.27033627819E+03  0.18769699750E+04  0.46999998093E+01 0. -1.
       -5    1    3    3    0  502 -0.29980497710E+03 -0.18330383164E+04 -0.94030916355E+03  0.20818539590E+04  0.46999998093E+01 0.  1.
</event>
<event>
 5   0  0.7731706E-08  0.3921860E+04  0.7818609E-02  0.8020498E-01
        1   -1    0    0  501    0  0.00000000000E+00  0.00000000000E+00  0.19065007944E+04  0.19065007944E+04  0.50400001928E-02 0. -1.
       -1   -1    0    0    0  501  0.00000000000E+00  0.00000000000E+00 -0.20169129795E+04  0.20169129795E+04  0.50400001928E-02 0.  1.
    10030    2    1    2    0    0  0.00000000000E+00  0.00000000000E+00 -0.11041218511E+03  0.39234137739E+04  0.39218598637E+04 0.  0.
        3    1    3    3  502    0 -0.26856997137E+03 -0.16087678963E+04  0.10337941010E+04  0.19310603893E+04  0.10100000352E+00 0. -1.
       -3    1    3    3    0  502  0.26856997137E+03  0.16087678963E+04 -0.11442062861E+04  0.19923533846E+04  0.10100000352E+00 0.  1.
</event>
<event>
 5   0  0.2395572E-07  0.4089524E+04  0.7818609E-02  0.7986726E-01
       -2   -1    0    0    0  501  0.00000000000E+00  0.00000000000E+00  0.18941235722E+04  0.18941235722E+04  0.25500000920E-02 0. -1.
        2   -1    0    0  501    0  0.00000000000E+00  0.00000000000E+00 -0.22073808786E+04  0.22073808786E+04  0.25500000920E-02 0.  1.
    10030    2    1    2    0    0  0.00000000000E+00  0.00000000000E+00 -0.31325730636E+03  0.41015044507E+04  0.40895242534E+04 0.  0.
        3    1    3    3  502    0 -0.80207666253E+03  0.60786094989E+03  0.16285380026E+04  0.19144079876E+04  0.10100000352E+00 0. -1.
       -3    1    3    3    0  502  0.80207666253E+03 -0.60786094989E+03 -0.19417953089E+04  0.21870964631E+04  0.10100000352E+00 0.  1.
</event>
<event>
 5   0  0.7675750E-08  0.4002111E+04  0.7818609E-02  0.8004121E-01
       -1   -1    0    0    0  501  0.00000000000E+00  0.00000000000E+00  0.15557284142E+04  0.15557284142E+04  0.50400001928E-02 0.  1.
        1   -1    0    0  501    0  0.00000000000E+00  0.00000000000E+00 -0.25738574357E+04  0.25738574357E+04  0.50400001928E-02 0. -1.
    10030    2    1    2    0    0  0.00000000000E+00  0.00000000000E+00 -0.10181290215E+04  0.41295858499E+04  0.40021110164E+04 0.  0.
        2    1    3    3  502    0 -0.19660201363E+04  0.32225423702E+03 -0.70249251040E+03  0.21124816442E+04  0.25500000920E-02 0. -1.
       -2    1    3    3    0  502  0.19660201363E+04 -0.32225423702E+03 -0.31563651110E+03  0.20171042058E+04  0.25500000920E-02 0.  1.
</event>
<event>
 5   0  0.2446281E-07  0.3404659E+04  0.7818609E-02  0.8136764E-01
        2   -1    0    0  501    0  0.00000000000E+00  0.00000000000E+00  0.24607451119E+04  0.24607451119E+04  0.25500000920E-02 0. -1.
       -2   -1    0    0    0  501  0.00000000000E+00  0.00000000000E+00 -0.11776618532E+04  0.11776618532E+04  0.25500000920E-02 0.  1.
    10030    2    1    2    0    0  0.00000000000E+00  0.00000000000E+00  0.12830832587E+04  0.36384069651E+04  0.34046589542E+04 0.  0.
        1    1    3    3  502    0  0.15041394402E+04  0.57984084034E+03  0.12261603644E+04  0.20253691256E+04  0.50400001928E-02 0. -1.
       -1    1    3    3    0  502 -0.15041394402E+04 -0.57984084034E+03  0.56922894390E+02  0.16130378395E+04  0.50400001928E-02 0.  1.
</event>
<event>
 5   0  0.7675750E-08  0.3735079E+04  0.7818609E-02  0.8060232E-01
       -1   -1    0    0    0  501  0.00000000000E+00  0.00000000000E+00  0.20341781823E+04  0.20341781823E+04  0.50400001928E-02 0. -1.
        1   -1    0    0  501    0  0.00000000000E+00  0.00000000000E+00 -0.17145517290E+04  0.17145517291E+04  0.50400001928E-02 0.  1.
    10030    2    1    2    0    0  0.00000000000E+00  0.00000000000E+00  0.31962645323E+03  0.37487299113E+04  0.37350789655E+04 0.  0.
        2    1    3    3  502    0  0.23361879309E+03  0.17742422058E+04 -0.37617092373E+03  0.18286655543E+04  0.25500000920E-02 0. -1.
       -2    1    3    3    0  502 -0.23361879309E+03 -0.17742422058E+04  0.69579737696E+03  0.19200643571E+04  0.25500000920E-02 0.  1.
</event>
<event>
 5   0  0.2384787E-07  0.3836807E+04  0.7818609E-02  0.8038302E-01
        2   -1    0    0  501    0  0.00000000000E+00  0.00000000000E+00  0.28644754854E+04  0.28644754854E+04  0.25500000920E-02 0. -1.
       -2   -1    0    0    0  501  0.00000000000E+00  0.00000000000E+00 -0.12847978990E+04  0.12847978990E+04  0.25500000920E-02 0.  1.
    10030    2    1    2    0    0  0.00000000000E+00  0.00000000000E+00  0.15796775863E+04  0.41492733844E+04  0.38368070503E+04 0.  0.
        4    1    3    3  502    0 -0.76934360595E+03  0.13061223077E+04 -0.48168047017E+03  0.15905542289E+04  0.12699999809E+01 0.  1.
       -4    1    3    3    0  502  0.76934360595E+03 -0.13061223077E+04  0.20613580565E+04  0.25587191555E+04  0.12699999809E+01 0. -1.
</event>
<event>
 5   0  0.7675750E-08  0.3876786E+04  0.7818609E-02  0.8029875E-01
       -1   -1    0    0    0  501  0.00000000000E+00  0.00000000000E+00  0.17483296087E+04  0.17483296087E+04  0.50400001928E-02 0.  1.
        1   -1    0    0  501    0  0.00000000000E+00  0.00000000000E+00 -0.21491189217E+04  0.21491189217E+04  0.50400001928E-02 0. -1.
    10030    2    1    2    0    0  0.00000000000E+00  0.00000000000E+00 -0.40078931296E+03  0.38974485304E+04  0.38767864236E+04 0.  0.
        4    1    3    3  502    0 -0.38868452594E+02 -0.15065544919E+04  0.10251799483E+04  0.18226938122E+04  0.12699999809E+01 0.  1.
       -4    1    3    3    0  502  0.38868452594E+02  0.15065544919E+04 -0.14259692613E+04  0.20747547182E+04  0.12699999809E+01 0. -1.
</event>
<event>
 5   0  0.7675750E-08  0.3895816E+04  0.7818609E-02  0.8025900E-01
       -1   -1    0    0    0  501  0.00000000000E+00  0.00000000000E+00  0.12327677338E+04  0.12327677338E+04  0.50400001928E-02 0.  1.
        1   -1    0    0  501    0  0.00000000000E+00  0.00000000000E+00 -0.30779077739E+04  0.30779077739E+04  0.50400001928E-02 0. -1.
    10030    2    1    2    0    0  0.00000000000E+00  0.00000000000E+00 -0.18451400401E+04  0.43106755077E+04  0.38958159049E+04 0.  0.
        2    1    3    3  502    0 -0.18926730115E+04 -0.39465231851E+03 -0.11853087621E+04  0.22678003533E+04  0.25500000920E-02 0.  1.
       -2    1    3    3    0  502  0.18926730115E+04  0.39465231851E+03 -0.65983127806E+03  0.20428751544E+04  0.25500000920E-02 0. -1.
</event>
<event>
 5   0  0.7675750E-08  0.3975682E+04  0.7818609E-02  0.8009470E-01
        1   -1    0    0  501    0  0.00000000000E+00  0.00000000000E+00  0.33073803348E+04  0.33073803348E+04  0.50400001928E-02 0. -1.
       -1   -1    0    0    0  501  0.00000000000E+00  0.00000000000E+00 -0.11947557647E+04  0.11947557647E+04  0.50400001928E-02 0.  1.
    10030    2    1    2    0    0  0.00000000000E+00  0.00000000000E+00  0.21126245702E+04  0.45021360995E+04  0.39756819395E+04 0.  0.
        5    1    3    3  502    0 -0.37249068441E+03  0.72074005979E+03  0.31113553401E+04  0.32153957277E+04  0.46999998093E+01 0. -1.
       -5    1    3    3    0  502  0.37249068441E+03 -0.72074005979E+03 -0.99873076988E+03  0.12867403718E+04  0.46999998093E+01 0.  1.
</event>
<event>
 5   0  0.7675750E-08  0.3914831E+04  0.7818609E-02  0.8021952E-01
       -1   -1    0    0    0  501  0.00000000000E+00  0.00000000000E+00  0.19232087724E+04  0.19232087724E+04  0.50400001928E-02 0.  1.
        1   -1    0    0  501    0  0.00000000000E+00  0.00000000000E+00 -0.19922302053E+04  0.19922302054E+04  0.50400001928E-02 0. -1.
    10030    2    1    2    0    0  0.00000000000E+00  0.00000000000E+00 -0.69021432976E+02  0.39154389777E+04  0.39148305749E+04 0.  0.
        2    1    3    3  502    0 -0.17458964029E+04  0.25332446847E+03 -0.88266790338E+03  0.19726708199E+04  0.25500000920E-02 0. -1.
       -2    1    3    3    0  502  0.17458964029E+04 -0.25332446847E+03  0.81364647041E+03  0.19427681578E+04  0.25500000920E-02 0.  1.
</event>
<event>
 5   0  0.7731706E-08  0.3833512E+04  0.7818609E-02  0.8039001E-01
       -1   -1    0    0    0  501  0.00000000000E+00  0.00000000000E+00  0.28614670421E+04  0.28614670421E+04  0.50400001928E-02 0. -1.
        1   -1    0    0  501    0  0.00000000000E+00  0.00000000000E+00 -0.12839403226E+04  0.12839403226E+04  0.50400001928E-02 0.  1.
    10030    2    1    2    0    0  0.00000000000E+00  0.00000000000E+00  0.15775267195E+04  0.41454073647E+04  0.38335116627E+04 0.  0.
        3    1    3    3  502    0 -0.16744675513E+04  0.57110589582E+03 -0.87714904233E+01  0.17692033444E+04  0.10100000352E+00 0.  1.
       -3    1    3    3    0  502  0.16744675513E+04 -0.57110589582E+03  0.15862982100E+04  0.23762040202E+04  0.10100000352E+00 0. -1.
</event>
<event>
 5   0  0.7675750E-08  0.3895249E+04  0.7818609E-02  0.8026018E-01
        1   -1    0    0  501    0  0.00000000000E+00  0.00000000000E+00  0.23104332309E+04  0.23104332309E+04  0.50400001928E-02 0. -1.
       -1   -1    0    0    0  501  0.00000000000E+00  0.00000000000E+00 -0.16417874279E+04  0.16417874279E+04  0.50400001928E-02 0.  1.
    10030    2    1    2    0    0  0.00000000000E+00  0.00000000000E+00  0.66864580300E+03  0.39522206587E+04  0.38952485062E+04 0.  0.
        5    1    3    3  502    0 -0.21056130469E+03 -0.15263770750E+04  0.15429870610E+04  0.21805949185E+04  0.46999998093E+01 0. -1.
       -5    1    3    3    0  502  0.21056130469E+03  0.15263770750E+04 -0.87434125796E+03  0.17716257403E+04  0.46999998093E+01 0.  1.
</event>
<event>
 5   0  0.7675750E-08  0.3841142E+04  0.7818609E-02  0.8037383E-01
        1   -1    0    0  501    0  0.00000000000E+00  0.00000000000E+00  0.20585109864E+04  0.20585109864E+04  0.50400001928E-02 0.  1.
       -1   -1    0    0    0  501  0.00000000000E+00  0.00000000000E+00 -0.17918741184E+04  0.17918741184E+04  0.50400001928E-02 0. -1.
    10030    2    1    2    0    0  0.00000000000E+00  0.00000000000E+00  0.26663686807E+03  0.38503851048E+04  0.38411417881E+04 0.  0.
        5    1    3    3  502    0 -0.16332739972E+04  0.43992893596E+03  0.10451496606E+04  0.19883363201E+04  0.46999998093E+01 0. -1.
       -5    1    3    3    0  502  0.16332739972E+04 -0.43992893596E+03 -0.77851279254E+03  0.18620487848E+04  0.46999998093E+01 0.  1.
</event>
<event>
 5   0  0.7675750E-08  0.3954251E+04  0.7818609E-02  0.8013840E-01
       -1   -1    0    0    0  501  0.00000000000E+00  0.00000000000E+00  0.18024660580E+04  0.18024660580E+04  0.50400001928E-02 0.  1.
        1   -1    0    0  501    0  0.00000000000E+00  0.00000000000E+00 -0.21687093359E+04  0.21687093360E+04  0.50400001928E-02 0. -1.
    10030    2    1    2    0    0  0.00000000000E+00  0.00000000000E+00 -0.36624327796E+03  0.39711753939E+04  0.39542508609E+04 0.  0.
        5    1    3    3  502    0  0.53029310406E+03 -0.18999377662E+04 -0.48276379123E+02  0.19731515376E+04  0.46999998093E+01 0.  1.
       -5    1    3    3    0  502 -0.53029310406E+03  0.18999377662E+04 -0.31796689884E+03  0.19980238563E+04  0.46999998093E+01 0. -1.
</event>
<event>
 5   0  0.2384787E-07  0.3890961E+04  0.7818609E-02  0.8026912E-01
       -2   -1    0    0    0  501  0.00000000000E+00  0.00000000000E+00  0.17718328814E+04  0.17718328814E+04  0.25500000920E-02 0. -1.
        2   -1    0    0  501    0  0.00000000000E+00  0.00000000000E+00 -0.21361465820E+04  0.21361465820E+04  0.25500000920E-02 0.  1.
    10030    2    1    2    0    0  0.00000000000E+00  0.00000000000E+00 -0.36431370064E+03  0.39079794634E+04  0.38909611941E+04 0.  0.
        4    1    3    3  502    0 -0.46507393821E+03 -0.10850008326E+04 -0.17353268549E+04  0.20987809512E+04  0.12699999809E+01 0.  1.
       -4    1    3    3    0  502  0.46507393821E+03  0.10850008326E+04  0.13710131543E+04  0.18091985123E+04  0.12699999809E+01 0. -1.
</event>
<event>
 5   0  0.7675750E-08  0.3803874E+04  0.7818609E-02  0.8045324E-01
        1   -1    0    0  501    0  0.00000000000E+00  0.00000000000E+00  0.17475180654E+04  0.17475180654E+04  0.50400001928E-02 0. -1.
       -1   -1    0    0    0  501  0.00000000000E+00  0.00000000000E+00 -0.20700011911E+04  0.20700011911E+04  0.50400001928E-02 0.  1.
    10030    2    1    2    0    0  0.00000000000E+00  0.00000000000E+00 -0.32248312570E+03  0.38175192566E+04  0.38038740657E+04 0.  0.
        4    1    3    3  502    0  0.15782077790E+04  0.72825515942E+03  0.61371198842E+03  0.18432957952E+04  0.12699999809E+01 0. -1.
       -4    1    3    3    0  502 -0.15782077790E+04 -0.72825515942E+03 -0.93619511412E+03  0.19742234614E+04  0.12699999809E+01 0.  1.
</event>
<event>
 5   0  0.2395572E-07  0.3968649E+04  0.7818609E-02  0.8010901E-01
        2   -1    0    0  501    0  0.00000000000E+00  0.00000000000E+00  0.21559049459E+04  0.21559049459E+04  0.25500000920E-02 0.  1.
       -2   -1    0    0    0  501  0.00000000000E+00  0.00000000000E+00 -0.18263996094E+04  0.18263996094E+04  0.25500000920E-02 0. -1.
    10030    2    1    2    0    0  0.00000000000E+00  0.00000000000E+00  0.32950533641E+03  0.39823045553E+04  0.39686491158E+04 0.  0.
        3    1    3    3  502    0 -0.17857706804E+04 -0.58427112247E+03 -0.47556074366E+03  0.19381712253E+04  0.10100000352E+00 0. -1.
       -3    1    3    3    0  502  0.17857706804E+04  0.58427112247E+03  0.80506608007E+03  0.20441333300E+04  0.10100000352E+00 0.  1.
</event>
<event>
 5   0  0.2446281E-07  0.3153911E+04  0.7818609E-02  0.8201096E-01
        2   -1    0    0  501    0  0.00000000000E+00  0.00000000000E+00  0.18477401553E+04  0.18477401553E+04  0.25500000920E-02 0.  1.
       -2   -1    0    0    0  501  0.00000000000E+00  0.00000000000E+00 -0.13458544914E+04  0.13458544914E+04  0.25500000920E-02 0. -1.
    10030    2    1    2    0    0  0.00000000000E+00  0.00000000000E+00  0.50188566387E+03  0.31935946468E+04  0.31539114680E+04 0.  0.
        1    1    3    3  502    0  0.11889800326E+04  0.47140966602E+03 -0.68309979347E+03  0.14500089376E+04  0.50400001928E-02 0. -1.
       -1    1    3    3    0  502 -0.11889800326E+04 -0.47140966602E+03  0.11849854573E+04  0.17435857092E+04  0.50400001928E-02 0.  1.
</event>
<event>
 5   0  0.7675750E-08  0.3892564E+04  0.7818609E-02  0.8026578E-01
        1   -1    0    0  501    0  0.00000000000E+00  0.00000000000E+00  0.17598898486E+04  0.17598898486E+04  0.50400001928E-02 0. -1.
       -1   -1    0    0    0  501  0.00000000000E+00  0.00000000000E+00 -0.21524149039E+04  0.21524149039E+04  0.50400001928E-02 0.  1.
    10030    2    1    2    0    0  0.00000000000E+00  0.00000000000E+00 -0.39252505528E+03  0.39123047524E+04  0.38925637512E+04 0.  0.
        4    1    3    3  502    0 -0.11999326622E+04 -0.84502118810E+03  0.10885444775E+04  0.18272465336E+04  0.12699999809E+01 0. -1.
       -4    1    3    3    0  502  0.11999326622E+04  0.84502118810E+03 -0.14810695328E+04  0.20850582189E+04  0.12699999809E+01 0.  1.
</event>
<event>
 5   0  0.2446281E-07  0.3892461E+04  0.7818609E-02  0.8026599E-01
        2   -1    0    0  501    0  0.00000000000E+00  0.00000000000E+00  0.13314302119E+04  0.13314302119E+04  0.25500000920E-02 0.  1.
       -2   -1    0    0    0  501  0.00000000000E+00  0.00000000000E+00 -0.28449207300E+04  0.28449207300E+04  0.25500000920E-02 0. -1.
    10030    2    1    2    0    0  0.00000000000E+00  0.00000000000E+00 -0.15134905181E+04  0.41763509419E+04  0.38924611291E+04 0.  0.
        1    1    3    3  502    0 -0.30460112591E+03 -0.16358414339E+04 -0.18398522990E+04  0.24806885183E+04  0.50400001928E-02 0. -1.
       -1    1    3    3    0  502  0.30460112591E+03  0.16358414339E+04  0.32636178086E+03  0.16956624236E+04  0.50400001928E-02 0.  1.
</event>
<event>
 5   0  0.2395572E-07  0.3884452E+04  0.7818609E-02  0.8028271E-01
        2   -1    0    0  501    0  0.00000000000E+00  0.00000000000E+00  0.20850856918E+04  0.20850856918E+04  0.25500000920E-02 0.  1.
       -2   -1    0    0    0  501  0.00000000000E+00  0.00000000000E+00 -0.18091544337E+04  0.18091544337E+04  0.25500000920E-02 0. -1.
    10030    2    1    2    0    0  0.00000000000E+00  0.00000000000E+00  0.27593125810E+03  0.38942401255E+04  0.38844520973E+04 0.  0.
        3    1    3    3  502    0 -0.18003821156E+04 -0.46932629335E+03  0.69668411525E+03  0.19867087604E+04  0.10100000352E+00 0. -1.
       -3    1    3    3    0  502  0.18003821156E+04  0.46932629335E+03 -0.42075285715E+03  0.19075313651E+04  0.10100000352E+00 0.  1.
</event>
<event>
 5   0  0.7675750E-08  0.3900871E+04  0.7818609E-02  0.8024848E-01
        1   -1    0    0  501    0  0.00000000000E+00  0.00000000000E+00  0.12261503800E+04  0.12261503800E+04  0.50400001928E-02 0. -1.
       -1   -1    0    0    0  501  0.00000000000E+00  0.00000000000E+00 -0.31025546599E+04  0.31025546599E+04  0.50400001928E-02 0.  1.
    10030    2    1    2    0    0  0.00000000000E+00  0.00000000000E+00 -0.18764042799E+04  0.43287050399E+04  0.39008709670E+04 0.  0.
        2    1    3    3  502    0 -0.17814337871E+04 -0.69849032452E+03 -0.51886257458E+03  0.19825774746E+04  0.25500000920E-02 0.  1.
       -2    1    3    3    0  502  0.17814337871E+04  0.69849032452E+03 -0.13575417053E+04  0.23461275654E+04  0.25500000920E-02 0. -1.
</event>
<event>
 5   0  0.2446281E-07  0.3893239E+04  0.7818609E-02  0.8026437E-01
       -2   -1    0    0    0  501  0.00000000000E+00  0.00000000000E+00  0.17305138925E+04  0.17305138925E+04  0.25500000920E-02 0. -1.
        2   -1    0    0  501    0  0.00000000000E+00  0.00000000000E+00 -0.21897124883E+04  0.21897124883E+04  0.25500000920E-02 0.  1.
    10030    2    1    2    0    0  0.00000000000E+00  0.00000000000E+00 -0.45919859579E+03  0.39202263809E+04  0.38932392075E+04 0.  0.
        1    1    3    3  502    0  0.18738139853E+04  0.49788676322E+03 -0.40475276652E+03  0.19806299206E+04  0.50400001928E-02 0.  1.
       -1    1    3    3    0  502 -0.18738139853E+04 -0.49788676322E+03 -0.54445829270E+02  0.19395964603E+04  0.50400001928E-02 0. -1.
</event>
<event>
 5   0  0.7675750E-08  0.3859048E+04  0.7818609E-02  0.8033601E-01
        1   -1    0    0  501    0  0.00000000000E+00  0.00000000000E+00  0.17933104428E+04  0.17933104428E+04  0.50400001928E-02 0.  1.
       -1   -1    0    0    0  501  0.00000000000E+00  0.00000000000E+00 -0.20760833865E+04  0.20760833865E+04  0.50400001928E-02 0. -1.
    10030    2    1    2    0    0  0.00000000000E+00  0.00000000000E+00 -0.28277294373E+03  0.38693938293E+04  0.38590475597E+04 0.  0.
        1    1    3    3  502    0  0.70060841963E+03  0.17182435549E+04  0.38903932931E+03  0.18959337202E+04  0.50400001928E-02 0. -1.
       -1    1    3    3    0  502 -0.70060841963E+03 -0.17182435549E+04 -0.67181227303E+03  0.19734601090E+04  0.50400001928E-02 0.  1.
</event>
<event>
 5   0  0.7675750E-08  0.3908392E+04  0.7818609E-02  0.8023286E-01
        1   -1    0    0  501    0  0.00000000000E+00  0.00000000000E+00  0.14892552134E+04  0.14892552134E+04  0.50400001928E-02 0. -1.
       -1   -1    0    0    0  501  0.00000000000E+00  0.00000000000E+00 -0.25642895874E+04  0.25642895874E+04  0.50400001928E-02 0.  1.
    10030    2    1    2    0    0  0.00000000000E+00  0.00000000000E+00 -0.10750343740E+04  0.40535448008E+04  0.39083918108E+04 0.  0.
        2    1    3    3  502    0  0.14447192466E+04  0.93734206394E+03  0.42039590609E+03  0.17727257442E+04  0.25500000920E-02 0. -1.
       -2    1    3    3    0  502 -0.14447192466E+04 -0.93734206394E+03 -0.14954302801E+04  0.22808190566E+04  0.25500000920E-02 0.  1.
</event>
<event>
 5   0  0.7675750E-08  0.3928340E+04  0.7818609E-02  0.8019161E-01
       -1   -1    0    0    0  501  0.00000000000E+00  0.00000000000E+00  0.14617325479E+04  0.14617325479E+04  0.50400001928E-02 0.  1.
        1   -1    0    0  501    0  0.00000000000E+00  0.00000000000E+00 -0.26393091988E+04  0.26393091988E+04  0.50400001928E-02 0. -1.
    10030    2    1    2    0    0  0.00000000000E+00  0.00000000000E+00 -0.11775766510E+04  0.41010417467E+04  0.39283401889E+04 0.  0.
        1    1    3    3  502    0  0.77979857673E+03 -0.47944226523E+03 -0.24030066074E+04  0.25714570697E+04  0.50400001928E-02 0. -1.
       -1    1    3    3    0  502 -0.77979857673E+03  0.47944226523E+03  0.12254299565E+04  0.15295846770E+04  0.50400001928E-02 0.  1.
</event>
<event>
 5   0  0.2446281E-07  0.3919318E+04  0.7818609E-02  0.8021023E-01
       -2   -1    0    0    0  501  0.00000000000E+00  0.00000000000E+00  0.20697869891E+04  0.20697869891E+04  0.25500000920E-02 0.  1.
        2   -1    0    0  501    0  0.00000000000E+00  0.00000000000E+00 -0.18553902822E+04  0.18553902822E+04  0.25500000920E-02 0. -1.
    10030    2    1    2    0    0  0.00000000000E+00  0.00000000000E+00  0.21439670695E+03  0.39251772713E+04  0.39193176272E+04 0.  0.
        1    1    3    3  502    0  0.35443700554E+03 -0.11029989562E+04  0.16900771893E+04  0.20490468989E+04  0.50400001928E-02 0.  1.
       -1    1    3    3    0  502 -0.35443700554E+03  0.11029989562E+04 -0.14756804823E+04  0.18761303724E+04  0.50400001928E-02 0. -1.
</event>
<event>
 5   0  0.7675750E-08  0.3855093E+04  0.7818609E-02  0.8034434E-01
       -1   -1    0    0    0  501  0.00000000000E+00  0.00000000000E+00  0.20658014860E+04  0.20658014860E+04  0.50400001928E-02 0.  1.
        1   -1    0    0  501    0  0.00000000000E+00  0.00000000000E+00 -0.17985444036E+04  0.17985444036E+04  0.50400001928E-02 0. -1.
    10030    2    1    2    0    0  0.00000000000E+00  0.00000000000E+00  0.26725708240E+03  0.38643458895E+04  0.38550930995E+04 0.  0.
        1    1    3    3  502    0 -0.10672839013E+04  0.23823622024E+03  0.17247581835E+04  0.20422150264E+04  0.50400001928E-02 0.  1.
       -1    1    3    3    0  502  0.10672839013E+04 -0.23823622024E+03 -0.14575011011E+04  0.18221308631E+04  0.50400001928E-02 0. -1.
</event>
<event>
 5   0  0.7675750E-08  0.3859730E+04  0.7818609E-02  0.8033457E-01
       -1   -1    0    0    0  501  0.00000000000E+00  0.00000000000E+00  0.32628542799E+04  0.32628542799E+04  0.50400001928E-02 0.  1.
        1   -1    0    0  501    0  0.00000000000E+00  0.00000000000E+00 -0.11414478707E+04  0.11414478708E+04  0.50400001928E-02 0. -1.
    10030    2    1    2    0    0  0.00000000000E+00  0.00000000000E+00  0.21214064092E+04  0.44043021507E+04  0.38597295607E+04 0.  0.
        4    1    3    3  502    0 -0.88987583291E+03 -0.16478705966E+04  0.52912145141E+03  0.19461057588E+04  0.12699999809E+01 0. -1.
       -4    1    3    3    0  502  0.88987583291E+03  0.16478705966E+04  0.15922849578E+04  0.24581963919E+04  0.12699999809E+01 0.  1.
</event>
<event>
 5   0  0.2473224E-07  0.3937263E+04  0.7818609E-02  0.8017324E-01
        2   -1    0    0  501    0  0.00000000000E+00  0.00000000000E+00  0.28395064504E+04  0.28395064504E+04  0.25500000920E-02 0.  1.
       -2   -1    0    0    0  501  0.00000000000E+00  0.00000000000E+00 -0.13648534804E+04  0.13648534804E+04  0.25500000920E-02 0. -1.
    10030    2    1    2    0    0  0.00000000000E+00  0.00000000000E+00  0.14746529700E+04  0.42043599308E+04  0.39372631415E+04 0.  0.
        2    1    3    3  502    0  0.11298797099E+04 -0.15914566962E+04  0.10119658445E+04  0.21985080044E+04  0.25500000920E-02 0.  1.
       -2    1    3    3    0  502 -0.11298797099E+04  0.15914566962E+04  0.46268712547E+03  0.20058519264E+04  0.25500000920E-02 0. -1.
</event>
<event>
 5   0  0.2473224E-07  0.3830936E+04  0.7818609E-02  0.8039548E-01
        2   -1    0    0  501    0  0.00000000000E+00  0.00000000000E+00  0.24935601456E+04  0.24935601456E+04  0.25500000920E-02 0.  1.
       -2   -1    0    0    0  501  0.00000000000E+00  0.00000000000E+00 -0.14713975845E+04  0.14713975845E+04  0.25500000920E-02 0. -1.
    10030    2    1    2    0    0  0.00000000000E+00  0.00000000000E+00  0.10221625611E+04  0.39649577301E+04  0.38309363738E+04 0.  0.
        2    1    3    3  502    0 -0.27539882997E+03  0.77359800501E+03 -0.12799853111E+04  0.15207434976E+04  0.25500000920E-02 0. -1.
       -2    1    3    3    0  502  0.27539882997E+03 -0.77359800501E+03  0.23021478722E+04  0.24442142325E+04  0.25500000920E-02 0.  1.
</event>
<event>
 5   0  0.2486268E-07  0.3886279E+04  0.7818609E-02  0.8027889E-01
       -2   -1    0    0    0  501  0.00000000000E+00  0.00000000000E+00  0.21625115201E+04  0.21625115201E+04  0.25500000920E-02 0.  1.
        2   -1    0    0  501    0  0.00000000000E+00  0.00000000000E+00 -0.17460216288E+04  0.17460216288E+04  0.25500000920E-02 0. -1.
    10030    2    1    2    0    0  0.00000000000E+00  0.00000000000E+00  0.41648989124E+03  0.39085331489E+04  0.38862793964E+04 0.  0.
        5    1    3    3  502    0  0.10609980250E+04  0.53146420077E+03  0.17557562646E+04  0.21191680340E+04  0.46999998093E+01 0.  1.
       -5    1    3    3    0  502 -0.10609980250E+04 -0.53146420077E+03 -0.13392663733E+04  0.17893651149E+04  0.46999998093E+01 0. -1.
</event>
<event>
 5   0  0.2446281E-07  0.3884685E+04  0.7818609E-02  0.8028222E-01
       -2   -1    0    0    0  501  0.00000000000E+00  0.00000000000E+00  0.30128089049E+04  0.30128089049E+04  0.25500000920E-02 0.  1.
        2   -1    0    0  501    0  0.00000000000E+00  0.00000000000E+00 -0.12522184133E+04  0.12522184133E+04  0.25500000920E-02 0. -1.
    10030    2    1    2    0    0  0.00000000000E+00  0.00000000000E+00  0.17605904916E+04  0.42650273182E+04  0.38846852055E+04 0.  0.
        1    1    3    3  502    0  0.89211636553E+03  0.15439820882E+04  0.17257147665E+04  0.24815003029E+04  0.50400001928E-02 0.  1.
       -1    1    3    3    0  502 -0.89211636553E+03 -0.15439820882E+04  0.34875725159E+02  0.17835270153E+04  0.50400001928E-02 0. -1.
</event>
<event>
 5   0  0.7731706E-08  0.3874835E+04  0.7818609E-02  0.8030283E-01
       -1   -1    0    0    0  501  0.00000000000E+00  0.00000000000E+00  0.21330999095E+04  0.21330999095E+04  0.50400001928E-02 0.  1.
        1   -1    0    0  501    0  0.00000000000E+00  0.00000000000E+00 -0.17596864014E+04  0.17596864014E+04  0.50400001928E-02 0. -1.
    10030    2    1    2    0    0  0.00000000000E+00  0.00000000000E+00  0.37341350807E+03  0.38927863109E+04  0.38748351725E+04 0.  0.
        3    1    3    3  502    0 -0.13117071558E+04  0.11545142046E+04 -0.65389425644E+03  0.18657589394E+04  0.10100000352E+00 0. -1.
       -3    1    3    3    0  502  0.13117071558E+04 -0.11545142046E+04  0.10273077645E+04  0.20270273714E+04  0.10100000352E+00 0.  1.
</event>
<event>
 5   0  0.2384787E-07  0.3888775E+04  0.7818609E-02  0.8027368E-01
        2   -1    0    0  501    0  0.00000000000E+00  0.00000000000E+00  0.18794762380E+04  0.18794762380E+04  0.25500000920E-02 0. -1.
       -2   -1    0    0    0  501  0.00000000000E+00  0.00000000000E+00 -0.20115407108E+04  0.20115407108E+04  0.25500000920E-02 0.  1.
    10030    2    1    2    0    0  0.00000000000E+00  0.00000000000E+00 -0.13206447280E+03  0.38910169488E+04  0.38887751119E+04 0.  0.
        4    1    3    3  502    0 -0.12075809288E+04  0.91178736359E+03  0.11557505117E+04  0.19040401136E+04  0.12699999809E+01 0. -1.
       -4    1    3    3    0  502  0.12075809288E+04 -0.91178736359E+03 -0.12878149845E+04  0.19869768351E+04  0.12699999809E+01 0.  1.
</event>
<event>
 5   0  0.2486268E-07  0.3912691E+04  0.7818609E-02  0.8022395E-01
       -2   -1    0    0    0  501  0.00000000000E+00  0.00000000000E+00  0.16025118724E+04  0.16025118724E+04  0.25500000920E-02 0.  1.
        2   -1    0    0  501    0  0.00000000000E+00  0.00000000000E+00 -0.23883053961E+04  0.23883053961E+04  0.25500000920E-02 0. -1.
    10030    2    1    2    0    0  0.00000000000E+00  0.00000000000E+00 -0.78579352370E+03  0.39908172685E+04  0.39126910188E+04 0.  0.
        5    1    3    3  502    0 -0.81379707928E+03 -0.51702801491E+03 -0.21291443337E+04  0.23372764788E+04  0.46999998093E+01 0. -1.
       -5    1    3    3    0  502  0.81379707928E+03  0.51702801491E+03  0.13433508100E+04  0.16535407897E+04  0.46999998093E+01 0.  1.
</event>
<event>
 5   0  0.2446281E-07  0.3909940E+04  0.7818609E-02  0.8022965E-01
       -2   -1    0    0    0  501  0.00000000000E+00  0.00000000000E+00  0.15606150733E+04  0.15606150733E+04  0.25500000920E-02 0.  1.
        2   -1    0    0  501    0  0.00000000000E+00  0.00000000000E+00 -0.24489749863E+04  0.24489749863E+04  0.25500000920E-02 0. -1.
    10030    2    1    2    0    0  0.00000000000E+00  0.00000000000E+00 -0.88835991297E+03  0.40095900595E+04  0.39099397835E+04 0.  0.
        1    1    3    3  502    0  0.13999530299E+04 -0.50497389680E+03 -0.17441797041E+04  0.22928213979E+04  0.50400001928E-02 0. -1.
       -1    1    3    3    0  502 -0.13999530299E+04  0.50497389680E+03  0.85581979117E+03  0.17167686616E+04  0.50400001928E-02 0.  1.
</event>
<event>
 5   0  0.7675750E-08  0.3845719E+04  0.7818609E-02  0.8036414E-01
        1   -1    0    0  501    0  0.00000000000E+00  0.00000000000E+00  0.11902732777E+04  0.11902732777E+04  0.50400001928E-02 0.  1.
       -1   -1    0    0    0  501  0.00000000000E+00  0.00000000000E+00 -0.31063360857E+04  0.31063360857E+04  0.50400001928E-02 0. -1.
    10030    2    1    2    0    0  0.00000000000E+00  0.00000000000E+00 -0.19160628080E+04  0.42966093634E+04  0.38457190924E+04 0.  0.
        1    1    3    3  502    0  0.16065373487E+03  0.10432857113E+04  0.83761901647E+03  0.13475386134E+04  0.50400001928E-02 0.  1.
       -1    1    3    3    0  502 -0.16065373487E+03 -0.10432857113E+04 -0.27536818244E+04  0.29490707499E+04  0.50400001928E-02 0. -1.
</event>
<event>
 5   0  0.7675750E-08  0.3946022E+04  0.7818609E-02  0.8015525E-01
       -1   -1    0    0    0  501  0.00000000000E+00  0.00000000000E+00  0.18562242092E+04  0.18562242092E+04  0.50400001928E-02 0.  1.
        1   -1    0    0  501    0  0.00000000000E+00  0.00000000000E+00 -0.20971457983E+04  0.20971457983E+04  0.50400001928E-02 0. -1.
    10030    2    1    2    0    0  0.00000000000E+00  0.00000000000E+00 -0.24092158911E+03  0.39533700076E+04  0.39460222002E+04 0.  0.
        2    1    3    3  502    0 -0.74907254434E+03  0.13246491319E+04  0.11376513423E+04  0.19000146252E+04  0.25500000920E-02 0.  1.
       -2    1    3    3    0  502  0.74907254434E+03 -0.13246491319E+04 -0.13785729314E+04  0.20533553824E+04  0.25500000920E-02 0. -1.
</event>
<event>
 5   0  0.7675750E-08  0.3882333E+04  0.7818609E-02  0.8028714E-01
        1   -1    0    0  501    0  0.00000000000E+00  0.00000000000E+00  0.24186139869E+04  0.24186139869E+04  0.50400001928E-02 0.  1.
       -1   -1    0    0    0  501  0.00000000000E+00  0.00000000000E+00 -0.15579700542E+04  0.15579700542E+04  0.50400001928E-02 0. -1.
    10030    2    1    2    0    0  0.00000000000E+00  0.00000000000E+00  0.86064393268E+03  0.39765840411E+04  0.38823334036E+04 0.  0.
        2    1    3    3  502    0 -0.12164744989E+04  0.94932066903E+03 -0.77602576037E+03  0.17272046549E+04  0.25500000920E-02 0. -1.
       -2    1    3    3    0  502  0.12164744989E+04 -0.94932066903E+03  0.16366696931E+04  0.22493793862E+04  0.25500000920E-02 0.  1.
</event>
<event>
 5   0  0.2473224E-07  0.3809305E+04  0.7818609E-02  0.8044161E-01
        2   -1    0    0  501    0  0.00000000000E+00  0.00000000000E+00  0.26123512560E+04  0.26123512560E+04  0.25500000920E-02 0.  1.
       -2   -1    0    0    0  501  0.00000000000E+00  0.00000000000E+00 -0.13886731022E+04  0.13886731022E+04  0.25500000920E-02 0. -1.
    10030    2    1    2    0    0  0.00000000000E+00  0.00000000000E+00  0.12236781538E+04  0.40010243582E+04  0.38093054079E+04 0.  0.
        2    1    3    3  502    0 -0.13779785570E+04  0.84511501774E+03 -0.44615969599E+03  0.16769325481E+04  0.25500000920E-02 0. -1.
       -2    1    3    3    0  502  0.13779785570E+04 -0.84511501774E+03  0.16698378498E+04  0.23240918100E+04  0.25500000920E-02 0.  1.
</event>
<event>
 5   0  0.2384787E-07  0.3959994E+04  0.7818609E-02  0.8012666E-01
       -2   -1    0    0    0  501  0.00000000000E+00  0.00000000000E+00  0.20181428605E+04  0.20181428605E+04  0.25500000920E-02 0. -1.
        2   -1    0    0  501    0  0.00000000000E+00  0.00000000000E+00 -0.19425721016E+04  0.19425721016E+04  0.25500000920E-02 0.  1.
    10030    2    1    2    0    0  0.00000000000E+00  0.00000000000E+00  0.75570758838E+02  0.39607149621E+04  0.39599939484E+04 0.  0.
        4    1    3    3  502    0 -0.41880050262E+03 -0.70647604345E+03  0.18397471539E+04  0.20147390561E+04  0.12699999809E+01 0. -1.
       -4    1    3    3    0  502  0.41880050262E+03  0.70647604345E+03 -0.17641763951E+04  0.19459759060E+04  0.12699999809E+01 0.  1.
</event>
<event>
 5   0  0.2486268E-07  0.3862235E+04  0.7818609E-02  0.8032930E-01
       -2   -1    0    0    0  501  0.00000000000E+00  0.00000000000E+00  0.29055008239E+04  0.29055008239E+04  0.25500000920E-02 0. -1.
        2   -1    0    0  501    0  0.00000000000E+00  0.00000000000E+00 -0.12835014831E+04  0.12835014831E+04  0.25500000920E-02 0.  1.
    10030    2    1    2    0    0  0.00000000000E+00  0.00000000000E+00  0.16219993408E+04  0.41890023070E+04  0.38622349057E+04 0.  0.
        5    1    3    3  502    0 -0.46095941987E+03 -0.18154513883E+04  0.30129819121E+03  0.18971425935E+04  0.46999998093E+01 0.  1.
       -5    1    3    3    0  502  0.46095941987E+03  0.18154513883E+04  0.13207011496E+04  0.22918597135E+04  0.46999998093E+01 0. -1.
</event>
<event>
 5   0  0.7675750E-08  0.3906596E+04  0.7818609E-02  0.8023659E-01
       -1   -1    0    0    0  501  0.00000000000E+00  0.00000000000E+00  0.17081793135E+04  0.17081793135E+04  0.50400001928E-02 0. -1.
        1   -1    0    0  501    0  0.00000000000E+00  0.00000000000E+00 -0.22335901440E+04  0.22335901441E+04  0.50400001928E-02 0.  1.
    10030    2    1    2    0    0  0.00000000000E+00  0.00000000000E+00 -0.52541083053E+03  0.39417694576E+04  0.39065956939E+04 0.  0.
        1    1    3    3  502    0 -0.42525652856E+03  0.10934209242E+03  0.16577373400E+04  0.17149028826E+04  0.50400001928E-02 0. -1.
       -1    1    3    3    0  502  0.42525652856E+03 -0.10934209242E+03 -0.21831481705E+04  0.22268665750E+04  0.50400001928E-02 0.  1.
</event>
<event>
 5   0  0.7675750E-08  0.3916773E+04  0.7818609E-02  0.8021550E-01
       -1   -1    0    0    0  501  0.00000000000E+00  0.00000000000E+00  0.12255095255E+04  0.12255095256E+04  0.50400001928E-02 0. -1.
        1   -1    0    0  501    0  0.00000000000E+00  0.00000000000E+00 -0.31295372577E+04  0.31295372577E+04  0.50400001928E-02 0.  1.
    10030    2    1    2    0    0  0.00000000000E+00  0.00000000000E+00 -0.19040277322E+04  0.43550467833E+04  0.39167730187E+04 0.  0.
        4    1    3    3  502    0  0.14134375518E+04  0.44492622747E+03  0.47169632509E+03  0.15550768781E+04  0.12699999809E+01 0. -1.
       -4    1    3    3    0  502 -0.14134375518E+04 -0.44492622747E+03 -0.23757240573E+04  0.27999699052E+04  0.12699999809E+01 0.  1.
</event>
<event>
 5   0  0.2473224E-07  0.3826565E+04  0.7818609E-02  0.8040478E-01
        2   -1    0    0  501    0  0.00000000000E+00  0.00000000000E+00  0.18573964266E+04  0.18573964266E+04  0.25500000920E-02 0. -1.
       -2   -1    0    0    0  501  0.00000000000E+00  0.00000000000E+00 -0.19708501678E+04  0.19708501678E+04  0.25500000920E-02 0.  1.
    10030    2    1    2    0    0  0.00000000000E+00  0.00000000000E+00 -0.11345374120E+03  0.38282465945E+04  0.38265650702E+04 0.  0.
        2    1    3    3  502    0  0.20989760661E+03  0.17581811262E+04 -0.78188480752E+03  0.19356140447E+04  0.25500000920E-02 0. -1.
       -2    1    3    3    0  502 -0.20989760661E+03 -0.17581811262E+04  0.66843106632E+03  0.18926325497E+04  0.25500000920E-02 0.  1.
</event>
<event>
 5   0  0.2446281E-07  0.3899200E+04  0.7818609E-02  0.8025196E-01
       -2   -1    0    0    0  501  0.00000000000E+00  0.00000000000E+00  0.16079427696E+04  0.16079427696E+04  0.25500000920E-02 0.  1.
        2   -1    0    0  501    0  0.00000000000E+00  0.00000000000E+00 -0.23638530811E+04  0.23638530811E+04  0.25500000920E-02 0. -1.
    10030    2    1    2    0    0  0.00000000000E+00  0.00000000000E+00 -0.75591031151E+03  0.39717958506E+04  0.38992001590E+04 0.  0.
        1    1    3    3  502    0 -0.10851442238E+04  0.65546650635E+03  0.11307575679E+04  0.16987604319E+04  0.50400001928E-02 0.  1.
       -1    1    3    3    0  502  0.10851442238E+04 -0.65546650635E+03 -0.18866678795E+04  0.22730354187E+04  0.50400001928E-02 0. -1.
</event>
<event>
 5   0  0.2446281E-07  0.3935451E+04  0.7818609E-02  0.8017696E-01
        2   -1    0    0  501    0  0.00000000000E+00  0.00000000000E+00  0.21604166902E+04  0.21604166902E+04  0.25500000920E-02 0.  1.
       -2   -1    0    0    0  501  0.00000000000E+00  0.00000000000E+00 -0.17922210852E+04  0.17922210852E+04  0.25500000920E-02 0. -1.
    10030    2    1    2    0    0  0.00000000000E+00  0.00000000000E+00  0.36819560502E+03  0.39526377755E+04  0.39354513566E+04 0.  0.
        1    1    3    3  502    0 -0.28283977737E+02 -0.19569358769E+04  0.38881712165E+03  0.19953888754E+04  0.50400001928E-02 0.  1.
       -1    1    3    3    0  502  0.28283977737E+02  0.19569358769E+04 -0.20621516624E+02  0.19572489001E+04  0.50400001928E-02 0. -1.
</event>
<event>
 5   0  0.7675750E-08  0.4087296E+04  0.7818609E-02  0.7987164E-01
       -1   -1    0    0    0  501  0.00000000000E+00  0.00000000000E+00  0.13260188030E+04  0.13260188031E+04  0.50400001928E-02 0. -1.
        1   -1    0    0  501    0  0.00000000000E+00  0.00000000000E+00 -0.31496520926E+04  0.31496520926E+04  0.50400001928E-02 0.  1.
    10030    2    1    2    0    0  0.00000000000E+00  0.00000000000E+00 -0.18236332896E+04  0.44756708957E+04  0.40872963670E+04 0.  0.
        2    1    3    3  502    0 -0.16218343151E+04  0.11246054881E+04 -0.14927077787E+04  0.24745222897E+04  0.25500000920E-02 0.  1.
       -2    1    3    3    0  502  0.16218343151E+04 -0.11246054881E+04 -0.33092551086E+03  0.20011486060E+04  0.25500000920E-02 0. -1.
</event>
<event>
 5   0  0.2486268E-07  0.3893909E+04  0.7818609E-02  0.8026297E-01
       -2   -1    0    0    0  501  0.00000000000E+00  0.00000000000E+00  0.21872486903E+04  0.21872486903E+04  0.25500000920E-02 0.  1.
        2   -1    0    0  501    0  0.00000000000E+00  0.00000000000E+00 -0.17330591909E+04  0.17330591909E+04  0.25500000920E-02 0. -1.
    10030    2    1    2    0    0  0.00000000000E+00  0.00000000000E+00  0.45418949942E+03  0.39203078812E+04  0.38939088050E+04 0.  0.
        5    1    3    3  502    0  0.84671133850E+01 -0.16767383879E+04 -0.76910133182E+03  0.18447390769E+04  0.46999998093E+01 0. -1.
       -5    1    3    3    0  502 -0.84671133850E+01  0.16767383879E+04  0.12232908312E+04  0.20755688042E+04  0.46999998093E+01 0.  1.
</event>
<event>
 5   0  0.7675750E-08  0.4037526E+04  0.7818609E-02  0.7997019E-01
       -1   -1    0    0    0  501  0.00000000000E+00  0.00000000000E+00  0.20302722349E+04  0.20302722349E+04  0.50400001928E-02 0. -1.
        1   -1    0    0  501    0  0.00000000000E+00  0.00000000000E+00 -0.20073185219E+04  0.20073185219E+04  0.50400001928E-02 0.  1.
    10030    2    1    2    0    0  0.00000000000E+00  0.00000000000E+00  0.22953712987E+02  0.40375907567E+04  0.40375255103E+04 0.  0.
        4    1    3    3  502    0 -0.13392428475E+04 -0.45487761590E+03  0.14519571446E+04  0.20269845122E+04  0.12699999809E+01 0. -1.
       -4    1    3    3    0  502  0.13392428475E+04  0.45487761590E+03 -0.14290034316E+04  0.20106062445E+04  0.12699999809E+01 0.  1.
</event>
<event>
 5   0  0.7675750E-08  0.3918727E+04  0.7818609E-02  0.8021146E-01
        1   -1    0    0  501    0  0.00000000000E+00  0.00000000000E+00  0.18027448949E+04  0.18027448949E+04  0.50400001928E-02 0. -1.
       -1   -1    0    0    0  501  0.00000000000E+00  0.00000000000E+00 -0.21295882663E+04  0.21295882663E+04  0.50400001928E-02 0.  1.
    10030    2    1    2    0    0  0.00000000000E+00  0.00000000000E+00 -0.32684337141E+03  0.39323331611E+04  0.39187265152E+04 0.  0.
        1    1    3    3  502    0  0.10440293251E+04 -0.11288626193E+04 -0.13820420450E+04  0.20674545362E+04  0.50400001928E-02 0. -1.
       -1    1    3    3    0  502 -0.10440293251E+04  0.11288626193E+04  0.10551986736E+04  0.18648786249E+04  0.50400001928E-02 0.  1.
</event>
<event>
 5   0  0.7675750E-08  0.3934916E+04  0.7818609E-02  0.8017806E-01
       -1   -1    0    0    0  501  0.00000000000E+00  0.00000000000E+00  0.17794900148E+04  0.17794900148E+04  0.50400001928E-02 0. -1.
        1   -1    0    0  501    0  0.00000000000E+00  0.00000000000E+00 -0.21752812273E+04  0.21752812273E+04  0.50400001928E-02 0.  1.
    10030    2    1    2    0    0  0.00000000000E+00  0.00000000000E+00 -0.39579121249E+03  0.39547712421E+04  0.39349161228E+04 0.  0.
        1    1    3    3  502    0 -0.10755568872E+04  0.11174079363E+04  0.10187779644E+04  0.18556216356E+04  0.50400001928E-02 0. -1.
       -1    1    3    3    0  502  0.10755568872E+04 -0.11174079363E+04 -0.14145691769E+04  0.20991496064E+04  0.50400001928E-02 0.  1.
</event>
<event>
 5   0  0.7675750E-08  0.3909549E+04  0.7818609E-02  0.8023046E-01
        1   -1    0    0  501    0  0.00000000000E+00  0.00000000000E+00  0.18512265428E+04  0.18512265428E+04  0.50400001928E-02 0.  1.
       -1   -1    0    0    0  501  0.00000000000E+00  0.00000000000E+00 -0.20641142374E+04  0.20641142375E+04  0.50400001928E-02 0. -1.
    10030    2    1    2    0    0  0.00000000000E+00  0.00000000000E+00 -0.21288769461E+03  0.39153407803E+04  0.39095488557E+04 0.  0.
        2    1    3    3  502    0  0.34054275137E+03  0.11354931213E+04  0.14501525630E+04  0.18730340226E+04  0.25500000920E-02 0.  1.
       -2    1    3    3    0  502 -0.34054275137E+03 -0.11354931213E+04 -0.16630402576E+04  0.20423067577E+04  0.25500000920E-02 0. -1.
</event>
<event>
 5   0  0.7731706E-08  0.3883637E+04  0.7818609E-02  0.8028441E-01
        1   -1    0    0  501    0  0.00000000000E+00  0.00000000000E+00  0.18783820508E+04  0.18783820508E+04  0.50400001928E-02 0. -1.
       -1   -1    0    0    0  501  0.00000000000E+00  0.00000000000E+00 -0.20073972595E+04  0.20073972595E+04  0.50400001928E-02 0.  1.
    10030    2    1    2    0    0  0.00000000000E+00  0.00000000000E+00 -0.12901520870E+03  0.38857793103E+04  0.38836369455E+04 0.  0.
        3    1    3    3  502    0  0.19017223947E+04 -0.33687497090E+03  0.13716290104E+03  0.19361938136E+04  0.10100000352E+00 0. -1.
       -3    1    3    3    0  502 -0.19017223947E+04  0.33687497090E+03 -0.26617810975E+03  0.19495854966E+04  0.10100000352E+00 0.  1.
</event>
<event>
 5   0  0.2395572E-07  0.3899553E+04  0.7818609E-02  0.8025122E-01
       -2   -1    0    0    0  501  0.00000000000E+00  0.00000000000E+00  0.13332849705E+04  0.13332849705E+04  0.25500000920E-02 0. -1.
        2   -1    0    0  501    0  0.00000000000E+00  0.00000000000E+00 -0.28513247085E+04  0.28513247085E+04  0.25500000920E-02 0.  1.
    10030    2    1    2    0    0  0.00000000000E+00  0.00000000000E+00 -0.15180397380E+04  0.41846096790E+04  0.38995529897E+04 0.  0.
        3    1    3    3  502    0 -0.37338742227E+03  0.65308314278E+03  0.11712754506E+04  0.13920567337E+04  0.10100000352E+00 0. -1.
       -3    1    3    3    0  502  0.37338742227E+03 -0.65308314278E+03 -0.26893151886E+04  0.27925529453E+04  0.10100000352E+00 0.  1.
</event>
<event>
 5   0  0.7731706E-08  0.3897781E+04  0.7818609E-02  0.8025491E-01
        1   -1    0    0  501    0  0.00000000000E+00  0.00000000000E+00  0.14663234200E+04  0.14663234201E+04  0.50400001928E-02 0. -1.
       -1   -1    0    0    0  501  0.00000000000E+00  0.00000000000E+00 -0.25902702888E+04  0.25902702888E+04  0.50400001928E-02 0.  1.
    10030    2    1    2    0    0  0.00000000000E+00  0.00000000000E+00 -0.11239468687E+04  0.40565937088E+04  0.38977809013E+04 0.  0.
        3    1    3    3  502    0  0.10185969984E+04  0.16158788533E+04 -0.15947346680E+03  0.19167775329E+04  0.10100000352E+00 0. -1.
       -3    1    3    3    0  502 -0.10185969984E+04 -0.16158788533E+04 -0.96447340191E+03  0.21398161760E+04  0.10100000352E+00 0.  1.
</event>
<event>
 5   0  0.2384787E-07  0.3839473E+04  0.7818609E-02  0.8037737E-01
       -2   -1    0    0    0  501  0.00000000000E+00  0.00000000000E+00  0.16666518216E+04  0.16666518216E+04  0.25500000920E-02 0. -1.
        2   -1    0    0  501    0  0.00000000000E+00  0.00000000000E+00 -0.22112529897E+04  0.22112529897E+04  0.25500000920E-02 0.  1.
    10030    2    1    2    0    0  0.00000000000E+00  0.00000000000E+00 -0.54460116815E+03  0.38779048113E+04  0.38394733094E+04 0.  0.
        4    1    3    3  502    0 -0.36841294371E+03  0.55866949156E+03 -0.20896296261E+04  0.21941725741E+04  0.12699999809E+01 0.  1.
       -4    1    3    3    0  502  0.36841294371E+03 -0.55866949156E+03  0.15450284579E+04  0.16837322372E+04  0.12699999809E+01 0. -1.
</event>
<event>
 5   0  0.2395572E-07  0.3953025E+04  0.7818609E-02  0.8014091E-01
        2   -1    0    0  501    0  0.00000000000E+00  0.00000000000E+00  0.24536941813E+04  0.24536941813E+04  0.25500000920E-02 0.  1.
       -2   -1    0    0    0  501  0.00000000000E+00  0.00000000000E+00 -0.15921303473E+04  0.15921303473E+04  0.25500000920E-02 0. -1.
    10030    2    1    2    0    0  0.00000000000E+00  0.00000000000E+00  0.86156383392E+03  0.40458245286E+04  0.39530246491E+04 0.  0.
        3    1    3    3  502    0 -0.66965913430E+02 -0.50193967593E+02 -0.15903161632E+04  0.15925166803E+04  0.10100000352E+00 0. -1.
       -3    1    3    3    0  502  0.66965913430E+02  0.50193967593E+02  0.24518799971E+04  0.24533078483E+04  0.10100000352E+00 0.  1.
</event>
<event>
 5   0  0.2473224E-07  0.3953660E+04  0.7818609E-02  0.8013961E-01
       -2   -1    0    0    0  501  0.00000000000E+00  0.00000000000E+00  0.20786390856E+04  0.20786390856E+04  0.25500000920E-02 0.  1.
        2   -1    0    0  501    0  0.00000000000E+00  0.00000000000E+00 -0.18800073323E+04  0.18800073323E+04  0.25500000920E-02 0. -1.
    10030    2    1    2    0    0  0.00000000000E+00  0.00000000000E+00  0.19863175328E+03  0.39586464179E+04  0.39536599359E+04 0.  0.
        2    1    3    3  502    0 -0.51516507583E+03  0.12616316016E+03  0.20060665472E+04  0.20749976362E+04  0.25500000920E-02 0.  1.
       -2    1    3    3    0  502  0.51516507583E+03 -0.12616316016E+03 -0.18074347940E+04  0.18836487817E+04  0.25500000920E-02 0. -1.
</event>
<event>
 5   0  0.7675750E-08  0.3912488E+04  0.7818609E-02  0.8022437E-01
        1   -1    0    0  501    0  0.00000000000E+00  0.00000000000E+00  0.24818949601E+04  0.24818949602E+04  0.50400001928E-02 0.  1.
       -1   -1    0    0    0  501  0.00000000000E+00  0.00000000000E+00 -0.15419224873E+04  0.15419224873E+04  0.50400001928E-02 0. -1.
    10030    2    1    2    0    0  0.00000000000E+00  0.00000000000E+00  0.93997247286E+03  0.40238174475E+04  0.39124875208E+04 0.  0.
        5    1    3    3  502    0  0.13901963676E+04  0.13658846267E+04  0.29611708168E+03  0.19712925125E+04  0.46999998093E+01 0.  1.
       -5    1    3    3    0  502 -0.13901963676E+04 -0.13658846267E+04  0.64385539118E+03  0.20525249349E+04  0.46999998093E+01 0. -1.
</event>
<event>
 5   0  0.7675750E-08  0.3899606E+04  0.7818609E-02  0.8025111E-01
        1   -1    0    0  501    0  0.00000000000E+00  0.00000000000E+00  0.12321655756E+04  0.12321655756E+04  0.50400001928E-02 0. -1.
       -1   -1    0    0    0  501  0.00000000000E+00  0.00000000000E+00 -0.30854058655E+04  0.30854058655E+04  0.50400001928E-02 0.  1.
    10030    2    1    2    0    0  0.00000000000E+00  0.00000000000E+00 -0.18532402899E+04  0.43175714411E+04  0.38996055669E+04 0.  0.
        1    1    3    3  502    0 -0.69295843442E+03  0.30732523704E+03 -0.29155727604E+04  0.30125080438E+04  0.50400001928E-02 0.  1.
       -1    1    3    3    0  502  0.69295843442E+03 -0.30732523704E+03  0.10623324705E+04  0.13050633973E+04  0.50400001928E-02 0. -1.
</event>
<event>
 5   0  0.2384787E-07  0.3722014E+04  0.7818609E-02  0.8063101E-01
        2   -1    0    0  501    0  0.00000000000E+00  0.00000000000E+00  0.11467808745E+04  0.11467808745E+04  0.25500000920E-02 0.  1.
       -2   -1    0    0    0  501  0.00000000000E+00  0.00000000000E+00 -0.30200605621E+04  0.30200605621E+04  0.25500000920E-02 0. -1.
    10030    2    1    2    0    0  0.00000000000E+00  0.00000000000E+00 -0.18732796876E+04  0.41668414366E+04  0.37220143430E+04 0.  0.
        4    1    3    3  502    0 -0.15790924689E+04  0.66332668739E+03 -0.12176798672E+03  0.17170801889E+04  0.12699999809E+01 0.  1.
       -4    1    3    3    0  502  0.15790924689E+04 -0.66332668739E+03 -0.17515117009E+04  0.24497612477E+04  0.12699999809E+01 0. -1.
</event>
<event>
 5   0  0.2384787E-07  0.3970132E+04  0.7818609E-02  0.8010599E-01
       -2   -1    0    0    0  501  0.00000000000E+00  0.00000000000E+00  0.17957854195E+04  0.17957854195E+04  0.25500000920E-02 0. -1.
        2   -1    0    0  501    0  0.00000000000E+00  0.00000000000E+00 -0.21942970482E+04  0.21942970482E+04  0.25500000920E-02 0.  1.
    10030    2    1    2    0    0  0.00000000000E+00  0.00000000000E+00 -0.39851162865E+03  0.39900824677E+04  0.39701318090E+04 0.  0.
        4    1    3    3  502    0 -0.10991948510E+04  0.53153032567E+03 -0.17722827710E+04  0.21521481457E+04  0.12699999809E+01 0.  1.
       -4    1    3    3    0  502  0.10991948510E+04 -0.53153032567E+03  0.13737711424E+04  0.18379343220E+04  0.12699999809E+01 0. -1.
</event>
<event>
 5   0  0.2486268E-07  0.3876198E+04  0.7818609E-02  0.8029998E-01
       -2   -1    0    0    0  501  0.00000000000E+00  0.00000000000E+00  0.18502101240E+04  0.18502101240E+04  0.25500000920E-02 0. -1.
        2   -1    0    0  501    0  0.00000000000E+00  0.00000000000E+00 -0.20301631397E+04  0.20301631397E+04  0.25500000920E-02 0.  1.
    10030    2    1    2    0    0  0.00000000000E+00  0.00000000000E+00 -0.17995301566E+03  0.38803732637E+04  0.38761983409E+04 0.  0.
        5    1    3    3  502    0 -0.17970140157E+04 -0.61191453763E+03 -0.48091925147E+03  0.19583166727E+04  0.46999998093E+01 0.  1.
       -5    1    3    3    0  502  0.17970140157E+04  0.61191453763E+03  0.30096623581E+03  0.19220565910E+04  0.46999998093E+01 0. -1.
</event>
<event>
 5   0  0.2395572E-07  0.3968757E+04  0.7818609E-02  0.8010879E-01
        2   -1    0    0  501    0  0.00000000000E+00  0.00000000000E+00  0.19214025014E+04  0.19214025014E+04  0.25500000920E-02 0. -1.
       -2   -1    0    0    0  501  0.00000000000E+00  0.00000000000E+00 -0.20494182671E+04  0.20494182671E+04  0.25500000920E-02 0.  1.
    10030    2    1    2    0    0  0.00000000000E+00  0.00000000000E+00 -0.12801576573E+03  0.39708207685E+04  0.39687566742E+04 0.  0.
        3    1    3    3  502    0  0.17361114094E+03 -0.26809797262E+03 -0.20235310109E+04  0.20485836847E+04  0.10100000352E+00 0.  1.
       -3    1    3    3    0  502 -0.17361114094E+03  0.26809797262E+03  0.18955152452E+04  0.19222370837E+04  0.10100000352E+00 0. -1.
</event>
<event>
 5   0  0.2384787E-07  0.3786220E+04  0.7818609E-02  0.8049119E-01
        2   -1    0    0  501    0  0.00000000000E+00  0.00000000000E+00  0.15774066788E+04  0.15774066788E+04  0.25500000920E-02 0.  1.
       -2   -1    0    0    0  501  0.00000000000E+00  0.00000000000E+00 -0.22719984429E+04  0.22719984429E+04  0.25500000920E-02 0. -1.
    10030    2    1    2    0    0  0.00000000000E+00  0.00000000000E+00 -0.69459176410E+03  0.38494051218E+04  0.37862200244E+04 0.  0.
        4    1    3    3  502    0 -0.40221189577E+03  0.17983967468E+03 -0.22191475309E+04  0.22624619543E+04  0.12699999809E+01 0. -1.
       -4    1    3    3    0  502  0.40221189577E+03 -0.17983967468E+03  0.15245557668E+04  0.15869431675E+04  0.12699999809E+01 0.  1.
</event>
<event>
 5   0  0.7675750E-08  0.3911362E+04  0.7818609E-02  0.8022670E-01
       -1   -1    0    0    0  501  0.00000000000E+00  0.00000000000E+00  0.22130275027E+04  0.22130275027E+04  0.50400001928E-02 0. -1.
        1   -1    0    0  501    0  0.00000000000E+00  0.00000000000E+00 -0.17282602917E+04  0.17282602917E+04  0.50400001928E-02 0.  1.
    10030    2    1    2    0    0  0.00000000000E+00  0.00000000000E+00  0.48476721095E+03  0.39412877944E+04  0.39113616848E+04 0.  0.
        5    1    3    3  502    0 -0.16816918330E+04  0.95396230421E+03  0.53880086068E+03  0.20071023782E+04  0.46999998093E+01 0. -1.
       -5    1    3    3    0  502  0.16816918330E+04 -0.95396230421E+03 -0.54033649732E+02  0.19341854162E+04  0.46999998093E+01 0.  1.
</event>
<event>
 5   0  0.7675750E-08  0.3842084E+04  0.7818609E-02  0.8037184E-01
        1   -1    0    0  501    0  0.00000000000E+00  0.00000000000E+00  0.24260736123E+04  0.24260736123E+04  0.50400001928E-02 0.  1.
       -1   -1    0    0    0  501  0.00000000000E+00  0.00000000000E+00 -0.15211421315E+04  0.15211421315E+04  0.50400001928E-02 0. -1.
    10030    2    1    2    0    0  0.00000000000E+00  0.00000000000E+00  0.90493148081E+03  0.39472157437E+04  0.38420842186E+04 0.  0.
        2    1    3    3  502    0  0.13121787491E+04 -0.12657068512E+04  0.10744880030E+04  0.21162115611E+04  0.25500000920E-02 0.  1.
       -2    1    3    3    0  502 -0.13121787491E+04  0.12657068512E+04 -0.16955652214E+03  0.18310041827E+04  0.25500000920E-02 0. -1.
</event>
<event>
 5   0  0.2384787E-07  0.3871506E+04  0.7818609E-02  0.8030982E-01
       -2   -1    0    0    0  501  0.00000000000E+00  0.00000000000E+00  0.14830092854E+04  0.14830092854E+04  0.25500000920E-02 0. -1.
        2   -1    0    0  501    0  0.00000000000E+00  0.00000000000E+00 -0.25267139712E+04  0.25267139712E+04  0.25500000920E-02 0.  1.
    10030    2    1    2    0    0  0.00000000000E+00  0.00000000000E+00 -0.10437046858E+04  0.40097232566E+04  0.38715063120E+04 0.  0.
        4    1    3    3  502    0  0.69031152594E+03  0.91811305820E+03 -0.21355786786E+04  0.24249040179E+04  0.12699999809E+01 0.  1.
       -4    1    3    3    0  502 -0.69031152594E+03 -0.91811305820E+03  0.10918739928E+04  0.15848192388E+04  0.12699999809E+01 0. -1.
</event>
<event>
 5   0  0.2395572E-07  0.3855734E+04  0.7818609E-02  0.8034299E-01
       -2   -1    0    0    0  501  0.00000000000E+00  0.00000000000E+00  0.22112100472E+04  0.22112100472E+04  0.25500000920E-02 0. -1.
        2   -1    0    0  501    0  0.00000000000E+00  0.00000000000E+00 -0.16808315330E+04  0.16808315330E+04  0.25500000920E-02 0.  1.
    10030    2    1    2    0    0  0.00000000000E+00  0.00000000000E+00  0.53037851429E+03  0.38920415802E+04  0.38557342094E+04 0.  0.
        3    1    3    3  502    0 -0.12401925926E+04 -0.14706717495E+04  0.13863523438E+03  0.19287749480E+04  0.10100000352E+00 0. -1.
       -3    1    3    3    0  502  0.12401925926E+04  0.14706717495E+04  0.39174327991E+03  0.19632666322E+04  0.10100000352E+00 0.  1.
</event>
<event>
 5   0  0.2473224E-07  0.3844986E+04  0.7818609E-02  0.8036569E-01
        2   -1    0    0  501    0  0.00000000000E+00  0.00000000000E+00  0.30065910530E+04  0.30065910530E+04  0.25500000920E-02 0. -1.
       -2   -1    0    0    0  501  0.00000000000E+00  0.00000000000E+00 -0.12292922792E+04  0.12292922792E+04  0.25500000920E-02 0.  1.
    10030    2    1    2    0    0  0.00000000000E+00  0.00000000000E+00  0.17772987738E+04  0.42358833322E+04  0.38449859132E+04 0.  0.
        2    1    3    3  502    0  0.10396283235E+04 -0.15563233819E+04  0.13726420147E+04  0.23210160750E+04  0.25500000920E-02 0. -1.
       -2    1    3    3    0  502 -0.10396283235E+04  0.15563233819E+04  0.40465675909E+03  0.19148672572E+04  0.25500000920E-02 0.  1.
</event>
<event>
 5   0  0.2384787E-07  0.3824372E+04  0.7818609E-02  0.8040945E-01
       -2   -1    0    0    0  501  0.00000000000E+00  0.00000000000E+00  0.12525639608E+04  0.12525639608E+04  0.25500000920E-02 0. -1.
        2   -1    0    0  501    0  0.00000000000E+00  0.00000000000E+00 -0.29191770841E+04  0.29191770841E+04  0.25500000920E-02 0.  1.
    10030    2    1    2    0    0  0.00000000000E+00  0.00000000000E+00 -0.16666131234E+04  0.41717410449E+04  0.38243723724E+04 0.  0.
        4    1    3    3  502    0 -0.10549264850E+04  0.63323373112E+03  0.76340943018E+03  0.14479814978E+04  0.12699999809E+01 0. -1.
       -4    1    3    3    0  502  0.10549264850E+04 -0.63323373112E+03 -0.24300225536E+04  0.27237595471E+04  0.12699999809E+01 0.  1.
</event>
<event>
 5   0  0.7675750E-08  0.3927460E+04  0.7818609E-02  0.8019342E-01
       -1   -1    0    0    0  501  0.00000000000E+00  0.00000000000E+00  0.13110390511E+04  0.13110390511E+04  0.50400001928E-02 0. -1.
        1   -1    0    0  501    0  0.00000000000E+00  0.00000000000E+00 -0.29413576081E+04  0.29413576081E+04  0.50400001928E-02 0.  1.
    10030    2    1    2    0    0  0.00000000000E+00  0.00000000000E+00 -0.16303185570E+04  0.42523966593E+04  0.39274595797E+04 0.  0.
        1    1    3    3  502    0 -0.12487258113E+04  0.14716816183E+04 -0.12071507277E+04  0.22764832125E+04  0.50400001928E-02 0.  1.
       -1    1    3    3    0  502  0.12487258113E+04 -0.14716816183E+04 -0.42316782927E+03  0.19759134468E+04  0.50400001928E-02 0. -1.
</event>
<event>
 5   0  0.2473224E-07  0.3875884E+04  0.7818609E-02  0.8030064E-01
        2   -1    0    0  501    0  0.00000000000E+00  0.00000000000E+00  0.21506851823E+04  0.21506851823E+04  0.25500000920E-02 0.  1.
       -2   -1    0    0    0  501  0.00000000000E+00  0.00000000000E+00 -0.17462427410E+04  0.17462427410E+04  0.25500000920E-02 0. -1.
    10030    2    1    2    0    0  0.00000000000E+00  0.00000000000E+00  0.40444244123E+03  0.38969279233E+04  0.38758835833E+04 0.  0.
        2    1    3    3  502    0  0.73968421499E+03 -0.15492304388E+04 -0.70175484193E+03  0.18546448578E+04  0.25500000920E-02 0. -1.
       -2    1    3    3    0  502 -0.73968421499E+03  0.15492304388E+04  0.11061972832E+04  0.20422830655E+04  0.25500000920E-02 0.  1.
</event>
<event>
 5   0  0.7675750E-08  0.3885282E+04  0.7818609E-02  0.8028097E-01
        1   -1    0    0  501    0  0.00000000000E+00  0.00000000000E+00  0.12645997802E+04  0.12645997802E+04  0.50400001928E-02 0. -1.
       -1   -1    0    0    0  501  0.00000000000E+00  0.00000000000E+00 -0.29842283436E+04  0.29842283436E+04  0.50400001928E-02 0.  1.
    10030    2    1    2    0    0  0.00000000000E+00  0.00000000000E+00 -0.17196285635E+04  0.42488281238E+04  0.38852822329E+04 0.  0.
        5    1    3    3  502    0 -0.58453606068E+03 -0.11660205834E+04 -0.24341548305E+04  0.27615970445E+04  0.46999998093E+01 0.  1.
       -5    1    3    3    0  502  0.58453606068E+03  0.11660205834E+04  0.71452626705E+03  0.14872310794E+04  0.46999998093E+01 0. -1.
</event>
<event>
 5   0  0.7731706E-08  0.3899495E+04  0.7818609E-02  0.8025134E-01
        1   -1    0    0  501    0  0.00000000000E+00  0.00000000000E+00  0.12062173546E+04  0.12062173546E+04  0.50400001928E-02 0. -1.
       -1   -1    0    0    0  501  0.00000000000E+00  0.00000000000E+00 -0.31515998531E+04  0.31515998531E+04  0.50400001928E-02 0.  1.
    10030    2    1    2    0    0  0.00000000000E+00  0.00000000000E+00 -0.19453824986E+04  0.43578172077E+04  0.38994945506E+04 0.  0.
        3    1    3    3  502    0  0.16700195577E+04 -0.89184360236E+03 -0.14934717336E+04  0.24113913335E+04  0.10100000352E+00 0.  1.
       -3    1    3    3    0  502 -0.16700195577E+04  0.89184360236E+03 -0.45191076498E+03  0.19464258742E+04  0.10100000352E+00 0. -1.
</event>
<event>
 5   0  0.2486268E-07  0.3890680E+04  0.7818609E-02  0.8026970E-01
       -2   -1    0    0    0  501  0.00000000000E+00  0.00000000000E+00  0.20377421955E+04  0.20377421955E+04  0.25500000920E-02 0. -1.
        2   -1    0    0  501    0  0.00000000000E+00  0.00000000000E+00 -0.18571276699E+04  0.18571276699E+04  0.25500000920E-02 0.  1.
    10030    2    1    2    0    0  0.00000000000E+00  0.00000000000E+00  0.18061452568E+03  0.38948698654E+04  0.38906798457E+04 0.  0.
        5    1    3    3  502    0 -0.66864274571E+03  0.11222813070E+04  0.15332918249E+04  0.20143496131E+04  0.46999998093E+01 0. -1.
       -5    1    3    3    0  502  0.66864274571E+03 -0.11222813070E+04 -0.13526772993E+04  0.18805202523E+04  0.46999998093E+01 0.  1.
</event>
<event>
 5   0  0.7675750E-08  0.4006863E+04  0.7818609E-02  0.8003163E-01
       -1   -1    0    0    0  501  0.00000000000E+00  0.00000000000E+00  0.30631551923E+04  0.30631551923E+04  0.50400001928E-02 0. -1.
        1   -1    0    0  501    0  0.00000000000E+00  0.00000000000E+00 -0.13103280161E+04  0.13103280161E+04  0.50400001928E-02 0.  1.
    10030    2    1    2    0    0  0.00000000000E+00  0.00000000000E+00  0.17528271762E+04  0.43734832084E+04  0.40068631452E+04 0.  0.
        5    1    3    3  502    0 -0.87192464347E+03 -0.92045913660E+03  0.25695442440E+04  0.28653232484E+04  0.46999998093E+01 0. -1.
       -5    1    3    3    0  502  0.87192464347E+03  0.92045913660E+03 -0.81671706780E+03  0.15081599600E+04  0.46999998093E+01 0.  1.
</event>
<event>
 5   0  0.2395572E-07  0.3899256E+04  0.7818609E-02  0.8025184E-01
       -2   -1    0    0    0  501  0.00000000000E+00  0.00000000000E+00  0.13112498343E+04  0.13112498343E+04  0.25500000920E-02 0.  1.
        2   -1    0    0  501    0  0.00000000000E+00  0.00000000000E+00 -0.28987986039E+04  0.28987986039E+04  0.25500000920E-02 0. -1.
    10030    2    1    2    0    0  0.00000000000E+00  0.00000000000E+00 -0.15875487696E+04  0.42100484383E+04  0.38992559235E+04 0.  0.
        3    1    3    3  502    0  0.65533900320E+03 -0.12631288992E+04  0.64514766764E+03  0.15624273898E+04  0.10100000352E+00 0.  1.
       -3    1    3    3    0  502 -0.65533900320E+03  0.12631288992E+04 -0.22326964372E+04  0.26476210484E+04  0.10100000352E+00 0. -1.
</event>
<event>
 5   0  0.7675750E-08  0.3906304E+04  0.7818609E-02  0.8023719E-01
       -1   -1    0    0    0  501  0.00000000000E+00  0.00000000000E+00  0.23227436575E+04  0.23227436575E+04  0.50400001928E-02 0.  1.
        1   -1    0    0  501    0  0.00000000000E+00  0.00000000000E+00 -0.16423689438E+04  0.16423689438E+04  0.50400001928E-02 0. -1.
    10030    2    1    2    0    0  0.00000000000E+00  0.00000000000E+00  0.68037471370E+03  0.39651126013E+04  0.39063036479E+04 0.  0.
        1    1    3    3  502    0 -0.12759201626E+04  0.10214749696E+04 -0.74521851278E+03  0.17963112221E+04  0.50400001928E-02 0. -1.
       -1    1    3    3    0  502  0.12759201626E+04 -0.10214749696E+04  0.14255932265E+04  0.21688013792E+04  0.50400001928E-02 0.  1.
</event>
<event>
 5   0  0.7675750E-08  0.3842008E+04  0.7818609E-02  0.8037200E-01
       -1   -1    0    0    0  501  0.00000000000E+00  0.00000000000E+00  0.25640008921E+04  0.25640008921E+04  0.50400001928E-02 0. -1.
        1   -1    0    0  501    0  0.00000000000E+00  0.00000000000E+00 -0.14392569656E+04  0.14392569656E+04  0.50400001928E-02 0.  1.
    10030    2    1    2    0    0  0.00000000000E+00  0.00000000000E+00  0.11247439265E+04  0.40032578577E+04  0.38420078833E+04 0.  0.
        5    1    3    3  502    0 -0.36424783807E+03 -0.18466324161E+04  0.96255675239E+03  0.21140637075E+04  0.46999998093E+01 0. -1.
       -5    1    3    3    0  502  0.36424783807E+03  0.18466324161E+04  0.16218717416E+03  0.18891941502E+04  0.46999998093E+01 0.  1.
</event>
<event>
 5   0  0.2395572E-07  0.3924546E+04  0.7818609E-02  0.8019943E-01
        2   -1    0    0  501    0  0.00000000000E+00  0.00000000000E+00  0.24129800447E+04  0.24129800447E+04  0.25500000920E-02 0. -1.
       -2   -1    0    0    0  501  0.00000000000E+00  0.00000000000E+00 -0.15957511724E+04  0.15957511724E+04  0.25500000920E-02 0.  1.
    10030    2    1    2    0    0  0.00000000000E+00  0.00000000000E+00  0.81722887229E+03  0.40087312171E+04  0.39245462084E+04 0.  0.
        3    1    3    3  502    0 -0.77275128228E+03 -0.27466292553E+03 -0.14123009023E+04  0.16331497530E+04  0.10100000352E+00 0.  1.
       -3    1    3    3    0  502  0.77275128228E+03  0.27466292553E+03  0.22295297746E+04  0.23755814642E+04  0.10100000352E+00 0. -1.
</event>
<event>
 5   0  0.2486268E-07  0.3218295E+04  0.7818609E-02  0.8184002E-01
       -2   -1    0    0    0  501  0.00000000000E+00  0.00000000000E+00  0.16998972901E+04  0.16998972901E+04  0.25500000920E-02 0.  1.
        2   -1    0    0  501    0  0.00000000000E+00  0.00000000000E+00 -0.15232423592E+04  0.15232423592E+04  0.25500000920E-02 0. -1.
    10030    2    1    2    0    0  0.00000000000E+00  0.00000000000E+00  0.17665493089E+03  0.32231396494E+04  0.32182949266E+04 0.  0.
        5    1    3    3  502    0  0.49861166856E+02 -0.52922742090E+03 -0.14327629218E+04  0.15282013869E+04  0.46999998093E+01 0. -1.
       -5    1    3    3    0  502 -0.49861166856E+02  0.52922742090E+03  0.16094178527E+04  0.16949382624E+04  0.46999998093E+01 0.  1.
</event>
<event>
 5   0  0.2486268E-07  0.3855286E+04  0.7818609E-02  0.8034394E-01
       -2   -1    0    0    0  501  0.00000000000E+00  0.00000000000E+00  0.17369880864E+04  0.17369880864E+04  0.25500000920E-02 0.  1.
        2   -1    0    0  501    0  0.00000000000E+00  0.00000000000E+00 -0.21392249948E+04  0.21392249948E+04  0.25500000920E-02 0. -1.
    10030    2    1    2    0    0  0.00000000000E+00  0.00000000000E+00 -0.40223690836E+03  0.38762130812E+04  0.38552864123E+04 0.  0.
        5    1    3    3  502    0  0.11440671888E+04 -0.62092427244E+03 -0.16305774657E+04  0.20864423419E+04  0.46999998093E+01 0. -1.
       -5    1    3    3    0  502 -0.11440671888E+04  0.62092427244E+03  0.12283405573E+04  0.17897707393E+04  0.46999998093E+01 0.  1.
</event>
<event>
 5   0  0.7675750E-08  0.4001193E+04  0.7818609E-02  0.8004306E-01
        1   -1    0    0  501    0  0.00000000000E+00  0.00000000000E+00  0.16159797975E+04  0.16159797975E+04  0.50400001928E-02 0. -1.
       -1   -1    0    0    0  501  0.00000000000E+00  0.00000000000E+00 -0.24767553116E+04  0.24767553116E+04  0.50400001928E-02 0.  1.
    10030    2    1    2    0    0  0.00000000000E+00  0.00000000000E+00 -0.86077551410E+03  0.40927351090E+04  0.40011930955E+04 0.  0.
        4    1    3    3  502    0  0.67629852191E+03 -0.16978089563E+04  0.40214374481E+03  0.18712712650E+04  0.12699999809E+01 0.  1.
       -4    1    3    3    0  502 -0.67629852191E+03  0.16978089563E+04 -0.12629192589E+04  0.22214638440E+04  0.12699999809E+01 0. -1.
</event>
<event>
 5   0  0.7675750E-08  0.3745735E+04  0.7818609E-02  0.8057901E-01
       -1   -1    0    0    0  501  0.00000000000E+00  0.00000000000E+00  0.16827766054E+04  0.16827766054E+04  0.50400001928E-02 0. -1.
        1   -1    0    0  501    0  0.00000000000E+00  0.00000000000E+00 -0.20844313384E+04  0.20844313384E+04  0.50400001928E-02 0.  1.
    10030    2    1    2    0    0  0.00000000000E+00  0.00000000000E+00 -0.40165473304E+03  0.37672079439E+04  0.37457347968E+04 0.  0.
        4    1    3    3  502    0 -0.17971957533E+04 -0.13070849966E+03  0.31262196805E+03  0.18288606823E+04  0.12699999809E+01 0. -1.
       -4    1    3    3    0  502  0.17971957533E+04  0.13070849966E+03 -0.71427670109E+03  0.19383472615E+04  0.12699999809E+01 0.  1.
</event>
<event>
 5   0  0.7731706E-08  0.3902365E+04  0.7818609E-02  0.8024537E-01
        1   -1    0    0  501    0  0.00000000000E+00  0.00000000000E+00  0.28244473233E+04  0.28244473233E+04  0.50400001928E-02 0.  1.
       -1   -1    0    0    0  501  0.00000000000E+00  0.00000000000E+00 -0.13479146993E+04  0.13479146993E+04  0.50400001928E-02 0. -1.
    10030    2    1    2    0    0  0.00000000000E+00  0.00000000000E+00  0.14765326240E+04  0.41723620226E+04  0.39023654696E+04 0.  0.
        3    1    3    3  502    0  0.35912711249E+03 -0.18815990878E+04  0.11350584206E+04  0.22265994338E+04  0.10100000352E+00 0. -1.
       -3    1    3    3    0  502 -0.35912711249E+03  0.18815990878E+04  0.34147420341E+03  0.19457625888E+04  0.10100000352E+00 0.  1.
</event>
<event>
 5   0  0.7675750E-08  0.3985394E+04  0.7818609E-02  0.8007500E-01
        1   -1    0    0  501    0  0.00000000000E+00  0.00000000000E+00  0.12431079473E+04  0.12431079473E+04  0.50400001928E-02 0.  1.
       -1   -1    0    0    0  501  0.00000000000E+00  0.00000000000E+00 -0.31942854588E+04  0.31942854588E+04  0.50400001928E-02 0. -1.
    10030    2    1    2    0    0  0.00000000000E+00  0.00000000000E+00 -0.19511775115E+04  0.44373934061E+04  0.39853941536E+04 0.  0.
        1    1    3    3  502    0  0.10563156983E+04 -0.21327913355E+03  0.89068392430E+03  0.13980732085E+04  0.50400001928E-02 0.  1.
       -1    1    3    3    0  502 -0.10563156983E+04  0.21327913355E+03 -0.28418614358E+04  0.30393201976E+04  0.50400001928E-02 0. -1.
</event>
<event>
 5   0  0.2395572E-07  0.3906930E+04  0.7818609E-02  0.8023589E-01
       -2   -1    0    0    0  501  0.00000000000E+00  0.00000000000E+00  0.18960141880E+04  0.18960141880E+04  0.25500000920E-02 0.  1.
        2   -1    0    0  501    0  0.00000000000E+00  0.00000000000E+00 -0.20126564049E+04  0.20126564049E+04  0.25500000920E-02 0. -1.
    10030    2    1    2    0    0  0.00000000000E+00  0.00000000000E+00 -0.11664221693E+03  0.39086705929E+04  0.39069297917E+04 0.  0.
        3    1    3    3  502    0 -0.29230372574E+03  0.16360615455E+03 -0.19837088574E+04  0.20117925547E+04  0.10100000352E+00 0. -1.
       -3    1    3    3    0  502  0.29230372574E+03 -0.16360615455E+03  0.18670666405E+04  0.18968780383E+04  0.10100000352E+00 0.  1.
</event>
<event>
 5   0  0.2486268E-07  0.3904918E+04  0.7818609E-02  0.8024007E-01
       -2   -1    0    0    0  501  0.00000000000E+00  0.00000000000E+00  0.22951860509E+04  0.22951860509E+04  0.25500000920E-02 0. -1.
        2   -1    0    0  501    0  0.00000000000E+00  0.00000000000E+00 -0.16609091444E+04  0.16609091444E+04  0.25500000920E-02 0.  1.
    10030    2    1    2    0    0  0.00000000000E+00  0.00000000000E+00  0.63427690647E+03  0.39560951953E+04  0.39049176688E+04 0.  0.
        5    1    3    3  502    0 -0.58885707735E+03  0.16814679193E+04  0.11263471815E+04  0.21077872484E+04  0.46999998093E+01 0. -1.
       -5    1    3    3    0  502  0.58885707735E+03 -0.16814679193E+04 -0.49207027501E+03  0.18483079469E+04  0.46999998093E+01 0.  1.
</event>
<event>
 5   0  0.2486268E-07  0.3719135E+04  0.7818609E-02  0.8063734E-01
       -2   -1    0    0    0  501  0.00000000000E+00  0.00000000000E+00  0.29232072666E+04  0.29232072666E+04  0.25500000920E-02 0. -1.
        2   -1    0    0  501    0  0.00000000000E+00  0.00000000000E+00 -0.11829445705E+04  0.11829445705E+04  0.25500000920E-02 0.  1.
    10030    2    1    2    0    0  0.00000000000E+00  0.00000000000E+00  0.17402626961E+04  0.41061518370E+04  0.37191354718E+04 0.  0.
        5    1    3    3  502    0  0.32183210859E+03 -0.16796074426E+04  0.16764080200E+04  0.23947908065E+04  0.46999998093E+01 0. -1.
       -5    1    3    3    0  502 -0.32183210859E+03  0.16796074426E+04  0.63854676092E+02  0.17113610306E+04  0.46999998093E+01 0.  1.
</event>
<event>
 5   0  0.7675750E-08  0.3824184E+04  0.7818609E-02  0.8040985E-01
        1   -1    0    0  501    0  0.00000000000E+00  0.00000000000E+00  0.20470454645E+04  0.20470454645E+04  0.50400001928E-02 0. -1.
       -1   -1    0    0    0  501  0.00000000000E+00  0.00000000000E+00 -0.17860352614E+04  0.17860352614E+04  0.50400001928E-02 0.  1.
    10030    2    1    2    0    0  0.00000000000E+00  0.00000000000E+00  0.26101020311E+03  0.38330807258E+04  0.38241837723E+04 0.  0.
        1    1    3    3  502    0  0.40038881326E+03 -0.18610010984E+03  0.19952502261E+04  0.20435185140E+04  0.50400001928E-02 0. -1.
       -1    1    3    3    0  502 -0.40038881326E+03  0.18610010984E+03 -0.17342400229E+04  0.17895622118E+04  0.50400001928E-02 0.  1.
</event>
<event>
 5   0  0.2446281E-07  0.3926392E+04  0.7818609E-02  0.8019562E-01
       -2   -1    0    0    0  501  0.00000000000E+00  0.00000000000E+00  0.17765941933E+04  0.17765941933E+04  0.25500000920E-02 0.  1.
        2   -1    0    0  501    0  0.00000000000E+00  0.00000000000E+00 -0.21693977850E+04  0.21693977850E+04  0.25500000920E-02 0. -1.
    10030    2    1    2    0    0  0.00000000000E+00  0.00000000000E+00 -0.39280359173E+03  0.39459919783E+04  0.39263924958E+04 0.  0.
        1    1    3    3  502    0 -0.26460743230E+03 -0.92612986762E+03 -0.19156151171E+04  0.21441350009E+04  0.50400001928E-02 0. -1.
       -1    1    3    3    0  502  0.26460743230E+03  0.92612986762E+03  0.15228115254E+04  0.18018569774E+04  0.50400001928E-02 0.  1.
</event>
<event>
 5   0  0.2446281E-07  0.3788755E+04  0.7818609E-02  0.8048572E-01
       -2   -1    0    0    0  501  0.00000000000E+00  0.00000000000E+00  0.18412523076E+04  0.18412523076E+04  0.25500000920E-02 0. -1.
        2   -1    0    0  501    0  0.00000000000E+00  0.00000000000E+00 -0.19490351792E+04  0.19490351792E+04  0.25500000920E-02 0.  1.
    10030    2    1    2    0    0  0.00000000000E+00  0.00000000000E+00 -0.10778287156E+03  0.37902874868E+04  0.37887546879E+04 0.  0.
        1    1    3    3  502    0  0.20802010933E+03  0.15114550503E+04  0.10694594546E+04  0.18631994687E+04  0.50400001928E-02 0. -1.
       -1    1    3    3    0  502 -0.20802010933E+03 -0.15114550503E+04 -0.11772423262E+04  0.19270880181E+04  0.50400001928E-02 0.  1.
</event>
<event>
 5   0  0.7731706E-08  0.3904820E+04  0.7818609E-02  0.8024028E-01
       -1   -1    0    0    0  501  0.00000000000E+00  0.00000000000E+00  0.16569384186E+04  0.16569384186E+04  0.50400001928E-02 0.  1.
        1   -1    0    0  501    0  0.00000000000E+00  0.00000000000E+00 -0.23005711172E+04  0.23005711172E+04  0.50400001928E-02 0. -1.
    10030    2    1    2    0    0  0.00000000000E+00  0.00000000000E+00 -0.64363269865E+03  0.39575095358E+04  0.39048199287E+04 0.  0.
        3    1    3    3  502    0 -0.80990889092E+03 -0.10458382744E+04  0.11335880064E+04  0.17420539275E+04  0.10100000352E+00 0.  1.
       -3    1    3    3    0  502  0.80990889092E+03  0.10458382744E+04 -0.17772207051E+04  0.22154556083E+04  0.10100000352E+00 0. -1.
</event>
<event>
 5   0  0.2384787E-07  0.3910433E+04  0.7818609E-02  0.8022863E-01
       -2   -1    0    0    0  501  0.00000000000E+00  0.00000000000E+00  0.25384702392E+04  0.25384702392E+04  0.25500000920E-02 0.  1.
        2   -1    0    0  501    0  0.00000000000E+00  0.00000000000E+00 -0.15059749142E+04  0.15059749142E+04  0.25500000920E-02 0. -1.
    10030    2    1    2    0    0  0.00000000000E+00  0.00000000000E+00  0.10324953250E+04  0.40444451534E+04  0.39104334802E+04 0.  0.
        4    1    3    3  502    0 -0.16453655042E+04  0.55317943975E+03  0.14468816019E+04  0.22598015660E+04  0.12699999809E+01 0.  1.
       -4    1    3    3    0  502  0.16453655042E+04 -0.55317943975E+03 -0.41438627686E+03  0.17846435875E+04  0.12699999809E+01 0. -1.
</event>
<event>
 5   0  0.7675750E-08  0.3890298E+04  0.7818609E-02  0.8027050E-01
        1   -1    0    0  501    0  0.00000000000E+00  0.00000000000E+00  0.20743991091E+04  0.20743991092E+04  0.50400001928E-02 0.  1.
       -1   -1    0    0    0  501  0.00000000000E+00  0.00000000000E+00 -0.18239520901E+04  0.18239520901E+04  0.50400001928E-02 0. -1.
    10030    2    1    2    0    0  0.00000000000E+00  0.00000000000E+00  0.25044701909E+03  0.38983511992E+04  0.38902979787E+04 0.  0.
        2    1    3    3  502    0  0.24650775303E+03  0.18342036711E+04 -0.47479427370E+03  0.19106278502E+04  0.25500000920E-02 0. -1.
       -2    1    3    3    0  502 -0.24650775303E+03 -0.18342036711E+04  0.72524129279E+03  0.19877233490E+04  0.25500000920E-02 0.  1.
</event>
<event>
 5   0  0.2473224E-07  0.3576920E+04  0.7818609E-02  0.8095799E-01
       -2   -1    0    0    0  501  0.00000000000E+00  0.00000000000E+00  0.11075573045E+04  0.11075573045E+04  0.25500000920E-02 0. -1.
        2   -1    0    0  501    0  0.00000000000E+00  0.00000000000E+00 -0.28879674650E+04  0.28879674650E+04  0.25500000920E-02 0.  1.
    10030    2    1    2    0    0  0.00000000000E+00  0.00000000000E+00 -0.17804101605E+04  0.39955247695E+04  0.35769201619E+04 0.  0.
        2    1    3    3  502    0 -0.69263606941E+03  0.48753446104E+03  0.86930402514E+03  0.12137232236E+04  0.25500000920E-02 0. -1.
       -2    1    3    3    0  502  0.69263606941E+03 -0.48753446104E+03 -0.26497141857E+04  0.27818015460E+04  0.25500000920E-02 0.  1.
</event>
<event>
 5   0  0.7731706E-08  0.3868357E+04  0.7818609E-02  0.8031643E-01
       -1   -1    0    0    0  501  0.00000000000E+00  0.00000000000E+00  0.29172127549E+04  0.29172127549E+04  0.50400001928E-02 0.  1.
        1   -1    0    0  501    0  0.00000000000E+00  0.00000000000E+00 -0.12824046449E+04  0.12824046449E+04  0.50400001928E-02 0. -1.
    10030    2    1    2    0    0  0.00000000000E+00  0.00000000000E+00  0.16348081100E+04  0.41996173998E+04  0.38683573708E+04 0.  0.
        3    1    3    3  502    0 -0.64711272006E+03 -0.18206747013E+04  0.72378786336E+03  0.20633662113E+04  0.10100000352E+00 0. -1.
       -3    1    3    3    0  502  0.64711272006E+03  0.18206747013E+04  0.91102024664E+03  0.21362511885E+04  0.10100000352E+00 0.  1.
</event>
<event>
 5   0  0.2473224E-07  0.4097786E+04  0.7818609E-02  0.7985105E-01
        2   -1    0    0  501    0  0.00000000000E+00  0.00000000000E+00  0.14979739436E+04  0.14979739436E+04  0.25500000920E-02 0. -1.
       -2   -1    0    0    0  501  0.00000000000E+00  0.00000000000E+00 -0.28024272570E+04  0.28024272570E+04  0.25500000920E-02 0.  1.
    10030    2    1    2    0    0  0.00000000000E+00  0.00000000000E+00 -0.13044533134E+04  0.43004012006E+04  0.40977862364E+04 0.  0.
        2    1    3    3  502    0 -0.18253737531E+03 -0.18600627024E+04  0.22881341275E+03  0.18829521311E+04  0.25500000920E-02 0. -1.
       -2    1    3    3    0  502  0.18253737531E+03  0.18600627024E+04 -0.15332667262E+04  0.24174490695E+04  0.25500000920E-02 0.  1.
</event>
<event>
 5   0  0.2486268E-07  0.3897275E+04  0.7818609E-02  0.8025596E-01
       -2   -1    0    0    0  501  0.00000000000E+00  0.00000000000E+00  0.24149132374E+04  0.24149132374E+04  0.25500000920E-02 0.  1.
        2   -1    0    0  501    0  0.00000000000E+00  0.00000000000E+00 -0.15723912582E+04  0.15723912582E+04  0.25500000920E-02 0. -1.
    10030    2    1    2    0    0  0.00000000000E+00  0.00000000000E+00  0.84252197925E+03  0.39873044956E+04  0.38972751834E+04 0.  0.
        5    1    3    3  502    0 -0.99119805874E+03  0.60306167183E+03  0.20229965552E+04  0.23321007963E+04  0.46999998093E+01 0.  1.
       -5    1    3    3    0  502  0.99119805874E+03 -0.60306167183E+03 -0.11804745760E+04  0.16552036993E+04  0.46999998093E+01 0. -1.
</event>
<event>
 5   0  0.2486268E-07  0.3848168E+04  0.7818609E-02  0.8035896E-01
        2   -1    0    0  501    0  0.00000000000E+00  0.00000000000E+00  0.25736953272E+04  0.25736953272E+04  0.25500000920E-02 0. -1.
       -2   -1    0    0    0  501  0.00000000000E+00  0.00000000000E+00 -0.14384374974E+04  0.14384374974E+04  0.25500000920E-02 0.  1.
    10030    2    1    2    0    0  0.00000000000E+00  0.00000000000E+00  0.11352578298E+04  0.40121328246E+04  0.38481683256E+04 0.  0.
        5    1    3    3  502    0 -0.80115818653E+03 -0.18352995416E+03  0.23814500466E+04  0.25192983345E+04  0.46999998093E+01 0. -1.
       -5    1    3    3    0  502  0.80115818653E+03  0.18352995416E+03 -0.12461922167E+04  0.14928344901E+04  0.46999998093E+01 0.  1.
</event>
<event>
 5   0  0.2486268E-07  0.3967960E+04  0.7818609E-02  0.8011041E-01
        2   -1    0    0  501    0  0.00000000000E+00  0.00000000000E+00  0.26660101835E+04  0.26660101835E+04  0.25500000920E-02 0. -1.
       -2   -1    0    0    0  501  0.00000000000E+00  0.00000000000E+00 -0.14764299879E+04  0.14764299879E+04  0.25500000920E-02 0.  1.
    10030    2    1    2    0    0  0.00000000000E+00  0.00000000000E+00  0.11895801956E+04  0.41424401714E+04  0.39679603743E+04 0.  0.
        5    1    3    3  502    0  0.17401858320E+03  0.12800333315E+04 -0.97720718807E+03  0.16197912753E+04  0.46999998093E+01 0.  1.
       -5    1    3    3    0  502 -0.17401858320E+03 -0.12800333315E+04  0.21667873837E+04  0.25226488961E+04  0.46999998093E+01 0. -1.
</event>
<event>
 5   0  0.7731706E-08  0.3905391E+04  0.7818609E-02  0.8023909E-01
       -1   -1    0    0    0  501  0.00000000000E+00  0.00000000000E+00  0.24566520772E+04  0.24566520772E+04  0.50400001928E-02 0. -1.
        1   -1    0    0  501    0  0.00000000000E+00  0.00000000000E+00 -0.15521205253E+04  0.15521205253E+04  0.50400001928E-02 0.  1.
    10030    2    1    2    0    0  0.00000000000E+00  0.00000000000E+00  0.90453155195E+03  0.40087726025E+04  0.39053912033E+04 0.  0.
        3    1    3    3  502    0 -0.24693756580E+02 -0.67067135142E+03  0.23345497505E+04  0.24291011488E+04  0.10100000352E+00 0. -1.
       -3    1    3    3    0  502  0.24693756580E+02  0.67067135142E+03 -0.14300181986E+04  0.15796714537E+04  0.10100000352E+00 0.  1.
</event>
<event>
 5   0  0.7731706E-08  0.3934441E+04  0.7818609E-02  0.8017904E-01
       -1   -1    0    0    0  501  0.00000000000E+00  0.00000000000E+00  0.12795745829E+04  0.12795745829E+04  0.50400001928E-02 0. -1.
        1   -1    0    0  501    0  0.00000000000E+00  0.00000000000E+00 -0.30244093502E+04  0.30244093502E+04  0.50400001928E-02 0.  1.
    10030    2    1    2    0    0  0.00000000000E+00  0.00000000000E+00 -0.17448347673E+04  0.43039839330E+04  0.39344414255E+04 0.  0.
        3    1    3    3  502    0  0.11159665481E+03 -0.19518788445E+04 -0.11112652990E+04  0.22488208937E+04  0.10100000352E+00 0.  1.
       -3    1    3    3    0  502 -0.11159665481E+03  0.19518788445E+04 -0.63356946827E+03  0.20551630393E+04  0.10100000352E+00 0. -1.
</event>
<event>
 5   0  0.7675750E-08  0.3947509E+04  0.7818609E-02  0.8015220E-01
        1   -1    0    0  501    0  0.00000000000E+00  0.00000000000E+00  0.22310809796E+04  0.22310809796E+04  0.50400001928E-02 0. -1.
       -1   -1    0    0    0  501  0.00000000000E+00  0.00000000000E+00 -0.17461075676E+04  0.17461075676E+04  0.50400001928E-02 0.  1.
    10030    2    1    2    0    0  0.00000000000E+00  0.00000000000E+00  0.48497341199E+03  0.39771885472E+04  0.39475092818E+04 0.  0.
        5    1    3    3  502    0 -0.14145799361E+04  0.61845436883E+03 -0.99645917736E+03  0.18375187575E+04  0.46999998093E+01 0.  1.
       -5    1    3    3    0  502  0.14145799361E+04 -0.61845436883E+03  0.14814325893E+04  0.21396697897E+04  0.46999998093E+01 0. -1.
</event>
<event>
 5   0  0.2446281E-07  0.3873789E+04  0.7818609E-02  0.8030503E-01
       -2   -1    0    0    0  501  0.00000000000E+00  0.00000000000E+00  0.16602777265E+04  0.16602777265E+04  0.25500000920E-02 0. -1.
        2   -1    0    0  501    0  0.00000000000E+00  0.00000000000E+00 -0.22595981212E+04  0.22595981212E+04  0.25500000920E-02 0.  1.
    10030    2    1    2    0    0  0.00000000000E+00  0.00000000000E+00 -0.59932039473E+03  0.39198758477E+04  0.38737890658E+04 0.  0.
        1    1    3    3  502    0 -0.82906085455E+03  0.76691757617E+03  0.12926092839E+04  0.17164915467E+04  0.50400001928E-02 0. -1.
       -1    1    3    3    0  502  0.82906085455E+03 -0.76691757617E+03 -0.18919296786E+04  0.22033843010E+04  0.50400001928E-02 0.  1.
</event>
<event>
 5   0  0.7675750E-08  0.3845608E+04  0.7818609E-02  0.8036438E-01
       -1   -1    0    0    0  501  0.00000000000E+00  0.00000000000E+00  0.15889837755E+04  0.15889837755E+04  0.50400001928E-02 0.  1.
        1   -1    0    0  501    0  0.00000000000E+00  0.00000000000E+00 -0.23267543382E+04  0.23267543382E+04  0.50400001928E-02 0. -1.
    10030    2    1    2    0    0  0.00000000000E+00  0.00000000000E+00 -0.73777056274E+03  0.39157381137E+04  0.38456078286E+04 0.  0.
        5    1    3    3  502    0 -0.14976076931E+04 -0.89591893450E+03 -0.11908571082E+04  0.21127381006E+04  0.46999998093E+01 0.  1.
       -5    1    3    3    0  502  0.14976076931E+04  0.89591893450E+03  0.45308654546E+03  0.18030000131E+04  0.46999998093E+01 0. -1.
</event>
<event>
 5   0  0.2446281E-07  0.4172561E+04  0.7818609E-02  0.7970612E-01
        2   -1    0    0  501    0  0.00000000000E+00  0.00000000000E+00  0.20951210564E+04  0.20951210564E+04  0.25500000920E-02 0. -1.
       -2   -1    0    0    0  501  0.00000000000E+00  0.00000000000E+00 -0.20774770609E+04  0.20774770609E+04  0.25500000920E-02 0.  1.
    10030    2    1    2    0    0  0.00000000000E+00  0.00000000000E+00  0.17643995531E+02  0.41725981173E+04  0.41725608130E+04 0.  0.
        1    1    3    3  502    0 -0.25839054018E+03  0.12668701614E+04  0.16461638048E+04  0.20932226230E+04  0.50400001928E-02 0. -1.
       -1    1    3    3    0  502  0.25839054018E+03 -0.12668701614E+04 -0.16285198093E+04  0.20793754943E+04  0.50400001928E-02 0.  1.
</event>
<event>
 5   0  0.2395572E-07  0.4011570E+04  0.7818609E-02  0.8002217E-01
        2   -1    0    0  501    0  0.00000000000E+00  0.00000000000E+00  0.28761144128E+04  0.28761144128E+04  0.25500000920E-02 0. -1.
       -2   -1    0    0    0  501  0.00000000000E+00  0.00000000000E+00 -0.13988225347E+04  0.13988225347E+04  0.25500000920E-02 0.  1.
    10030    2    1    2    0    0  0.00000000000E+00  0.00000000000E+00  0.14772918781E+04  0.42749369476E+04  0.40115700932E+04 0.  0.
        3    1    3    3  502    0 -0.18241186483E+04 -0.40438903942E+03 -0.38793843480E+02  0.18688082595E+04  0.10100000352E+00 0.  1.
       -3    1    3    3    0  502  0.18241186483E+04  0.40438903942E+03  0.15160857216E+04  0.24061286881E+04  0.10100000352E+00 0. -1.
</event>
<event>
 5   0  0.2473224E-07  0.3936573E+04  0.7818609E-02  0.8017465E-01
       -2   -1    0    0    0  501  0.00000000000E+00  0.00000000000E+00  0.17962509710E+04  0.17962509710E+04  0.25500000920E-02 0.  1.
        2   -1    0    0  501    0  0.00000000000E+00  0.00000000000E+00 -0.21567991174E+04  0.21567991174E+04  0.25500000920E-02 0. -1.
    10030    2    1    2    0    0  0.00000000000E+00  0.00000000000E+00 -0.36054814634E+03  0.39530500884E+04  0.39365733875E+04 0.  0.
        2    1    3    3  502    0 -0.45161451950E+03  0.85394787308E+03  0.15418294382E+04  0.18194561442E+04  0.25500000920E-02 0.  1.
       -2    1    3    3    0  502  0.45161451950E+03 -0.85394787308E+03 -0.19023775846E+04  0.21335939441E+04  0.25500000920E-02 0. -1.
</event>
<event>
 5   0  0.7675750E-08  0.3843562E+04  0.7818609E-02  0.8036871E-01
       -1   -1    0    0    0  501  0.00000000000E+00  0.00000000000E+00  0.12509807423E+04  0.12509807423E+04  0.50400001928E-02 0.  1.
        1   -1    0    0  501    0  0.00000000000E+00  0.00000000000E+00 -0.29522779781E+04  0.29522779781E+04  0.50400001928E-02 0. -1.
    10030    2    1    2    0    0  0.00000000000E+00  0.00000000000E+00 -0.17012972358E+04  0.42032587204E+04  0.38435623562E+04 0.  0.
        2    1    3    3  502    0 -0.20587866981E+03  0.82704727453E+03 -0.27342975444E+04  0.28640489316E+04  0.25500000920E-02 0. -1.
       -2    1    3    3    0  502  0.20587866981E+03 -0.82704727453E+03  0.10330003086E+04  0.13392097888E+04  0.25500000920E-02 0.  1.
</event>
<event>
 5   0  0.2486268E-07  0.3828265E+04  0.7818609E-02  0.8040116E-01
        2   -1    0    0  501    0  0.00000000000E+00  0.00000000000E+00  0.25927710787E+04  0.25927710787E+04  0.25500000920E-02 0. -1.
       -2   -1    0    0    0  501  0.00000000000E+00  0.00000000000E+00 -0.14131224966E+04  0.14131224966E+04  0.25500000920E-02 0.  1.
    10030    2    1    2    0    0  0.00000000000E+00  0.00000000000E+00  0.11796485821E+04  0.40058935752E+04  0.38282649541E+04 0.  0.
        5    1    3    3  502    0  0.13930545609E+04 -0.22280286207E+03  0.19435426022E+04  0.24015874046E+04  0.46999998093E+01 0. -1.
       -5    1    3    3    0  502 -0.13930545609E+04  0.22280286207E+03 -0.76389402015E+03  0.16043061706E+04  0.46999998093E+01 0.  1.
</event>
<event>
 5   0  0.2486268E-07  0.3912908E+04  0.7818609E-02  0.8022350E-01
       -2   -1    0    0    0  501  0.00000000000E+00  0.00000000000E+00  0.17954572510E+04  0.17954572510E+04  0.25500000920E-02 0. -1.
        2   -1    0    0  501    0  0.00000000000E+00  0.00000000000E+00 -0.21318870994E+04  0.21318870994E+04  0.25500000920E-02 0.  1.
    10030    2    1    2    0    0  0.00000000000E+00  0.00000000000E+00 -0.33642984849E+03  0.39273443504E+04  0.39129079472E+04 0.  0.
        5    1    3    3  502    0 -0.16490897853E+04 -0.99852074715E+03  0.16640564645E+03  0.19350074242E+04  0.46999998093E+01 0. -1.
       -5    1    3    3    0  502  0.16490897853E+04  0.99852074715E+03 -0.50283549494E+03  0.19923369262E+04  0.46999998093E+01 0.  1.
</event>
<event>
 5   0  0.2446281E-07  0.3881700E+04  0.7818609E-02  0.8028846E-01
        2   -1    0    0  501    0  0.00000000000E+00  0.00000000000E+00  0.20428671294E+04  0.20428671294E+04  0.25500000920E-02 0. -1.
       -2   -1    0    0    0  501  0.00000000000E+00  0.00000000000E+00 -0.18439278556E+04  0.18439278556E+04  0.25500000920E-02 0.  1.
    10030    2    1    2    0    0  0.00000000000E+00  0.00000000000E+00  0.19893927384E+03  0.38867949850E+04  0.38817004548E+04 0.  0.
        1    1    3    3  502    0 -0.21287669367E+03 -0.16482562395E+04 -0.90426030908E+03  0.18920232092E+04  0.50400001928E-02 0.  1.
       -1    1    3    3    0  502  0.21287669367E+03  0.16482562395E+04  0.11031995829E+04  0.19947717758E+04  0.50400001928E-02 0. -1.
</event>
<event>
 5   0  0.2384787E-07  0.3843467E+04  0.7818609E-02  0.8036891E-01
       -2   -1    0    0    0  501  0.00000000000E+00  0.00000000000E+00  0.16597627532E+04  0.16597627532E+04  0.25500000920E-02 0. -1.
        2   -1    0    0  501    0  0.00000000000E+00  0.00000000000E+00 -0.22250521525E+04  0.22250521525E+04  0.25500000920E-02 0.  1.
    10030    2    1    2    0    0  0.00000000000E+00  0.00000000000E+00 -0.56528939929E+03  0.38848149058E+04  0.38434665014E+04 0.  0.
        4    1    3    3  502    0 -0.15268465967E+04  0.81787994507E+03  0.55869770348E+03  0.18199815579E+04  0.12699999809E+01 0. -1.
       -4    1    3    3    0  502  0.15268465967E+04 -0.81787994507E+03 -0.11239871028E+04  0.20648333479E+04  0.12699999809E+01 0.  1.
</event>
<event>
 5   0  0.7675750E-08  0.3372089E+04  0.7818609E-02  0.8144791E-01
        1   -1    0    0  501    0  0.00000000000E+00  0.00000000000E+00  0.18629119431E+04  0.18629119431E+04  0.50400001928E-02 0.  1.
       -1   -1    0    0    0  501  0.00000000000E+00  0.00000000000E+00 -0.15259692666E+04  0.15259692666E+04  0.50400001928E-02 0. -1.
    10030    2    1    2    0    0  0.00000000000E+00  0.00000000000E+00  0.33694267647E+03  0.33888812098E+04  0.33720891872E+04 0.  0.
        2    1    3    3  502    0  0.11953438984E+04  0.25521161534E+03  0.13356186046E+04  0.18104853109E+04  0.25500000920E-02 0.  1.
       -2    1    3    3    0  502 -0.11953438984E+04 -0.25521161534E+03 -0.99867592817E+03  0.15783958988E+04  0.25500000920E-02 0. -1.
</event>
<event>
 5   0  0.7675750E-08  0.3892460E+04  0.7818609E-02  0.8026599E-01
       -1   -1    0    0    0  501  0.00000000000E+00  0.00000000000E+00  0.15679634102E+04  0.15679634102E+04  0.50400001928E-02 0.  1.
        1   -1    0    0  501    0  0.00000000000E+00  0.00000000000E+00 -0.24157520914E+04  0.24157520914E+04  0.50400001928E-02 0. -1.
    10030    2    1    2    0    0  0.00000000000E+00  0.00000000000E+00 -0.84778868122E+03  0.39837155016E+04  0.38924598328E+04 0.  0.
        2    1    3    3  502    0 -0.97010944435E+03  0.14877835027E+04 -0.12382876898E+04  0.21651716994E+04  0.25500000920E-02 0. -1.
       -2    1    3    3    0  502  0.97010944435E+03 -0.14877835027E+04  0.39049900857E+03  0.18185438022E+04  0.25500000920E-02 0.  1.
</event>
<event>
 5   0  0.2486268E-07  0.3900826E+04  0.7818609E-02  0.8024857E-01
        2   -1    0    0  501    0  0.00000000000E+00  0.00000000000E+00  0.17362556690E+04  0.17362556690E+04  0.25500000920E-02 0. -1.
       -2   -1    0    0    0  501  0.00000000000E+00  0.00000000000E+00 -0.21909855484E+04  0.21909855484E+04  0.25500000920E-02 0.  1.
    10030    2    1    2    0    0  0.00000000000E+00  0.00000000000E+00 -0.45472987942E+03  0.39272412174E+04  0.39008261069E+04 0.  0.
        5    1    3    3  502    0 -0.29866814253E+03  0.11276317047E+03  0.17097670450E+04  0.17393227504E+04  0.46999998093E+01 0. -1.
       -5    1    3    3    0  502  0.29866814253E+03 -0.11276317047E+03 -0.21644969244E+04  0.21879184669E+04  0.46999998093E+01 0.  1.
</event>
<event>
 5   0  0.2395572E-07  0.3874832E+04  0.7818609E-02  0.8030284E-01
       -2   -1    0    0    0  501  0.00000000000E+00  0.00000000000E+00  0.13522215404E+04  0.13522215404E+04  0.25500000920E-02 0.  1.
        2   -1    0    0  501    0  0.00000000000E+00  0.00000000000E+00 -0.27758616430E+04  0.27758616430E+04  0.25500000920E-02 0. -1.
    10030    2    1    2    0    0  0.00000000000E+00  0.00000000000E+00 -0.14236401027E+04  0.41280831834E+04  0.38748315611E+04 0.  0.
        3    1    3    3  502    0  0.14644765820E+04 -0.12470604983E+04 -0.46487668305E+03  0.19788789468E+04  0.10100000352E+00 0. -1.
       -3    1    3    3    0  502 -0.14644765820E+04  0.12470604983E+04 -0.95876341960E+03  0.21492042366E+04  0.10100000352E+00 0.  1.
</event>
<event>
 5   0  0.7675750E-08  0.3905917E+04  0.7818609E-02  0.8023800E-01
       -1   -1    0    0    0  501  0.00000000000E+00  0.00000000000E+00  0.15108777113E+04  0.15108777113E+04  0.50400001928E-02 0.  1.
        1   -1    0    0  501    0  0.00000000000E+00  0.00000000000E+00 -0.25243920916E+04  0.25243920916E+04  0.50400001928E-02 0. -1.
    10030    2    1    2    0    0  0.00000000000E+00  0.00000000000E+00 -0.10135143803E+04  0.40352698030E+04  0.39059174318E+04 0.  0.
        2    1    3    3  502    0  0.11035827868E+04 -0.96933261681E+03 -0.18364502673E+04  0.23516058925E+04  0.25500000920E-02 0. -1.
       -2    1    3    3    0  502 -0.11035827868E+04  0.96933261681E+03  0.82293588703E+03  0.16836639105E+04  0.25500000920E-02 0.  1.
</event>
<event>
 5   0  0.2384787E-07  0.3913193E+04  0.7818609E-02  0.8022291E-01
       -2   -1    0    0    0  501  0.00000000000E+00  0.00000000000E+00  0.15789976321E+04  0.15789976321E+04  0.25500000920E-02 0.  1.
        2   -1    0    0  501    0  0.00000000000E+00  0.00000000000E+00 -0.24244939844E+04  0.24244939844E+04  0.25500000920E-02 0. -1.
    10030    2    1    2    0    0  0.00000000000E+00  0.00000000000E+00 -0.84549635230E+03  0.40034916166E+04  0.39131932028E+04 0.  0.
        4    1    3    3  502    0  0.84762883757E+03  0.10112970722E+04 -0.19007547749E+04  0.23138856371E+04  0.12699999809E+01 0. -1.
       -4    1    3    3    0  502 -0.84762883757E+03 -0.10112970722E+04  0.10552584226E+04  0.16896059795E+04  0.12699999809E+01 0.  1.
</event>
<event>
 5   0  0.7675750E-08  0.3795419E+04  0.7818609E-02  0.8047139E-01
       -1   -1    0    0    0  501  0.00000000000E+00  0.00000000000E+00  0.21591112693E+04  0.21591112693E+04  0.50400001928E-02 0.  1.
        1   -1    0    0  501    0  0.00000000000E+00  0.00000000000E+00 -0.16679551908E+04  0.16679551908E+04  0.50400001928E-02 0. -1.
    10030    2    1    2    0    0  0.00000000000E+00  0.00000000000E+00  0.49115607847E+03  0.38270664601E+04  0.37954187380E+04 0.  0.
        4    1    3    3  502    0 -0.86005394897E+03 -0.15247107972E+04 -0.49324123372E+03  0.18187150238E+04  0.12699999809E+01 0. -1.
       -4    1    3    3    0  502  0.86005394897E+03  0.15247107972E+04  0.98439731219E+03  0.20083514363E+04  0.12699999809E+01 0.  1.
</event>
<event>
 5   0  0.7731706E-08  0.3429446E+04  0.7818609E-02  0.8130717E-01
       -1   -1    0    0    0  501  0.00000000000E+00  0.00000000000E+00  0.12894042017E+04  0.12894042017E+04  0.50400001928E-02 0.  1.
        1   -1    0    0  501    0  0.00000000000E+00  0.00000000000E+00 -0.22803360093E+04  0.22803360093E+04  0.50400001928E-02 0. -1.
    10030    2    1    2    0    0  0.00000000000E+00  0.00000000000E+00 -0.99093180764E+03  0.35697402110E+04  0.34294459212E+04 0.  0.
        3    1    3    3  502    0 -0.68231152510E+03  0.64416132927E+03  0.99844012634E+03  0.13701735407E+04  0.10100000352E+00 0.  1.
       -3    1    3    3    0  502  0.68231152510E+03 -0.64416132927E+03 -0.19893719340E+04  0.21995666704E+04  0.10100000352E+00 0. -1.
</event>
<event>
 5   0  0.2446281E-07  0.3926318E+04  0.7818609E-02  0.8019578E-01
        2   -1    0    0  501    0  0.00000000000E+00  0.00000000000E+00  0.14676423163E+04  0.14676423163E+04  0.25500000920E-02 0.  1.
       -2   -1    0    0    0  501  0.00000000000E+00  0.00000000000E+00 -0.26259763006E+04  0.26259763006E+04  0.25500000920E-02 0. -1.
    10030    2    1    2    0    0  0.00000000000E+00  0.00000000000E+00 -0.11583339843E+04  0.40936186170E+04  0.39263183470E+04 0.  0.
        1    1    3    3  502    0 -0.34564339804E+03 -0.18104859234E+04 -0.12837316873E+04  0.22461735646E+04  0.50400001928E-02 0. -1.
       -1    1    3    3    0  502  0.34564339804E+03  0.18104859234E+04  0.12539770300E+03  0.18474450523E+04  0.50400001928E-02 0.  1.
</event>
<event>
 5   0  0.7675750E-08  0.3885101E+04  0.7818609E-02  0.8028135E-01
       -1   -1    0    0    0  501  0.00000000000E+00  0.00000000000E+00  0.16335138208E+04  0.16335138208E+04  0.50400001928E-02 0.  1.
        1   -1    0    0  501    0  0.00000000000E+00  0.00000000000E+00 -0.23100519126E+04  0.23100519126E+04  0.50400001928E-02 0. -1.
    10030    2    1    2    0    0  0.00000000000E+00  0.00000000000E+00 -0.67653809176E+03  0.39435657334E+04  0.38851006299E+04 0.  0.
        2    1    3    3  502    0  0.51009817147E+03 -0.78454754139E+03 -0.20661746862E+04  0.22682135753E+04  0.25500000920E-02 0. -1.
       -2    1    3    3    0  502 -0.51009817147E+03  0.78454754139E+03  0.13896365944E+04  0.16753521582E+04  0.25500000920E-02 0.  1.
</event>
<event>
 5   0  0.2446281E-07  0.3895824E+04  0.7818609E-02  0.8025898E-01
        2   -1    0    0  501    0  0.00000000000E+00  0.00000000000E+00  0.21972737382E+04  0.21972737382E+04  0.25500000920E-02 0. -1.
       -2   -1    0    0    0  501  0.00000000000E+00  0.00000000000E+00 -0.17268492307E+04  0.17268492307E+04  0.25500000920E-02 0.  1.
    10030    2    1    2    0    0  0.00000000000E+00  0.00000000000E+00  0.47042450748E+03  0.39241229689E+04  0.38958236430E+04 0.  0.
        1    1    3    3  502    0 -0.17479685007E+04  0.28792195803E+03  0.10510759185E+04  0.20598673549E+04  0.50400001928E-02 0. -1.
       -1    1    3    3    0  502  0.17479685007E+04 -0.28792195803E+03 -0.58065141100E+03  0.18642556140E+04  0.50400001928E-02 0.  1.
</event>
<event>
 5   0  0.2395572E-07  0.3842972E+04  0.7818609E-02  0.8036996E-01
       -2   -1    0    0    0  501  0.00000000000E+00  0.00000000000E+00  0.15129413806E+04  0.15129413806E+04  0.25500000920E-02 0. -1.
        2   -1    0    0  501    0  0.00000000000E+00  0.00000000000E+00 -0.24403509138E+04  0.24403509138E+04  0.25500000920E-02 0.  1.
    10030    2    1    2    0    0  0.00000000000E+00  0.00000000000E+00 -0.92740953319E+03  0.39532922943E+04  0.38429717046E+04 0.  0.
        3    1    3    3  502    0 -0.78916790939E+03  0.10203577033E+04 -0.19287339500E+04  0.23203298239E+04  0.10100000352E+00 0.  1.
       -3    1    3    3    0  502  0.78916790939E+03 -0.10203577033E+04  0.10013244168E+04  0.16329624704E+04  0.10100000352E+00 0. -1.
</event>
<event>
 5   0  0.7731706E-08  0.3905578E+04  0.7818609E-02  0.8023870E-01
        1   -1    0    0  501    0  0.00000000000E+00  0.00000000000E+00  0.21405917971E+04  0.21405917971E+04  0.50400001928E-02 0.  1.
       -1   -1    0    0    0  501  0.00000000000E+00  0.00000000000E+00 -0.17814630402E+04  0.17814630402E+04  0.50400001928E-02 0. -1.
    10030    2    1    2    0    0  0.00000000000E+00  0.00000000000E+00  0.35912875690E+03  0.39220548373E+04  0.39055781496E+04 0.  0.
        3    1    3    3  502    0 -0.11694248249E+04  0.13260352799E+04  0.10121950742E+04  0.20372684808E+04  0.10100000352E+00 0.  1.
       -3    1    3    3    0  502  0.11694248249E+04 -0.13260352799E+04 -0.65306631725E+03  0.18847863565E+04  0.10100000352E+00 0. -1.
</event>
<event>
 5   0  0.7675750E-08  0.3914429E+04  0.7818609E-02  0.8022035E-01
        1   -1    0    0  501    0  0.00000000000E+00  0.00000000000E+00  0.20495616243E+04  0.20495616244E+04  0.50400001928E-02 0. -1.
       -1   -1    0    0    0  501  0.00000000000E+00  0.00000000000E+00 -0.18690280734E+04  0.18690280734E+04  0.50400001928E-02 0.  1.
    10030    2    1    2    0    0  0.00000000000E+00  0.00000000000E+00  0.18053355096E+03  0.39185896977E+04  0.39144288033E+04 0.  0.
        1    1    3    3  502    0 -0.19285972351E+04  0.11203074183E+02  0.42390081686E+03  0.19746657202E+04  0.50400001928E-02 0. -1.
       -1    1    3    3    0  502  0.19285972351E+04 -0.11203074183E+02 -0.24336726590E+03  0.19439239775E+04  0.50400001928E-02 0.  1.
</event>
<event>
 5   0  0.2446281E-07  0.3895512E+04  0.7818609E-02  0.8025963E-01
       -2   -1    0    0    0  501  0.00000000000E+00  0.00000000000E+00  0.15087230586E+04  0.15087230586E+04  0.25500000920E-02 0.  1.
        2   -1    0    0  501    0  0.00000000000E+00  0.00000000000E+00 -0.25145453083E+04  0.25145453083E+04  0.25500000920E-02 0. -1.
    10030    2    1    2    0    0  0.00000000000E+00  0.00000000000E+00 -0.10058222497E+04  0.40232683669E+04  0.38955115138E+04 0.  0.
        1    1    3    3  502    0 -0.18370414266E+04  0.63233403685E+03 -0.64596342975E+03  0.20473974431E+04  0.50400001928E-02 0.  1.
       -1    1    3    3    0  502  0.18370414266E+04 -0.63233403685E+03 -0.35985881993E+03  0.19758709238E+04  0.50400001928E-02 0. -1.
</event>
<event>
 5   0  0.7675750E-08  0.3911727E+04  0.7818609E-02  0.8022595E-01
        1   -1    0    0  501    0  0.00000000000E+00  0.00000000000E+00  0.23077321909E+04  0.23077321909E+04  0.50400001928E-02 0. -1.
       -1   -1    0    0    0  501  0.00000000000E+00  0.00000000000E+00 -0.16576451526E+04  0.16576451526E+04  0.50400001928E-02 0.  1.
    10030    2    1    2    0    0  0.00000000000E+00  0.00000000000E+00  0.65008703831E+03  0.39653773435E+04  0.39117265138E+04 0.  0.
        2    1    3    3  502    0  0.32000156998E+03 -0.19293697801E+04  0.30165486807E+03  0.19788543181E+04  0.25500000920E-02 0.  1.
       -2    1    3    3    0  502 -0.32000156998E+03  0.19293697801E+04  0.34843217024E+03  0.19865230254E+04  0.25500000920E-02 0. -1.
</event>
<event>
 5   0  0.7675750E-08  0.3908139E+04  0.7818609E-02  0.8023339E-01
        1   -1    0    0  501    0  0.00000000000E+00  0.00000000000E+00  0.24598418501E+04  0.24598418501E+04  0.50400001928E-02 0. -1.
       -1   -1    0    0    0  501  0.00000000000E+00  0.00000000000E+00 -0.15522897195E+04  0.15522897195E+04  0.50400001928E-02 0.  1.
    10030    2    1    2    0    0  0.00000000000E+00  0.00000000000E+00  0.90755213061E+03  0.40121315697E+04  0.39081387978E+04 0.  0.
        1    1    3    3  502    0 -0.20434783889E+03 -0.33208592162E+03 -0.15119456545E+04  0.15614156272E+04  0.50400001928E-02 0.  1.
       -1    1    3    3    0  502  0.20434783889E+03  0.33208592162E+03  0.24194977851E+04  0.24507159425E+04  0.50400001928E-02 0. -1.
</event>
<event>
 5   0  0.2395572E-07  0.3886961E+04  0.7818609E-02  0.8027746E-01
       -2   -1    0    0    0  501  0.00000000000E+00  0.00000000000E+00  0.19119944583E+04  0.19119944583E+04  0.25500000920E-02 0. -1.
        2   -1    0    0  501    0  0.00000000000E+00  0.00000000000E+00 -0.19754853995E+04  0.19754853995E+04  0.25500000920E-02 0.  1.
    10030    2    1    2    0    0  0.00000000000E+00  0.00000000000E+00 -0.63490941199E+02  0.38874798579E+04  0.38869613512E+04 0.  0.
        3    1    3    3  502    0  0.18626949408E+04 -0.55142786549E+03 -0.90165530851E+02  0.19446940547E+04  0.10100000352E+00 0.  1.
       -3    1    3    3    0  502 -0.18626949408E+04  0.55142786549E+03  0.26674589652E+02  0.19427858032E+04  0.10100000352E+00 0. -1.
</event>
<event>
 5   0  0.7675750E-08  0.3998510E+04  0.7818609E-02  0.8004847E-01
        1   -1    0    0  501    0  0.00000000000E+00  0.00000000000E+00  0.22110169506E+04  0.22110169506E+04  0.50400001928E-02 0.  1.
       -1   -1    0    0    0  501  0.00000000000E+00  0.00000000000E+00 -0.18077751082E+04  0.18077751082E+04  0.50400001928E-02 0. -1.
    10030    2    1    2    0    0  0.00000000000E+00  0.00000000000E+00  0.40324184237E+03  0.40187920587E+04  0.39985104261E+04 0.  0.
        4    1    3    3  502    0  0.13546308654E+04 -0.13503202023E+04  0.78649214098E+03  0.20680814614E+04  0.12699999809E+01 0.  1.
       -4    1    3    3    0  502 -0.13546308654E+04  0.13503202023E+04 -0.38325029860E+03  0.19507105973E+04  0.12699999809E+01 0. -1.
</event>
<event>
 5   0  0.7675750E-08  0.3655982E+04  0.7818609E-02  0.8077787E-01
       -1   -1    0    0    0  501  0.00000000000E+00  0.00000000000E+00  0.17484345537E+04  0.17484345537E+04  0.50400001928E-02 0.  1.
        1   -1    0    0  501    0  0.00000000000E+00  0.00000000000E+00 -0.19111670129E+04  0.19111670129E+04  0.50400001928E-02 0. -1.
    10030    2    1    2    0    0  0.00000000000E+00  0.00000000000E+00 -0.16273245926E+03  0.36596015666E+04  0.36559816428E+04 0.  0.
        1    1    3    3  502    0 -0.20546483714E+03 -0.10377429573E+04  0.14108895753E+04  0.17634442544E+04  0.50400001928E-02 0.  1.
       -1    1    3    3    0  502  0.20546483714E+03  0.10377429573E+04 -0.15736220346E+04  0.18961573122E+04  0.50400001928E-02 0. -1.
</event>
<event>
 5   0  0.7675750E-08  0.3897018E+04  0.7818609E-02  0.8025650E-01
       -1   -1    0    0    0  501  0.00000000000E+00  0.00000000000E+00  0.21018360450E+04  0.21018360450E+04  0.50400001928E-02 0. -1.
        1   -1    0    0  501    0  0.00000000000E+00  0.00000000000E+00 -0.18063672681E+04  0.18063672681E+04  0.50400001928E-02 0.  1.
    10030    2    1    2    0    0  0.00000000000E+00  0.00000000000E+00  0.29546877691E+03  0.39082033131E+04  0.38970182625E+04 0.  0.
        1    1    3    3  502    0 -0.21457881669E+03 -0.13422056213E+04 -0.12523843546E+04  0.18482495963E+04  0.50400001928E-02 0.  1.
       -1    1    3    3    0  502  0.21457881669E+03  0.13422056213E+04  0.15478531315E+04  0.20599537168E+04  0.50400001928E-02 0. -1.
</event>
<event>
 5   0  0.2473224E-07  0.3957284E+04  0.7818609E-02  0.8013220E-01
        2   -1    0    0  501    0  0.00000000000E+00  0.00000000000E+00  0.30204900276E+04  0.30204900276E+04  0.25500000920E-02 0.  1.
       -2   -1    0    0    0  501  0.00000000000E+00  0.00000000000E+00 -0.12961552424E+04  0.12961552424E+04  0.25500000920E-02 0. -1.
    10030    2    1    2    0    0  0.00000000000E+00  0.00000000000E+00  0.17243347853E+04  0.43166452700E+04  0.39572839089E+04 0.  0.
        2    1    3    3  502    0  0.10101477010E+03 -0.69969405310E+02 -0.12919890467E+04  0.12978194783E+04  0.25500000920E-02 0. -1.
       -2    1    3    3    0  502 -0.10101477010E+03  0.69969405310E+02  0.30163238320E+04  0.30188257917E+04  0.25500000920E-02 0.  1.
</event>
<event>
 5   0  0.2384787E-07  0.3913470E+04  0.7818609E-02  0.8022233E-01
       -2   -1    0    0    0  501  0.00000000000E+00  0.00000000000E+00  0.24969294372E+04  0.24969294372E+04  0.25500000920E-02 0.  1.
        2   -1    0    0  501    0  0.00000000000E+00  0.00000000000E+00 -0.15334082878E+04  0.15334082878E+04  0.25500000920E-02 0. -1.
    10030    2    1    2    0    0  0.00000000000E+00  0.00000000000E+00  0.96352114932E+03  0.40303377250E+04  0.39134702212E+04 0.  0.
        4    1    3    3  502    0  0.22307294656E+03 -0.60945260532E+03  0.23828597471E+04  0.24696591272E+04  0.12699999809E+01 0.  1.
       -4    1    3    3    0  502 -0.22307294656E+03  0.60945260532E+03 -0.14193385977E+04  0.15606785978E+04  0.12699999809E+01 0. -1.
</event>
<event>
 5   0  0.2395572E-07  0.3900448E+04  0.7818609E-02  0.8024936E-01
        2   -1    0    0  501    0  0.00000000000E+00  0.00000000000E+00  0.19494652680E+04  0.19494652680E+04  0.25500000920E-02 0. -1.
       -2   -1    0    0    0  501  0.00000000000E+00  0.00000000000E+00 -0.19509832189E+04  0.19509832189E+04  0.25500000920E-02 0.  1.
    10030    2    1    2    0    0  0.00000000000E+00  0.00000000000E+00 -0.15179509019E+01  0.39004484869E+04  0.39004481915E+04 0.  0.
        3    1    3    3  502    0  0.14808429782E+04 -0.10442592721E+04  0.72035179183E+03  0.19499436063E+04  0.10100000352E+00 0.  1.
       -3    1    3    3    0  502 -0.14808429782E+04  0.10442592721E+04 -0.72186974273E+03  0.19505048806E+04  0.10100000352E+00 0. -1.
</event>
<event>
 5   0  0.7675750E-08  0.3185065E+04  0.7818609E-02  0.8192773E-01
       -1   -1    0    0    0  501  0.00000000000E+00  0.00000000000E+00  0.10181798580E+04  0.10181798580E+04  0.50400001928E-02 0. -1.
        1   -1    0    0  501    0  0.00000000000E+00  0.00000000000E+00 -0.24908759974E+04  0.24908759974E+04  0.50400001928E-02 0.  1.
    10030    2    1    2    0    0  0.00000000000E+00  0.00000000000E+00 -0.14726961394E+04  0.35090558554E+04  0.31850650036E+04 0.  0.
        5    1    3    3  502    0 -0.15204498847E+04  0.40657471561E+03 -0.10041069022E+04  0.18669021432E+04  0.46999998093E+01 0.  1.
       -5    1    3    3    0  502  0.15204498847E+04 -0.40657471561E+03 -0.46858923724E+03  0.16421537122E+04  0.46999998093E+01 0. -1.
</event>
<event>
 5   0  0.2395572E-07  0.3865143E+04  0.7818609E-02  0.8032318E-01
       -2   -1    0    0    0  501  0.00000000000E+00  0.00000000000E+00  0.25572191310E+04  0.25572191310E+04  0.25500000920E-02 0. -1.
        2   -1    0    0  501    0  0.00000000000E+00  0.00000000000E+00 -0.14605057298E+04  0.14605057298E+04  0.25500000920E-02 0.  1.
    10030    2    1    2    0    0  0.00000000000E+00  0.00000000000E+00  0.10967134012E+04  0.40177248608E+04  0.38651433055E+04 0.  0.
        3    1    3    3  502    0 -0.15567831967E+04 -0.10826191183E+04  0.93617346147E+03  0.21147242934E+04  0.10100000352E+00 0. -1.
       -3    1    3    3    0  502  0.15567831967E+04  0.10826191183E+04  0.16053993974E+03  0.19030005674E+04  0.10100000352E+00 0.  1.
</event>
<event>
 5   0  0.2473224E-07  0.3929951E+04  0.7818609E-02  0.8018829E-01
        2   -1    0    0  501    0  0.00000000000E+00  0.00000000000E+00  0.22293056339E+04  0.22293056339E+04  0.25500000920E-02 0. -1.
       -2   -1    0    0    0  501  0.00000000000E+00  0.00000000000E+00 -0.17319868272E+04  0.17319868272E+04  0.25500000920E-02 0.  1.
    10030    2    1    2    0    0  0.00000000000E+00  0.00000000000E+00  0.49731880678E+03  0.39612924611E+04  0.39299506316E+04 0.  0.
        2    1    3    3  502    0  0.62199007167E+02 -0.18059553843E+04 -0.52936708958E+03  0.18829692196E+04  0.25500000920E-02 0.  1.
       -2    1    3    3    0  502 -0.62199007167E+02  0.18059553843E+04  0.10266858964E+04  0.20783232415E+04  0.25500000920E-02 0. -1.
</event>
<event>
 5   0  0.7731706E-08  0.3857125E+04  0.7818609E-02  0.8034006E-01
        1   -1    0    0  501    0  0.00000000000E+00  0.00000000000E+00  0.19001739788E+04  0.19001739788E+04  0.50400001928E-02 0.  1.
       -1   -1    0    0    0  501  0.00000000000E+00  0.00000000000E+00 -0.19573755076E+04  0.19573755077E+04  0.50400001928E-02 0. -1.
    10030    2    1    2    0    0  0.00000000000E+00  0.00000000000E+00 -0.57201528840E+02  0.38575494865E+04  0.38571253578E+04 0.  0.
        3    1    3    3  502    0  0.80594357813E+03 -0.35401370571E+03 -0.17447391115E+04  0.19542224368E+04  0.10100000352E+00 0. -1.
       -3    1    3    3    0  502 -0.80594357813E+03  0.35401370571E+03  0.16875375827E+04  0.19033270497E+04  0.10100000352E+00 0.  1.
</event>
<event>
 5   0  0.2486268E-07  0.3892487E+04  0.7818609E-02  0.8026594E-01
       -2   -1    0    0    0  501  0.00000000000E+00  0.00000000000E+00  0.14512918352E+04  0.14512918352E+04  0.25500000920E-02 0.  1.
        2   -1    0    0  501    0  0.00000000000E+00  0.00000000000E+00 -0.26099949804E+04  0.26099949804E+04  0.25500000920E-02 0. -1.
    10030    2    1    2    0    0  0.00000000000E+00  0.00000000000E+00 -0.11587031451E+04  0.40612868156E+04  0.38924873307E+04 0.  0.
        5    1    3    3  502    0  0.17864732470E+04 -0.40820870804E+03 -0.12633103002E+04  0.22257798669E+04  0.46999998093E+01 0. -1.
       -5    1    3    3    0  502 -0.17864732470E+04  0.40820870804E+03  0.10460715501E+03  0.18355069486E+04  0.46999998093E+01 0.  1.
</event>
<event>
 5   0  0.2486268E-07  0.3850236E+04  0.7818609E-02  0.8035459E-01
        2   -1    0    0  501    0  0.00000000000E+00  0.00000000000E+00  0.12241463824E+04  0.12241463824E+04  0.25500000920E-02 0. -1.
       -2   -1    0    0    0  501  0.00000000000E+00  0.00000000000E+00 -0.30274805908E+04  0.30274805908E+04  0.25500000920E-02 0.  1.
    10030    2    1    2    0    0  0.00000000000E+00  0.00000000000E+00 -0.18033342084E+04  0.42516269732E+04  0.38502360514E+04 0.  0.
        5    1    3    3  502    0 -0.43801863445E+02 -0.67691250853E+03 -0.28911364431E+04  0.29696500080E+04  0.46999998093E+01 0.  1.
       -5    1    3    3    0  502  0.43801863445E+02  0.67691250853E+03  0.10878022347E+04  0.12819769652E+04  0.46999998093E+01 0. -1.
</event>
<event>
 5   0  0.2446281E-07  0.3879609E+04  0.7818609E-02  0.8029284E-01
        2   -1    0    0  501    0  0.00000000000E+00  0.00000000000E+00  0.23788040812E+04  0.23788040812E+04  0.25500000920E-02 0.  1.
       -2   -1    0    0    0  501  0.00000000000E+00  0.00000000000E+00 -0.15818203305E+04  0.15818203305E+04  0.25500000920E-02 0. -1.
    10030    2    1    2    0    0  0.00000000000E+00  0.00000000000E+00  0.79698375077E+03  0.39606244117E+04  0.38796085668E+04 0.  0.
        1    1    3    3  502    0  0.18551767447E+04 -0.55652999593E+03  0.28932775323E+03  0.19583454596E+04  0.50400001928E-02 0. -1.
       -1    1    3    3    0  502 -0.18551767447E+04  0.55652999593E+03  0.50765599754E+03  0.20022789521E+04  0.50400001928E-02 0.  1.
</event>
<event>
 5   0  0.2384787E-07  0.3890275E+04  0.7818609E-02  0.8027055E-01
       -2   -1    0    0    0  501  0.00000000000E+00  0.00000000000E+00  0.13730130960E+04  0.13730130960E+04  0.25500000920E-02 0. -1.
        2   -1    0    0  501    0  0.00000000000E+00  0.00000000000E+00 -0.27556618727E+04  0.27556618727E+04  0.25500000920E-02 0.  1.
    10030    2    1    2    0    0  0.00000000000E+00  0.00000000000E+00 -0.13826487766E+04  0.41286749687E+04  0.38902749720E+04 0.  0.
        4    1    3    3  502    0 -0.48732006100E+03 -0.93119058695E+03 -0.24283796267E+04  0.26460585737E+04  0.12699999809E+01 0.  1.
       -4    1    3    3    0  502  0.48732006100E+03  0.93119058695E+03  0.10457308501E+04  0.14826163950E+04  0.12699999809E+01 0. -1.
</event>
<event>
 5   0  0.7731706E-08  0.3987768E+04  0.7818609E-02  0.8007019E-01
       -1   -1    0    0    0  501  0.00000000000E+00  0.00000000000E+00  0.16055773008E+04  0.16055773008E+04  0.50400001928E-02 0.  1.
        1   -1    0    0  501    0  0.00000000000E+00  0.00000000000E+00 -0.24761022507E+04  0.24761022507E+04  0.50400001928E-02 0. -1.
    10030    2    1    2    0    0  0.00000000000E+00  0.00000000000E+00 -0.87052494992E+03  0.40816795516E+04  0.39877680817E+04 0.  0.
        3    1    3    3  502    0  0.16875018975E+04 -0.10372163606E+04 -0.20164828466E+03  0.19910154379E+04  0.10100000352E+00 0.  1.
       -3    1    3    3    0  502 -0.16875018975E+04  0.10372163606E+04 -0.66887666527E+03  0.20906641137E+04  0.10100000352E+00 0. -1.
</event>
<event>
 5   0  0.7675750E-08  0.3973977E+04  0.7818609E-02  0.8009817E-01
        1   -1    0    0  501    0  0.00000000000E+00  0.00000000000E+00  0.17175610680E+04  0.17175610680E+04  0.50400001928E-02 0.  1.
       -1   -1    0    0    0  501  0.00000000000E+00  0.00000000000E+00 -0.22986798589E+04  0.22986798589E+04  0.50400001928E-02 0. -1.
    10030    2    1    2    0    0  0.00000000000E+00  0.00000000000E+00 -0.58111879093E+03  0.40162409269E+04  0.39739768663E+04 0.  0.
        4    1    3    3  502    0 -0.15665488502E+04 -0.53028202438E+03  0.82244645971E+03  0.18470771823E+04  0.12699999809E+01 0.  1.
       -4    1    3    3    0  502  0.15665488502E+04  0.53028202438E+03 -0.14035652506E+04  0.21691637446E+04  0.12699999809E+01 0. -1.
</event>
<event>
 5   0  0.2446281E-07  0.3775276E+04  0.7818609E-02  0.8051482E-01
        2   -1    0    0  501    0  0.00000000000E+00  0.00000000000E+00  0.17190676958E+04  0.17190676958E+04  0.25500000920E-02 0. -1.
       -2   -1    0    0    0  501  0.00000000000E+00  0.00000000000E+00 -0.20727380749E+04  0.20727380749E+04  0.25500000920E-02 0.  1.
    10030    2    1    2    0    0  0.00000000000E+00  0.00000000000E+00 -0.35367037902E+03  0.37918057707E+04  0.37752759191E+04 0.  0.
        1    1    3    3  502    0  0.27619601905E+03 -0.10843930877E+04 -0.17036835165E+04  0.20383155138E+04  0.50400001928E-02 0.  1.
       -1    1    3    3    0  502 -0.27619601905E+03  0.10843930877E+04  0.13500131374E+04  0.17534902569E+04  0.50400001928E-02 0. -1.
</event>
<event>
 5   0  0.7675750E-08  0.3922224E+04  0.7818609E-02  0.8020423E-01
        1   -1    0    0  501    0  0.00000000000E+00  0.00000000000E+00  0.13513510380E+04  0.13513510380E+04  0.50400001928E-02 0. -1.
       -1   -1    0    0    0  501  0.00000000000E+00  0.00000000000E+00 -0.28460106707E+04  0.28460106707E+04  0.50400001928E-02 0.  1.
    10030    2    1    2    0    0  0.00000000000E+00  0.00000000000E+00 -0.14946596327E+04  0.41973617088E+04  0.39222235908E+04 0.  0.
        1    1    3    3  502    0  0.19262144421E+04 -0.28374880571E+03 -0.49602938720E+03  0.20091940212E+04  0.50400001928E-02 0.  1.
       -1    1    3    3    0  502 -0.19262144421E+04  0.28374880571E+03 -0.99863024548E+03  0.21881676876E+04  0.50400001928E-02 0. -1.
</event>
<event>
 5   0  0.2384787E-07  0.3919573E+04  0.7818609E-02  0.8020971E-01
       -2   -1    0    0    0  501  0.00000000000E+00  0.00000000000E+00  0.20527971678E+04  0.20527971678E+04  0.25500000920E-02 0. -1.
        2   -1    0    0  501    0  0.00000000000E+00  0.00000000000E+00 -0.18709899686E+04  0.18709899686E+04  0.25500000920E-02 0.  1.
    10030    2    1    2    0    0  0.00000000000E+00  0.00000000000E+00  0.18180719922E+03  0.39237871364E+04  0.39195728893E+04 0.  0.
        4    1    3    3  502    0  0.10486671777E+04  0.14168370612E+04  0.94834724646E+03  0.20016228967E+04  0.12699999809E+01 0.  1.
       -4    1    3    3    0  502 -0.10486671777E+04 -0.14168370612E+04 -0.76654004724E+03  0.19221642398E+04  0.12699999809E+01 0. -1.
</event>
<event>
 5   0  0.2486268E-07  0.3914198E+04  0.7818609E-02  0.8022083E-01
        2   -1    0    0  501    0  0.00000000000E+00  0.00000000000E+00  0.27290968856E+04  0.27290968856E+04  0.25500000920E-02 0. -1.
       -2   -1    0    0    0  501  0.00000000000E+00  0.00000000000E+00 -0.14034810950E+04  0.14034810950E+04  0.25500000920E-02 0.  1.
    10030    2    1    2    0    0  0.00000000000E+00  0.00000000000E+00  0.13256157906E+04  0.41325779806E+04  0.39141976881E+04 0.  0.
        5    1    3    3  502    0  0.78567498095E+03 -0.17105415980E+04  0.97218658148E+02  0.18848637329E+04  0.46999998093E+01 0.  1.
       -5    1    3    3    0  502 -0.78567498095E+03  0.17105415980E+04  0.12283971325E+04  0.22477142477E+04  0.46999998093E+01 0. -1.
</event>
<event>
 5   0  0.2486268E-07  0.3877334E+04  0.7818609E-02  0.8029760E-01
        2   -1    0    0  501    0  0.00000000000E+00  0.00000000000E+00  0.24265897257E+04  0.24265897257E+04  0.25500000920E-02 0.  1.
       -2   -1    0    0    0  501  0.00000000000E+00  0.00000000000E+00 -0.15488529436E+04  0.15488529436E+04  0.25500000920E-02 0. -1.
    10030    2    1    2    0    0  0.00000000000E+00  0.00000000000E+00  0.87773678214E+03  0.39754426693E+04  0.38773344656E+04 0.  0.
        5    1    3    3  502    0  0.12307338679E+04  0.12565578229E+04 -0.39709324185E+03  0.18031496191E+04  0.46999998093E+01 0. -1.
       -5    1    3    3    0  502 -0.12307338679E+04 -0.12565578229E+04  0.12748300240E+04  0.21722930502E+04  0.46999998093E+01 0.  1.
</event>
<event>
 5   0  0.7675750E-08  0.3872227E+04  0.7818609E-02  0.8030830E-01
        1   -1    0    0  501    0  0.00000000000E+00  0.00000000000E+00  0.15504558956E+04  0.15504558956E+04  0.50400001928E-02 0. -1.
       -1   -1    0    0    0  501  0.00000000000E+00  0.00000000000E+00 -0.24176985633E+04  0.24176985633E+04  0.50400001928E-02 0.  1.
    10030    2    1    2    0    0  0.00000000000E+00  0.00000000000E+00 -0.86724266769E+03  0.39681544590E+04  0.38722267451E+04 0.  0.
        4    1    3    3  502    0 -0.15742785218E+04  0.56491552661E+03 -0.14329990994E+04  0.22024918725E+04  0.12699999809E+01 0.  1.
       -4    1    3    3    0  502  0.15742785218E+04 -0.56491552661E+03  0.56575643172E+03  0.17656625865E+04  0.12699999809E+01 0. -1.
</event>
<event>
 5   0  0.7675750E-08  0.3836615E+04  0.7818609E-02  0.8038343E-01
        1   -1    0    0  501    0  0.00000000000E+00  0.00000000000E+00  0.19658377060E+04  0.19658377060E+04  0.50400001928E-02 0.  1.
       -1   -1    0    0    0  501  0.00000000000E+00  0.00000000000E+00 -0.18719268589E+04  0.18719268589E+04  0.50400001928E-02 0. -1.
    10030    2    1    2    0    0  0.00000000000E+00  0.00000000000E+00  0.93910847161E+02  0.38377645649E+04  0.38366153845E+04 0.  0.
        4    1    3    3  502    0 -0.39701479675E+03 -0.82323741487E+03 -0.16401327532E+04  0.18775989058E+04  0.12699999809E+01 0. -1.
       -4    1    3    3    0  502  0.39701479675E+03  0.82323741487E+03  0.17340436004E+04  0.19601656591E+04  0.12699999809E+01 0.  1.
</event>
<event>
 5   0  0.7675750E-08  0.3891213E+04  0.7818609E-02  0.8026859E-01
       -1   -1    0    0    0  501  0.00000000000E+00  0.00000000000E+00  0.15758956872E+04  0.15758956872E+04  0.50400001928E-02 0.  1.
        1   -1    0    0  501    0  0.00000000000E+00  0.00000000000E+00 -0.24020522052E+04  0.24020522052E+04  0.50400001928E-02 0. -1.
    10030    2    1    2    0    0  0.00000000000E+00  0.00000000000E+00 -0.82615651804E+03  0.39779478924E+04  0.38912125157E+04 0.  0.
        1    1    3    3  502    0 -0.10167645430E+04  0.13312572443E+04 -0.14247466117E+04  0.21990813750E+04  0.50400001928E-02 0.  1.
       -1    1    3    3    0  502  0.10167645430E+04 -0.13312572443E+04  0.59859009362E+03  0.17788665174E+04  0.50400001928E-02 0. -1.
</event>
<event>
 5   0  0.2486268E-07  0.3914746E+04  0.7818609E-02  0.8021969E-01
        2   -1    0    0  501    0  0.00000000000E+00  0.00000000000E+00  0.23146764048E+04  0.23146764048E+04  0.25500000920E-02 0. -1.
       -2   -1    0    0    0  501  0.00000000000E+00  0.00000000000E+00 -0.16552242292E+04  0.16552242292E+04  0.25500000920E-02 0.  1.
    10030    2    1    2    0    0  0.00000000000E+00  0.00000000000E+00  0.65945217551E+03  0.39699006340E+04  0.39147456970E+04 0.  0.
        5    1    3    3  502    0  0.14231537730E+04  0.27766877434E+03  0.16630968907E+04  0.22064405652E+04  0.46999998093E+01 0. -1.
       -5    1    3    3    0  502 -0.14231537730E+04 -0.27766877434E+03 -0.10036447152E+04  0.17634600688E+04  0.46999998093E+01 0.  1.
</event>
<event>
 5   0  0.2384787E-07  0.3864389E+04  0.7818609E-02  0.8032477E-01
       -2   -1    0    0    0  501  0.00000000000E+00  0.00000000000E+00  0.26239975582E+04  0.26239975582E+04  0.25500000920E-02 0. -1.
        2   -1    0    0  501    0  0.00000000000E+00  0.00000000000E+00 -0.14227816856E+04  0.14227816856E+04  0.25500000920E-02 0.  1.
    10030    2    1    2    0    0  0.00000000000E+00  0.00000000000E+00  0.12012158725E+04  0.40467792438E+04  0.38643890430E+04 0.  0.
        4    1    3    3  502    0  0.91575845268E+02  0.17821482353E+04 -0.17526278859E+03  0.17930859227E+04  0.12699999809E+01 0.  1.
       -4    1    3    3    0  502 -0.91575845268E+02 -0.17821482353E+04  0.13764786611E+04  0.22536933211E+04  0.12699999809E+01 0. -1.
</event>
<event>
 5   0  0.2446281E-07  0.3661572E+04  0.7818609E-02  0.8076532E-01
       -2   -1    0    0    0  501  0.00000000000E+00  0.00000000000E+00  0.23097376254E+04  0.23097376254E+04  0.25500000920E-02 0. -1.
        2   -1    0    0  501    0  0.00000000000E+00  0.00000000000E+00 -0.14511508037E+04  0.14511508037E+04  0.25500000920E-02 0.  1.
    10030    2    1    2    0    0  0.00000000000E+00  0.00000000000E+00  0.85858682168E+03  0.37608884292E+04  0.36615721277E+04 0.  0.
        1    1    3    3  502    0 -0.39360420879E+03 -0.17138114132E+04 -0.94140663036E+02  0.17609475567E+04  0.50400001928E-02 0.  1.
       -1    1    3    3    0  502  0.39360420879E+03  0.17138114132E+04  0.95272748472E+03  0.19999408724E+04  0.50400001928E-02 0. -1.
</event>
<event>
 5   0  0.2446281E-07  0.3838410E+04  0.7818609E-02  0.8037962E-01
       -2   -1    0    0    0  501  0.00000000000E+00  0.00000000000E+00  0.20620793963E+04  0.20620793963E+04  0.25500000920E-02 0. -1.
        2   -1    0    0  501    0  0.00000000000E+00  0.00000000000E+00 -0.17862300729E+04  0.17862300729E+04  0.25500000920E-02 0.  1.
    10030    2    1    2    0    0  0.00000000000E+00  0.00000000000E+00  0.27584932342E+03  0.38483094692E+04  0.38384102076E+04 0.  0.
        1    1    3    3  502    0  0.15429220118E+04 -0.10778588827E+04  0.51433950594E+03  0.19511363953E+04  0.50400001928E-02 0.  1.
       -1    1    3    3    0  502 -0.15429220118E+04  0.10778588827E+04 -0.23849018251E+03  0.18971730740E+04  0.50400001928E-02 0. -1.
</event>
<event>
 5   0  0.7675750E-08  0.3913663E+04  0.7818609E-02  0.8022193E-01
        1   -1    0    0  501    0  0.00000000000E+00  0.00000000000E+00  0.23052978216E+04  0.23052978216E+04  0.50400001928E-02 0.  1.
       -1   -1    0    0    0  501  0.00000000000E+00  0.00000000000E+00 -0.16610392872E+04  0.16610392872E+04  0.50400001928E-02 0. -1.
    10030    2    1    2    0    0  0.00000000000E+00  0.00000000000E+00  0.64425853443E+03  0.39663371087E+04  0.39136633735E+04 0.  0.
        2    1    3    3  502    0  0.11926038015E+04  0.11435114373E+04  0.13847002486E+04  0.21557636728E+04  0.25500000920E-02 0.  1.
       -2    1    3    3    0  502 -0.11926038015E+04 -0.11435114373E+04 -0.74044171420E+03  0.18105734359E+04  0.25500000920E-02 0. -1.
</event>
<event>
 5   0  0.7675750E-08  0.3920992E+04  0.7818609E-02  0.8020677E-01
       -3   -1    0    0    0  501  0.00000000000E+00  0.00000000000E+00  0.27182475837E+04  0.27182475855E+04  0.10100000352E+00 0. -1.
        3   -1    0    0  501    0  0.00000000000E+00  0.00000000000E+00 -0.14139788923E+04  0.14139788959E+04  0.10100000352E+00 0.  1.
    10030    2    1    2    0    0  0.00000000000E+00  0.00000000000E+00  0.13042686913E+04  0.41322264815E+04  0.39209920779E+04 0.  0.
        2    1    3    3  502    0  0.15038110904E+04 -0.12429110665E+04  0.85558638346E+03  0.21303294990E+04  0.25500000920E-02 0. -1.
       -2    1    3    3    0  502 -0.15038110904E+04  0.12429110665E+04  0.44868230786E+03  0.20018969824E+04  0.25500000920E-02 0.  1.
</event>
<event>
 5   0  0.2486268E-07  0.3656130E+04  0.7818609E-02  0.8077754E-01
       -2   -1    0    0    0  501  0.00000000000E+00  0.00000000000E+00  0.12082801211E+04  0.12082801211E+04  0.25500000920E-02 0.  1.
        2   -1    0    0  501    0  0.00000000000E+00  0.00000000000E+00 -0.27657666850E+04  0.27657666850E+04  0.25500000920E-02 0. -1.
    10030    2    1    2    0    0  0.00000000000E+00  0.00000000000E+00 -0.15574865639E+04  0.39740468061E+04  0.36561295957E+04 0.  0.
        5    1    3    3  502    0  0.15660112174E+04  0.78234055481E+03 -0.13511783302E+04  0.22113689983E+04  0.46999998093E+01 0.  1.
       -5    1    3    3    0  502 -0.15660112174E+04 -0.78234055481E+03 -0.20630823367E+03  0.17626778078E+04  0.46999998093E+01 0. -1.
</event>
<event>
 5   0  0.7675750E-08  0.3801703E+04  0.7818609E-02  0.8045789E-01
        1   -1    0    0  501    0  0.00000000000E+00  0.00000000000E+00  0.17793150305E+04  0.17793150305E+04  0.50400001928E-02 0. -1.
       -1   -1    0    0    0  501  0.00000000000E+00  0.00000000000E+00 -0.20306900255E+04  0.20306900255E+04  0.50400001928E-02 0.  1.
    10030    2    1    2    0    0  0.00000000000E+00  0.00000000000E+00 -0.25137499503E+03  0.38100050559E+04  0.38017034522E+04 0.  0.
        4    1    3    3  502    0 -0.36758097669E+03  0.18450678536E+04 -0.39802436009E+03  0.19229706609E+04  0.12699999809E+01 0. -1.
       -4    1    3    3    0  502  0.36758097669E+03 -0.18450678536E+04  0.14664936506E+03  0.18870343950E+04  0.12699999809E+01 0.  1.
</event>
<event>
 5   0  0.2473224E-07  0.3869319E+04  0.7818609E-02  0.8031441E-01
       -2   -1    0    0    0  501  0.00000000000E+00  0.00000000000E+00  0.19610562401E+04  0.19610562401E+04  0.25500000920E-02 0.  1.
        2   -1    0    0  501    0  0.00000000000E+00  0.00000000000E+00 -0.19086181184E+04  0.19086181184E+04  0.25500000920E-02 0. -1.
    10030    2    1    2    0    0  0.00000000000E+00  0.00000000000E+00  0.52438121676E+02  0.38696743585E+04  0.38693190466E+04 0.  0.
        2    1    3    3  502    0 -0.37029469140E+03  0.76296004228E+01 -0.18728315826E+04  0.19091030633E+04  0.25500000920E-02 0. -1.
       -2    1    3    3    0  502  0.37029469140E+03 -0.76296004228E+01  0.19252697043E+04  0.19605712952E+04  0.25500000920E-02 0.  1.
</event>
<event>
 5   0  0.7675750E-08  0.3793004E+04  0.7818609E-02  0.8047658E-01
       -1   -1    0    0    0  501  0.00000000000E+00  0.00000000000E+00  0.19019586870E+04  0.19019586870E+04  0.50400001928E-02 0.  1.
        1   -1    0    0  501    0  0.00000000000E+00  0.00000000000E+00 -0.18910614160E+04  0.18910614160E+04  0.50400001928E-02 0. -1.
    10030    2    1    2    0    0  0.00000000000E+00  0.00000000000E+00  0.10897271018E+02  0.37930201029E+04  0.37930044491E+04 0.  0.
        1    1    3    3  502    0  0.50017776687E+03  0.84143227534E+03  0.16298120166E+04  0.19011768150E+04  0.50400001928E-02 0.  1.
       -1    1    3    3    0  502 -0.50017776687E+03 -0.84143227534E+03 -0.16189147456E+04  0.18918432879E+04  0.50400001928E-02 0. -1.
</event>
<event>
 5   0  0.2395572E-07  0.3673438E+04  0.7818609E-02  0.8073874E-01
       -2   -1    0    0    0  501  0.00000000000E+00  0.00000000000E+00  0.25020212773E+04  0.25020212773E+04  0.25500000920E-02 0.  1.
        2   -1    0    0  501    0  0.00000000000E+00  0.00000000000E+00 -0.13483243667E+04  0.13483243667E+04  0.25500000920E-02 0. -1.
    10030    2    1    2    0    0  0.00000000000E+00  0.00000000000E+00  0.11536969106E+04  0.38503456439E+04  0.36734377654E+04 0.  0.
        3    1    3    3  502    0 -0.13976323495E+04  0.96971594479E+03 -0.14919422625E+03  0.17076252883E+04  0.10100000352E+00 0. -1.
       -3    1    3    3    0  502  0.13976323495E+04 -0.96971594479E+03  0.13028911368E+04  0.21427203556E+04  0.10100000352E+00 0.  1.
</event>
<event>
 5   0  0.2486268E-07  0.3915303E+04  0.7818609E-02  0.8021854E-01
       -2   -1    0    0    0  501  0.00000000000E+00  0.00000000000E+00  0.13644630590E+04  0.13644630590E+04  0.25500000920E-02 0.  1.
        2   -1    0    0  501    0  0.00000000000E+00  0.00000000000E+00 -0.28087231882E+04  0.28087231882E+04  0.25500000920E-02 0. -1.
    10030    2    1    2    0    0  0.00000000000E+00  0.00000000000E+00 -0.14442601292E+04  0.41731862472E+04  0.39153028149E+04 0.  0.
        5    1    3    3  502    0 -0.67672809362E+03 -0.25091751516E+03  0.12174688551E+04  0.14153349481E+04  0.46999998093E+01 0.  1.
       -5    1    3    3    0  502  0.67672809362E+03  0.25091751516E+03 -0.26617289843E+04  0.27578512991E+04  0.46999998093E+01 0. -1.
</event>
<event>
 5   0  0.7675750E-08  0.3451626E+04  0.7818609E-02  0.8125351E-01
        1   -1    0    0  501    0  0.00000000000E+00  0.00000000000E+00  0.22333177244E+04  0.22333177244E+04  0.50400001928E-02 0.  1.
       -1   -1    0    0    0  501  0.00000000000E+00  0.00000000000E+00 -0.13336351286E+04  0.13336351286E+04  0.50400001928E-02 0. -1.
    10030    2    1    2    0    0  0.00000000000E+00  0.00000000000E+00  0.89968259582E+03  0.35669528530E+04  0.34516262663E+04 0.  0.
        1    1    3    3  502    0 -0.12137425881E+04  0.87513358251E+03  0.13384563262E+04  0.20076093232E+04  0.50400001928E-02 0.  1.
       -1    1    3    3    0  502  0.12137425881E+04 -0.87513358251E+03 -0.43877373038E+03  0.15593435298E+04  0.50400001928E-02 0. -1.
</event>
<event>
 5   0  0.7675750E-08  0.3849385E+04  0.7818609E-02  0.8035639E-01
        1   -1    0    0  501    0  0.00000000000E+00  0.00000000000E+00  0.17191698939E+04  0.17191698939E+04  0.50400001928E-02 0.  1.
       -1   -1    0    0    0  501  0.00000000000E+00  0.00000000000E+00 -0.21547842967E+04  0.21547842967E+04  0.50400001928E-02 0. -1.
    10030    2    1    2    0    0  0.00000000000E+00  0.00000000000E+00 -0.43561440287E+03  0.38739541906E+04  0.38493845174E+04 0.  0.
        4    1    3    3  502    0  0.17799888300E+04  0.18250061551E+03 -0.93139713287E+03  0.20172181195E+04  0.12699999809E+01 0. -1.
       -4    1    3    3    0  502 -0.17799888300E+04 -0.18250061551E+03  0.49578273000E+03  0.18567360711E+04  0.12699999809E+01 0.  1.
</event>
<event>
 5   0  0.7675750E-08  0.3432538E+04  0.7818609E-02  0.8129966E-01
       -1   -1    0    0    0  501  0.00000000000E+00  0.00000000000E+00  0.27546817484E+04  0.27546817484E+04  0.50400001928E-02 0.  1.
        1   -1    0    0  501    0  0.00000000000E+00  0.00000000000E+00 -0.10692991549E+04  0.10692991549E+04  0.50400001928E-02 0. -1.
    10030    2    1    2    0    0  0.00000000000E+00  0.00000000000E+00  0.16853825936E+04  0.38239809033E+04  0.34325377583E+04 0.  0.
        5    1    3    3  502    0 -0.64308526785E+03  0.31399783186E+03 -0.89513935706E+03  0.11460584011E+04  0.46999998093E+01 0. -1.
       -5    1    3    3    0  502  0.64308526785E+03 -0.31399783186E+03  0.25805219506E+04  0.26779225022E+04  0.46999998093E+01 0.  1.
</event>
<event>
 5   0  0.2486268E-07  0.3941228E+04  0.7818609E-02  0.8016509E-01
        2   -1    0    0  501    0  0.00000000000E+00  0.00000000000E+00  0.16229576095E+04  0.16229576095E+04  0.25500000920E-02 0.  1.
       -2   -1    0    0    0  501  0.00000000000E+00  0.00000000000E+00 -0.23927426532E+04  0.23927426532E+04  0.25500000920E-02 0. -1.
    10030    2    1    2    0    0  0.00000000000E+00  0.00000000000E+00 -0.76978504369E+03  0.40157002626E+04  0.39412281824E+04 0.  0.
        5    1    3    3  502    0  0.47527038465E+03 -0.78686487204E+03  0.13911041377E+04  0.16674024941E+04  0.46999998093E+01 0.  1.
       -5    1    3    3    0  502 -0.47527038465E+03  0.78686487204E+03 -0.21608891814E+04  0.23482977685E+04  0.46999998093E+01 0. -1.
</event>
<event>
 5   0  0.2486268E-07  0.3873502E+04  0.7818609E-02  0.8030563E-01
        2   -1    0    0  501    0  0.00000000000E+00  0.00000000000E+00  0.24433955095E+04  0.24433955095E+04  0.25500000920E-02 0. -1.
       -2   -1    0    0    0  501  0.00000000000E+00  0.00000000000E+00 -0.15351605350E+04  0.15351605350E+04  0.25500000920E-02 0.  1.
    10030    2    1    2    0    0  0.00000000000E+00  0.00000000000E+00  0.90823497448E+03  0.39785560445E+04  0.38735019596E+04 0.  0.
        5    1    3    3  502    0 -0.48102101587E+03 -0.61681451276E+03 -0.13656969468E+04  0.15738461174E+04  0.46999998093E+01 0.  1.
       -5    1    3    3    0  502  0.48102101587E+03  0.61681451276E+03  0.22739319213E+04  0.24047099271E+04  0.46999998093E+01 0. -1.
</event>
<event>
 5   0  0.2395572E-07  0.3856070E+04  0.7818609E-02  0.8034228E-01
        2   -1    0    0  501    0  0.00000000000E+00  0.00000000000E+00  0.28995860558E+04  0.28995860558E+04  0.25500000920E-02 0.  1.
       -2   -1    0    0    0  501  0.00000000000E+00  0.00000000000E+00 -0.12820173949E+04  0.12820173949E+04  0.25500000920E-02 0. -1.
    10030    2    1    2    0    0  0.00000000000E+00  0.00000000000E+00  0.16175686609E+04  0.41816034507E+04  0.38560704151E+04 0.  0.
        3    1    3    3  502    0  0.16524238081E+04  0.88181303583E+03  0.13048059534E+04  0.22826776509E+04  0.10100000352E+00 0.  1.
       -3    1    3    3    0  502 -0.16524238081E+04 -0.88181303583E+03  0.31276270752E+03  0.18989257998E+04  0.10100000352E+00 0. -1.
</event>
<event>
 5   0  0.2486268E-07  0.3908720E+04  0.7818609E-02  0.8023218E-01
       -2   -1    0    0    0  501  0.00000000000E+00  0.00000000000E+00  0.15697046672E+04  0.15697046672E+04  0.25500000920E-02 0.  1.
        2   -1    0    0  501    0  0.00000000000E+00  0.00000000000E+00 -0.24332755076E+04  0.24332755076E+04  0.25500000920E-02 0. -1.
    10030    2    1    2    0    0  0.00000000000E+00  0.00000000000E+00 -0.86357084040E+03  0.40029801749E+04  0.39087204663E+04 0.  0.
        5    1    3    3  502    0  0.47114629145E+02  0.18837708480E+04  0.99067390756E+02  0.18869681593E+04  0.46999998093E+01 0.  1.
       -5    1    3    3    0  502 -0.47114629145E+02 -0.18837708480E+04 -0.96263823116E+03  0.21160120156E+04  0.46999998093E+01 0. -1.
</event>
<event>
 5   0  0.7675750E-08  0.3715865E+04  0.7818609E-02  0.8064455E-01
        1   -1    0    0  501    0  0.00000000000E+00  0.00000000000E+00  0.22123727006E+04  0.22123727006E+04  0.50400001928E-02 0. -1.
       -1   -1    0    0    0  501  0.00000000000E+00  0.00000000000E+00 -0.15602764353E+04  0.15602764353E+04  0.50400001928E-02 0.  1.
    10030    2    1    2    0    0  0.00000000000E+00  0.00000000000E+00  0.65209626527E+03  0.37726491359E+04  0.37158649011E+04 0.  0.
        2    1    3    3  502    0  0.13401022546E+04  0.10651565929E+03  0.16281020529E+04  0.21113824697E+04  0.25500000920E-02 0. -1.
       -2    1    3    3    0  502 -0.13401022546E+04 -0.10651565929E+03 -0.97600578767E+03  0.16612666662E+04  0.25500000920E-02 0.  1.
</event>
<event>
 5   0  0.2395572E-07  0.3931906E+04  0.7818609E-02  0.8018426E-01
        2   -1    0    0  501    0  0.00000000000E+00  0.00000000000E+00  0.20903778650E+04  0.20903778650E+04  0.25500000920E-02 0. -1.
       -2   -1    0    0    0  501  0.00000000000E+00  0.00000000000E+00 -0.18489339865E+04  0.18489339865E+04  0.25500000920E-02 0.  1.
    10030    2    1    2    0    0  0.00000000000E+00  0.00000000000E+00  0.24144387845E+03  0.39393118515E+04  0.39319057360E+04 0.  0.
        3    1    3    3  502    0  0.19259592460E+04 -0.31597891924E+03 -0.11596227088E+03  0.19551493429E+04  0.10100000352E+00 0.  1.
       -3    1    3    3    0  502 -0.19259592460E+04  0.31597891924E+03  0.35740614933E+03  0.19841625086E+04  0.10100000352E+00 0. -1.
</event>
<event>
 5   0  0.2384787E-07  0.3706405E+04  0.7818609E-02  0.8066544E-01
       -2   -1    0    0    0  501  0.00000000000E+00  0.00000000000E+00  0.19426725458E+04  0.19426725458E+04  0.25500000920E-02 0.  1.
        2   -1    0    0  501    0  0.00000000000E+00  0.00000000000E+00 -0.17678527759E+04  0.17678527759E+04  0.25500000920E-02 0. -1.
    10030    2    1    2    0    0  0.00000000000E+00  0.00000000000E+00  0.17481976993E+03  0.37105253217E+04  0.37064047554E+04 0.  0.
        4    1    3    3  502    0 -0.22203013793E+03 -0.38593971984E+03  0.18883291033E+04  0.19401121784E+04  0.12699999809E+01 0.  1.
       -4    1    3    3    0  502  0.22203013793E+03  0.38593971984E+03 -0.17135093334E+04  0.17704131433E+04  0.12699999809E+01 0. -1.
</event>
<event>
 5   0  0.2395572E-07  0.3899604E+04  0.7818609E-02  0.8025112E-01
       -2   -1    0    0    0  501  0.00000000000E+00  0.00000000000E+00  0.14762597404E+04  0.14762597404E+04  0.25500000920E-02 0.  1.
        2   -1    0    0  501    0  0.00000000000E+00  0.00000000000E+00 -0.25752430222E+04  0.25752430223E+04  0.25500000920E-02 0. -1.
    10030    2    1    2    0    0  0.00000000000E+00  0.00000000000E+00 -0.10989832818E+04  0.40515027627E+04  0.38996038750E+04 0.  0.
        3    1    3    3  502    0  0.13027364581E+04 -0.77712956769E+03  0.72324621371E+03  0.16805171050E+04  0.10100000352E+00 0.  1.
       -3    1    3    3    0  502 -0.13027364581E+04  0.77712956769E+03 -0.18222294955E+04  0.23709856577E+04  0.10100000352E+00 0. -1.
</event>
<event>
 5   0  0.7675750E-08  0.3627574E+04  0.7818609E-02  0.8084205E-01
       -1   -1    0    0    0  501  0.00000000000E+00  0.00000000000E+00  0.14437008983E+04  0.14437008983E+04  0.50400001928E-02 0.  1.
        1   -1    0    0  501    0  0.00000000000E+00  0.00000000000E+00 -0.22787434196E+04  0.22787434196E+04  0.50400001928E-02 0. -1.
    10030    2    1    2    0    0  0.00000000000E+00  0.00000000000E+00 -0.83504252132E+03  0.37224443179E+04  0.36275743532E+04 0.  0.
        2    1    3    3  502    0 -0.17212699460E+04 -0.29913650318E+03  0.82638378874E+02  0.17490231492E+04  0.25500000920E-02 0. -1.
       -2    1    3    3    0  502  0.17212699460E+04  0.29913650318E+03 -0.91768090019E+03  0.19734211688E+04  0.25500000920E-02 0.  1.
</event>
<event>
 5   0  0.2473224E-07  0.3890846E+04  0.7818609E-02  0.8026936E-01
        2   -1    0    0  501    0  0.00000000000E+00  0.00000000000E+00  0.12213775667E+04  0.12213775667E+04  0.25500000920E-02 0.  1.
       -2   -1    0    0    0  501  0.00000000000E+00  0.00000000000E+00 -0.30986897198E+04  0.30986897198E+04  0.25500000920E-02 0. -1.
    10030    2    1    2    0    0  0.00000000000E+00  0.00000000000E+00 -0.18773121531E+04  0.43200672864E+04  0.38908457229E+04 0.  0.
        2    1    3    3  502    0 -0.15464763804E+04  0.46932451876E+03  0.26377815725E+03  0.16375083558E+04  0.25500000920E-02 0.  1.
       -2    1    3    3    0  502  0.15464763804E+04 -0.46932451876E+03 -0.21410903104E+04  0.26825589306E+04  0.25500000920E-02 0. -1.
</event>
<event>
 5   0  0.7675750E-08  0.3888382E+04  0.7818609E-02  0.8027450E-01
        1   -1    0    0  501    0  0.00000000000E+00  0.00000000000E+00  0.14123551772E+04  0.14123551772E+04  0.50400001928E-02 0. -1.
       -1   -1    0    0    0  501  0.00000000000E+00  0.00000000000E+00 -0.26762940105E+04  0.26762940105E+04  0.50400001928E-02 0.  1.
    10030    2    1    2    0    0  0.00000000000E+00  0.00000000000E+00 -0.12639388333E+04  0.40886491878E+04  0.38883815150E+04 0.  0.
        4    1    3    3  502    0  0.89121030197E+03 -0.14104523776E+04 -0.16814971538E+04  0.23687688792E+04  0.12699999809E+01 0.  1.
       -4    1    3    3    0  502 -0.89121030197E+03  0.14104523776E+04  0.41755832055E+03  0.17198803086E+04  0.12699999809E+01 0. -1.
</event>
<event>
 5   0  0.7675750E-08  0.3909190E+04  0.7818609E-02  0.8023121E-01
        1   -1    0    0  501    0  0.00000000000E+00  0.00000000000E+00  0.16754494773E+04  0.16754494773E+04  0.50400001928E-02 0.  1.
       -1   -1    0    0    0  501  0.00000000000E+00  0.00000000000E+00 -0.22802484255E+04  0.22802484255E+04  0.50400001928E-02 0. -1.
    10030    2    1    2    0    0  0.00000000000E+00  0.00000000000E+00 -0.60479894827E+03  0.39556979028E+04  0.39091897025E+04 0.  0.
        4    1    3    3  502    0  0.15864707364E+04  0.80178081031E+03 -0.11249029097E+04  0.21036040583E+04  0.12699999809E+01 0. -1.
       -4    1    3    3    0  502 -0.15864707364E+04 -0.80178081031E+03  0.52010396144E+03  0.18520938445E+04  0.12699999809E+01 0.  1.
</event>
<event>
 5   0  0.2384787E-07  0.3775312E+04  0.7818609E-02  0.8051474E-01
        2   -1    0    0  501    0  0.00000000000E+00  0.00000000000E+00  0.19274872140E+04  0.19274872140E+04  0.25500000920E-02 0.  1.
       -2   -1    0    0    0  501  0.00000000000E+00  0.00000000000E+00 -0.18486482606E+04  0.18486482606E+04  0.25500000920E-02 0. -1.
    10030    2    1    2    0    0  0.00000000000E+00  0.00000000000E+00  0.78838953344E+02  0.37761354746E+04  0.37753123767E+04 0.  0.
        4    1    3    3  502    0 -0.11701474798E+03 -0.13768252123E+04 -0.12469029584E+04  0.18612116260E+04  0.12699999809E+01 0. -1.
       -4    1    3    3    0  502  0.11701474798E+03  0.13768252123E+04  0.13257419117E+04  0.19149238486E+04  0.12699999809E+01 0.  1.
</event>
<event>
 5   0  0.7675750E-08  0.3855463E+04  0.7818609E-02  0.8034356E-01
        1   -1    0    0  501    0  0.00000000000E+00  0.00000000000E+00  0.29853514442E+04  0.29853514442E+04  0.50400001928E-02 0. -1.
       -1   -1    0    0    0  501  0.00000000000E+00  0.00000000000E+00 -0.12447942298E+04  0.12447942298E+04  0.50400001928E-02 0.  1.
    10030    2    1    2    0    0  0.00000000000E+00  0.00000000000E+00  0.17405572144E+04  0.42301456740E+04  0.38554627487E+04 0.  0.
        5    1    3    3  502    0  0.63684071818E+03 -0.42998854562E+03  0.28100491873E+04  0.29132206876E+04  0.46999998093E+01 0. -1.
       -5    1    3    3    0  502 -0.63684071818E+03  0.42998854562E+03 -0.10694919729E+04  0.13169249864E+04  0.46999998093E+01 0.  1.
</event>
<event>
 5   0  0.7675750E-08  0.3830995E+04  0.7818609E-02  0.8039536E-01
       -1   -1    0    0    0  501  0.00000000000E+00  0.00000000000E+00  0.25284351053E+04  0.25284351053E+04  0.50400001928E-02 0. -1.
        1   -1    0    0  501    0  0.00000000000E+00  0.00000000000E+00 -0.14511465511E+04  0.14511465511E+04  0.50400001928E-02 0.  1.
    10030    2    1    2    0    0  0.00000000000E+00  0.00000000000E+00  0.10772885543E+04  0.39795816564E+04  0.38309945877E+04 0.  0.
        2    1    3    3  502    0 -0.14416788149E+04 -0.52513004370E+03  0.17298239778E+04  0.23122479024E+04  0.25500000920E-02 0. -1.
       -2    1    3    3    0  502  0.14416788149E+04  0.52513004370E+03 -0.65253542353E+03  0.16673337540E+04  0.25500000920E-02 0.  1.
</event>
<event>
 5   0  0.2446281E-07  0.3893195E+04  0.7818609E-02  0.8026446E-01
        2   -1    0    0  501    0  0.00000000000E+00  0.00000000000E+00  0.16723605981E+04  0.16723605981E+04  0.25500000920E-02 0. -1.
       -2   -1    0    0    0  501  0.00000000000E+00  0.00000000000E+00 -0.22658037510E+04  0.22658037510E+04  0.25500000920E-02 0.  1.
    10030    2    1    2    0    0  0.00000000000E+00  0.00000000000E+00 -0.59344315289E+03  0.39381643492E+04  0.38931945322E+04 0.  0.
        1    1    3    3  502    0 -0.16887771965E+04 -0.49552795854E+03 -0.11380282287E+04  0.20958589233E+04  0.50400001928E-02 0.  1.
       -1    1    3    3    0  502  0.16887771965E+04  0.49552795854E+03  0.54458507582E+03  0.18423054258E+04  0.50400001928E-02 0. -1.
</event>
<event>
 5   0  0.2395572E-07  0.3707813E+04  0.7818609E-02  0.8066233E-01
        2   -1    0    0  501    0  0.00000000000E+00  0.00000000000E+00  0.21499143924E+04  0.21499143924E+04  0.25500000920E-02 0. -1.
       -2   -1    0    0    0  501  0.00000000000E+00  0.00000000000E+00 -0.15986539079E+04  0.15986539079E+04  0.25500000920E-02 0.  1.
    10030    2    1    2    0    0  0.00000000000E+00  0.00000000000E+00  0.55126048454E+03  0.37485683003E+04  0.37078128567E+04 0.  0.
        3    1    3    3  502    0  0.13482555527E+04  0.44188307432E+02 -0.10100489925E+04  0.16852135234E+04  0.10100000352E+00 0.  1.
       -3    1    3    3    0  502 -0.13482555527E+04 -0.44188307432E+02  0.15613094770E+04  0.20633547769E+04  0.10100000352E+00 0. -1.
</event>
<event>
 5   0  0.2384787E-07  0.3896387E+04  0.7818609E-02  0.8025781E-01
        2   -1    0    0  501    0  0.00000000000E+00  0.00000000000E+00  0.18178485405E+04  0.18178485405E+04  0.25500000920E-02 0. -1.
       -2   -1    0    0    0  501  0.00000000000E+00  0.00000000000E+00 -0.20878840733E+04  0.20878840733E+04  0.25500000920E-02 0.  1.
    10030    2    1    2    0    0  0.00000000000E+00  0.00000000000E+00 -0.27003553279E+03  0.39057326138E+04  0.38963865390E+04 0.  0.
        4    1    3    3  502    0 -0.97869892638E+03  0.16504444102E+04 -0.47292732220E+03  0.19762287835E+04  0.12699999809E+01 0. -1.
       -4    1    3    3    0  502  0.97869892638E+03 -0.16504444102E+04  0.20289178941E+03  0.19295038302E+04  0.12699999809E+01 0.  1.
</event>
<event>
 5   0  0.7675750E-08  0.3920974E+04  0.7818609E-02  0.8020681E-01
       -1   -1    0    0    0  501  0.00000000000E+00  0.00000000000E+00  0.23266025436E+04  0.23266025436E+04  0.50400001928E-02 0. -1.
        1   -1    0    0  501    0  0.00000000000E+00  0.00000000000E+00 -0.16519840135E+04  0.16519840135E+04  0.50400001928E-02 0.  1.
    10030    2    1    2    0    0  0.00000000000E+00  0.00000000000E+00  0.67461853011E+03  0.39785865571E+04  0.39209744747E+04 0.  0.
        1    1    3    3  502    0 -0.57224945928E+03 -0.10043650865E+04  0.19440182163E+04  0.22617306418E+04  0.50400001928E-02 0. -1.
       -1    1    3    3    0  502  0.57224945928E+03  0.10043650865E+04 -0.12693996862E+04  0.17168559153E+04  0.50400001928E-02 0.  1.
</event>
<event>
 5   0  0.2384787E-07  0.3916347E+04  0.7818609E-02  0.8021638E-01
       -2   -1    0    0    0  501  0.00000000000E+00  0.00000000000E+00  0.18496128773E+04  0.18496128773E+04  0.25500000920E-02 0.  1.
        2   -1    0    0  501    0  0.00000000000E+00  0.00000000000E+00 -0.20731062224E+04  0.20731062224E+04  0.25500000920E-02 0. -1.
    10030    2    1    2    0    0  0.00000000000E+00  0.00000000000E+00 -0.22349334510E+03  0.39227190996E+04  0.39163472598E+04 0.  0.
        4    1    3    3  502    0 -0.46573118196E+03  0.10126250053E+04  0.15008813023E+04  0.18694815409E+04  0.12699999809E+01 0.  1.
       -4    1    3    3    0  502  0.46573118196E+03 -0.10126250053E+04 -0.17243746474E+04  0.20532375588E+04  0.12699999809E+01 0. -1.
</event>
<event>
 5   0  0.7731706E-08  0.3910640E+04  0.7818609E-02  0.8022820E-01
        1   -1    0    0  501    0  0.00000000000E+00  0.00000000000E+00  0.20331399806E+04  0.20331399806E+04  0.50400001928E-02 0. -1.
       -1   -1    0    0    0  501  0.00000000000E+00  0.00000000000E+00 -0.18804782690E+04  0.18804782690E+04  0.50400001928E-02 0.  1.
    10030    2    1    2    0    0  0.00000000000E+00  0.00000000000E+00  0.15266171164E+03  0.39136182497E+04  0.39106396159E+04 0.  0.
        3    1    3    3  502    0  0.40695703708E+03 -0.13477895974E+04  0.14342448646E+04  0.20097783885E+04  0.10100000352E+00 0. -1.
       -3    1    3    3    0  502 -0.40695703708E+03  0.13477895974E+04 -0.12815831530E+04  0.19038398612E+04  0.10100000352E+00 0.  1.
</event>
<event>
 5   0  0.2395572E-07  0.3995034E+04  0.7818609E-02  0.8005549E-01
        2   -1    0    0  501    0  0.00000000000E+00  0.00000000000E+00  0.26037764587E+04  0.26037764587E+04  0.25500000920E-02 0.  1.
       -2   -1    0    0    0  501  0.00000000000E+00  0.00000000000E+00 -0.15324184670E+04  0.15324184670E+04  0.25500000920E-02 0. -1.
    10030    2    1    2    0    0  0.00000000000E+00  0.00000000000E+00  0.10713579917E+04  0.41361949258E+04  0.39950344827E+04 0.  0.
        3    1    3    3  502    0  0.15459841358E+04 -0.85835861015E+03 -0.42625083402E+03  0.18189382165E+04  0.10100000352E+00 0.  1.
       -3    1    3    3    0  502 -0.15459841358E+04  0.85835861015E+03  0.14976088257E+04  0.23172567093E+04  0.10100000352E+00 0. -1.
</event>
<event>
 5   0  0.2395572E-07  0.3622597E+04  0.7818609E-02  0.8085335E-01
       -2   -1    0    0    0  501  0.00000000000E+00  0.00000000000E+00  0.24142260445E+04  0.24142260445E+04  0.25500000920E-02 0.  1.
        2   -1    0    0  501    0  0.00000000000E+00  0.00000000000E+00 -0.13589456404E+04  0.13589456404E+04  0.25500000920E-02 0. -1.
    10030    2    1    2    0    0  0.00000000000E+00  0.00000000000E+00  0.10552804041E+04  0.37731716850E+04  0.36225968355E+04 0.  0.
        3    1    3    3  502    0 -0.12752074266E+04  0.12651499968E+04  0.76977550133E+03  0.19543062268E+04  0.10100000352E+00 0.  1.
       -3    1    3    3    0  502  0.12752074266E+04 -0.12651499968E+04  0.28550490278E+03  0.18188654582E+04  0.10100000352E+00 0. -1.
</event>
<event>
 5   0  0.7675750E-08  0.3896986E+04  0.7818609E-02  0.8025656E-01
       -1   -1    0    0    0  501  0.00000000000E+00  0.00000000000E+00  0.25697251034E+04  0.25697251034E+04  0.50400001928E-02 0.  1.
        1   -1    0    0  501    0  0.00000000000E+00  0.00000000000E+00 -0.14774441820E+04  0.14774441820E+04  0.50400001928E-02 0. -1.
    10030    2    1    2    0    0  0.00000000000E+00  0.00000000000E+00  0.10922809214E+04  0.40471692854E+04  0.38969862219E+04 0.  0.
        1    1    3    3  502    0  0.22351200160E+02  0.36765924775E+03 -0.14409587346E+04  0.14872911529E+04  0.50400001928E-02 0. -1.
       -1    1    3    3    0  502 -0.22351200160E+02 -0.36765924775E+03  0.25332396560E+04  0.25598781325E+04  0.50400001928E-02 0.  1.
</event>
<event>
 5   0  0.7675750E-08  0.4025075E+04  0.7818609E-02  0.7999507E-01
        1   -1    0    0  501    0  0.00000000000E+00  0.00000000000E+00  0.21364112330E+04  0.21364112330E+04  0.50400001928E-02 0.  1.
       -1   -1    0    0    0  501  0.00000000000E+00  0.00000000000E+00 -0.18958464499E+04  0.18958464499E+04  0.50400001928E-02 0. -1.
    10030    2    1    2    0    0  0.00000000000E+00  0.00000000000E+00  0.24056478314E+03  0.40322576829E+04  0.40250752299E+04 0.  0.
        1    1    3    3  502    0  0.17926685594E+02  0.71895001169E+03  0.20032899657E+04  0.21284692087E+04  0.50400001928E-02 0.  1.
       -1    1    3    3    0  502 -0.17926685594E+02 -0.71895001169E+03 -0.17627251826E+04  0.19037884743E+04  0.50400001928E-02 0. -1.
</event>
<event>
 5   0  0.2446281E-07  0.3889220E+04  0.7818609E-02  0.8027275E-01
        2   -1    0    0  501    0  0.00000000000E+00  0.00000000000E+00  0.21627245581E+04  0.21627245581E+04  0.25500000920E-02 0. -1.
       -2   -1    0    0    0  501  0.00000000000E+00  0.00000000000E+00 -0.17484925474E+04  0.17484925474E+04  0.25500000920E-02 0.  1.
    10030    2    1    2    0    0  0.00000000000E+00  0.00000000000E+00  0.41423201071E+03  0.39112171054E+04  0.38892198558E+04 0.  0.
        1    1    3    3  502    0  0.20699607935E+03  0.12917667881E+04 -0.12397705893E+04  0.18023706405E+04  0.50400001928E-02 0.  1.
       -1    1    3    3    0  502 -0.20699607935E+03 -0.12917667881E+04  0.16540026000E+04  0.21088464649E+04  0.50400001928E-02 0. -1.
</event>
<event>
 5   0  0.7675750E-08  0.3918011E+04  0.7818609E-02  0.8021294E-01
        1   -1    0    0  501    0  0.00000000000E+00  0.00000000000E+00  0.13960500890E+04  0.13960500890E+04  0.50400001928E-02 0. -1.
       -1   -1    0    0    0  501  0.00000000000E+00  0.00000000000E+00 -0.27489720875E+04  0.27489720875E+04  0.50400001928E-02 0.  1.
    10030    2    1    2    0    0  0.00000000000E+00  0.00000000000E+00 -0.13529219985E+04  0.41450221765E+04  0.39180110911E+04 0.  0.
        4    1    3    3  502    0  0.50080380217E+03 -0.18306219295E+04 -0.11901016999E+04  0.22401617723E+04  0.12699999809E+01 0.  1.
       -4    1    3    3    0  502 -0.50080380217E+03  0.18306219295E+04 -0.16282029866E+03  0.19048604042E+04  0.12699999809E+01 0. -1.
</event>
<event>
 5   0  0.2486268E-07  0.3819433E+04  0.7818609E-02  0.8041997E-01
       -2   -1    0    0    0  501  0.00000000000E+00  0.00000000000E+00  0.14102684644E+04  0.14102684644E+04  0.25500000920E-02 0.  1.
        2   -1    0    0  501    0  0.00000000000E+00  0.00000000000E+00 -0.25860444906E+04  0.25860444906E+04  0.25500000920E-02 0. -1.
    10030    2    1    2    0    0  0.00000000000E+00  0.00000000000E+00 -0.11757760262E+04  0.39963129550E+04  0.38194329384E+04 0.  0.
        5    1    3    3  502    0 -0.47349497602E+03  0.80836887580E+03  0.11533114289E+04  0.14858691307E+04  0.46999998093E+01 0.  1.
       -5    1    3    3    0  502  0.47349497602E+03 -0.80836887580E+03 -0.23290874550E+04  0.25104438243E+04  0.46999998093E+01 0. -1.
</event>
<event>
 5   0  0.7675750E-08  0.3862907E+04  0.7818609E-02  0.8032788E-01
       -1   -1    0    0    0  501  0.00000000000E+00  0.00000000000E+00  0.20309325336E+04  0.20309325336E+04  0.50400001928E-02 0. -1.
        1   -1    0    0  501    0  0.00000000000E+00  0.00000000000E+00 -0.18368468668E+04  0.18368468668E+04  0.50400001928E-02 0.  1.
    10030    2    1    2    0    0  0.00000000000E+00  0.00000000000E+00  0.19408566681E+03  0.38677794004E+04  0.38629067093E+04 0.  0.
        2    1    3    3  502    0 -0.12771588429E+04  0.12964998718E+04 -0.55066219872E+03  0.19013877786E+04  0.25500000920E-02 0. -1.
       -2    1    3    3    0  502  0.12771588429E+04 -0.12964998718E+04  0.74474786553E+03  0.19663916219E+04  0.25500000920E-02 0.  1.
</event>
<event>
 5   0  0.7675750E-08  0.3937386E+04  0.7818609E-02  0.8017298E-01
        1   -1    0    0  501    0  0.00000000000E+00  0.00000000000E+00  0.30201518257E+04  0.30201518257E+04  0.50400001928E-02 0. -1.
       -1   -1    0    0    0  501  0.00000000000E+00  0.00000000000E+00 -0.12832970743E+04  0.12832970744E+04  0.50400001928E-02 0.  1.
    10030    2    1    2    0    0  0.00000000000E+00  0.00000000000E+00  0.17368547514E+04  0.43034489001E+04  0.39373859359E+04 0.  0.
        5    1    3    3  502    0  0.42762881482E+02 -0.39396283108E+03 -0.12392489509E+04  0.13010747207E+04  0.46999998093E+01 0.  1.
       -5    1    3    3    0  502 -0.42762881482E+02  0.39396283108E+03  0.29761037023E+04  0.30023741794E+04  0.46999998093E+01 0. -1.
</event>
<event>
 5   0  0.7731706E-08  0.3921325E+04  0.7818609E-02  0.8020609E-01
        1   -1    0    0  501    0  0.00000000000E+00  0.00000000000E+00  0.26699706674E+04  0.26699706674E+04  0.50400001928E-02 0.  1.
       -1   -1    0    0    0  501  0.00000000000E+00  0.00000000000E+00 -0.14397899046E+04  0.14397899046E+04  0.50400001928E-02 0. -1.
    10030    2    1    2    0    0  0.00000000000E+00  0.00000000000E+00  0.12301807628E+04  0.41097605719E+04  0.39213246804E+04 0.  0.
        3    1    3    3  502    0 -0.63727125629E+03  0.14113670048E+04  0.18754273766E+04  0.24321388389E+04  0.10100000352E+00 0.  1.
       -3    1    3    3    0  502  0.63727125629E+03 -0.14113670048E+04 -0.64524661384E+03  0.16776217331E+04  0.10100000352E+00 0. -1.
</event>
<event>
 5   0  0.2486268E-07  0.3903805E+04  0.7818609E-02  0.8024238E-01
       -2   -1    0    0    0  501  0.00000000000E+00  0.00000000000E+00  0.17457662500E+04  0.17457662500E+04  0.25500000920E-02 0. -1.
        2   -1    0    0  501    0  0.00000000000E+00  0.00000000000E+00 -0.21823785031E+04  0.21823785031E+04  0.25500000920E-02 0.  1.
    10030    2    1    2    0    0  0.00000000000E+00  0.00000000000E+00 -0.43661225304E+03  0.39281447531E+04  0.39038046751E+04 0.  0.
        5    1    3    3  502    0 -0.99364964931E+03 -0.16542628379E+04 -0.51335007766E+03  0.19968664339E+04  0.46999998093E+01 0.  1.
       -5    1    3    3    0  502  0.99364964931E+03  0.16542628379E+04  0.76737824626E+02  0.19312783192E+04  0.46999998093E+01 0. -1.
</event>
<event>
 5   0  0.7675750E-08  0.3842960E+04  0.7818609E-02  0.8036998E-01
        1   -1    0    0  501    0  0.00000000000E+00  0.00000000000E+00  0.18650324510E+04  0.18650324510E+04  0.50400001928E-02 0.  1.
       -1   -1    0    0    0  501  0.00000000000E+00  0.00000000000E+00 -0.19796356337E+04  0.19796356337E+04  0.50400001928E-02 0. -1.
    10030    2    1    2    0    0  0.00000000000E+00  0.00000000000E+00 -0.11460318262E+03  0.38446680847E+04  0.38429596397E+04 0.  0.
        2    1    3    3  502    0 -0.47310449207E+03  0.14120859952E+04  0.11574333956E+04  0.18861248060E+04  0.25500000920E-02 0.  1.
       -2    1    3    3    0  502  0.47310449207E+03 -0.14120859952E+04 -0.12720365782E+04  0.19585432788E+04  0.25500000920E-02 0. -1.
</event>
<event>
 5   0  0.7731706E-08  0.3388673E+04  0.7818609E-02  0.8140692E-01
       -1   -1    0    0    0  501  0.00000000000E+00  0.00000000000E+00  0.11251731700E+04  0.11251731700E+04  0.50400001928E-02 0.  1.
        1   -1    0    0  501    0  0.00000000000E+00  0.00000000000E+00 -0.25514086973E+04  0.25514086973E+04  0.50400001928E-02 0. -1.
    10030    2    1    2    0    0  0.00000000000E+00  0.00000000000E+00 -0.14262355274E+04  0.36765818673E+04  0.33886732577E+04 0.  0.
        3    1    3    3  502    0 -0.14072101846E+04  0.19817929996E+01  0.31073935009E+03  0.14411118572E+04  0.10100000352E+00 0.  1.
       -3    1    3    3    0  502  0.14072101846E+04 -0.19817929996E+01 -0.17369748774E+04  0.22354700101E+04  0.10100000352E+00 0. -1.
</event>
<event>
 5   0  0.2395572E-07  0.3839059E+04  0.7818609E-02  0.8037825E-01
       -2   -1    0    0    0  501  0.00000000000E+00  0.00000000000E+00  0.16424577060E+04  0.16424577060E+04  0.25500000920E-02 0. -1.
        2   -1    0    0  501    0  0.00000000000E+00  0.00000000000E+00 -0.22433411988E+04  0.22433411988E+04  0.25500000920E-02 0.  1.
    10030    2    1    2    0    0  0.00000000000E+00  0.00000000000E+00 -0.60088349280E+03  0.38857989048E+04  0.38390587592E+04 0.  0.
        3    1    3    3  502    0 -0.72904093332E+02  0.16720816932E+04 -0.12517896832E+04  0.20900118700E+04  0.10100000352E+00 0.  1.
       -3    1    3    3    0  502  0.72904093332E+02 -0.16720816932E+04  0.65090619038E+03  0.17957870348E+04  0.10100000352E+00 0. -1.
</event>
<event>
 5   0  0.2486268E-07  0.3949924E+04  0.7818609E-02  0.8014725E-01
        2   -1    0    0  501    0  0.00000000000E+00  0.00000000000E+00  0.14933442071E+04  0.14933442071E+04  0.25500000920E-02 0.  1.
       -2   -1    0    0    0  501  0.00000000000E+00  0.00000000000E+00 -0.26119057913E+04  0.26119057913E+04  0.25500000920E-02 0. -1.
    10030    2    1    2    0    0  0.00000000000E+00  0.00000000000E+00 -0.11185615842E+04  0.41052499984E+04  0.39499237375E+04 0.  0.
        5    1    3    3  502    0  0.99415133706E+03  0.14318294278E+04 -0.15242189237E+04  0.23155426597E+04  0.46999998093E+01 0. -1.
       -5    1    3    3    0  502 -0.99415133706E+03 -0.14318294278E+04  0.40565733946E+03  0.17897073388E+04  0.46999998093E+01 0.  1.
</event>
<event>
 5   0  0.2446281E-07  0.3889135E+04  0.7818609E-02  0.8027293E-01
        2   -1    0    0  501    0  0.00000000000E+00  0.00000000000E+00  0.30601085643E+04  0.30601085643E+04  0.25500000920E-02 0. -1.
       -2   -1    0    0    0  501  0.00000000000E+00  0.00000000000E+00 -0.12356892159E+04  0.12356892159E+04  0.25500000920E-02 0.  1.
    10030    2    1    2    0    0  0.00000000000E+00  0.00000000000E+00  0.18244193484E+04  0.42957977803E+04  0.38891352008E+04 0.  0.
        1    1    3    3  502    0  0.11142715573E+04  0.10053877134E+04  0.22780051443E+04  0.27279503285E+04  0.50400001928E-02 0. -1.
       -1    1    3    3    0  502 -0.11142715573E+04 -0.10053877134E+04 -0.45358579584E+03  0.15678474517E+04  0.50400001928E-02 0.  1.
</event>
<event>
 5   0  0.7675750E-08  0.3787200E+04  0.7818609E-02  0.8048907E-01
       -1   -1    0    0    0  501  0.00000000000E+00  0.00000000000E+00  0.19053108060E+04  0.19053108060E+04  0.50400001928E-02 0.  1.
        1   -1    0    0  501    0  0.00000000000E+00  0.00000000000E+00 -0.18819608272E+04  0.18819608272E+04  0.50400001928E-02 0. -1.
    10030    2    1    2    0    0  0.00000000000E+00  0.00000000000E+00  0.23349978815E+02  0.37872716332E+04  0.37871996518E+04 0.  0.
        4    1    3    3  502    0  0.18017018400E+04  0.19522959834E+03  0.56075242600E+03  0.18970210891E+04  0.12699999809E+01 0.  1.
       -4    1    3    3    0  502 -0.18017018400E+04 -0.19522959834E+03 -0.53740244719E+03  0.18902505441E+04  0.12699999809E+01 0. -1.
</event>
<event>
 5   0  0.7675750E-08  0.3738907E+04  0.7818609E-02  0.8059394E-01
        1   -1    0    0  501    0  0.00000000000E+00  0.00000000000E+00  0.23482929338E+04  0.23482929339E+04  0.50400001928E-02 0. -1.
       -1   -1    0    0    0  501  0.00000000000E+00  0.00000000000E+00 -0.14882540216E+04  0.14882540216E+04  0.50400001928E-02 0.  1.
    10030    2    1    2    0    0  0.00000000000E+00  0.00000000000E+00  0.86003891227E+03  0.38365469554E+04  0.37389070075E+04 0.  0.
        5    1    3    3  502    0 -0.33263616527E+03 -0.18150216448E+04  0.73765524942E+03  0.19872362080E+04  0.46999998093E+01 0.  1.
       -5    1    3    3    0  502  0.33263616527E+03  0.18150216448E+04  0.12238366285E+03  0.18493107474E+04  0.46999998093E+01 0. -1.
</event>
<event>
 5   0  0.7731706E-08  0.3128733E+04  0.7818609E-02  0.8207896E-01
       -1   -1    0    0    0  501  0.00000000000E+00  0.00000000000E+00  0.18846753745E+04  0.18846753745E+04  0.50400001928E-02 0.  1.
        1   -1    0    0  501    0  0.00000000000E+00  0.00000000000E+00 -0.12984953883E+04  0.12984953883E+04  0.50400001928E-02 0. -1.
    10030    2    1    2    0    0  0.00000000000E+00  0.00000000000E+00  0.58617998621E+03  0.31831707628E+04  0.31287328311E+04 0.  0.
        3    1    3    3  502    0 -0.33638177300E+01 -0.15000672067E+04  0.74469307844E+03  0.16747479605E+04  0.10100000352E+00 0.  1.
       -3    1    3    3    0  502  0.33638177300E+01  0.15000672067E+04 -0.15851309224E+03  0.15084228023E+04  0.10100000352E+00 0. -1.
</event>
<event>
 5   0  0.2473224E-07  0.3490981E+04  0.7818609E-02  0.8115931E-01
        2   -1    0    0  501    0  0.00000000000E+00  0.00000000000E+00  0.22079816343E+04  0.22079816343E+04  0.25500000920E-02 0. -1.
       -2   -1    0    0    0  501  0.00000000000E+00  0.00000000000E+00 -0.13798741493E+04  0.13798741493E+04  0.25500000920E-02 0.  1.
    10030    2    1    2    0    0  0.00000000000E+00  0.00000000000E+00  0.82810748501E+03  0.35878557837E+04  0.34909808246E+04 0.  0.
        2    1    3    3  502    0 -0.61639623699E+03  0.72866834448E+03 -0.10879511739E+04  0.14472524431E+04  0.25500000920E-02 0.  1.
       -2    1    3    3    0  502  0.61639623699E+03 -0.72866834448E+03  0.19160586589E+04  0.21406033406E+04  0.25500000920E-02 0. -1.
</event>
<event>
 5   0  0.7731706E-08  0.3873577E+04  0.7818609E-02  0.8030547E-01
        1   -1    0    0  501    0  0.00000000000E+00  0.00000000000E+00  0.30422478735E+04  0.30422478735E+04  0.50400001928E-02 0. -1.
       -1   -1    0    0    0  501  0.00000000000E+00  0.00000000000E+00 -0.12330193403E+04  0.12330193403E+04  0.50400001928E-02 0.  1.
    10030    2    1    2    0    0  0.00000000000E+00  0.00000000000E+00  0.18092285332E+04  0.42752672138E+04  0.38735773988E+04 0.  0.
        3    1    3    3  502    0 -0.15275294729E+04  0.10127409946E+04  0.15957806170E+04  0.24301247706E+04  0.10100000352E+00 0. -1.
       -3    1    3    3    0  502  0.15275294729E+04 -0.10127409946E+04  0.21344791618E+03  0.18451424432E+04  0.10100000352E+00 0.  1.
</event>
<event>
 5   0  0.7675750E-08  0.3864192E+04  0.7818609E-02  0.8032518E-01
        1   -1    0    0  501    0  0.00000000000E+00  0.00000000000E+00  0.18128954557E+04  0.18128954557E+04  0.50400001928E-02 0. -1.
       -1   -1    0    0    0  501  0.00000000000E+00  0.00000000000E+00 -0.20591342249E+04  0.20591342249E+04  0.50400001928E-02 0.  1.
    10030    2    1    2    0    0  0.00000000000E+00  0.00000000000E+00 -0.24623876918E+03  0.38720296806E+04  0.38641920651E+04 0.  0.
        2    1    3    3  502    0 -0.65844762724E+03  0.50447174661E+03  0.16253984253E+04  0.18248191861E+04  0.25500000920E-02 0. -1.
       -2    1    3    3    0  502  0.65844762724E+03 -0.50447174661E+03 -0.18716371945E+04  0.20472104945E+04  0.25500000920E-02 0.  1.
</event>
<event>
 5   0  0.7675750E-08  0.3885675E+04  0.7818609E-02  0.8028015E-01
       -1   -1    0    0    0  501  0.00000000000E+00  0.00000000000E+00  0.16693203920E+04  0.16693203920E+04  0.50400001928E-02 0.  1.
        1   -1    0    0  501    0  0.00000000000E+00  0.00000000000E+00 -0.22611702254E+04  0.22611702254E+04  0.50400001928E-02 0. -1.
    10030    2    1    2    0    0  0.00000000000E+00  0.00000000000E+00 -0.59184983338E+03  0.39304906174E+04  0.38856750081E+04 0.  0.
        4    1    3    3  502    0 -0.18948924851E+04 -0.38060603025E+03 -0.95811279965E+02  0.19351123726E+04  0.12699999809E+01 0.  1.
       -4    1    3    3    0  502  0.18948924851E+04  0.38060603025E+03 -0.49603855341E+03  0.19953782448E+04  0.12699999809E+01 0. -1.
</event>
<event>
 5   0  0.2446281E-07  0.4223428E+04  0.7818609E-02  0.7960931E-01
       -2   -1    0    0    0  501  0.00000000000E+00  0.00000000000E+00  0.25013009740E+04  0.25013009740E+04  0.25500000920E-02 0. -1.
        2   -1    0    0  501    0  0.00000000000E+00  0.00000000000E+00 -0.17828068236E+04  0.17828068236E+04  0.25500000920E-02 0.  1.
    10030    2    1    2    0    0  0.00000000000E+00  0.00000000000E+00  0.71849415035E+03  0.42841077976E+04  0.42234282020E+04 0.  0.
        1    1    3    3  502    0  0.13100940725E+04  0.10598856816E+04 -0.93168529273E+03  0.19255496934E+04  0.50400001928E-02 0.  1.
       -1    1    3    3    0  502 -0.13100940725E+04 -0.10598856816E+04  0.16501794431E+04  0.23585581043E+04  0.50400001928E-02 0. -1.
</event>
<event>
 5   0  0.2395572E-07  0.3914183E+04  0.7818609E-02  0.8022086E-01
        2   -1    0    0  501    0  0.00000000000E+00  0.00000000000E+00  0.16522325555E+04  0.16522325555E+04  0.25500000920E-02 0.  1.
       -2   -1    0    0    0  501  0.00000000000E+00  0.00000000000E+00 -0.23182013957E+04  0.23182013957E+04  0.25500000920E-02 0. -1.
    10030    2    1    2    0    0  0.00000000000E+00  0.00000000000E+00 -0.66596884028E+03  0.39704339512E+04  0.39141833458E+04 0.  0.
        3    1    3    3  502    0 -0.17440861677E+04  0.50075737417E+03  0.41077385771E+03  0.18604649098E+04  0.10100000352E+00 0. -1.
       -3    1    3    3    0  502  0.17440861677E+04 -0.50075737417E+03 -0.10767426980E+04  0.21099690415E+04  0.10100000352E+00 0.  1.
</event>
<event>
 5   0  0.7675750E-08  0.3878858E+04  0.7818609E-02  0.8029441E-01
        1   -1    0    0  501    0  0.00000000000E+00  0.00000000000E+00  0.12832826818E+04  0.12832826818E+04  0.50400001928E-02 0.  1.
       -1   -1    0    0    0  501  0.00000000000E+00  0.00000000000E+00 -0.29310642427E+04  0.29310642427E+04  0.50400001928E-02 0. -1.
    10030    2    1    2    0    0  0.00000000000E+00  0.00000000000E+00 -0.16477815609E+04  0.42143469244E+04  0.38788575544E+04 0.  0.
        2    1    3    3  502    0 -0.79862500468E+03  0.16864359457E+04 -0.24947058626E+03  0.18825789945E+04  0.25500000920E-02 0. -1.
       -2    1    3    3    0  502  0.79862500468E+03 -0.16864359457E+04 -0.13983109746E+04  0.23317679299E+04  0.25500000920E-02 0.  1.
</event>
<event>
 5   0  0.7675750E-08  0.3875003E+04  0.7818609E-02  0.8030248E-01
       -1   -1    0    0    0  501  0.00000000000E+00  0.00000000000E+00  0.19177883079E+04  0.19177883079E+04  0.50400001928E-02 0. -1.
        1   -1    0    0  501    0  0.00000000000E+00  0.00000000000E+00 -0.19574175530E+04  0.19574175530E+04  0.50400001928E-02 0.  1.
    10030    2    1    2    0    0  0.00000000000E+00  0.00000000000E+00 -0.39629245131E+02  0.38752058609E+04  0.38750032242E+04 0.  0.
        5    1    3    3  502    0 -0.78688461557E+03  0.26426360334E+03 -0.17705825424E+04  0.19555069112E+04  0.46999998093E+01 0. -1.
       -5    1    3    3    0  502  0.78688461557E+03 -0.26426360334E+03  0.17309532973E+04  0.19196989497E+04  0.46999998093E+01 0.  1.
</event>
<event>
 5   0  0.2486268E-07  0.3903022E+04  0.7818609E-02  0.8024401E-01
       -2   -1    0    0    0  501  0.00000000000E+00  0.00000000000E+00  0.21640226834E+04  0.21640226834E+04  0.25500000920E-02 0. -1.
        2   -1    0    0  501    0  0.00000000000E+00  0.00000000000E+00 -0.17598681473E+04  0.17598681473E+04  0.25500000920E-02 0.  1.
    10030    2    1    2    0    0  0.00000000000E+00  0.00000000000E+00  0.40415453608E+03  0.39238908308E+04  0.39030216964E+04 0.  0.
        5    1    3    3  502    0  0.49719613134E+03  0.29262133904E+03 -0.16721712446E+04  0.17689007893E+04  0.46999998093E+01 0.  1.
       -5    1    3    3    0  502 -0.49719613134E+03 -0.29262133904E+03  0.20763257807E+04  0.21549900414E+04  0.46999998093E+01 0. -1.
</event>
<event>
 5   0  0.2446281E-07  0.3909421E+04  0.7818609E-02  0.8023073E-01
       -2   -1    0    0    0  501  0.00000000000E+00  0.00000000000E+00  0.16475921218E+04  0.16475921218E+04  0.25500000920E-02 0.  1.
        2   -1    0    0  501    0  0.00000000000E+00  0.00000000000E+00 -0.23190776544E+04  0.23190776544E+04  0.25500000920E-02 0. -1.
    10030    2    1    2    0    0  0.00000000000E+00  0.00000000000E+00 -0.67148553257E+03  0.39666697762E+04  0.39094214781E+04 0.  0.
        1    1    3    3  502    0  0.90544145555E+03  0.95550460603E+03 -0.18019224645E+04  0.22315326235E+04  0.50400001928E-02 0. -1.
       -1    1    3    3    0  502 -0.90544145555E+03 -0.95550460603E+03  0.11304369320E+04  0.17351371527E+04  0.50400001928E-02 0.  1.
</event>
<event>
 5   0  0.7675750E-08  0.3968636E+04  0.7818609E-02  0.8010904E-01
        1   -1    0    0  501    0  0.00000000000E+00  0.00000000000E+00  0.18549426548E+04  0.18549426548E+04  0.50400001928E-02 0. -1.
       -1   -1    0    0    0  501  0.00000000000E+00  0.00000000000E+00 -0.21227163092E+04  0.21227163092E+04  0.50400001928E-02 0.  1.
    10030    2    1    2    0    0  0.00000000000E+00  0.00000000000E+00 -0.26777365439E+03  0.39776589640E+04  0.39686355469E+04 0.  0.
        4    1    3    3  502    0 -0.19357830199E+04 -0.12004758689E+03  0.28640907375E+03  0.19605354099E+04  0.12699999809E+01 0. -1.
       -4    1    3    3    0  502  0.19357830199E+04  0.12004758689E+03 -0.55418272814E+03  0.20171235540E+04  0.12699999809E+01 0.  1.
</event>
<event>
 5   0  0.2384787E-07  0.3923652E+04  0.7818609E-02  0.8020128E-01
        2   -1    0    0  501    0  0.00000000000E+00  0.00000000000E+00  0.15268216323E+04  0.15268216323E+04  0.25500000920E-02 0.  1.
       -2   -1    0    0    0  501  0.00000000000E+00  0.00000000000E+00 -0.25207662296E+04  0.25207662296E+04  0.25500000920E-02 0. -1.
    10030    2    1    2    0    0  0.00000000000E+00  0.00000000000E+00 -0.99394459726E+03  0.40475878619E+04  0.39236515693E+04 0.  0.
        4    1    3    3  502    0  0.19754553050E+02  0.16011032950E+04  0.67233815768E+03  0.17366525889E+04  0.12699999809E+01 0.  1.
       -4    1    3    3    0  502 -0.19754553050E+02 -0.16011032950E+04 -0.16662827549E+04  0.23109352730E+04  0.12699999809E+01 0. -1.
</event>
<event>
 5   0  0.2446281E-07  0.3910224E+04  0.7818609E-02  0.8022906E-01
        2   -1    0    0  501    0  0.00000000000E+00  0.00000000000E+00  0.20098116204E+04  0.20098116204E+04  0.25500000920E-02 0. -1.
       -2   -1    0    0    0  501  0.00000000000E+00  0.00000000000E+00 -0.19019015097E+04  0.19019015097E+04  0.25500000920E-02 0.  1.
    10030    2    1    2    0    0  0.00000000000E+00  0.00000000000E+00  0.10791011069E+03  0.39117131302E+04  0.39102244208E+04 0.  0.
        1    1    3    3  502    0 -0.10486700338E+04 -0.14112004658E+04 -0.80151270376E+03  0.19322572833E+04  0.50400001928E-02 0.  1.
       -1    1    3    3    0  502  0.10486700338E+04  0.14112004658E+04  0.90942281445E+03  0.19794558469E+04  0.50400001928E-02 0. -1.
</event>
<event>
 5   0  0.2486268E-07  0.3995993E+04  0.7818609E-02  0.8005355E-01
       -2   -1    0    0    0  501  0.00000000000E+00  0.00000000000E+00  0.18929261452E+04  0.18929261452E+04  0.25500000920E-02 0.  1.
        2   -1    0    0  501    0  0.00000000000E+00  0.00000000000E+00 -0.21088991622E+04  0.21088991622E+04  0.25500000920E-02 0. -1.
    10030    2    1    2    0    0  0.00000000000E+00  0.00000000000E+00 -0.21597301694E+03  0.40018253074E+04  0.39959931740E+04 0.  0.
        5    1    3    3  502    0 -0.84635483400E+03  0.20397274034E+03  0.16929837660E+04  0.19037167609E+04  0.46999998093E+01 0.  1.
       -5    1    3    3    0  502  0.84635483400E+03 -0.20397274034E+03 -0.19089567829E+04  0.20981085465E+04  0.46999998093E+01 0. -1.
</event>
<event>
 5   0  0.2486268E-07  0.3724247E+04  0.7818609E-02  0.8062610E-01
       -2   -1    0    0    0  501  0.00000000000E+00  0.00000000000E+00  0.14544696335E+04  0.14544696335E+04  0.25500000920E-02 0.  1.
        2   -1    0    0  501    0  0.00000000000E+00  0.00000000000E+00 -0.23840328679E+04  0.23840328679E+04  0.25500000920E-02 0. -1.
    10030    2    1    2    0    0  0.00000000000E+00  0.00000000000E+00 -0.92956323441E+03  0.38385025015E+04  0.37242467221E+04 0.  0.
        5    1    3    3  502    0  0.11476803671E+03 -0.66782456421E+02 -0.23791410056E+04  0.23828482144E+04  0.46999998093E+01 0. -1.
       -5    1    3    3    0  502 -0.11476803671E+03  0.66782456421E+02  0.14495777712E+04  0.14556542870E+04  0.46999998093E+01 0.  1.
</event>
<event>
 5   0  0.2486268E-07  0.3870824E+04  0.7818609E-02  0.8031125E-01
       -2   -1    0    0    0  501  0.00000000000E+00  0.00000000000E+00  0.19723578207E+04  0.19723578207E+04  0.25500000920E-02 0.  1.
        2   -1    0    0  501    0  0.00000000000E+00  0.00000000000E+00 -0.18991586353E+04  0.18991586353E+04  0.25500000920E-02 0. -1.
    10030    2    1    2    0    0  0.00000000000E+00  0.00000000000E+00  0.73199185395E+02  0.38715164561E+04  0.38708244017E+04 0.  0.
        5    1    3    3  502    0 -0.14102231652E+04  0.86005339913E+03  0.10454310419E+04  0.19548323147E+04  0.46999998093E+01 0.  1.
       -5    1    3    3    0  502  0.14102231652E+04 -0.86005339913E+03 -0.97223185650E+03  0.19166841414E+04  0.46999998093E+01 0. -1.
</event>
<event>
 5   0  0.7675750E-08  0.3795192E+04  0.7818609E-02  0.8047187E-01
        1   -1    0    0  501    0  0.00000000000E+00  0.00000000000E+00  0.21246948725E+04  0.21246948725E+04  0.50400001928E-02 0.  1.
       -1   -1    0    0    0  501  0.00000000000E+00  0.00000000000E+00 -0.16947705882E+04  0.16947705882E+04  0.50400001928E-02 0. -1.
    10030    2    1    2    0    0  0.00000000000E+00  0.00000000000E+00  0.42992428431E+03  0.38194654607E+04  0.37951918944E+04 0.  0.
        5    1    3    3  502    0 -0.83455380949E+03  0.10548332263E+03  0.19267943368E+04  0.21024189161E+04  0.46999998093E+01 0.  1.
       -5    1    3    3    0  502  0.83455380949E+03 -0.10548332263E+03 -0.14968700525E+04  0.17170465446E+04  0.46999998093E+01 0. -1.
</event>
<event>
 5   0  0.2446281E-07  0.3897150E+04  0.7818609E-02  0.8025622E-01
       -2   -1    0    0    0  501  0.00000000000E+00  0.00000000000E+00  0.21933843130E+04  0.21933843130E+04  0.25500000920E-02 0. -1.
        2   -1    0    0  501    0  0.00000000000E+00  0.00000000000E+00 -0.17310898890E+04  0.17310898890E+04  0.25500000920E-02 0.  1.
    10030    2    1    2    0    0  0.00000000000E+00  0.00000000000E+00  0.46229442405E+03  0.39244742020E+04  0.38971504497E+04 0.  0.
        1    1    3    3  502    0  0.63448159031E+03  0.88255775532E+03  0.18597276170E+04  0.21540802885E+04  0.50400001928E-02 0. -1.
       -1    1    3    3    0  502 -0.63448159031E+03 -0.88255775532E+03 -0.13974331930E+04  0.17703939134E+04  0.50400001928E-02 0.  1.
</event>
<event>
 5   0  0.7675750E-08  0.3894325E+04  0.7818609E-02  0.8026211E-01
       -1   -1    0    0    0  501  0.00000000000E+00  0.00000000000E+00  0.28554109253E+04  0.28554109253E+04  0.50400001928E-02 0.  1.
        1   -1    0    0  501    0  0.00000000000E+00  0.00000000000E+00 -0.13278092132E+04  0.13278092133E+04  0.50400001928E-02 0. -1.
    10030    2    1    2    0    0  0.00000000000E+00  0.00000000000E+00  0.15276017120E+04  0.41832201386E+04  0.38943245547E+04 0.  0.
        2    1    3    3  502    0  0.93356850519E+03 -0.47593742415E+03  0.25266978467E+04  0.27353735749E+04  0.25500000920E-02 0.  1.
       -2    1    3    3    0  502 -0.93356850519E+03  0.47593742415E+03 -0.99909613467E+03  0.14478465637E+04  0.25500000920E-02 0. -1.
</event>
<event>
 5   0  0.7675750E-08  0.3632895E+04  0.7818609E-02  0.8082998E-01
        1   -1    0    0  501    0  0.00000000000E+00  0.00000000000E+00  0.13900210849E+04  0.13900210850E+04  0.50400001928E-02 0.  1.
       -1   -1    0    0    0  501  0.00000000000E+00  0.00000000000E+00 -0.23736913956E+04  0.23736913956E+04  0.50400001928E-02 0. -1.
    10030    2    1    2    0    0  0.00000000000E+00  0.00000000000E+00 -0.98367031063E+03  0.37637124805E+04  0.36328947626E+04 0.  0.
        4    1    3    3  502    0  0.78056844876E+03 -0.13569049851E+04  0.46275682739E+03  0.16323675248E+04  0.12699999809E+01 0.  1.
       -4    1    3    3    0  502 -0.78056844876E+03  0.13569049851E+04 -0.14464271380E+04  0.21313449557E+04  0.12699999809E+01 0. -1.
</event>
<event>
 5   0  0.7731706E-08  0.3909779E+04  0.7818609E-02  0.8022998E-01
        1   -1    0    0  501    0  0.00000000000E+00  0.00000000000E+00  0.31702018919E+04  0.31702018919E+04  0.50400001928E-02 0.  1.
       -1   -1    0    0    0  501  0.00000000000E+00  0.00000000000E+00 -0.12054728903E+04  0.12054728903E+04  0.50400001928E-02 0. -1.
    10030    2    1    2    0    0  0.00000000000E+00  0.00000000000E+00  0.19647290016E+04  0.43756747822E+04  0.39097787341E+04 0.  0.
        3    1    3    3  502    0 -0.68866564323E+02  0.57303951594E+03  0.30726744940E+04  0.31264109530E+04  0.10100000352E+00 0.  1.
       -3    1    3    3    0  502  0.68866564323E+02 -0.57303951594E+03 -0.11079454924E+04  0.12492638292E+04  0.10100000352E+00 0. -1.
</event>
<event>
 5   0  0.2446281E-07  0.3840802E+04  0.7818609E-02  0.8037455E-01
        2   -1    0    0  501    0  0.00000000000E+00  0.00000000000E+00  0.30158053827E+04  0.30158053827E+04  0.25500000920E-02 0. -1.
       -2   -1    0    0    0  501  0.00000000000E+00  0.00000000000E+00 -0.12228704684E+04  0.12228704684E+04  0.25500000920E-02 0.  1.
    10030    2    1    2    0    0  0.00000000000E+00  0.00000000000E+00  0.17929349142E+04  0.42386758511E+04  0.38408016564E+04 0.  0.
        1    1    3    3  502    0 -0.15905630056E+04 -0.10760941995E+04  0.88723812095E+03  0.21154339707E+04  0.50400001928E-02 0.  1.
       -1    1    3    3    0  502  0.15905630056E+04  0.10760941995E+04  0.90569679330E+03  0.21232418804E+04  0.50400001928E-02 0. -1.
</event>
<event>
 5   0  0.7675750E-08  0.3841852E+04  0.7818609E-02  0.8037233E-01
       -1   -1    0    0    0  501  0.00000000000E+00  0.00000000000E+00  0.15045308135E+04  0.15045308135E+04  0.50400001928E-02 0. -1.
        1   -1    0    0  501    0  0.00000000000E+00  0.00000000000E+00 -0.24525635433E+04  0.24525635433E+04  0.50400001928E-02 0.  1.
    10030    2    1    2    0    0  0.00000000000E+00  0.00000000000E+00 -0.94803272981E+03  0.39570943567E+04  0.38418523776E+04 0.  0.
        4    1    3    3  502    0 -0.43270339202E+03 -0.15516544902E+04 -0.15518730551E+04  0.22367779225E+04  0.12699999809E+01 0.  1.
       -4    1    3    3    0  502  0.43270339202E+03  0.15516544902E+04  0.60384032532E+03  0.17203164342E+04  0.12699999809E+01 0. -1.
</event>
<event>
 5   0  0.7675750E-08  0.3925215E+04  0.7818609E-02  0.8019805E-01
        1   -1    0    0  501    0  0.00000000000E+00  0.00000000000E+00  0.26516217142E+04  0.26516217142E+04  0.50400001928E-02 0. -1.
       -1   -1    0    0    0  501  0.00000000000E+00  0.00000000000E+00 -0.14526313833E+04  0.14526313833E+04  0.50400001928E-02 0.  1.
    10030    2    1    2    0    0  0.00000000000E+00  0.00000000000E+00  0.11989903309E+04  0.41042530976E+04  0.39252153667E+04 0.  0.
        4    1    3    3  502    0 -0.79582183834E+03 -0.80534666354E+03 -0.10767199074E+04  0.15624477651E+04  0.12699999809E+01 0.  1.
       -4    1    3    3    0  502  0.79582183834E+03  0.80534666354E+03  0.22757102382E+04  0.25418053325E+04  0.12699999809E+01 0. -1.
</event>
<event>
 5   0  0.7675750E-08  0.3938930E+04  0.7818609E-02  0.8016981E-01
       -1   -1    0    0    0  501  0.00000000000E+00  0.00000000000E+00  0.29827659050E+04  0.29827659050E+04  0.50400001928E-02 0.  1.
        1   -1    0    0  501    0  0.00000000000E+00  0.00000000000E+00 -0.13004010287E+04  0.13004010287E+04  0.50400001928E-02 0. -1.
    10030    2    1    2    0    0  0.00000000000E+00  0.00000000000E+00  0.16823648763E+04  0.42831669337E+04  0.39389297283E+04 0.  0.
        5    1    3    3  502    0  0.70698320335E+03 -0.12911069644E+04  0.22639601057E+04  0.27004295757E+04  0.46999998093E+01 0.  1.
       -5    1    3    3    0  502 -0.70698320335E+03  0.12911069644E+04 -0.58159522942E+03  0.15827373579E+04  0.46999998093E+01 0. -1.
</event>
<event>
 5   0  0.2473224E-07  0.3501852E+04  0.7818609E-02  0.8113351E-01
       -2   -1    0    0    0  501  0.00000000000E+00  0.00000000000E+00  0.13398667367E+04  0.13398667367E+04  0.25500000920E-02 0. -1.
        2   -1    0    0  501    0  0.00000000000E+00  0.00000000000E+00 -0.22880943662E+04  0.22880943662E+04  0.25500000920E-02 0.  1.
    10030    2    1    2    0    0  0.00000000000E+00  0.00000000000E+00 -0.94822762947E+03  0.36279611029E+04  0.35018518139E+04 0.  0.
        2    1    3    3  502    0 -0.89637795068E+03  0.65109946585E+03 -0.18787864723E+04  0.21811149794E+04  0.25500000920E-02 0.  1.
       -2    1    3    3    0  502  0.89637795068E+03 -0.65109946585E+03  0.93055884286E+03  0.14468461234E+04  0.25500000920E-02 0. -1.
</event>
<event>
 5   0  0.2384787E-07  0.3861055E+04  0.7818609E-02  0.8033178E-01
        2   -1    0    0  501    0  0.00000000000E+00  0.00000000000E+00  0.24730351851E+04  0.24730351851E+04  0.25500000920E-02 0.  1.
       -2   -1    0    0    0  501  0.00000000000E+00  0.00000000000E+00 -0.15070290997E+04  0.15070290997E+04  0.25500000920E-02 0. -1.
    10030    2    1    2    0    0  0.00000000000E+00  0.00000000000E+00  0.96600608545E+03  0.39800642848E+04  0.38610547722E+04 0.  0.
        4    1    3    3  502    0 -0.43939117920E+03  0.59514280425E+03  0.23211298861E+04  0.24361660713E+04  0.12699999809E+01 0.  1.
       -4    1    3    3    0  502  0.43939117920E+03 -0.59514280425E+03 -0.13551238006E+04  0.15438982135E+04  0.12699999809E+01 0. -1.
</event>
<event>
 5   0  0.2486268E-07  0.3861890E+04  0.7818609E-02  0.8033002E-01
       -2   -1    0    0    0  501  0.00000000000E+00  0.00000000000E+00  0.21569729166E+04  0.21569729166E+04  0.25500000920E-02 0. -1.
        2   -1    0    0  501    0  0.00000000000E+00  0.00000000000E+00 -0.17286025003E+04  0.17286025003E+04  0.25500000920E-02 0.  1.
    10030    2    1    2    0    0  0.00000000000E+00  0.00000000000E+00  0.42837041632E+03  0.38855754169E+04  0.38618900951E+04 0.  0.
        5    1    3    3  502    0 -0.10156060759E+04  0.64829726406E+03  0.17323402396E+04  0.21101587238E+04  0.46999998093E+01 0. -1.
       -5    1    3    3    0  502  0.10156060759E+04 -0.64829726406E+03 -0.13039698232E+04  0.17754166931E+04  0.46999998093E+01 0.  1.
</event>
<event>
 5   0  0.2395572E-07  0.3921185E+04  0.7818609E-02  0.8020637E-01
        2   -1    0    0  501    0  0.00000000000E+00  0.00000000000E+00  0.24432896694E+04  0.24432896694E+04  0.25500000920E-02 0.  1.
       -2   -1    0    0    0  501  0.00000000000E+00  0.00000000000E+00 -0.15732574826E+04  0.15732574826E+04  0.25500000920E-02 0. -1.
    10030    2    1    2    0    0  0.00000000000E+00  0.00000000000E+00  0.87003218681E+03  0.40165471519E+04  0.39211854097E+04 0.  0.
        3    1    3    3  502    0 -0.96151372231E+03  0.20103123610E+02 -0.13150455859E+04  0.16291892699E+04  0.10100000352E+00 0. -1.
       -3    1    3    3    0  502  0.96151372231E+03 -0.20103123610E+02  0.21850777728E+04  0.23873578820E+04  0.10100000352E+00 0.  1.
</event>
<event>
 5   0  0.2486268E-07  0.3902399E+04  0.7818609E-02  0.8024530E-01
       -2   -1    0    0    0  501  0.00000000000E+00  0.00000000000E+00  0.15289464206E+04  0.15289464206E+04  0.25500000920E-02 0. -1.
        2   -1    0    0  501    0  0.00000000000E+00  0.00000000000E+00 -0.24900669790E+04  0.24900669790E+04  0.25500000920E-02 0.  1.
    10030    2    1    2    0    0  0.00000000000E+00  0.00000000000E+00 -0.96112055844E+03  0.40190133996E+04  0.39023987467E+04 0.  0.
        5    1    3    3  502    0  0.14061232854E+04 -0.78918450302E+03 -0.16121020595E+04  0.22801074567E+04  0.46999998093E+01 0.  1.
       -5    1    3    3    0  502 -0.14061232854E+04  0.78918450302E+03  0.65098150107E+03  0.17389059429E+04  0.46999998093E+01 0. -1.
</event>
<event>
 5   0  0.2473224E-07  0.3877803E+04  0.7818609E-02  0.8029662E-01
        2   -1    0    0  501    0  0.00000000000E+00  0.00000000000E+00  0.26295175185E+04  0.26295175185E+04  0.25500000920E-02 0. -1.
       -2   -1    0    0    0  501  0.00000000000E+00  0.00000000000E+00 -0.14296686190E+04  0.14296686190E+04  0.25500000920E-02 0.  1.
    10030    2    1    2    0    0  0.00000000000E+00  0.00000000000E+00  0.11998488995E+04  0.40591861375E+04  0.38778028208E+04 0.  0.
        2    1    3    3  502    0  0.10051967166E+04 -0.50125570580E+03 -0.10543973287E+04  0.15405945114E+04  0.25500000920E-02 0.  1.
       -2    1    3    3    0  502 -0.10051967166E+04  0.50125570580E+03  0.22542462282E+04  0.25185916261E+04  0.25500000920E-02 0. -1.
</event>
<event>
 5   0  0.7675750E-08  0.3935498E+04  0.7818609E-02  0.8017687E-01
       -1   -1    0    0    0  501  0.00000000000E+00  0.00000000000E+00  0.26598245180E+04  0.26598245180E+04  0.50400001928E-02 0. -1.
        1   -1    0    0  501    0  0.00000000000E+00  0.00000000000E+00 -0.14557486229E+04  0.14557486229E+04  0.50400001928E-02 0.  1.
    10030    2    1    2    0    0  0.00000000000E+00  0.00000000000E+00  0.12040758951E+04  0.41155731409E+04  0.39354978741E+04 0.  0.
        1    1    3    3  502    0  0.35261986878E+03  0.19310963298E+04  0.74451465597E+03  0.20994703808E+04  0.50400001928E-02 0. -1.
       -1    1    3    3    0  502 -0.35261986878E+03 -0.19310963298E+04  0.45956123910E+03  0.20161027601E+04  0.50400001928E-02 0.  1.
</event>
<event>
 5   0  0.7675750E-08  0.3624723E+04  0.7818609E-02  0.8084852E-01
       -1   -1    0    0    0  501  0.00000000000E+00  0.00000000000E+00  0.15810237100E+04  0.15810237100E+04  0.50400001928E-02 0. -1.
        1   -1    0    0  501    0  0.00000000000E+00  0.00000000000E+00 -0.20775488086E+04  0.20775488086E+04  0.50400001928E-02 0.  1.
    10030    2    1    2    0    0  0.00000000000E+00  0.00000000000E+00 -0.49652509859E+03  0.36585725186E+04  0.36247228447E+04 0.  0.
        4    1    3    3  502    0  0.71736893040E+03 -0.11925032231E+04  0.92360089639E+03  0.16702461938E+04  0.12699999809E+01 0. -1.
       -4    1    3    3    0  502 -0.71736893040E+03  0.11925032231E+04 -0.14201259950E+04  0.19883263248E+04  0.12699999809E+01 0.  1.
</event>
<event>
 5   0  0.2384787E-07  0.3868812E+04  0.7818609E-02  0.8031547E-01
       -2   -1    0    0    0  501  0.00000000000E+00  0.00000000000E+00  0.16681412403E+04  0.16681412403E+04  0.25500000920E-02 0. -1.
        2   -1    0    0  501    0  0.00000000000E+00  0.00000000000E+00 -0.22431714771E+04  0.22431714771E+04  0.25500000920E-02 0.  1.
    10030    2    1    2    0    0  0.00000000000E+00  0.00000000000E+00 -0.57503023678E+03  0.39113127174E+04  0.38688121433E+04 0.  0.
        4    1    3    3  502    0 -0.16939728679E+03  0.17585323882E+04 -0.10840751764E+04  0.20727643866E+04  0.12699999809E+01 0.  1.
       -4    1    3    3    0  502  0.16939728679E+03 -0.17585323882E+04  0.50904493967E+03  0.18385483308E+04  0.12699999809E+01 0. -1.
</event>
<event>
 5   0  0.2384787E-07  0.4020028E+04  0.7818609E-02  0.8000518E-01
        2   -1    0    0  501    0  0.00000000000E+00  0.00000000000E+00  0.23963545895E+04  0.23963545895E+04  0.25500000920E-02 0. -1.
       -2   -1    0    0    0  501  0.00000000000E+00  0.00000000000E+00 -0.16859590236E+04  0.16859590236E+04  0.25500000920E-02 0.  1.
    10030    2    1    2    0    0  0.00000000000E+00  0.00000000000E+00  0.71039556593E+03  0.40823136131E+04  0.40200276834E+04 0.  0.
        4    1    3    3  502    0  0.12887649970E+04  0.14867971004E+04 -0.61863963819E+02  0.19685806050E+04  0.12699999809E+01 0.  1.
       -4    1    3    3    0  502 -0.12887649970E+04 -0.14867971004E+04  0.77225952974E+03  0.21137330081E+04  0.12699999809E+01 0. -1.
</event>
<event>
 5   0  0.7675750E-08  0.3541337E+04  0.7818609E-02  0.8104063E-01
       -1   -1    0    0    0  501  0.00000000000E+00  0.00000000000E+00  0.10747753303E+04  0.10747753303E+04  0.50400001928E-02 0. -1.
        1   -1    0    0  501    0  0.00000000000E+00  0.00000000000E+00 -0.29171366472E+04  0.29171366472E+04  0.50400001928E-02 0.  1.
    10030    2    1    2    0    0  0.00000000000E+00  0.00000000000E+00 -0.18423613170E+04  0.39919119775E+04  0.35413367552E+04 0.  0.
        2    1    3    3  502    0  0.13621953272E+04 -0.81570705870E+03 -0.18046843455E+04  0.24037137313E+04  0.25500000920E-02 0.  1.
       -2    1    3    3    0  502 -0.13621953272E+04  0.81570705870E+03 -0.37676971475E+02  0.15881982462E+04  0.25500000920E-02 0. -1.
</event>
<event>
 5   0  0.7675750E-08  0.3887435E+04  0.7818609E-02  0.8027648E-01
       -1   -1    0    0    0  501  0.00000000000E+00  0.00000000000E+00  0.17539764476E+04  0.17539764476E+04  0.50400001928E-02 0.  1.
        1   -1    0    0  501    0  0.00000000000E+00  0.00000000000E+00 -0.21539845645E+04  0.21539845645E+04  0.50400001928E-02 0. -1.
    10030    2    1    2    0    0  0.00000000000E+00  0.00000000000E+00 -0.40000811691E+03  0.39079610122E+04  0.38874352443E+04 0.  0.
        2    1    3    3  502    0  0.13819271311E+03  0.17103219365E+04 -0.11179187744E+04  0.20479357262E+04  0.25500000920E-02 0. -1.
       -2    1    3    3    0  502 -0.13819271311E+03 -0.17103219365E+04  0.71791065753E+03  0.18600252860E+04  0.25500000920E-02 0.  1.
</event>
<event>
 5   0  0.2473224E-07  0.3902114E+04  0.7818609E-02  0.8024590E-01
        2   -1    0    0  501    0  0.00000000000E+00  0.00000000000E+00  0.26981361601E+04  0.26981361601E+04  0.25500000920E-02 0. -1.
       -2   -1    0    0    0  501  0.00000000000E+00  0.00000000000E+00 -0.14108343002E+04  0.14108343002E+04  0.25500000920E-02 0.  1.
    10030    2    1    2    0    0  0.00000000000E+00  0.00000000000E+00  0.12873018600E+04  0.41089704603E+04  0.39021138072E+04 0.  0.
        2    1    3    3  502    0 -0.17742305606E+04 -0.15938490533E+03 -0.19435394322E+03  0.17919461726E+04  0.25500000920E-02 0. -1.
       -2    1    3    3    0  502  0.17742305606E+04  0.15938490533E+03  0.14816558032E+04  0.23170242876E+04  0.25500000920E-02 0.  1.
</event>
<event>
 5   0  0.2395572E-07  0.3894561E+04  0.7818609E-02  0.8026161E-01
       -2   -1    0    0    0  501  0.00000000000E+00  0.00000000000E+00  0.15491301839E+04  0.15491301839E+04  0.25500000920E-02 0. -1.
        2   -1    0    0  501    0  0.00000000000E+00  0.00000000000E+00 -0.24477619738E+04  0.24477619738E+04  0.25500000920E-02 0.  1.
    10030    2    1    2    0    0  0.00000000000E+00  0.00000000000E+00 -0.89863178991E+03  0.39968921577E+04  0.38945613138E+04 0.  0.
        3    1    3    3  502    0  0.91129677417E+03 -0.17189970465E+04 -0.53198866339E+03  0.20170336151E+04  0.10100000352E+00 0. -1.
       -3    1    3    3    0  502 -0.91129677417E+03  0.17189970465E+04 -0.36664312651E+03  0.19798585426E+04  0.10100000352E+00 0.  1.
</event>
<event>
 5   0  0.2473224E-07  0.3528515E+04  0.7818609E-02  0.8107065E-01
        2   -1    0    0  501    0  0.00000000000E+00  0.00000000000E+00  0.13302527525E+04  0.13302527525E+04  0.25500000920E-02 0.  1.
       -2   -1    0    0    0  501  0.00000000000E+00  0.00000000000E+00 -0.23398590956E+04  0.23398590956E+04  0.25500000920E-02 0. -1.
    10030    2    1    2    0    0  0.00000000000E+00  0.00000000000E+00 -0.10096063431E+04  0.36701118481E+04  0.35285147030E+04 0.  0.
        2    1    3    3  502    0 -0.28152752250E+03 -0.58937932659E+03 -0.22094664878E+04  0.23039895610E+04  0.25500000920E-02 0. -1.
       -2    1    3    3    0  502  0.28152752250E+03  0.58937932659E+03  0.11998601446E+04  0.13661222871E+04  0.25500000920E-02 0.  1.
</event>
<event>
 5   0  0.2446281E-07  0.3846227E+04  0.7818609E-02  0.8036307E-01
       -2   -1    0    0    0  501  0.00000000000E+00  0.00000000000E+00  0.12885517768E+04  0.12885517768E+04  0.25500000920E-02 0.  1.
        2   -1    0    0  501    0  0.00000000000E+00  0.00000000000E+00 -0.28701718037E+04  0.28701718037E+04  0.25500000920E-02 0. -1.
    10030    2    1    2    0    0  0.00000000000E+00  0.00000000000E+00 -0.15816200270E+04  0.41587235805E+04  0.38462267106E+04 0.  0.
        1    1    3    3  502    0  0.12326341739E+04  0.13353800370E+04 -0.14709982591E+04  0.23380467763E+04  0.50400001928E-02 0. -1.
       -1    1    3    3    0  502 -0.12326341739E+04 -0.13353800370E+04 -0.11062176787E+03  0.18206768042E+04  0.50400001928E-02 0.  1.
</event>
<event>
 5   0  0.7675750E-08  0.3882426E+04  0.7818609E-02  0.8028694E-01
        1   -1    0    0  501    0  0.00000000000E+00  0.00000000000E+00  0.14635021382E+04  0.14635021382E+04  0.50400001928E-02 0.  1.
       -1   -1    0    0    0  501  0.00000000000E+00  0.00000000000E+00 -0.25748560590E+04  0.25748560590E+04  0.50400001928E-02 0. -1.
    10030    2    1    2    0    0  0.00000000000E+00  0.00000000000E+00 -0.11113539209E+04  0.40383581972E+04  0.38824257097E+04 0.  0.
        5    1    3    3  502    0  0.10680107952E+04  0.53808180830E+03 -0.21461774133E+04  0.24568839351E+04  0.46999998093E+01 0. -1.
       -5    1    3    3    0  502 -0.10680107952E+04 -0.53808180830E+03  0.10348234925E+04  0.15814742621E+04  0.46999998093E+01 0.  1.
</event>
<event>
 5   0  0.2486268E-07  0.3555322E+04  0.7818609E-02  0.8100803E-01
        2   -1    0    0  501    0  0.00000000000E+00  0.00000000000E+00  0.21388118084E+04  0.21388118084E+04  0.25500000920E-02 0. -1.
       -2   -1    0    0    0  501  0.00000000000E+00  0.00000000000E+00 -0.14774928232E+04  0.14774928232E+04  0.25500000920E-02 0.  1.
    10030    2    1    2    0    0  0.00000000000E+00  0.00000000000E+00  0.66131898524E+03  0.36163046316E+04  0.35553222622E+04 0.  0.
        5    1    3    3  502    0 -0.25988040833E+03  0.16741598877E+04 -0.21681787119E+03  0.17080343192E+04  0.46999998093E+01 0.  1.
       -5    1    3    3    0  502  0.25988040833E+03 -0.16741598877E+04  0.87813685643E+03  0.19082703124E+04  0.46999998093E+01 0. -1.
</event>
<event>
 5   0  0.2384787E-07  0.3917676E+04  0.7818609E-02  0.8021363E-01
       -2   -1    0    0    0  501  0.00000000000E+00  0.00000000000E+00  0.15959846715E+04  0.15959846715E+04  0.25500000920E-02 0.  1.
        2   -1    0    0  501    0  0.00000000000E+00  0.00000000000E+00 -0.24041869723E+04  0.24041869723E+04  0.25500000920E-02 0. -1.
    10030    2    1    2    0    0  0.00000000000E+00  0.00000000000E+00 -0.80820230083E+03  0.40001716438E+04  0.39176756146E+04 0.  0.
        4    1    3    3  502    0 -0.11927375463E+04  0.21975279841E+03 -0.19747150473E+04  0.23174156463E+04  0.12699999809E+01 0. -1.
       -4    1    3    3    0  502  0.11927375463E+04 -0.21975279841E+03  0.11665127465E+04  0.16827559975E+04  0.12699999809E+01 0.  1.
</event>
<event>
 5   0  0.2473224E-07  0.3904553E+04  0.7818609E-02  0.8024083E-01
        2   -1    0    0  501    0  0.00000000000E+00  0.00000000000E+00  0.34740789477E+04  0.34740789477E+04  0.25500000920E-02 0. -1.
       -2   -1    0    0    0  501  0.00000000000E+00  0.00000000000E+00 -0.10970919436E+04  0.10970919436E+04  0.25500000920E-02 0.  1.
    10030    2    1    2    0    0  0.00000000000E+00  0.00000000000E+00  0.23769870041E+04  0.45711708913E+04  0.39045532522E+04 0.  0.
        2    1    3    3  502    0 -0.15106175308E+04 -0.88594876226E+03  0.17832832519E+03  0.17603043843E+04  0.25500000920E-02 0.  1.
       -2    1    3    3    0  502  0.15106175308E+04  0.88594876226E+03  0.21986586789E+04  0.28108665070E+04  0.25500000920E-02 0. -1.
</event>
<event>
 5   0  0.7675750E-08  0.3946453E+04  0.7818609E-02  0.8015437E-01
        1   -1    0    0  501    0  0.00000000000E+00  0.00000000000E+00  0.16080965819E+04  0.16080965819E+04  0.50400001928E-02 0. -1.
       -1   -1    0    0    0  501  0.00000000000E+00  0.00000000000E+00 -0.24212617278E+04  0.24212617278E+04  0.50400001928E-02 0.  1.
    10030    2    1    2    0    0  0.00000000000E+00  0.00000000000E+00 -0.81316514584E+03  0.40293583097E+04  0.39464529433E+04 0.  0.
        5    1    3    3  502    0 -0.24291283978E+03  0.11675534116E+04 -0.20116808311E+04  0.23386041719E+04  0.46999998093E+01 0.  1.
       -5    1    3    3    0  502  0.24291283978E+03 -0.11675534116E+04  0.11985156852E+04  0.16907541378E+04  0.46999998093E+01 0. -1.
</event>
<event>
 5   0  0.7675750E-08  0.3734917E+04  0.7818609E-02  0.8060268E-01
       -1   -1    0    0    0  501  0.00000000000E+00  0.00000000000E+00  0.15682383474E+04  0.15682383474E+04  0.50400001928E-02 0.  1.
        1   -1    0    0  501    0  0.00000000000E+00  0.00000000000E+00 -0.22237694601E+04  0.22237694601E+04  0.50400001928E-02 0. -1.
    10030    2    1    2    0    0  0.00000000000E+00  0.00000000000E+00 -0.65553111268E+03  0.37920078075E+04  0.37349166219E+04 0.  0.
        5    1    3    3  502    0 -0.14533157717E+04 -0.10099253514E+04 -0.93294956928E+03  0.20006231370E+04  0.46999998093E+01 0. -1.
       -5    1    3    3    0  502  0.14533157717E+04  0.10099253514E+04  0.27741845660E+03  0.17913846705E+04  0.46999998093E+01 0.  1.
</event>
<event>
 5   0  0.2446281E-07  0.3854679E+04  0.7818609E-02  0.8034522E-01
       -2   -1    0    0    0  501  0.00000000000E+00  0.00000000000E+00  0.19069094852E+04  0.19069094852E+04  0.25500000920E-02 0. -1.
        2   -1    0    0  501    0  0.00000000000E+00  0.00000000000E+00 -0.19479884940E+04  0.19479884940E+04  0.25500000920E-02 0.  1.
    10030    2    1    2    0    0  0.00000000000E+00  0.00000000000E+00 -0.41079008859E+02  0.38548979792E+04  0.38546790976E+04 0.  0.
        1    1    3    3  502    0 -0.84575558165E+03  0.83165158415E+03  0.14986553347E+04  0.19112599702E+04  0.50400001928E-02 0. -1.
       -1    1    3    3    0  502  0.84575558165E+03 -0.83165158415E+03 -0.15397343436E+04  0.19436380090E+04  0.50400001928E-02 0.  1.
</event>
<event>
 5   0  0.2486268E-07  0.3914328E+04  0.7818609E-02  0.8022056E-01
       -2   -1    0    0    0  501  0.00000000000E+00  0.00000000000E+00  0.28699915095E+04  0.28699915095E+04  0.25500000920E-02 0. -1.
        2   -1    0    0  501    0  0.00000000000E+00  0.00000000000E+00 -0.13346696997E+04  0.13346696997E+04  0.25500000920E-02 0.  1.
    10030    2    1    2    0    0  0.00000000000E+00  0.00000000000E+00  0.15353218097E+04  0.42046612092E+04  0.39143278893E+04 0.  0.
        5    1    3    3  502    0  0.70320488635E+03  0.14092712380E+04  0.20157017539E+04  0.25580496839E+04  0.46999998093E+01 0.  1.
       -5    1    3    3    0  502 -0.70320488635E+03 -0.14092712380E+04 -0.48037994421E+03  0.16466115253E+04  0.46999998093E+01 0. -1.
</event>
<event>
 5   0  0.2486268E-07  0.3803882E+04  0.7818609E-02  0.8045322E-01
       -2   -1    0    0    0  501  0.00000000000E+00  0.00000000000E+00  0.14453069444E+04  0.14453069444E+04  0.25500000920E-02 0. -1.
        2   -1    0    0  501    0  0.00000000000E+00  0.00000000000E+00 -0.25028449683E+04  0.25028449683E+04  0.25500000920E-02 0.  1.
    10030    2    1    2    0    0  0.00000000000E+00  0.00000000000E+00 -0.10575380239E+04  0.39481519127E+04  0.38038818139E+04 0.  0.
        5    1    3    3  502    0  0.13537818294E+04  0.43234991214E+03 -0.18407127047E+04  0.23254885592E+04  0.46999998093E+01 0.  1.
       -5    1    3    3    0  502 -0.13537818294E+04 -0.43234991214E+03  0.78317468082E+03  0.16226633535E+04  0.46999998093E+01 0. -1.
</event>
<event>
 5   0  0.7675750E-08  0.3933148E+04  0.7818609E-02  0.8018170E-01
       -1   -1    0    0    0  501  0.00000000000E+00  0.00000000000E+00  0.15099629544E+04  0.15099629544E+04  0.50400001928E-02 0. -1.
        1   -1    0    0  501    0  0.00000000000E+00  0.00000000000E+00 -0.25612632985E+04  0.25612632985E+04  0.50400001928E-02 0.  1.
    10030    2    1    2    0    0  0.00000000000E+00  0.00000000000E+00 -0.10513003441E+04  0.40712262529E+04  0.39331476947E+04 0.  0.
        4    1    3    3  502    0 -0.67827452514E+03 -0.18299650672E+04 -0.27511464174E+03  0.19709181002E+04  0.12699999809E+01 0. -1.
       -4    1    3    3    0  502  0.67827452514E+03  0.18299650672E+04 -0.77618570232E+03  0.21003081527E+04  0.12699999809E+01 0.  1.
</event>
<event>
 5   0  0.7675750E-08  0.3889164E+04  0.7818609E-02  0.8027287E-01
        1   -1    0    0  501    0  0.00000000000E+00  0.00000000000E+00  0.19961585335E+04  0.19961585335E+04  0.50400001928E-02 0. -1.
       -1   -1    0    0    0  501  0.00000000000E+00  0.00000000000E+00 -0.18943380206E+04  0.18943380206E+04  0.50400001928E-02 0.  1.
    10030    2    1    2    0    0  0.00000000000E+00  0.00000000000E+00  0.10182051293E+03  0.38904965542E+04  0.38891639231E+04 0.  0.
        4    1    3    3  502    0 -0.67231517770E+03  0.13079358945E+04 -0.12218045105E+04  0.19119392975E+04  0.12699999809E+01 0.  1.
       -4    1    3    3    0  502  0.67231517770E+03 -0.13079358945E+04  0.13236250235E+04  0.19785572567E+04  0.12699999809E+01 0. -1.
</event>
<event>
 5   0  0.7675750E-08  0.3914114E+04  0.7818609E-02  0.8022100E-01
        1   -1    0    0  501    0  0.00000000000E+00  0.00000000000E+00  0.23139496332E+04  0.23139496332E+04  0.50400001928E-02 0.  1.
       -1   -1    0    0    0  501  0.00000000000E+00  0.00000000000E+00 -0.16552098860E+04  0.16552098860E+04  0.50400001928E-02 0. -1.
    10030    2    1    2    0    0  0.00000000000E+00  0.00000000000E+00  0.65873974721E+03  0.39691595193E+04  0.39141141060E+04 0.  0.
        2    1    3    3  502    0  0.47543337857E+02 -0.86636912265E+03  0.21082394035E+04  0.22798090289E+04  0.25500000920E-02 0.  1.
       -2    1    3    3    0  502 -0.47543337857E+02  0.86636912265E+03 -0.14494996563E+04  0.16893504904E+04  0.25500000920E-02 0. -1.
</event>
<event>
 5   0  0.2446281E-07  0.3708890E+04  0.7818609E-02  0.8065994E-01
        2   -1    0    0  501    0  0.00000000000E+00  0.00000000000E+00  0.21760604616E+04  0.21760604616E+04  0.25500000920E-02 0.  1.
       -2   -1    0    0    0  501  0.00000000000E+00  0.00000000000E+00 -0.15803635902E+04  0.15803635902E+04  0.25500000920E-02 0. -1.
    10030    2    1    2    0    0  0.00000000000E+00  0.00000000000E+00  0.59569687142E+03  0.37564240519E+04  0.37088902511E+04 0.  0.
        1    1    3    3  502    0 -0.10234902444E+04  0.64702535142E+03 -0.11247140425E+04  0.16526208770E+04  0.50400001928E-02 0. -1.
       -1    1    3    3    0  502  0.10234902444E+04 -0.64702535142E+03  0.17204109139E+04  0.21038031748E+04  0.50400001928E-02 0.  1.
</event>
<event>
 5   0  0.2486268E-07  0.3887350E+04  0.7818609E-02  0.8027665E-01
       -2   -1    0    0    0  501  0.00000000000E+00  0.00000000000E+00  0.18085708906E+04  0.18085708906E+04  0.25500000920E-02 0.  1.
        2   -1    0    0  501    0  0.00000000000E+00  0.00000000000E+00 -0.20888717925E+04  0.20888717925E+04  0.25500000920E-02 0. -1.
    10030    2    1    2    0    0  0.00000000000E+00  0.00000000000E+00 -0.28030090186E+03  0.38974426832E+04  0.38873501094E+04 0.  0.
        5    1    3    3  502    0 -0.81767665987E+03 -0.15335111823E+04  0.73251094799E+03  0.18859602449E+04  0.46999998093E+01 0.  1.
       -5    1    3    3    0  502  0.81767665987E+03  0.15335111823E+04 -0.10128118498E+04  0.20114824383E+04  0.46999998093E+01 0. -1.
</event>
<event>
 5   0  0.2395572E-07  0.3804958E+04  0.7818609E-02  0.8045092E-01
        2   -1    0    0  501    0  0.00000000000E+00  0.00000000000E+00  0.23918926328E+04  0.23918926329E+04  0.25500000920E-02 0.  1.
       -2   -1    0    0    0  501  0.00000000000E+00  0.00000000000E+00 -0.15132059921E+04  0.15132059921E+04  0.25500000920E-02 0. -1.
    10030    2    1    2    0    0  0.00000000000E+00  0.00000000000E+00  0.87868664070E+03  0.39050986250E+04  0.38049579575E+04 0.  0.
        3    1    3    3  502    0  0.12315183474E+04  0.11293964786E+04 -0.49412839767E+03  0.17425087458E+04  0.10100000352E+00 0. -1.
       -3    1    3    3    0  502 -0.12315183474E+04 -0.11293964786E+04  0.13728150384E+04  0.21625898792E+04  0.10100000352E+00 0.  1.
</event>
<event>
 5   0  0.7675750E-08  0.3905077E+04  0.7818609E-02  0.8023974E-01
        1   -1    0    0  501    0  0.00000000000E+00  0.00000000000E+00  0.20961651385E+04  0.20961651385E+04  0.50400001928E-02 0. -1.
       -1   -1    0    0    0  501  0.00000000000E+00  0.00000000000E+00 -0.18187530036E+04  0.18187530036E+04  0.50400001928E-02 0.  1.
    10030    2    1    2    0    0  0.00000000000E+00  0.00000000000E+00  0.27741213488E+03  0.39149181421E+04  0.39050770245E+04 0.  0.
        1    1    3    3  502    0 -0.31823292165E+03 -0.18120359060E+04  0.79431152766E+03  0.20039154474E+04  0.50400001928E-02 0. -1.
       -1    1    3    3    0  502  0.31823292165E+03  0.18120359060E+04 -0.51689939278E+03  0.19110026948E+04  0.50400001928E-02 0.  1.
</event>
<event>
 5   0  0.2446281E-07  0.3896987E+04  0.7818609E-02  0.8025656E-01
        2   -1    0    0  501    0  0.00000000000E+00  0.00000000000E+00  0.25412569422E+04  0.25412569422E+04  0.25500000920E-02 0. -1.
       -2   -1    0    0    0  501  0.00000000000E+00  0.00000000000E+00 -0.14939956948E+04  0.14939956948E+04  0.25500000920E-02 0.  1.
    10030    2    1    2    0    0  0.00000000000E+00  0.00000000000E+00  0.10472612473E+04  0.40352526370E+04  0.38969870059E+04 0.  0.
        1    1    3    3  502    0 -0.70730132765E+02 -0.13456401229E+03  0.25351068816E+04  0.25396608289E+04  0.50400001928E-02 0. -1.
       -1    1    3    3    0  502  0.70730132765E+02  0.13456401229E+03 -0.14878456342E+04  0.14955918081E+04  0.50400001928E-02 0.  1.
</event>
<event>
 5   0  0.7675750E-08  0.3896816E+04  0.7818609E-02  0.8025692E-01
        1   -1    0    0  501    0  0.00000000000E+00  0.00000000000E+00  0.11763063386E+04  0.11763063386E+04  0.50400001928E-02 0. -1.
       -1   -1    0    0    0  501  0.00000000000E+00  0.00000000000E+00 -0.32273006673E+04  0.32273006673E+04  0.50400001928E-02 0.  1.
    10030    2    1    2    0    0  0.00000000000E+00  0.00000000000E+00 -0.20509943287E+04  0.44036070058E+04  0.38968162550E+04 0.  0.
        4    1    3    3  502    0  0.41454193743E+03 -0.94394184287E+03  0.84282566584E+03  0.13316260498E+04  0.12699999809E+01 0. -1.
       -4    1    3    3    0  502 -0.41454193743E+03  0.94394184287E+03 -0.28938199945E+04  0.30719809560E+04  0.12699999809E+01 0.  1.
</event>
<event>
 5   0  0.2395572E-07  0.4042954E+04  0.7818609E-02  0.7995937E-01
       -2   -1    0    0    0  501  0.00000000000E+00  0.00000000000E+00  0.20580944922E+04  0.20580944922E+04  0.25500000920E-02 0. -1.
        2   -1    0    0  501    0  0.00000000000E+00  0.00000000000E+00 -0.19855108886E+04  0.19855108886E+04  0.25500000920E-02 0.  1.
    10030    2    1    2    0    0  0.00000000000E+00  0.00000000000E+00  0.72583603549E+02  0.40436053808E+04  0.40429538826E+04 0.  0.
        3    1    3    3  502    0 -0.12666607545E+03 -0.54664775794E+01 -0.19815304775E+04  0.19855823379E+04  0.10100000352E+00 0.  1.
       -3    1    3    3    0  502  0.12666607545E+03  0.54664775794E+01  0.20541140811E+04  0.20580230429E+04  0.10100000352E+00 0. -1.
</event>
<event>
 5   0  0.2384787E-07  0.3896612E+04  0.7818609E-02  0.8025734E-01
       -2   -1    0    0    0  501  0.00000000000E+00  0.00000000000E+00  0.23817813426E+04  0.23817813426E+04  0.25500000920E-02 0.  1.
        2   -1    0    0  501    0  0.00000000000E+00  0.00000000000E+00 -0.15937217499E+04  0.15937217499E+04  0.25500000920E-02 0. -1.
    10030    2    1    2    0    0  0.00000000000E+00  0.00000000000E+00  0.78805959275E+03  0.39755030925E+04  0.38966122359E+04 0.  0.
        4    1    3    3  502    0  0.17183972253E+04 -0.66945255829E+03  0.10351140765E+04  0.21148329759E+04  0.12699999809E+01 0.  1.
       -4    1    3    3    0  502 -0.17183972253E+04  0.66945255829E+03 -0.24705448375E+03  0.18606701166E+04  0.12699999809E+01 0. -1.
</event>
<event>
 5   0  0.7731706E-08  0.3899102E+04  0.7818609E-02  0.8025216E-01
       -1   -1    0    0    0  501  0.00000000000E+00  0.00000000000E+00  0.15036698117E+04  0.15036698117E+04  0.50400001928E-02 0. -1.
        1   -1    0    0  501    0  0.00000000000E+00  0.00000000000E+00 -0.25276483229E+04  0.25276483229E+04  0.50400001928E-02 0.  1.
    10030    2    1    2    0    0  0.00000000000E+00  0.00000000000E+00 -0.10239785112E+04  0.40313181346E+04  0.38991016801E+04 0.  0.
        3    1    3    3  502    0  0.32742974044E+03 -0.13729466816E+04  0.87843856502E+03  0.16624822249E+04  0.10100000352E+00 0. -1.
       -3    1    3    3    0  502 -0.32742974044E+03  0.13729466816E+04 -0.19024170762E+04  0.23688359098E+04  0.10100000352E+00 0.  1.
</event>
<event>
 5   0  0.2446281E-07  0.3313441E+04  0.7818609E-02  0.8159484E-01
        2   -1    0    0  501    0  0.00000000000E+00  0.00000000000E+00  0.26159817727E+04  0.26159817727E+04  0.25500000920E-02 0.  1.
       -2   -1    0    0    0  501  0.00000000000E+00  0.00000000000E+00 -0.10492132444E+04  0.10492132444E+04  0.25500000920E-02 0. -1.
    10030    2    1    2    0    0  0.00000000000E+00  0.00000000000E+00  0.15667685283E+04  0.36651950171E+04  0.33134409444E+04 0.  0.
        1    1    3    3  502    0 -0.12222352190E+04 -0.97584082419E+03  0.13878360263E+04  0.20909837591E+04  0.50400001928E-02 0.  1.
       -1    1    3    3    0  502  0.12222352190E+04  0.97584082419E+03  0.17893250204E+03  0.15742112581E+04  0.50400001928E-02 0. -1.
</event>
<event>
 5   0  0.7675750E-08  0.3962261E+04  0.7818609E-02  0.8012203E-01
        1   -1    0    0  501    0  0.00000000000E+00  0.00000000000E+00  0.25249012703E+04  0.25249012703E+04  0.50400001928E-02 0. -1.
       -1   -1    0    0    0  501  0.00000000000E+00  0.00000000000E+00 -0.15544681393E+04  0.15544681394E+04  0.50400001928E-02 0.  1.
    10030    2    1    2    0    0  0.00000000000E+00  0.00000000000E+00  0.97043313095E+03  0.40793694097E+04  0.39622612633E+04 0.  0.
        5    1    3    3  502    0  0.16810067612E+04 -0.10207936602E+04  0.73113404793E+03  0.20981855290E+04  0.46999998093E+01 0. -1.
       -5    1    3    3    0  502 -0.16810067612E+04  0.10207936602E+04  0.23929908301E+03  0.19811838807E+04  0.46999998093E+01 0.  1.
</event>
<event>
 5   0  0.7675750E-08  0.3655720E+04  0.7818609E-02  0.8077846E-01
       -1   -1    0    0    0  501  0.00000000000E+00  0.00000000000E+00  0.16685235810E+04  0.16685235811E+04  0.50400001928E-02 0. -1.
        1   -1    0    0  501    0  0.00000000000E+00  0.00000000000E+00 -0.20024127150E+04  0.20024127150E+04  0.50400001928E-02 0.  1.
    10030    2    1    2    0    0  0.00000000000E+00  0.00000000000E+00 -0.33388913392E+03  0.36709362960E+04  0.36557203580E+04 0.  0.
        5    1    3    3  502    0  0.20157748336E+03 -0.13225468088E+04 -0.14176354538E+04  0.19492244389E+04  0.46999998093E+01 0.  1.
       -5    1    3    3    0  502 -0.20157748336E+03  0.13225468088E+04  0.10837463199E+04  0.17217118572E+04  0.46999998093E+01 0. -1.
</event>
<event>
 5   0  0.7675750E-08  0.3897818E+04  0.7818609E-02  0.8025483E-01
       -1   -1    0    0    0  501  0.00000000000E+00  0.00000000000E+00  0.15776612014E+04  0.15776612014E+04  0.50400001928E-02 0. -1.
        1   -1    0    0  501    0  0.00000000000E+00  0.00000000000E+00 -0.24075171840E+04  0.24075171840E+04  0.50400001928E-02 0.  1.
    10030    2    1    2    0    0  0.00000000000E+00  0.00000000000E+00 -0.82985598264E+03  0.39851783854E+04  0.38978180835E+04 0.  0.
        1    1    3    3  502    0 -0.14423780974E+04 -0.62343166586E+03  0.76378775839E+03  0.17471386201E+04  0.50400001928E-02 0. -1.
       -1    1    3    3    0  502  0.14423780974E+04  0.62343166586E+03 -0.15936437410E+04  0.22380397653E+04  0.50400001928E-02 0.  1.
</event>
<event>
 5   0  0.7731706E-08  0.3911156E+04  0.7818609E-02  0.8022713E-01
        1   -1    0    0  501    0  0.00000000000E+00  0.00000000000E+00  0.16139004532E+04  0.16139004532E+04  0.50400001928E-02 0.  1.
       -1   -1    0    0    0  501  0.00000000000E+00  0.00000000000E+00 -0.23695913653E+04  0.23695913653E+04  0.50400001928E-02 0. -1.
    10030    2    1    2    0    0  0.00000000000E+00  0.00000000000E+00 -0.75569091215E+03  0.39834918185E+04  0.39111556238E+04 0.  0.
        3    1    3    3  502    0 -0.18725470532E+04 -0.41535130648E+03  0.10434103973E+02  0.19180870822E+04  0.10100000352E+00 0. -1.
       -3    1    3    3    0  502  0.18725470532E+04  0.41535130648E+03 -0.76612501612E+03  0.20654047363E+04  0.10100000352E+00 0.  1.
</event>
<event>
 5   0  0.7731706E-08  0.3927300E+04  0.7818609E-02  0.8019375E-01
       -1   -1    0    0    0  501  0.00000000000E+00  0.00000000000E+00  0.14861355752E+04  0.14861355752E+04  0.50400001928E-02 0. -1.
        1   -1    0    0  501    0  0.00000000000E+00  0.00000000000E+00 -0.25945964129E+04  0.25945964130E+04  0.50400001928E-02 0.  1.
    10030    2    1    2    0    0  0.00000000000E+00  0.00000000000E+00 -0.11084608378E+04  0.40807319881E+04  0.39273003616E+04 0.  0.
        3    1    3    3  502    0  0.18670600538E+04  0.25031398054E+03 -0.11302825091E+04  0.21968406619E+04  0.10100000352E+00 0.  1.
       -3    1    3    3    0  502 -0.18670600538E+04 -0.25031398054E+03  0.21821671340E+02  0.18838913262E+04  0.10100000352E+00 0. -1.
</event>
<event>
 5   0  0.7675750E-08  0.3863370E+04  0.7818609E-02  0.8032691E-01
       -1   -1    0    0    0  501  0.00000000000E+00  0.00000000000E+00  0.15853280247E+04  0.15853280247E+04  0.50400001928E-02 0. -1.
        1   -1    0    0  501    0  0.00000000000E+00  0.00000000000E+00 -0.23537124566E+04  0.23537124567E+04  0.50400001928E-02 0.  1.
    10030    2    1    2    0    0  0.00000000000E+00  0.00000000000E+00 -0.76838443194E+03  0.39390404814E+04  0.38633696793E+04 0.  0.
        4    1    3    3  502    0 -0.93807057004E+03 -0.15286760740E+04  0.34719891333E+03  0.18268485520E+04  0.12699999809E+01 0. -1.
       -4    1    3    3    0  502  0.93807057004E+03  0.15286760740E+04 -0.11155833453E+04  0.21121919294E+04  0.12699999809E+01 0.  1.
</event>
<event>
 5   0  0.7731706E-08  0.3959890E+04  0.7818609E-02  0.8012687E-01
       -1   -1    0    0    0  501  0.00000000000E+00  0.00000000000E+00  0.29781207769E+04  0.29781207769E+04  0.50400001928E-02 0.  1.
        1   -1    0    0  501    0  0.00000000000E+00  0.00000000000E+00 -0.13163276952E+04  0.13163276953E+04  0.50400001928E-02 0. -1.
    10030    2    1    2    0    0  0.00000000000E+00  0.00000000000E+00  0.16617930816E+04  0.42944484722E+04  0.39598903310E+04 0.  0.
        3    1    3    3  502    0 -0.41528143352E+03  0.83181173282E+02 -0.12666266777E+04  0.13355601549E+04  0.10100000352E+00 0. -1.
       -3    1    3    3    0  502  0.41528143352E+03 -0.83181173282E+02  0.29284197593E+04  0.29588883172E+04  0.10100000352E+00 0.  1.
</event>
<event>
 5   0  0.7675750E-08  0.3871073E+04  0.7818609E-02  0.8031073E-01
       -1   -1    0    0    0  501  0.00000000000E+00  0.00000000000E+00  0.25510853924E+04  0.25510853924E+04  0.50400001928E-02 0.  1.
        1   -1    0    0  501    0  0.00000000000E+00  0.00000000000E+00 -0.14685126449E+04  0.14685126449E+04  0.50400001928E-02 0. -1.
    10030    2    1    2    0    0  0.00000000000E+00  0.00000000000E+00  0.10825727475E+04  0.40195980373E+04  0.38710728006E+04 0.  0.
        1    1    3    3  502    0 -0.41178999846E+03 -0.69723541809E+03 -0.12841730744E+04  0.15181596477E+04  0.50400001928E-02 0. -1.
       -1    1    3    3    0  502  0.41178999846E+03  0.69723541809E+03  0.23667458219E+04  0.25014383895E+04  0.50400001928E-02 0.  1.
</event>
<event>
 5   0  0.7675750E-08  0.3867450E+04  0.7818609E-02  0.8031833E-01
        1   -1    0    0  501    0  0.00000000000E+00  0.00000000000E+00  0.12340313755E+04  0.12340313755E+04  0.50400001928E-02 0.  1.
       -1   -1    0    0    0  501  0.00000000000E+00  0.00000000000E+00 -0.30301430878E+04  0.30301430878E+04  0.50400001928E-02 0. -1.
    10030    2    1    2    0    0  0.00000000000E+00  0.00000000000E+00 -0.17961117123E+04  0.42641744633E+04  0.38674496209E+04 0.  0.
        5    1    3    3  502    0  0.83602082416E+03  0.16555022836E+04 -0.15016126043E+04  0.23863111978E+04  0.46999998093E+01 0. -1.
       -5    1    3    3    0  502 -0.83602082416E+03 -0.16555022836E+04 -0.29449910801E+03  0.18778632655E+04  0.46999998093E+01 0.  1.
</event>
<event>
 5   0  0.2395572E-07  0.3700921E+04  0.7818609E-02  0.8067758E-01
        2   -1    0    0  501    0  0.00000000000E+00  0.00000000000E+00  0.22376738468E+04  0.22376738468E+04  0.25500000920E-02 0.  1.
       -2   -1    0    0    0  501  0.00000000000E+00  0.00000000000E+00 -0.15302513587E+04  0.15302513587E+04  0.25500000920E-02 0. -1.
    10030    2    1    2    0    0  0.00000000000E+00  0.00000000000E+00  0.70742248809E+03  0.37679252056E+04  0.37009206663E+04 0.  0.
        3    1    3    3  502    0 -0.10240351805E+04 -0.57408911886E+03 -0.11025620274E+04  0.16105494099E+04  0.10100000352E+00 0. -1.
       -3    1    3    3    0  502  0.10240351805E+04  0.57408911886E+03  0.18099845155E+04  0.21573757957E+04  0.10100000352E+00 0.  1.
</event>
<event>
 5   0  0.2473224E-07  0.3654675E+04  0.7818609E-02  0.8078081E-01
        2   -1    0    0  501    0  0.00000000000E+00  0.00000000000E+00  0.22572349305E+04  0.22572349305E+04  0.25500000920E-02 0.  1.
       -2   -1    0    0    0  501  0.00000000000E+00  0.00000000000E+00 -0.14793154429E+04  0.14793154429E+04  0.25500000920E-02 0. -1.
    10030    2    1    2    0    0  0.00000000000E+00  0.00000000000E+00  0.77791948767E+03  0.37365503734E+04  0.36546750832E+04 0.  0.
        2    1    3    3  502    0  0.55726933283E+03  0.13731189502E+04 -0.70417864949E+03  0.16406926376E+04  0.25500000920E-02 0.  1.
       -2    1    3    3    0  502 -0.55726933283E+03 -0.13731189502E+04  0.14820981372E+04  0.20958577358E+04  0.25500000920E-02 0. -1.
</event>
<event>
 5   0  0.7675750E-08  0.3883941E+04  0.7818609E-02  0.8028377E-01
       -1   -1    0    0    0  501  0.00000000000E+00  0.00000000000E+00  0.19530571546E+04  0.19530571547E+04  0.50400001928E-02 0.  1.
        1   -1    0    0  501    0  0.00000000000E+00  0.00000000000E+00 -0.19309469889E+04  0.19309469890E+04  0.50400001928E-02 0. -1.
    10030    2    1    2    0    0  0.00000000000E+00  0.00000000000E+00  0.22110165698E+02  0.38840041436E+04  0.38839412107E+04 0.  0.
        5    1    3    3  502    0  0.75834971099E+03  0.98088099551E+03  0.15057384366E+04  0.19505107385E+04  0.46999998093E+01 0.  1.
       -5    1    3    3    0  502 -0.75834971099E+03 -0.98088099551E+03 -0.14836282709E+04  0.19334934051E+04  0.46999998093E+01 0. -1.
</event>
<event>
 5   0  0.2395572E-07  0.3749457E+04  0.7818609E-02  0.8057089E-01
        2   -1    0    0  501    0  0.00000000000E+00  0.00000000000E+00  0.27315244858E+04  0.27315244858E+04  0.25500000920E-02 0. -1.
       -2   -1    0    0    0  501  0.00000000000E+00  0.00000000000E+00 -0.12866832205E+04  0.12866832205E+04  0.25500000920E-02 0.  1.
    10030    2    1    2    0    0  0.00000000000E+00  0.00000000000E+00  0.14448412654E+04  0.40182077063E+04  0.37494568792E+04 0.  0.
        3    1    3    3  502    0  0.96308826385E+03 -0.16084322992E+04  0.72632114152E+03  0.20105063730E+04  0.10100000352E+00 0.  1.
       -3    1    3    3    0  502 -0.96308826385E+03  0.16084322992E+04  0.71852012384E+03  0.20077013333E+04  0.10100000352E+00 0. -1.
</event>
<event>
 5   0  0.2446281E-07  0.3860919E+04  0.7818609E-02  0.8033207E-01
       -2   -1    0    0    0  501  0.00000000000E+00  0.00000000000E+00  0.14220791876E+04  0.14220791876E+04  0.25500000920E-02 0.  1.
        2   -1    0    0  501    0  0.00000000000E+00  0.00000000000E+00 -0.26205809346E+04  0.26205809346E+04  0.25500000920E-02 0. -1.
    10030    2    1    2    0    0  0.00000000000E+00  0.00000000000E+00 -0.11985017470E+04  0.40426601221E+04  0.38609188577E+04 0.  0.
        1    1    3    3  502    0  0.94061910674E+03 -0.15024290971E+04  0.20134241622E+03  0.17839832579E+04  0.50400001928E-02 0.  1.
       -1    1    3    3    0  502 -0.94061910674E+03  0.15024290971E+04 -0.13998441632E+04  0.22586768643E+04  0.50400001928E-02 0. -1.
</event>
<event>
 5   0  0.2384787E-07  0.3862867E+04  0.7818609E-02  0.8032797E-01
        2   -1    0    0  501    0  0.00000000000E+00  0.00000000000E+00  0.25558083565E+04  0.25558083565E+04  0.25500000920E-02 0. -1.
       -2   -1    0    0    0  501  0.00000000000E+00  0.00000000000E+00 -0.14595909070E+04  0.14595909070E+04  0.25500000920E-02 0.  1.
    10030    2    1    2    0    0  0.00000000000E+00  0.00000000000E+00  0.10962174495E+04  0.40153992636E+04  0.38628666233E+04 0.  0.
        4    1    3    3  502    0  0.14139818450E+04 -0.68438397670E+03  0.17161825856E+04  0.23265877085E+04  0.12699999809E+01 0. -1.
       -4    1    3    3    0  502 -0.14139818450E+04  0.68438397670E+03 -0.61996513611E+03  0.16888115550E+04  0.12699999809E+01 0.  1.
</event>
<event>
 5   0  0.2473224E-07  0.3880453E+04  0.7818609E-02  0.8029107E-01
       -2   -1    0    0    0  501  0.00000000000E+00  0.00000000000E+00  0.30825626598E+04  0.30825626598E+04  0.25500000920E-02 0. -1.
        2   -1    0    0  501    0  0.00000000000E+00  0.00000000000E+00 -0.12212175135E+04  0.12212175135E+04  0.25500000920E-02 0.  1.
    10030    2    1    2    0    0  0.00000000000E+00  0.00000000000E+00  0.18613451463E+04  0.43037801732E+04  0.38804533274E+04 0.  0.
        2    1    3    3  502    0 -0.97695488998E+03 -0.45119041188E+03 -0.85990704539E+03  0.13774809514E+04  0.25500000920E-02 0.  1.
       -2    1    3    3    0  502  0.97695488998E+03  0.45119041188E+03  0.27212521917E+04  0.29262992218E+04  0.25500000920E-02 0. -1.
</event>
<event>
 5   0  0.7675750E-08  0.3874652E+04  0.7818609E-02  0.8030322E-01
       -1   -1    0    0    0  501  0.00000000000E+00  0.00000000000E+00  0.19375233830E+04  0.19375233830E+04  0.50400001928E-02 0.  1.
        1   -1    0    0  501    0  0.00000000000E+00  0.00000000000E+00 -0.19371289261E+04  0.19371289261E+04  0.50400001928E-02 0. -1.
    10030    2    1    2    0    0  0.00000000000E+00  0.00000000000E+00  0.39445697767E+00  0.38746523091E+04  0.38746522890E+04 0.  0.
        5    1    3    3  502    0 -0.95208294359E+03 -0.12572819559E+04  0.11253597346E+04  0.19374407011E+04  0.46999998093E+01 0.  1.
       -5    1    3    3    0  502  0.95208294359E+03  0.12572819559E+04 -0.11249652776E+04  0.19372116080E+04  0.46999998093E+01 0. -1.
</event>
<event>
 5   0  0.2473224E-07  0.3906293E+04  0.7818609E-02  0.8023722E-01
       -2   -1    0    0    0  501  0.00000000000E+00  0.00000000000E+00  0.30769091168E+04  0.30769091168E+04  0.25500000920E-02 0. -1.
        2   -1    0    0  501    0  0.00000000000E+00  0.00000000000E+00 -0.12398092759E+04  0.12398092759E+04  0.25500000920E-02 0.  1.
    10030    2    1    2    0    0  0.00000000000E+00  0.00000000000E+00  0.18370998409E+04  0.43167183927E+04  0.39062925974E+04 0.  0.
        2    1    3    3  502    0 -0.26537456386E+03  0.18530983391E+04  0.30289386463E+03  0.18963496003E+04  0.25500000920E-02 0.  1.
       -2    1    3    3    0  502  0.26537456386E+03 -0.18530983391E+04  0.15342059762E+04  0.24203687923E+04  0.25500000920E-02 0. -1.
</event>
<event>
 5   0  0.7675750E-08  0.3874803E+04  0.7818609E-02  0.8030290E-01
       -1   -1    0    0    0  501  0.00000000000E+00  0.00000000000E+00  0.18224450380E+04  0.18224450380E+04  0.50400001928E-02 0. -1.
        1   -1    0    0  501    0  0.00000000000E+00  0.00000000000E+00 -0.20596094426E+04  0.20596094426E+04  0.50400001928E-02 0.  1.
    10030    2    1    2    0    0  0.00000000000E+00  0.00000000000E+00 -0.23716440461E+03  0.38820544806E+04  0.38748032253E+04 0.  0.
        5    1    3    3  502    0  0.14378923324E+04  0.12303098343E+04  0.29729251166E+03  0.19156204152E+04  0.46999998093E+01 0.  1.
       -5    1    3    3    0  502 -0.14378923324E+04 -0.12303098343E+04 -0.53445691627E+03  0.19664340653E+04  0.46999998093E+01 0. -1.
</event>
<event>
 5   0  0.7675750E-08  0.3894965E+04  0.7818609E-02  0.8026077E-01
       -1   -1    0    0    0  501  0.00000000000E+00  0.00000000000E+00  0.22528419403E+04  0.22528419403E+04  0.50400001928E-02 0. -1.
        1   -1    0    0  501    0  0.00000000000E+00  0.00000000000E+00 -0.16835126901E+04  0.16835126901E+04  0.50400001928E-02 0.  1.
    10030    2    1    2    0    0  0.00000000000E+00  0.00000000000E+00  0.56932925018E+03  0.39363546304E+04  0.38949649525E+04 0.  0.
        4    1    3    3  502    0 -0.13958639438E+04 -0.93032352422E+03  0.12844946857E+04  0.21127863640E+04  0.12699999809E+01 0. -1.
       -4    1    3    3    0  502  0.13958639438E+04  0.93032352422E+03 -0.71516543551E+03  0.18235682664E+04  0.12699999809E+01 0.  1.
</event>
<event>
 5   0  0.7675750E-08  0.3998721E+04  0.7818609E-02  0.8004805E-01
        1   -1    0    0  501    0  0.00000000000E+00  0.00000000000E+00  0.12913524481E+04  0.12913524481E+04  0.50400001928E-02 0.  1.
       -1   -1    0    0    0  501  0.00000000000E+00  0.00000000000E+00 -0.30955478946E+04  0.30955478946E+04  0.50400001928E-02 0. -1.
    10030    2    1    2    0    0  0.00000000000E+00  0.00000000000E+00 -0.18041954465E+04  0.43869003427E+04  0.39987214716E+04 0.  0.
        2    1    3    3  502    0 -0.88215309568E+03  0.55955801705E+03  0.96813299464E+03  0.14242825401E+04  0.25500000920E-02 0.  1.
       -2    1    3    3    0  502  0.88215309568E+03 -0.55955801705E+03 -0.27723284412E+04  0.29626178026E+04  0.25500000920E-02 0. -1.
</event>
<event>
 5   0  0.7675750E-08  0.3893907E+04  0.7818609E-02  0.8026298E-01
        1   -1    0    0  501    0  0.00000000000E+00  0.00000000000E+00  0.28620212202E+04  0.28620212202E+04  0.50400001928E-02 0.  1.
       -1   -1    0    0    0  501  0.00000000000E+00  0.00000000000E+00 -0.13244581618E+04  0.13244581618E+04  0.50400001928E-02 0. -1.
    10030    2    1    2    0    0  0.00000000000E+00  0.00000000000E+00  0.15375630585E+04  0.41864793820E+04  0.38939067089E+04 0.  0.
        4    1    3    3  502    0  0.22272245820E+03 -0.13384300212E+04 -0.73242006394E+03  0.15418952552E+04  0.12699999809E+01 0. -1.
       -4    1    3    3    0  502 -0.22272245820E+03  0.13384300212E+04  0.22699831224E+04  0.26445841268E+04  0.12699999809E+01 0.  1.
</event>
<event>
 5   0  0.2446281E-07  0.3833795E+04  0.7818609E-02  0.8038941E-01
       -2   -1    0    0    0  501  0.00000000000E+00  0.00000000000E+00  0.13300050066E+04  0.13300050066E+04  0.25500000920E-02 0. -1.
        2   -1    0    0  501    0  0.00000000000E+00  0.00000000000E+00 -0.27627687207E+04  0.27627687207E+04  0.25500000920E-02 0.  1.
    10030    2    1    2    0    0  0.00000000000E+00  0.00000000000E+00 -0.14327637142E+04  0.40927737273E+04  0.38337951070E+04 0.  0.
        1    1    3    3  502    0  0.15061726891E+04 -0.11592062664E+04 -0.98258753486E+03  0.21395779025E+04  0.50400001928E-02 0.  1.
       -1    1    3    3    0  502 -0.15061726891E+04  0.11592062664E+04 -0.45017617933E+03  0.19531958248E+04  0.50400001928E-02 0. -1.
</event>
<event>
 5   0  0.2384787E-07  0.3863821E+04  0.7818609E-02  0.8032596E-01
       -2   -1    0    0    0  501  0.00000000000E+00  0.00000000000E+00  0.15807689642E+04  0.15807689642E+04  0.25500000920E-02 0.  1.
        2   -1    0    0  501    0  0.00000000000E+00  0.00000000000E+00 -0.23610525189E+04  0.23610525189E+04  0.25500000920E-02 0. -1.
    10030    2    1    2    0    0  0.00000000000E+00  0.00000000000E+00 -0.78028355476E+03  0.39418214831E+04  0.38638211888E+04 0.  0.
        4    1    3    3  502    0  0.13958700929E+04 -0.13310287644E+04 -0.27752287176E+03  0.19486178294E+04  0.12699999809E+01 0. -1.
       -4    1    3    3    0  502 -0.13958700929E+04  0.13310287644E+04 -0.50276068300E+03  0.19932036537E+04  0.12699999809E+01 0.  1.
</event>
<event>
 5   0  0.7731706E-08  0.3904420E+04  0.7818609E-02  0.8024111E-01
        1   -1    0    0  501    0  0.00000000000E+00  0.00000000000E+00  0.30516861201E+04  0.30516861201E+04  0.50400001928E-02 0. -1.
       -1   -1    0    0    0  501  0.00000000000E+00  0.00000000000E+00 -0.12488581516E+04  0.12488581516E+04  0.50400001928E-02 0.  1.
    10030    2    1    2    0    0  0.00000000000E+00  0.00000000000E+00  0.18028279685E+04  0.43005442717E+04  0.39044195919E+04 0.  0.
        3    1    3    3  502    0 -0.18911061525E+04 -0.17983648961E+03  0.13970682480E+04  0.23580549915E+04  0.10100000352E+00 0. -1.
       -3    1    3    3    0  502  0.18911061525E+04  0.17983648961E+03  0.40575972044E+03  0.19424892803E+04  0.10100000352E+00 0.  1.
</event>
<event>
 5   0  0.2395572E-07  0.3881567E+04  0.7818609E-02  0.8028874E-01
        2   -1    0    0  501    0  0.00000000000E+00  0.00000000000E+00  0.17735403792E+04  0.17735403792E+04  0.25500000920E-02 0. -1.
       -2   -1    0    0    0  501  0.00000000000E+00  0.00000000000E+00 -0.21237977906E+04  0.21237977906E+04  0.25500000920E-02 0.  1.
    10030    2    1    2    0    0  0.00000000000E+00  0.00000000000E+00 -0.35025741139E+03  0.38973381699E+04  0.38815672809E+04 0.  0.
        3    1    3    3  502    0  0.37275580085E+03 -0.96379795259E+03  0.14743447746E+04  0.18004293669E+04  0.10100000352E+00 0. -1.
       -3    1    3    3    0  502 -0.37275580085E+03  0.96379795259E+03 -0.18246021860E+04  0.20969088030E+04  0.10100000352E+00 0.  1.
</event>
<event>
 5   0  0.7731706E-08  0.3931366E+04  0.7818609E-02  0.8018537E-01
       -1   -1    0    0    0  501  0.00000000000E+00  0.00000000000E+00  0.15293834963E+04  0.15293834963E+04  0.50400001928E-02 0. -1.
        1   -1    0    0  501    0  0.00000000000E+00  0.00000000000E+00 -0.25264496475E+04  0.25264496475E+04  0.50400001928E-02 0.  1.
    10030    2    1    2    0    0  0.00000000000E+00  0.00000000000E+00 -0.99706615123E+03  0.40558331438E+04  0.39313663757E+04 0.  0.
        3    1    3    3  502    0 -0.10656762739E+04 -0.15091733420E+04  0.19401761834E+03  0.18576633020E+04  0.10100000352E+00 0. -1.
       -3    1    3    3    0  502  0.10656762739E+04  0.15091733420E+04 -0.11910837696E+04  0.21981698418E+04  0.10100000352E+00 0.  1.
</event>
<event>
 5   0  0.7675750E-08  0.3867835E+04  0.7818609E-02  0.8031752E-01
       -1   -1    0    0    0  501  0.00000000000E+00  0.00000000000E+00  0.21218279856E+04  0.21218279856E+04  0.50400001928E-02 0.  1.
        1   -1    0    0  501    0  0.00000000000E+00  0.00000000000E+00 -0.17626480456E+04  0.17626480456E+04  0.50400001928E-02 0. -1.
    10030    2    1    2    0    0  0.00000000000E+00  0.00000000000E+00  0.35917993999E+03  0.38844760313E+04  0.38678345115E+04 0.  0.
        2    1    3    3  502    0  0.71929352721E+03  0.15532737090E+04 -0.72427872369E+03  0.18586613632E+04  0.25500000920E-02 0. -1.
       -2    1    3    3    0  502 -0.71929352721E+03 -0.15532737090E+04  0.10834586637E+04  0.20258146681E+04  0.25500000920E-02 0.  1.
</event>
<event>
 5   0  0.2473224E-07  0.3880767E+04  0.7818609E-02  0.8029041E-01
       -2   -1    0    0    0  501  0.00000000000E+00  0.00000000000E+00  0.17891468876E+04  0.17891468876E+04  0.25500000920E-02 0.  1.
        2   -1    0    0  501    0  0.00000000000E+00  0.00000000000E+00 -0.21044045917E+04  0.21044045917E+04  0.25500000920E-02 0. -1.
    10030    2    1    2    0    0  0.00000000000E+00  0.00000000000E+00 -0.31525770412E+03  0.38935514794E+04  0.38807674115E+04 0.  0.
        2    1    3    3  502    0  0.71981734594E+03 -0.15388795072E+04 -0.10981612707E+04  0.20229298865E+04  0.25500000920E-02 0.  1.
       -2    1    3    3    0  502 -0.71981734594E+03  0.15388795072E+04  0.78290356657E+03  0.18706215929E+04  0.25500000920E-02 0. -1.
</event>
<event>
 5   0  0.7675750E-08  0.3885189E+04  0.7818609E-02  0.8028117E-01
        3   -1    0    0  501    0  0.00000000000E+00  0.00000000000E+00  0.22938471440E+04  0.22938471462E+04  0.10100000352E+00 0. -1.
       -3   -1    0    0    0  501  0.00000000000E+00  0.00000000000E+00 -0.16451288020E+04  0.16451288051E+04  0.10100000352E+00 0.  1.
    10030    2    1    2    0    0  0.00000000000E+00  0.00000000000E+00  0.64871834192E+03  0.39389759513E+04  0.38851893207E+04 0.  0.
        5    1    3    3  502    0  0.19053772203E+04  0.23646019844E+03  0.62387441205E+03  0.20188157789E+04  0.46999998093E+01 0. -1.
       -5    1    3    3    0  502 -0.19053772203E+04 -0.23646019844E+03  0.24843929873E+02  0.19201601724E+04  0.46999998093E+01 0.  1.
</event>
<event>
 5   0  0.7675750E-08  0.3801513E+04  0.7818609E-02  0.8045830E-01
       -1   -1    0    0    0  501  0.00000000000E+00  0.00000000000E+00  0.15839551005E+04  0.15839551005E+04  0.50400001928E-02 0. -1.
        1   -1    0    0  501    0  0.00000000000E+00  0.00000000000E+00 -0.22809202302E+04  0.22809202302E+04  0.50400001928E-02 0.  1.
    10030    2    1    2    0    0  0.00000000000E+00  0.00000000000E+00 -0.69696512968E+03  0.38648753307E+04  0.38015129790E+04 0.  0.
        1    1    3    3  502    0 -0.65468434854E+03  0.98107578573E+03  0.11669164174E+04  0.16591609985E+04  0.50400001928E-02 0. -1.
       -1    1    3    3    0  502  0.65468434854E+03 -0.98107578573E+03 -0.18638815471E+04  0.22057143322E+04  0.50400001928E-02 0.  1.
</event>
<event>
 5   0  0.2384787E-07  0.3910203E+04  0.7818609E-02  0.8022910E-01
       -2   -1    0    0    0  501  0.00000000000E+00  0.00000000000E+00  0.17417754367E+04  0.17417754367E+04  0.25500000920E-02 0.  1.
        2   -1    0    0  501    0  0.00000000000E+00  0.00000000000E+00 -0.21945550935E+04  0.21945550935E+04  0.25500000920E-02 0. -1.
    10030    2    1    2    0    0  0.00000000000E+00  0.00000000000E+00 -0.45277965675E+03  0.39363305302E+04  0.39102031438E+04 0.  0.
        4    1    3    3  502    0 -0.94701385774E+02 -0.15074798709E+04  0.10232574450E+04  0.18244235597E+04  0.12699999809E+01 0.  1.
       -4    1    3    3    0  502  0.94701385774E+02  0.15074798709E+04 -0.14760371017E+04  0.21119069705E+04  0.12699999809E+01 0. -1.
</event>
<event>
 5   0  0.7675750E-08  0.3905937E+04  0.7818609E-02  0.8023796E-01
        1   -1    0    0  501    0  0.00000000000E+00  0.00000000000E+00  0.13400141563E+04  0.13400141563E+04  0.50400001928E-02 0.  1.
       -1   -1    0    0    0  501  0.00000000000E+00  0.00000000000E+00 -0.28463023585E+04  0.28463023585E+04  0.50400001928E-02 0. -1.
    10030    2    1    2    0    0  0.00000000000E+00  0.00000000000E+00 -0.15062882022E+04  0.41863165148E+04  0.39059367396E+04 0.  0.
        1    1    3    3  502    0 -0.15938456405E+04 -0.10904680019E+04 -0.44136564812E+03  0.19809765330E+04  0.50400001928E-02 0. -1.
       -1    1    3    3    0  502  0.15938456405E+04  0.10904680019E+04 -0.10649225541E+04  0.22053399818E+04  0.50400001928E-02 0.  1.
</event>
<event>
 5   0  0.2384787E-07  0.3834845E+04  0.7818609E-02  0.8038718E-01
        2   -1    0    0  501    0  0.00000000000E+00  0.00000000000E+00  0.24090041286E+04  0.24090041286E+04  0.25500000920E-02 0.  1.
       -2   -1    0    0    0  501  0.00000000000E+00  0.00000000000E+00 -0.15261527237E+04  0.15261527237E+04  0.25500000920E-02 0. -1.
    10030    2    1    2    0    0  0.00000000000E+00  0.00000000000E+00  0.88285140487E+03  0.39351568523E+04  0.38348445665E+04 0.  0.
        4    1    3    3  502    0 -0.34963989554E+03  0.11282128661E+04  0.19913641633E+04  0.23153067122E+04  0.12699999809E+01 0.  1.
       -4    1    3    3    0  502  0.34963989554E+03 -0.11282128661E+04 -0.11085127584E+04  0.16198501401E+04  0.12699999809E+01 0. -1.
</event>
<event>
 5   0  0.2486268E-07  0.3912465E+04  0.7818609E-02  0.8022442E-01
       -2   -1    0    0    0  501  0.00000000000E+00  0.00000000000E+00  0.14261611393E+04  0.14261611393E+04  0.25500000920E-02 0. -1.
        2   -1    0    0  501    0  0.00000000000E+00  0.00000000000E+00 -0.26833192391E+04  0.26833192391E+04  0.25500000920E-02 0.  1.
    10030    2    1    2    0    0  0.00000000000E+00  0.00000000000E+00 -0.12571580998E+04  0.41094803784E+04  0.39124650148E+04 0.  0.
        5    1    3    3  502    0  0.67455088214E+03  0.37012933278E+03  0.12605462307E+04  0.14768254824E+04  0.46999998093E+01 0. -1.
       -5    1    3    3    0  502 -0.67455088214E+03 -0.37012933278E+03 -0.25177043305E+04  0.26326548960E+04  0.46999998093E+01 0.  1.
</event>
<event>
 5   0  0.7675750E-08  0.3934201E+04  0.7818609E-02  0.8017953E-01
        1   -1    0    0  501    0  0.00000000000E+00  0.00000000000E+00  0.26616589294E+04  0.26616589294E+04  0.50400001928E-02 0.  1.
       -1   -1    0    0    0  501  0.00000000000E+00  0.00000000000E+00 -0.14537869285E+04  0.14537869285E+04  0.50400001928E-02 0. -1.
    10030    2    1    2    0    0  0.00000000000E+00  0.00000000000E+00  0.12078720009E+04  0.41154458579E+04  0.39342012961E+04 0.  0.
        4    1    3    3  502    0 -0.14878127396E+04 -0.12771672231E+04  0.76847331273E+03  0.21060141760E+04  0.12699999809E+01 0. -1.
       -4    1    3    3    0  502  0.14878127396E+04  0.12771672231E+04  0.43939868818E+03  0.20094316819E+04  0.12699999809E+01 0.  1.
</event>
<event>
 5   0  0.2486268E-07  0.3901307E+04  0.7818609E-02  0.8024757E-01
       -2   -1    0    0    0  501  0.00000000000E+00  0.00000000000E+00  0.25686042374E+04  0.25686042374E+04  0.25500000920E-02 0.  1.
        2   -1    0    0  501    0  0.00000000000E+00  0.00000000000E+00 -0.14813686999E+04  0.14813686999E+04  0.25500000920E-02 0. -1.
    10030    2    1    2    0    0  0.00000000000E+00  0.00000000000E+00  0.10872355375E+04  0.40499729373E+04  0.39013074320E+04 0.  0.
        5    1    3    3  502    0  0.12869602086E+04  0.81134999932E+03  0.18109892190E+04  0.23652186878E+04  0.46999998093E+01 0.  1.
       -5    1    3    3    0  502 -0.12869602086E+04 -0.81134999932E+03 -0.72375368149E+03  0.16847542495E+04  0.46999998093E+01 0. -1.
</event>
<event>
 5   0  0.7675750E-08  0.3792970E+04  0.7818609E-02  0.8047665E-01
        1   -1    0    0  501    0  0.00000000000E+00  0.00000000000E+00  0.21423413631E+04  0.21423413631E+04  0.50400001928E-02 0. -1.
       -1   -1    0    0    0  501  0.00000000000E+00  0.00000000000E+00 -0.16788431979E+04  0.16788431979E+04  0.50400001928E-02 0.  1.
    10030    2    1    2    0    0  0.00000000000E+00  0.00000000000E+00  0.46349816515E+03  0.38211845611E+04  0.37929699314E+04 0.  0.
        2    1    3    3  502    0 -0.29168816696E+03  0.46354817285E+03 -0.15974378358E+04  0.16887174229E+04  0.25500000920E-02 0.  1.
       -2    1    3    3    0  502  0.29168816696E+03 -0.46354817285E+03  0.20609360009E+04  0.21324671381E+04  0.25500000920E-02 0. -1.
</event>
<event>
 5   0  0.2473224E-07  0.3845007E+04  0.7818609E-02  0.8036565E-01
        2   -1    0    0  501    0  0.00000000000E+00  0.00000000000E+00  0.27377216645E+04  0.27377216645E+04  0.25500000920E-02 0. -1.
       -2   -1    0    0    0  501  0.00000000000E+00  0.00000000000E+00 -0.13500347425E+04  0.13500347425E+04  0.25500000920E-02 0.  1.
    10030    2    1    2    0    0  0.00000000000E+00  0.00000000000E+00  0.13876869220E+04  0.40877564070E+04  0.38450068205E+04 0.  0.
        2    1    3    3  502    0  0.18189439693E+04 -0.45775670749E+03  0.24540640406E+03  0.18916454926E+04  0.25500000920E-02 0.  1.
       -2    1    3    3    0  502 -0.18189439693E+04  0.45775670749E+03  0.11422805180E+04  0.21961109144E+04  0.25500000920E-02 0. -1.
</event>
<event>
 5   0  0.7675750E-08  0.3575901E+04  0.7818609E-02  0.8096034E-01
        1   -1    0    0  501    0  0.00000000000E+00  0.00000000000E+00  0.17716236607E+04  0.17716236607E+04  0.50400001928E-02 0.  1.
       -1   -1    0    0    0  501  0.00000000000E+00  0.00000000000E+00 -0.18044277040E+04  0.18044277040E+04  0.50400001928E-02 0. -1.
    10030    2    1    2    0    0  0.00000000000E+00  0.00000000000E+00 -0.32804043354E+02  0.35760513647E+04  0.35759009015E+04 0.  0.
        5    1    3    3  502    0 -0.16529773433E+04 -0.37934423252E+03  0.54975657164E+03  0.17828321632E+04  0.46999998093E+01 0. -1.
       -5    1    3    3    0  502  0.16529773433E+04  0.37934423252E+03 -0.58256061500E+03  0.17932192014E+04  0.46999998093E+01 0.  1.
</event>
</LesHouchesEvents>
