<LesHouchesEvents version="3.0">
<header>
<!--
#*********************************************************************
#                                                                    *
#                        MadGraph5_aMC@NLO                           *
#                                                                    *
#                           Going Beyond                             *
#                                                                    *
#                   http://madgraph.hep.uiuc.edu                     *
#                   http://madgraph.phys.ucl.ac.be                   *
#                   http://amcatnlo.cern.ch                          *
#                                                                    *
#                     The MadGraph5_aMC@NLO team                     *
#                                                                    *
#....................................................................*
#                                                                    *
# This file contains all the information necessary to reproduce      *
# the events generated:                                              *
#                                                                    *
# 1. software version                                                *
# 2. proc_card          : code generation info including model       *
# 3. param_card         : model primary parameters in the LH format  *
# 4. run_card           : running parameters (collider and cuts)     *
# 5. pythia_card        : present only if pythia has been run        *
# 6. pgs_card           : present only if pgs has been run           *
# 7. delphes_cards      : present only if delphes has been run       *
#                                                                    *
#                                                                    *
#*********************************************************************
-->
<MGVersion>
#5.2.2.3
</MGVersion>
<MG5ProcCard>
#************************************************************
#*                     MadGraph5_aMC@NLO                    *
#*                                                          *
#*                *                       *                 *
#*                  *        * *        *                   *
#*                    * * * * 5 * * * *                     *
#*                  *        * *        *                   *
#*                *                       *                 *
#*                                                          *
#*                                                          *
#*         VERSION 2.2.3                 2015-02-10         *
#*                                                          *
#*    The MadGraph5_aMC@NLO Development Team - Find us at   *
#*    https://server06.fynu.ucl.ac.be/projects/madgraph     *
#*                                                          *
#************************************************************
#*                                                          *
#*               Command File for MadGraph5_aMC@NLO         *
#*                                                          *
#*     run as ./bin/mg5_aMC  filename                       *
#*                                                          *
#************************************************************
set group_subprocesses Auto
set ignore_six_quark_processes False
set loop_optimized_output True
set gauge unitary
set complex_mass_scheme False
import model sm
define p = g u c d s u~ c~ d~ s~
define j = g u c d s u~ c~ d~ s~
define l+ = e+ mu+
define l- = e- mu-
define vl = ve vm vt
define vl~ = ve~ vm~ vt~
import model Zprime_UFO
generate p p > zph, zph > j j
add process p p > zph, zph > b b~
output Dijet_signal
</MG5ProcCard>
<MGProcCard>
#*********************************************************************
#                        MadGraph/MadEvent                           *
#                   http://madgraph.hep.uiuc.edu                     *
#                                                                    *
#                          proc_card.dat                             *
#*********************************************************************
#                                                                    *
#            This Files is generated by MADGRAPH 5                   *
#                                                                    *
# WARNING: This Files is generated for MADEVENT (compatibility issue)*
#          This files is NOT a valid MG4 proc_card.dat               *
#          Running this in MG4 will NEVER reproduce the result of MG5*
#                                                                    *
#*********************************************************************
#*********************************************************************
# Process(es) requested : mg2 input                                  *
#*********************************************************************
# Begin PROCESS # This is TAG. Do not modify this line
p p > zph , zph > j j           #Process
# Be carefull the coupling are here in MG5 convention
          
end_coup           # End the couplings input

done               # this tells MG there are no more procs
# End PROCESS  # This is TAG. Do not modify this line
#*********************************************************************
# Model information                                                  *
#*********************************************************************
# Begin MODEL  # This is TAG. Do not modify this line
Zprime_UFO
# End   MODEL  # This is TAG. Do not modify this line
#*********************************************************************
# Start multiparticle definitions                                    *
#*********************************************************************
# Begin MULTIPARTICLES # This is TAG. Do not modify this line

# End  MULTIPARTICLES # This is TAG. Do not modify this line
</MGProcCard>
<MGRunCard>
#*********************************************************************
#                       MadGraph5_aMC@NLO                            *
#                                                                    *
#                     run_card.dat MadEvent                          *
#                                                                    *
#  This file is used to set the parameters of the run.               *
#                                                                    *
#  Some notation/conventions:                                        *
#                                                                    *
#   Lines starting with a '# ' are info or comments                  *
#                                                                    *
#   mind the format:   value    = variable     ! comment             *
#*********************************************************************
#
#*******************                                                 
# Running parameters
#*******************                                                 
#                                                                    
#*********************************************************************
# Tag name for the run (one word)                                    *
#*********************************************************************
  tag_1     = run_tag ! name of the run 
#*********************************************************************
# Run to generate the grid pack                                      *
#*********************************************************************
  .false.     = gridpack  !True = setting up the grid pack
#*********************************************************************
# Number of events and rnd seed                                      *
# Warning: Do not generate more than 1M events in a single run       *
# If you want to run Pythia, avoid more than 50k events in a run.    *
#*********************************************************************
  2000 = nevents ! Number of unweighted events requested 
 1038 = iseed   ! rnd seed (0=assigned automatically=default))
#*********************************************************************
# Collider type and energy                                           *
# lpp: 0=No PDF, 1=proton, -1=antiproton, 2=photon from proton,      *
#                                         3=photon from electron     *
#*********************************************************************
        1     = lpp1    ! beam 1 type 
        1     = lpp2    ! beam 2 type
     4000     = ebeam1  ! beam 1 total energy in GeV
     4000     = ebeam2  ! beam 2 total energy in GeV
#*********************************************************************
# Beam polarization from -100 (left-handed) to 100 (right-handed)    *
#*********************************************************************
        0     = polbeam1 ! beam polarization for beam 1
        0     = polbeam2 ! beam polarization for beam 2
#*********************************************************************
# PDF CHOICE: this automatically fixes also alpha_s and its evol.    *
#*********************************************************************
 'nn23lo1'    = pdlabel     ! PDF set                                     
 230000    = lhaid     ! if pdlabel=lhapdf, this is the lhapdf number
#*********************************************************************
# Renormalization and factorization scales                           *
#*********************************************************************
 F        = fixed_ren_scale  ! if .true. use fixed ren scale
 F        = fixed_fac_scale  ! if .true. use fixed fac scale
 91.1880  = scale            ! fixed ren scale
 91.1880  = dsqrt_q2fact1    ! fixed fact scale for pdf1
 91.1880  = dsqrt_q2fact2    ! fixed fact scale for pdf2
 1        = scalefact        ! scale factor for event-by-event scales
#*********************************************************************
# Matching - Warning! ickkw > 1 is still beta
#*********************************************************************
 0        = ickkw            ! 0 no matching, 1 MLM, 2 CKKW matching
 1        = highestmult      ! for ickkw=2, highest mult group
 1        = ktscheme         ! for ickkw=1, 1 Durham kT, 2 Pythia pTE
 1        = alpsfact         ! scale factor for QCD emission vx
 F        = chcluster        ! cluster only according to channel diag
 T        = pdfwgt           ! for ickkw=1, perform pdf reweighting
 5        = asrwgtflavor     ! highest quark flavor for a_s reweight
 T        = clusinfo         ! include clustering tag in output
 3.0      = lhe_version       ! Change the way clustering information pass to shower.        
#*********************************************************************
#**********************************************************
#
#**********************************************************
# Automatic ptj and mjj cuts if xqcut > 0
# (turn off for VBF and single top processes)
#**********************************************************
   T  = auto_ptj_mjj  ! Automatic setting of ptj and mjj
#**********************************************************
#                                                                    
#**********************************
# BW cutoff (M+/-bwcutoff*Gamma)
#**********************************
  15  = bwcutoff      ! (M+/-bwcutoff*Gamma)
#**********************************************************
# Apply pt/E/eta/dr/mij cuts on decay products or not
# (note that etmiss/ptll/ptheavy/ht/sorted cuts always apply)
#**********************************************************
   T  = cut_decays    ! Cut decay products 
#*************************************************************
# Number of helicities to sum per event (0 = all helicities)
# 0 gives more stable result, but longer run time (needed for
# long decay chains e.g.).
# Use >=2 if most helicities contribute, e.g. pure QCD.
#*************************************************************
   0  = nhel          ! Number of helicities used per event
#*******************                                                 
# Standard Cuts
#*******************                                                 
#                                                                    
#*********************************************************************
# Minimum and maximum pt's (for max, -1 means no cut)                *
#*********************************************************************
 20  = ptj       ! minimum pt for the jets 
  0  = ptb       ! minimum pt for the b 
 10  = pta       ! minimum pt for the photons 
 10  = ptl       ! minimum pt for the charged leptons 
  0  = misset    ! minimum missing Et (sum of neutrino's momenta)
  0  = ptheavy   ! minimum pt for one heavy final state
 1.0 = ptonium   ! minimum pt for the quarkonium states
 -1  = ptjmax    ! maximum pt for the jets
 -1  = ptbmax    ! maximum pt for the b
 -1  = ptamax    ! maximum pt for the photons
 -1  = ptlmax    ! maximum pt for the charged leptons
 -1  = missetmax ! maximum missing Et (sum of neutrino's momenta)
#*********************************************************************
# Minimum and maximum E's (in the center of mass frame)              *
#*********************************************************************
  0  = ej     ! minimum E for the jets 
  0  = eb     ! minimum E for the b 
  0  = ea     ! minimum E for the photons 
  0  = el     ! minimum E for the charged leptons 
 -1   = ejmax ! maximum E for the jets
 -1   = ebmax ! maximum E for the b
 -1   = eamax ! maximum E for the photons
 -1   = elmax ! maximum E for the charged leptons
#*********************************************************************
# Maximum and minimum absolute rapidity (for max, -1 means no cut)   *
#*********************************************************************
   5  = etaj    ! max rap for the jets 
  -1  = etab    ! max rap for the b
 2.5  = etaa    ! max rap for the photons 
 2.5  = etal    ! max rap for the charged leptons 
 0.6  = etaonium ! max rap for the quarkonium states
   0  = etajmin ! min rap for the jets
   0  = etabmin ! min rap for the b
   0  = etaamin ! min rap for the photons
   0  = etalmin ! main rap for the charged leptons
#*********************************************************************
# Minimum and maximum DeltaR distance                                *
#*********************************************************************
 0.4 = drjj    ! min distance between jets 
 0   = drbb    ! min distance between b's 
 0.4 = drll    ! min distance between leptons 
 0.4 = draa    ! min distance between gammas 
 0   = drbj    ! min distance between b and jet 
 0.4 = draj    ! min distance between gamma and jet 
 0.4 = drjl    ! min distance between jet and lepton 
 0   = drab    ! min distance between gamma and b 
 0   = drbl    ! min distance between b and lepton 
 0.4 = dral    ! min distance between gamma and lepton 
 -1  = drjjmax ! max distance between jets
 -1  = drbbmax ! max distance between b's
 -1  = drllmax ! max distance between leptons
 -1  = draamax ! max distance between gammas
 -1  = drbjmax ! max distance between b and jet
 -1  = drajmax ! max distance between gamma and jet
 -1  = drjlmax ! max distance between jet and lepton
 -1  = drabmax ! max distance between gamma and b
 -1  = drblmax ! max distance between b and lepton
 -1  = dralmax ! maxdistance between gamma and lepton
#*********************************************************************
# Minimum and maximum invariant mass for pairs                       *
# WARNING: for four lepton final state mmll cut require to have      *
#          different lepton masses for each flavor!                  *           
#*********************************************************************
 0   = mmjj    ! min invariant mass of a jet pair 
 0   = mmbb    ! min invariant mass of a b pair 
 0   = mmaa    ! min invariant mass of gamma gamma pair
 0   = mmll    ! min invariant mass of l+l- (same flavour) lepton pair
 -1  = mmjjmax ! max invariant mass of a jet pair
 -1  = mmbbmax ! max invariant mass of a b pair
 -1  = mmaamax ! max invariant mass of gamma gamma pair
 -1  = mmllmax ! max invariant mass of l+l- (same flavour) lepton pair
#*********************************************************************
# Minimum and maximum invariant mass for all letpons                 *
#*********************************************************************
 0   = mmnl    ! min invariant mass for all letpons (l+- and vl) 
 -1  = mmnlmax ! max invariant mass for all letpons (l+- and vl) 
#*********************************************************************
# Minimum and maximum pt for 4-momenta sum of leptons                *
#*********************************************************************
 0   = ptllmin  ! Minimum pt for 4-momenta sum of leptons(l and vl)
 -1  = ptllmax  ! Maximum pt for 4-momenta sum of leptons(l and vl)
#*********************************************************************
# Inclusive cuts                                                     *
#*********************************************************************
 0  = xptj ! minimum pt for at least one jet  
 0  = xptb ! minimum pt for at least one b 
 0  = xpta ! minimum pt for at least one photon 
 0  = xptl ! minimum pt for at least one charged lepton 
#*********************************************************************
# Control the pt's of the jets sorted by pt                          *
#*********************************************************************
 0   = ptj1min ! minimum pt for the leading jet in pt
 0   = ptj2min ! minimum pt for the second jet in pt
 0   = ptj3min ! minimum pt for the third jet in pt
 0   = ptj4min ! minimum pt for the fourth jet in pt
 -1  = ptj1max ! maximum pt for the leading jet in pt 
 -1  = ptj2max ! maximum pt for the second jet in pt
 -1  = ptj3max ! maximum pt for the third jet in pt
 -1  = ptj4max ! maximum pt for the fourth jet in pt
 0   = cutuse  ! reject event if fails any (0) / all (1) jet pt cuts
#*********************************************************************
# Control the pt's of leptons sorted by pt                           *
#*********************************************************************
 0   = ptl1min ! minimum pt for the leading lepton in pt
 0   = ptl2min ! minimum pt for the second lepton in pt
 0   = ptl3min ! minimum pt for the third lepton in pt
 0   = ptl4min ! minimum pt for the fourth lepton in pt
 -1  = ptl1max ! maximum pt for the leading lepton in pt 
 -1  = ptl2max ! maximum pt for the second lepton in pt
 -1  = ptl3max ! maximum pt for the third lepton in pt
 -1  = ptl4max ! maximum pt for the fourth lepton in pt
#*********************************************************************
# Control the Ht(k)=Sum of k leading jets                            *
#*********************************************************************
 0   = htjmin ! minimum jet HT=Sum(jet pt)
 -1  = htjmax ! maximum jet HT=Sum(jet pt)
 0   = ihtmin  !inclusive Ht for all partons (including b)
 -1  = ihtmax  !inclusive Ht for all partons (including b)
 0   = ht2min ! minimum Ht for the two leading jets
 0   = ht3min ! minimum Ht for the three leading jets
 0   = ht4min ! minimum Ht for the four leading jets
 -1  = ht2max ! maximum Ht for the two leading jets
 -1  = ht3max ! maximum Ht for the three leading jets
 -1  = ht4max ! maximum Ht for the four leading jets
#***********************************************************************
# Photon-isolation cuts, according to hep-ph/9801442                   *
# When ptgmin=0, all the other parameters are ignored                  *
# When ptgmin>0, pta and draj are not going to be used                 *
#***********************************************************************
   0 = ptgmin ! Min photon transverse momentum
 0.4 = R0gamma ! Radius of isolation code
 1.0 = xn ! n parameter of eq.(3.4) in hep-ph/9801442
 1.0 = epsgamma ! epsilon_gamma parameter of eq.(3.4) in hep-ph/9801442
 .true. = isoEM ! isolate photons from EM energy (photons and leptons)
#*********************************************************************
# WBF cuts                                                           *
#*********************************************************************
 0   = xetamin ! minimum rapidity for two jets in the WBF case  
 0   = deltaeta ! minimum rapidity for two jets in the WBF case 
#*********************************************************************
# KT DURHAM CUT                                                      *
#*********************************************************************
 -1    =  ktdurham        
 0.4  =  dparameter 
#*********************************************************************
# maximal pdg code for quark to be considered as a light jet         *
# (otherwise b cuts are applied)                                     *
#*********************************************************************
 4 = maxjetflavor    ! Maximum jet pdg code
#*********************************************************************
# Jet measure cuts                                                   *
#*********************************************************************
 0   = xqcut   ! minimum kt jet measure between partons
#*********************************************************************
#
#*********************************************************************
# Store info for systematics studies                                 *
# WARNING: If use_syst is T, matched Pythia output is                *
#          meaningful ONLY if plotted taking matchscale              *
#          reweighting into account!                                 *
#*********************************************************************
   F  = use_syst      ! Enable systematics studies
#
#**************************************
# Parameter of the systematics study
#  will be used by SysCalc (if installed)
#**************************************                                  
#
0.5 1 2 = sys_scalefact  # factorization/renormalization scale factor
0.5 1 2 = sys_alpsfact  # \alpha_s emission scale factors
30 50 = sys_matchscale # variation of merging scale
# PDF sets and number of members (0 or none for all members).
CT10nlo.LHgrid = sys_pdf # matching scales
# MSTW2008nlo68cl.LHgrid 1  = sys_pdf
</MGRunCard>
<slha>
######################################################################
## PARAM_CARD AUTOMATICALY GENERATED BY MG5 FOLLOWING UFO MODEL   ####
######################################################################
##                                                                  ##
##  Width set on Auto will be computed following the information    ##
##        present in the decay.py files of the model.               ##
##        See  arXiv:1402.1178 for more details.                    ##
##                                                                  ##
######################################################################

###################################
## INFORMATION FOR CKMBLOCK
###################################
Block ckmblock 
    1 2.277360e-01 # cabi 

###################################
## INFORMATION FOR FRBLOCK
###################################
Block frblock 
    1 4.000000e-01 # gz 

###################################
## INFORMATION FOR MASS
###################################
Block mass 
    1 5.040000e-03 # MD 
    2 2.550000e-03 # MU 
    3 1.010000e-01 # MS 
    4 1.270000e+00 # MC 
    5 4.700000e+00 # MB 
    6 1.720000e+02 # MT 
   11 5.110000e-04 # Me 
   13 1.056600e-01 # MM 
   15 1.777000e+00 # MTA 
   23 9.118760e+01 # MZ 
   25 1.200000e+02 # MH 
  10030 2.900000e+03 # MZph 
  10031 3.000000e+02 # MZpl 
## Dependent parameters, given by model restrictions.
## Those values should be edited following the 
## analytical expression. MG5 ignores those values 
## but they are important for interfacing the output of MG5
## to external program such as Pythia.
  12 0.000000 # ve : 0.0 
  14 0.000000 # vm : 0.0 
  16 0.000000 # vt : 0.0 
  21 0.000000 # g : 0.0 
  22 0.000000 # a : 0.0 
  24 79.824360 # w+ : cmath.sqrt(MZ__exp__2/2. + cmath.sqrt(MZ__exp__4/4. - (aEW*cmath.pi*MZ__exp__2)/(Gf*sqrt__2))) 

###################################
## INFORMATION FOR SMINPUTS
###################################
Block sminputs 
    1 1.279000e+02 # aEWM1 
    2 1.166370e-05 # Gf 
    3 1.184000e-01 # aS 

###################################
## INFORMATION FOR YUKAWA
###################################
Block yukawa 
    1 5.040000e-03 # ymdo 
    2 2.550000e-03 # ymup 
    3 1.010000e-01 # yms 
    4 1.270000e+00 # ymc 
    5 4.700000e+00 # ymb 
    6 1.720000e+02 # ymt 
   11 5.110000e-04 # yme 
   13 1.056600e-01 # ymm 
   15 1.777000e+00 # ymtau 

###################################
## INFORMATION FOR DECAY
###################################
DECAY   6 1.508336e+00 # WT 
DECAY  23 2.495200e+00 # WZ 
DECAY  24 2.085000e+00 # WW 
DECAY  25 5.753088e-03 # WH 
## Dependent parameters, given by model restrictions.
## Those values should be edited following the 
## analytical expression. MG5 ignores those values 
## but they are important for interfacing the output of MG5
## to external program such as Pythia.
DECAY  1 0.000000 # d : 0.0 
DECAY  2 0.000000 # u : 0.0 
DECAY  3 0.000000 # s : 0.0 
DECAY  4 0.000000 # c : 0.0 
DECAY  5 0.000000 # b : 0.0 
DECAY  11 0.000000 # e- : 0.0 
DECAY  12 0.000000 # ve : 0.0 
DECAY  13 0.000000 # mu- : 0.0 
DECAY  14 0.000000 # vm : 0.0 
DECAY  15 0.000000 # ta- : 0.0 
DECAY  16 0.000000 # vt : 0.0 
DECAY  21 0.000000 # g : 0.0 
DECAY  22 0.000000 # a : 0.0 
DECAY  10030 0.308725 # zph : (gz__exp__2*MZph*(5 + cmath.sqrt(1 - (4*MT__exp__2)/MZph__exp__2)))/(144.*cmath.pi) 
DECAY  10031 0.132629 # zpl : (5*gz__exp__2*MZpl)/(144.*cmath.pi) 
#===========================================================
# QUANTUM NUMBERS OF NEW STATE(S) (NON SM PDG CODE)
#===========================================================

Block QNUMBERS 10030  # zph 
        1 0  # 3 times electric charge
        2 3  # number of spin states (2S+1)
        3 1  # colour rep (1: singlet, 3: triplet, 8: octet)
        4 0  # Particle/Antiparticle distinction (0=own anti)
Block QNUMBERS 10031  # zpl 
        1 0  # 3 times electric charge
        2 3  # number of spin states (2S+1)
        3 1  # colour rep (1: singlet, 3: triplet, 8: octet)
        4 0  # Particle/Antiparticle distinction (0=own anti)
</slha>
## END BANNER##
<MGGenerationInfo>
#  Number of Events        :         3932
#  Integrated weight (pb)  :  0.27030E-03
#  Max wgt                 :  0.10640E-06
#  Average wgt             :  0.68744E-07
</MGGenerationInfo>
</header>
<init>
     2212     2212  0.40000000000E+04  0.40000000000E+04 0 0  247000  247000 2   1
  0.27057280772E-03  0.69936514185E-06  0.10639790000E-06   0
</init>
<event>
 5   0  0.1063979E-06  0.2901409E+04  0.7818609E-02  0.8272458E-01
       -2   -1    0    0    0  501  0.00000000000E+00  0.00000000000E+00  0.15140485086E+04  0.15140485086E+04  0.25500000920E-02 0. -1.
        2   -1    0    0  501    0  0.00000000000E+00  0.00000000000E+00 -0.13900110777E+04  0.13900110777E+04  0.25500000920E-02 0.  1.
    10030    2    1    2    0    0  0.00000000000E+00  0.00000000000E+00  0.12403743094E+03  0.29040595863E+04  0.29014094500E+04 0.  0.
        1    1    3    3  502    0 -0.99834285251E+03  0.23776344622E+03 -0.96425888824E+03  0.14081956935E+04  0.50400001928E-02 0.  1.
       -1    1    3    3    0  502  0.99834285251E+03 -0.23776344622E+03  0.10882963192E+04  0.14958638928E+04  0.50400001928E-02 0. -1.
</event>
<event>
 5   0  0.1063979E-06  0.2896858E+04  0.7818609E-02  0.8273813E-01
        2   -1    0    0  501    0  0.00000000000E+00  0.00000000000E+00  0.18674005526E+04  0.18674005526E+04  0.25500000920E-02 0.  1.
       -2   -1    0    0    0  501  0.00000000000E+00  0.00000000000E+00 -0.11234579231E+04  0.11234579231E+04  0.25500000920E-02 0. -1.
    10030    2    1    2    0    0  0.00000000000E+00  0.00000000000E+00  0.74394262949E+03  0.29908584758E+04  0.28968575709E+04 0.  0.
        1    1    3    3  502    0 -0.82773539386E+03 -0.11343063569E+04  0.52713316970E+01  0.14042167142E+04  0.50400001928E-02 0. -1.
       -1    1    3    3    0  502  0.82773539386E+03  0.11343063569E+04  0.73867129779E+03  0.15866417616E+04  0.50400001928E-02 0.  1.
</event>
<event>
 5   0  0.9950999E-07  0.2902533E+04  0.7818609E-02  0.8272124E-01
       -2   -1    0    0    0  501  0.00000000000E+00  0.00000000000E+00  0.10948947015E+04  0.10948947015E+04  0.25500000920E-02 0. -1.
        2   -1    0    0  501    0  0.00000000000E+00  0.00000000000E+00 -0.19236319601E+04  0.19236319601E+04  0.25500000920E-02 0.  1.
    10030    2    1    2    0    0  0.00000000000E+00  0.00000000000E+00 -0.82873725851E+03  0.30185266616E+04  0.29025329909E+04 0.  0.
        3    1    3    3  502    0 -0.24621482720E+03  0.11733011043E+04 -0.12649268290E+04  0.17427842997E+04  0.10100000352E+00 0.  1.
       -3    1    3    3    0  502  0.24621482720E+03 -0.11733011043E+04  0.43618957046E+03  0.12757423619E+04  0.10100000352E+00 0. -1.
</event>
<event>
 5   0  0.1063979E-06  0.2899959E+04  0.7818609E-02  0.8272890E-01
       -2   -1    0    0    0  501  0.00000000000E+00  0.00000000000E+00  0.18536744226E+04  0.18536744226E+04  0.25500000920E-02 0.  1.
        2   -1    0    0  501    0  0.00000000000E+00  0.00000000000E+00 -0.11342017554E+04  0.11342017554E+04  0.25500000920E-02 0. -1.
    10030    2    1    2    0    0  0.00000000000E+00  0.00000000000E+00  0.71947266728E+03  0.29878761780E+04  0.28999591611E+04 0.  0.
        1    1    3    3  502    0 -0.42013001718E+03  0.47709083228E+03 -0.98296663871E+03  0.11706187707E+04  0.50400001928E-02 0. -1.
       -1    1    3    3    0  502  0.42013001718E+03 -0.47709083228E+03  0.17024393060E+04  0.18172574072E+04  0.50400001928E-02 0.  1.
</event>
<event>
 5   0  0.9950999E-07  0.2904146E+04  0.7818609E-02  0.8271645E-01
        2   -1    0    0  501    0  0.00000000000E+00  0.00000000000E+00  0.14322542640E+04  0.14322542640E+04  0.25500000920E-02 0.  1.
       -2   -1    0    0    0  501  0.00000000000E+00  0.00000000000E+00 -0.14721664687E+04  0.14721664687E+04  0.25500000920E-02 0. -1.
    10030    2    1    2    0    0  0.00000000000E+00  0.00000000000E+00 -0.39912204683E+02  0.29044207327E+04  0.29041464854E+04 0.  0.
        3    1    3    3  502    0 -0.10181839356E+04  0.86295733093E+03  0.55204441827E+03  0.14443500031E+04  0.10100000352E+00 0.  1.
       -3    1    3    3    0  502  0.10181839356E+04 -0.86295733093E+03 -0.59195662296E+03  0.14600707296E+04  0.10100000352E+00 0. -1.
</event>
<event>
 5   0  0.3770467E-07  0.2898979E+04  0.7818609E-02  0.8273181E-01
       -1   -1    0    0    0  501  0.00000000000E+00  0.00000000000E+00  0.83599921094E+03  0.83599921095E+03  0.50400001928E-02 0.  1.
        1   -1    0    0  501    0  0.00000000000E+00  0.00000000000E+00 -0.25131832283E+04  0.25131832283E+04  0.50400001928E-02 0. -1.
    10030    2    1    2    0    0  0.00000000000E+00  0.00000000000E+00 -0.16771840174E+04  0.33491824393E+04  0.28989785759E+04 0.  0.
        1    1    3    3  502    0 -0.12287304865E+04 -0.37636902742E+03 -0.16132333027E+04  0.20625115617E+04  0.50400001928E-02 0. -1.
       -1    1    3    3    0  502  0.12287304865E+04  0.37636902742E+03 -0.63950714680E+02  0.12866708776E+04  0.50400001928E-02 0.  1.
</event>
<event>
 5   0  0.3769563E-07  0.2906110E+04  0.7818609E-02  0.8271062E-01
       -1   -1    0    0    0  501  0.00000000000E+00  0.00000000000E+00  0.17036476409E+04  0.17036476410E+04  0.50400001928E-02 0. -1.
        1   -1    0    0  501    0  0.00000000000E+00  0.00000000000E+00 -0.12393222271E+04  0.12393222272E+04  0.50400001928E-02 0.  1.
    10030    2    1    2    0    0  0.00000000000E+00  0.00000000000E+00  0.46432541380E+03  0.29429698681E+04  0.29061096942E+04 0.  0.
        3    1    3    3  502    0 -0.20761472245E+03  0.97702250822E+03 -0.83653842544E+03  0.13028712147E+04  0.10100000352E+00 0.  1.
       -3    1    3    3    0  502  0.20761472245E+03 -0.97702250822E+03  0.13008638392E+04  0.16400986534E+04  0.10100000352E+00 0. -1.
</event>
<event>
 5   0  0.1063979E-06  0.2903249E+04  0.7818609E-02  0.8271911E-01
       -2   -1    0    0    0  501  0.00000000000E+00  0.00000000000E+00  0.10164289096E+04  0.10164289096E+04  0.25500000920E-02 0. -1.
        2   -1    0    0  501    0  0.00000000000E+00  0.00000000000E+00 -0.20731538926E+04  0.20731538926E+04  0.25500000920E-02 0.  1.
    10030    2    1    2    0    0  0.00000000000E+00  0.00000000000E+00 -0.10567249830E+04  0.30895828022E+04  0.29032489046E+04 0.  0.
        1    1    3    3  502    0  0.11440817724E+04  0.29563281041E+03  0.36889540044E+03  0.12379037430E+04  0.50400001928E-02 0. -1.
       -1    1    3    3    0  502 -0.11440817724E+04 -0.29563281041E+03 -0.14256203835E+04  0.18516790592E+04  0.50400001928E-02 0.  1.
</event>
<event>
 5   0  0.3885904E-07  0.2898282E+04  0.7818609E-02  0.8273389E-01
       -1   -1    0    0    0  501  0.00000000000E+00  0.00000000000E+00  0.12600006153E+04  0.12600006153E+04  0.50400001928E-02 0. -1.
        1   -1    0    0  501    0  0.00000000000E+00  0.00000000000E+00 -0.16666739589E+04  0.16666739589E+04  0.50400001928E-02 0.  1.
    10030    2    1    2    0    0  0.00000000000E+00  0.00000000000E+00 -0.40667334365E+03  0.29266745742E+04  0.28982823974E+04 0.  0.
        2    1    3    3  502    0 -0.18234509761E+03  0.12227186954E+03  0.12431096245E+04  0.12623476872E+04  0.25500000920E-02 0. -1.
       -2    1    3    3    0  502  0.18234509761E+03 -0.12227186954E+03 -0.16497829682E+04  0.16643268870E+04  0.25500000920E-02 0.  1.
</event>
<event>
 5   0  0.1063979E-06  0.2900688E+04  0.7818609E-02  0.8272673E-01
        2   -1    0    0  501    0  0.00000000000E+00  0.00000000000E+00  0.23357110451E+04  0.23357110451E+04  0.25500000920E-02 0. -1.
       -2   -1    0    0    0  501  0.00000000000E+00  0.00000000000E+00 -0.90058153053E+03  0.90058153054E+03  0.25500000920E-02 0.  1.
    10030    2    1    2    0    0  0.00000000000E+00  0.00000000000E+00  0.14351295146E+04  0.32362925757E+04  0.29006883513E+04 0.  0.
        1    1    3    3  502    0 -0.68793245982E+03 -0.12726537839E+04  0.83243022822E+03  0.16690832237E+04  0.50400001928E-02 0. -1.
       -1    1    3    3    0  502  0.68793245982E+03  0.12726537839E+04  0.60269928637E+03  0.15672093519E+04  0.50400001928E-02 0.  1.
</event>
<event>
 5   0  0.3378750E-07  0.2901625E+04  0.7818609E-02  0.8272394E-01
       -4   -1    0    0    0  501  0.00000000000E+00  0.00000000000E+00  0.17607279938E+04  0.17607284518E+04  0.12699999809E+01 0.  1.
        4   -1    0    0  501    0  0.00000000000E+00  0.00000000000E+00 -0.11954456502E+04  0.11954463248E+04  0.12699999809E+01 0. -1.
    10030    2    1    2    0    0  0.00000000000E+00  0.00000000000E+00  0.56528234356E+03  0.29561747766E+04  0.29016245763E+04 0.  0.
        3    1    3    3  502    0  0.90202160070E+02  0.71668649797E+03  0.15645004789E+04  0.17232056536E+04  0.10100000352E+00 0.  1.
       -3    1    3    3    0  502 -0.90202160070E+02 -0.71668649797E+03 -0.99921813532E+03  0.12329691230E+04  0.10100000352E+00 0. -1.
</event>
<event>
 5   0  0.1031339E-06  0.2899994E+04  0.7818609E-02  0.8272879E-01
       -2   -1    0    0    0  501  0.00000000000E+00  0.00000000000E+00  0.15817732566E+04  0.15817732566E+04  0.25500000920E-02 0.  1.
        2   -1    0    0  501    0  0.00000000000E+00  0.00000000000E+00 -0.13291993487E+04  0.13291993487E+04  0.25500000920E-02 0. -1.
    10030    2    1    2    0    0  0.00000000000E+00  0.00000000000E+00  0.25257390792E+03  0.29109726054E+04  0.28999944707E+04 0.  0.
        5    1    3    3  502    0  0.58621996933E+03  0.12411939552E+03  0.14516680340E+04  0.15704845264E+04  0.46999998093E+01 0.  1.
       -5    1    3    3    0  502 -0.58621996933E+03 -0.12411939552E+03 -0.11990941260E+04  0.13404880790E+04  0.46999998093E+01 0. -1.
</event>
<event>
 5   0  0.3786210E-07  0.2896336E+04  0.7818609E-02  0.8273968E-01
        1   -1    0    0  501    0  0.00000000000E+00  0.00000000000E+00  0.11943806948E+04  0.11943806948E+04  0.50400001928E-02 0. -1.
       -1   -1    0    0    0  501  0.00000000000E+00  0.00000000000E+00 -0.17558812232E+04  0.17558812232E+04  0.50400001928E-02 0.  1.
    10030    2    1    2    0    0  0.00000000000E+00  0.00000000000E+00 -0.56150052838E+03  0.29502619180E+04  0.28963360547E+04 0.  0.
        5    1    3    3  502    0  0.75964059463E+02  0.14673103962E+03 -0.17462405670E+04  0.17540463917E+04  0.46999998093E+01 0.  1.
       -5    1    3    3    0  502 -0.75964059463E+02 -0.14673103962E+03  0.11847400386E+04  0.11962155263E+04  0.46999998093E+01 0. -1.
</event>
<event>
 5   0  0.3770467E-07  0.2855562E+04  0.7818609E-02  0.8286223E-01
        1   -1    0    0  501    0  0.00000000000E+00  0.00000000000E+00  0.14350973127E+04  0.14350973127E+04  0.50400001928E-02 0.  1.
       -1   -1    0    0    0  501  0.00000000000E+00  0.00000000000E+00 -0.14205016193E+04  0.14205016193E+04  0.50400001928E-02 0. -1.
    10030    2    1    2    0    0  0.00000000000E+00  0.00000000000E+00  0.14595693472E+02  0.28555989320E+04  0.28555616306E+04 0.  0.
        1    1    3    3  502    0  0.13981636711E+04 -0.17951306984E+03 -0.21957834824E+03  0.14266398440E+04  0.50400001928E-02 0.  1.
       -1    1    3    3    0  502 -0.13981636711E+04  0.17951306984E+03  0.23417404171E+03  0.14289590880E+04  0.50400001928E-02 0. -1.
</event>
<event>
 5   0  0.3769563E-07  0.2894125E+04  0.7818609E-02  0.8274628E-01
       -1   -1    0    0    0  501  0.00000000000E+00  0.00000000000E+00  0.15456996593E+04  0.15456996593E+04  0.50400001928E-02 0.  1.
        1   -1    0    0  501    0  0.00000000000E+00  0.00000000000E+00 -0.13547195466E+04  0.13547195466E+04  0.50400001928E-02 0. -1.
    10030    2    1    2    0    0  0.00000000000E+00  0.00000000000E+00  0.19098011268E+03  0.29004192059E+04  0.28941247670E+04 0.  0.
        3    1    3    3  502    0 -0.83260695020E+03  0.46122910940E+03  0.11878252586E+04  0.15221351714E+04  0.10100000352E+00 0.  1.
       -3    1    3    3    0  502  0.83260695020E+03 -0.46122910940E+03 -0.99684514588E+03  0.13782840346E+04  0.10100000352E+00 0. -1.
</event>
<event>
 5   0  0.3769563E-07  0.2910373E+04  0.7818609E-02  0.8269798E-01
       -1   -1    0    0    0  501  0.00000000000E+00  0.00000000000E+00  0.21089505058E+04  0.21089505058E+04  0.50400001928E-02 0.  1.
        1   -1    0    0  501    0  0.00000000000E+00  0.00000000000E+00 -0.10040860122E+04  0.10040860122E+04  0.50400001928E-02 0. -1.
    10030    2    1    2    0    0  0.00000000000E+00  0.00000000000E+00  0.11048644936E+04  0.31130365180E+04  0.29103729680E+04 0.  0.
        3    1    3    3  502    0  0.11615296834E+04 -0.39226850778E+03  0.13909481786E+04  0.18541204474E+04  0.10100000352E+00 0. -1.
       -3    1    3    3    0  502 -0.11615296834E+04  0.39226850778E+03 -0.28608368506E+03  0.12589160705E+04  0.10100000352E+00 0.  1.
</event>
<event>
 5   0  0.1063979E-06  0.2900826E+04  0.7818609E-02  0.8272632E-01
       -2   -1    0    0    0  501  0.00000000000E+00  0.00000000000E+00  0.95419886174E+03  0.95419886175E+03  0.25500000920E-02 0.  1.
        2   -1    0    0  501    0  0.00000000000E+00  0.00000000000E+00 -0.22046747103E+04  0.22046747103E+04  0.25500000920E-02 0. -1.
    10030    2    1    2    0    0  0.00000000000E+00  0.00000000000E+00 -0.12504758486E+04  0.31588735720E+04  0.29008261576E+04 0.  0.
        1    1    3    3  502    0 -0.30323354789E+03 -0.12028486455E+03 -0.21642070829E+04  0.21886551421E+04  0.50400001928E-02 0. -1.
       -1    1    3    3    0  502  0.30323354789E+03  0.12028486455E+03  0.91373123435E+03  0.97021842997E+03  0.50400001928E-02 0.  1.
</event>
<event>
 5   0  0.3638028E-07  0.2900058E+04  0.7818609E-02  0.8272860E-01
       -1   -1    0    0    0  501  0.00000000000E+00  0.00000000000E+00  0.21683059857E+04  0.21683059857E+04  0.50400001928E-02 0.  1.
        1   -1    0    0  501    0  0.00000000000E+00  0.00000000000E+00 -0.96968963006E+03  0.96968963008E+03  0.50400001928E-02 0. -1.
    10030    2    1    2    0    0  0.00000000000E+00  0.00000000000E+00  0.11986163556E+04  0.31379956157E+04  0.29000578126E+04 0.  0.
        4    1    3    3  502    0  0.64998877718E+03 -0.12955837940E+04  0.64203787438E+03  0.15853192179E+04  0.12699999809E+01 0.  1.
       -4    1    3    3    0  502 -0.64998877718E+03  0.12955837940E+04  0.55657848123E+03  0.15526763978E+04  0.12699999809E+01 0. -1.
</event>
<event>
 5   0  0.3770467E-07  0.2897698E+04  0.7818609E-02  0.8273563E-01
       -1   -1    0    0    0  501  0.00000000000E+00  0.00000000000E+00  0.20415713884E+04  0.20415713884E+04  0.50400001928E-02 0.  1.
        1   -1    0    0  501    0  0.00000000000E+00  0.00000000000E+00 -0.10282099969E+04  0.10282099969E+04  0.50400001928E-02 0. -1.
    10030    2    1    2    0    0  0.00000000000E+00  0.00000000000E+00  0.10133613915E+04  0.30697813853E+04  0.28976984736E+04 0.  0.
        1    1    3    3  502    0 -0.90314127020E+03 -0.24140927351E+03 -0.66595082587E+03  0.11477948831E+04  0.50400001928E-02 0. -1.
       -1    1    3    3    0  502  0.90314127020E+03  0.24140927351E+03  0.16793122173E+04  0.19219865022E+04  0.50400001928E-02 0.  1.
</event>
<event>
 5   0  0.9994311E-07  0.2901884E+04  0.7818609E-02  0.8272317E-01
       -2   -1    0    0    0  501  0.00000000000E+00  0.00000000000E+00  0.88767888070E+03  0.88767888071E+03  0.25500000920E-02 0. -1.
        2   -1    0    0  501    0  0.00000000000E+00  0.00000000000E+00 -0.23716145755E+04  0.23716145755E+04  0.25500000920E-02 0.  1.
    10030    2    1    2    0    0  0.00000000000E+00  0.00000000000E+00 -0.14839356948E+04  0.32592934562E+04  0.29018836447E+04 0.  0.
        2    1    3    3  502    0  0.68069670076E+03  0.49380932117E+03  0.58604638464E+03  0.10250102483E+04  0.25500000920E-02 0. -1.
       -2    1    3    3    0  502 -0.68069670076E+03 -0.49380932117E+03 -0.20699820795E+04  0.22342832080E+04  0.25500000920E-02 0.  1.
</event>
<event>
 5   0  0.3769563E-07  0.2900822E+04  0.7818609E-02  0.8272633E-01
       -1   -1    0    0    0  501  0.00000000000E+00  0.00000000000E+00  0.13616169051E+04  0.13616169051E+04  0.50400001928E-02 0. -1.
        1   -1    0    0  501    0  0.00000000000E+00  0.00000000000E+00 -0.15449954111E+04  0.15449954111E+04  0.50400001928E-02 0.  1.
    10030    2    1    2    0    0  0.00000000000E+00  0.00000000000E+00 -0.18337850601E+03  0.29066123162E+04  0.29008218629E+04 0.  0.
        3    1    3    3  502    0 -0.59045388796E+03  0.19092772994E+03  0.12218824683E+04  0.13704327668E+04  0.10100000352E+00 0. -1.
       -3    1    3    3    0  502  0.59045388796E+03 -0.19092772994E+03 -0.14052609743E+04  0.15361795494E+04  0.10100000352E+00 0.  1.
</event>
<event>
 5   0  0.9950999E-07  0.2894934E+04  0.7818609E-02  0.8274386E-01
       -2   -1    0    0    0  501  0.00000000000E+00  0.00000000000E+00  0.10409581572E+04  0.10409581572E+04  0.25500000920E-02 0.  1.
        2   -1    0    0  501    0  0.00000000000E+00  0.00000000000E+00 -0.20127231519E+04  0.20127231519E+04  0.25500000920E-02 0. -1.
    10030    2    1    2    0    0  0.00000000000E+00  0.00000000000E+00 -0.97176499465E+03  0.30536813091E+04  0.28949339082E+04 0.  0.
        3    1    3    3  502    0 -0.42891961440E+02 -0.12531999936E+04 -0.12485886711E+04  0.17695546400E+04  0.10100000352E+00 0. -1.
       -3    1    3    3    0  502  0.42891961440E+02  0.12531999936E+04  0.27682367642E+03  0.12841266691E+04  0.10100000352E+00 0.  1.
</event>
<event>
 5   0  0.3770467E-07  0.2897632E+04  0.7818609E-02  0.8273582E-01
        1   -1    0    0  501    0  0.00000000000E+00  0.00000000000E+00  0.11728379617E+04  0.11728379617E+04  0.50400001928E-02 0. -1.
       -1   -1    0    0    0  501  0.00000000000E+00  0.00000000000E+00 -0.17897334049E+04  0.17897334049E+04  0.50400001928E-02 0.  1.
    10030    2    1    2    0    0  0.00000000000E+00  0.00000000000E+00 -0.61689544314E+03  0.29625713666E+04  0.28976316389E+04 0.  0.
        1    1    3    3  502    0  0.12776071358E+04 -0.52781211327E+03  0.13509695266E+03  0.13889264944E+04  0.50400001928E-02 0. -1.
       -1    1    3    3    0  502 -0.12776071358E+04  0.52781211327E+03 -0.75199239580E+03  0.15736448722E+04  0.50400001928E-02 0.  1.
</event>
<event>
 5   0  0.9994311E-07  0.2895306E+04  0.7818609E-02  0.8274276E-01
        2   -1    0    0  501    0  0.00000000000E+00  0.00000000000E+00  0.22654019962E+04  0.22654019962E+04  0.25500000920E-02 0.  1.
       -2   -1    0    0    0  501  0.00000000000E+00  0.00000000000E+00 -0.92508903259E+03  0.92508903259E+03  0.25500000920E-02 0. -1.
    10030    2    1    2    0    0  0.00000000000E+00  0.00000000000E+00  0.13403129636E+04  0.31904910288E+04  0.28953055390E+04 0.  0.
        2    1    3    3  502    0 -0.78684513336E+03  0.37337700799E+03  0.19444083639E+04  0.21305538105E+04  0.25500000920E-02 0.  1.
       -2    1    3    3    0  502  0.78684513336E+03 -0.37337700799E+03 -0.60409540029E+03  0.10599372183E+04  0.25500000920E-02 0. -1.
</event>
<event>
 5   0  0.3885904E-07  0.2901233E+04  0.7818609E-02  0.8272511E-01
        1   -1    0    0  501    0  0.00000000000E+00  0.00000000000E+00  0.10438688778E+04  0.10438688778E+04  0.50400001928E-02 0.  1.
       -1   -1    0    0    0  501  0.00000000000E+00  0.00000000000E+00 -0.20158544622E+04  0.20158544622E+04  0.50400001928E-02 0. -1.
    10030    2    1    2    0    0  0.00000000000E+00  0.00000000000E+00 -0.97198558442E+03  0.30597233400E+04  0.29012326589E+04 0.  0.
        2    1    3    3  502    0  0.50567885186E+02  0.54683702448E+03  0.93000089837E+03  0.10800414406E+04  0.25500000920E-02 0.  1.
       -2    1    3    3    0  502 -0.50567885186E+02 -0.54683702448E+03 -0.19019864828E+04  0.19796818995E+04  0.25500000920E-02 0. -1.
</event>
<event>
 5   0  0.9950999E-07  0.2897080E+04  0.7818609E-02  0.8273747E-01
       -2   -1    0    0    0  501  0.00000000000E+00  0.00000000000E+00  0.22051022300E+04  0.22051022300E+04  0.25500000920E-02 0.  1.
        2   -1    0    0  501    0  0.00000000000E+00  0.00000000000E+00 -0.95155128050E+03  0.95155128050E+03  0.25500000920E-02 0. -1.
    10030    2    1    2    0    0  0.00000000000E+00  0.00000000000E+00  0.12535509495E+04  0.31566535105E+04  0.28970798060E+04 0.  0.
        3    1    3    3  502    0 -0.92872310448E+03  0.26108443193E+03 -0.55058394772E+03  0.11107809771E+04  0.10100000352E+00 0. -1.
       -3    1    3    3    0  502  0.92872310448E+03 -0.26108443193E+03  0.18041348972E+04  0.20458725334E+04  0.10100000352E+00 0.  1.
</event>
<event>
 5   0  0.1031339E-06  0.2899801E+04  0.7818609E-02  0.8272937E-01
       -2   -1    0    0    0  501  0.00000000000E+00  0.00000000000E+00  0.76965358409E+03  0.76965358409E+03  0.25500000920E-02 0. -1.
        2   -1    0    0  501    0  0.00000000000E+00  0.00000000000E+00 -0.27313730140E+04  0.27313730140E+04  0.25500000920E-02 0.  1.
    10030    2    1    2    0    0  0.00000000000E+00  0.00000000000E+00 -0.19617194299E+04  0.35010265981E+04  0.28998007033E+04 0.  0.
        5    1    3    3  502    0 -0.96452450669E+03  0.17356879864E+03  0.30921176778E+03  0.10276515261E+04  0.46999998093E+01 0. -1.
       -5    1    3    3    0  502  0.96452450669E+03 -0.17356879864E+03 -0.22709311977E+04  0.24733750719E+04  0.46999998093E+01 0.  1.
</event>
<event>
 5   0  0.3885904E-07  0.2906570E+04  0.7818609E-02  0.8270925E-01
       -1   -1    0    0    0  501  0.00000000000E+00  0.00000000000E+00  0.11659923024E+04  0.11659923024E+04  0.50400001928E-02 0. -1.
        1   -1    0    0  501    0  0.00000000000E+00  0.00000000000E+00 -0.18113647685E+04  0.18113647685E+04  0.50400001928E-02 0.  1.
    10030    2    1    2    0    0  0.00000000000E+00  0.00000000000E+00 -0.64537246606E+03  0.29773570709E+04  0.29065700590E+04 0.  0.
        2    1    3    3  502    0 -0.14026466154E+04 -0.35761603138E+03 -0.19018918989E+03  0.14599584520E+04  0.25500000920E-02 0.  1.
       -2    1    3    3    0  502  0.14026466154E+04  0.35761603138E+03 -0.45518327617E+03  0.15173986189E+04  0.25500000920E-02 0. -1.
</event>
<event>
 5   0  0.9950999E-07  0.2903331E+04  0.7818609E-02  0.8271887E-01
        2   -1    0    0  501    0  0.00000000000E+00  0.00000000000E+00  0.23814829190E+04  0.23814829190E+04  0.25500000920E-02 0. -1.
       -2   -1    0    0    0  501  0.00000000000E+00  0.00000000000E+00 -0.88488238191E+03  0.88488238191E+03  0.25500000920E-02 0.  1.
    10030    2    1    2    0    0  0.00000000000E+00  0.00000000000E+00  0.14966005371E+04  0.32663653010E+04  0.29033306928E+04 0.  0.
        3    1    3    3  502    0  0.52032995957E+02  0.10674851752E+04 -0.35693429740E+03  0.11267804288E+04  0.10100000352E+00 0.  1.
       -3    1    3    3    0  502 -0.52032995957E+02 -0.10674851752E+04  0.18535348345E+04  0.21395848721E+04  0.10100000352E+00 0. -1.
</event>
<event>
 5   0  0.1063979E-06  0.2901885E+04  0.7818609E-02  0.8272317E-01
       -2   -1    0    0    0  501  0.00000000000E+00  0.00000000000E+00  0.11956910165E+04  0.11956910165E+04  0.25500000920E-02 0.  1.
        2   -1    0    0  501    0  0.00000000000E+00  0.00000000000E+00 -0.17606843100E+04  0.17606843100E+04  0.25500000920E-02 0. -1.
    10030    2    1    2    0    0  0.00000000000E+00  0.00000000000E+00 -0.56499329354E+03  0.29563753265E+04  0.29018851889E+04 0.  0.
        1    1    3    3  502    0  0.91629473144E+03  0.96791043300E+03  0.30167055707E+03  0.13665473889E+04  0.50400001928E-02 0.  1.
       -1    1    3    3    0  502 -0.91629473144E+03 -0.96791043300E+03 -0.86666385061E+03  0.15898279376E+04  0.50400001928E-02 0. -1.
</event>
<event>
 5   0  0.3786210E-07  0.2903346E+04  0.7818609E-02  0.8271883E-01
        1   -1    0    0  501    0  0.00000000000E+00  0.00000000000E+00  0.65170361851E+03  0.65170361853E+03  0.50400001928E-02 0.  1.
       -1   -1    0    0    0  501  0.00000000000E+00  0.00000000000E+00 -0.32336087237E+04  0.32336087237E+04  0.50400001928E-02 0. -1.
    10030    2    1    2    0    0  0.00000000000E+00  0.00000000000E+00 -0.25819051052E+04  0.38853123422E+04  0.29033460049E+04 0.  0.
        5    1    3    3  502    0  0.61058273700E+03  0.13026760809E+04 -0.15502915128E+04  0.21149945899E+04  0.46999998093E+01 0. -1.
       -5    1    3    3    0  502 -0.61058273700E+03 -0.13026760809E+04 -0.10316135923E+04  0.17703177523E+04  0.46999998093E+01 0.  1.
</event>
<event>
 5   0  0.9950999E-07  0.2907115E+04  0.7818609E-02  0.8270764E-01
       -2   -1    0    0    0  501  0.00000000000E+00  0.00000000000E+00  0.11098101409E+04  0.11098101409E+04  0.25500000920E-02 0. -1.
        2   -1    0    0  501    0  0.00000000000E+00  0.00000000000E+00 -0.19037757663E+04  0.19037757663E+04  0.25500000920E-02 0.  1.
    10030    2    1    2    0    0  0.00000000000E+00  0.00000000000E+00 -0.79396562536E+03  0.30135859073E+04  0.29071151691E+04 0.  0.
        3    1    3    3  502    0  0.94553319778E+03 -0.19049441250E+03  0.73027556896E+03  0.12098031105E+04  0.10100000352E+00 0. -1.
       -3    1    3    3    0  502 -0.94553319778E+03  0.19049441250E+03 -0.15242411943E+04  0.18037827968E+04  0.10100000352E+00 0.  1.
</event>
<event>
 5   0  0.3638028E-07  0.2905450E+04  0.7818609E-02  0.8271258E-01
       -1   -1    0    0    0  501  0.00000000000E+00  0.00000000000E+00  0.16486740375E+04  0.16486740375E+04  0.50400001928E-02 0.  1.
        1   -1    0    0  501    0  0.00000000000E+00  0.00000000000E+00 -0.12800647900E+04  0.12800647900E+04  0.50400001928E-02 0. -1.
    10030    2    1    2    0    0  0.00000000000E+00  0.00000000000E+00  0.36860924746E+03  0.29287388275E+04  0.29054497659E+04 0.  0.
        4    1    3    3  502    0 -0.96034476369E+03  0.10898050819E+04  0.20617626346E+03  0.14671221647E+04  0.12699999809E+01 0.  1.
       -4    1    3    3    0  502  0.96034476369E+03 -0.10898050819E+04  0.16243298400E+03  0.14616166628E+04  0.12699999809E+01 0. -1.
</event>
<event>
 5   0  0.3770467E-07  0.2884984E+04  0.7818609E-02  0.8277359E-01
       -1   -1    0    0    0  501  0.00000000000E+00  0.00000000000E+00  0.15744065462E+04  0.15744065462E+04  0.50400001928E-02 0.  1.
        1   -1    0    0  501    0  0.00000000000E+00  0.00000000000E+00 -0.13216304895E+04  0.13216304895E+04  0.50400001928E-02 0. -1.
    10030    2    1    2    0    0  0.00000000000E+00  0.00000000000E+00  0.25277605665E+03  0.28960370357E+04  0.28849843635E+04 0.  0.
        1    1    3    3  502    0  0.24658722461E+03  0.10073207014E+04  0.11328674783E+04  0.15358675002E+04  0.50400001928E-02 0.  1.
       -1    1    3    3    0  502 -0.24658722461E+03 -0.10073207014E+04 -0.88009142167E+03  0.13601695355E+04  0.50400001928E-02 0. -1.
</event>
<event>
 5   0  0.3769563E-07  0.2893820E+04  0.7818609E-02  0.8274719E-01
        1   -1    0    0  501    0  0.00000000000E+00  0.00000000000E+00  0.14295872846E+04  0.14295872846E+04  0.50400001928E-02 0.  1.
       -1   -1    0    0    0  501  0.00000000000E+00  0.00000000000E+00 -0.14644421697E+04  0.14644421697E+04  0.50400001928E-02 0. -1.
    10030    2    1    2    0    0  0.00000000000E+00  0.00000000000E+00 -0.34854885100E+02  0.28940294543E+04  0.28938195554E+04 0.  0.
        3    1    3    3  502    0  0.91644025376E+03  0.23731782642E+03 -0.11117487435E+04  0.14601944283E+04  0.10100000352E+00 0. -1.
       -3    1    3    3    0  502 -0.91644025376E+03 -0.23731782642E+03  0.10768938584E+04  0.14338350260E+04  0.10100000352E+00 0.  1.
</event>
<event>
 5   0  0.1006893E-06  0.2902214E+04  0.7818609E-02  0.8272219E-01
        2   -1    0    0  501    0  0.00000000000E+00  0.00000000000E+00  0.19280267139E+04  0.19280267139E+04  0.25500000920E-02 0. -1.
       -2   -1    0    0    0  501  0.00000000000E+00  0.00000000000E+00 -0.10921585332E+04  0.10921585332E+04  0.25500000920E-02 0.  1.
    10030    2    1    2    0    0  0.00000000000E+00  0.00000000000E+00  0.83586818076E+03  0.30201852471E+04  0.29022135192E+04 0.  0.
        4    1    3    3  502    0  0.10408417649E+04  0.44517247021E+03  0.13626800026E+04  0.17715610377E+04  0.12699999809E+01 0. -1.
       -4    1    3    3    0  502 -0.10408417649E+04 -0.44517247021E+03 -0.52681182182E+03  0.12486242094E+04  0.12699999809E+01 0.  1.
</event>
<event>
 5   0  0.1006893E-06  0.2901309E+04  0.7818609E-02  0.8272488E-01
       -2   -1    0    0    0  501  0.00000000000E+00  0.00000000000E+00  0.95134277719E+03  0.95134277719E+03  0.25500000920E-02 0.  1.
        2   -1    0    0  501    0  0.00000000000E+00  0.00000000000E+00 -0.22120291811E+04  0.22120291811E+04  0.25500000920E-02 0. -1.
    10030    2    1    2    0    0  0.00000000000E+00  0.00000000000E+00 -0.12606864039E+04  0.31633719583E+04  0.29013086595E+04 0.  0.
        4    1    3    3  502    0  0.10415463741E+04  0.49924063140E+03 -0.15873092104E+04  0.19630619450E+04  0.12699999809E+01 0. -1.
       -4    1    3    3    0  502 -0.10415463741E+04 -0.49924063140E+03  0.32662280653E+03  0.12003100133E+04  0.12699999809E+01 0.  1.
</event>
<event>
 5   0  0.3885904E-07  0.2899673E+04  0.7818609E-02  0.8272975E-01
       -1   -1    0    0    0  501  0.00000000000E+00  0.00000000000E+00  0.13710535839E+04  0.13710535839E+04  0.50400001928E-02 0. -1.
        1   -1    0    0  501    0  0.00000000000E+00  0.00000000000E+00 -0.15331458894E+04  0.15331458894E+04  0.50400001928E-02 0.  1.
    10030    2    1    2    0    0  0.00000000000E+00  0.00000000000E+00 -0.16209230547E+03  0.29041994733E+04  0.28996725100E+04 0.  0.
        2    1    3    3  502    0  0.31883878715E+03 -0.11922630181E+04 -0.84307291118E+03  0.14946307939E+04  0.25500000920E-02 0.  1.
       -2    1    3    3    0  502 -0.31883878715E+03  0.11922630181E+04  0.68098060571E+03  0.14095686794E+04  0.25500000920E-02 0. -1.
</event>
<event>
 5   0  0.3769563E-07  0.2896377E+04  0.7818609E-02  0.8273956E-01
        1   -1    0    0  501    0  0.00000000000E+00  0.00000000000E+00  0.22263350823E+04  0.22263350823E+04  0.50400001928E-02 0.  1.
       -1   -1    0    0    0  501  0.00000000000E+00  0.00000000000E+00 -0.94201880081E+03  0.94201880083E+03  0.50400001928E-02 0. -1.
    10030    2    1    2    0    0  0.00000000000E+00  0.00000000000E+00  0.12843162815E+04  0.31683538831E+04  0.28963767051E+04 0.  0.
        3    1    3    3  502    0 -0.76366956690E+03 -0.29076314395E+03  0.19500535281E+04  0.21143422584E+04  0.10100000352E+00 0.  1.
       -3    1    3    3    0  502  0.76366956690E+03  0.29076314395E+03 -0.66573724659E+03  0.10540116247E+04  0.10100000352E+00 0. -1.
</event>
<event>
 5   0  0.3786210E-07  0.2897033E+04  0.7818609E-02  0.8273761E-01
       -1   -1    0    0    0  501  0.00000000000E+00  0.00000000000E+00  0.12894697713E+04  0.12894697713E+04  0.50400001928E-02 0. -1.
        1   -1    0    0  501    0  0.00000000000E+00  0.00000000000E+00 -0.16271804931E+04  0.16271804931E+04  0.50400001928E-02 0.  1.
    10030    2    1    2    0    0  0.00000000000E+00  0.00000000000E+00 -0.33771072179E+03  0.29166502644E+04  0.28970330052E+04 0.  0.
        5    1    3    3  502    0 -0.49122258222E+03  0.10741652691E+04 -0.10130122921E+04  0.15560676864E+04  0.46999998093E+01 0.  1.
       -5    1    3    3    0  502  0.49122258222E+03 -0.10741652691E+04  0.67530157033E+03  0.13605825780E+04  0.46999998093E+01 0. -1.
</event>
<event>
 5   0  0.9994311E-07  0.2903032E+04  0.7818609E-02  0.8271976E-01
       -2   -1    0    0    0  501  0.00000000000E+00  0.00000000000E+00  0.18578791658E+04  0.18578791658E+04  0.25500000920E-02 0. -1.
        2   -1    0    0  501    0  0.00000000000E+00  0.00000000000E+00 -0.11340341890E+04  0.11340341890E+04  0.25500000920E-02 0.  1.
    10030    2    1    2    0    0  0.00000000000E+00  0.00000000000E+00  0.72384497673E+03  0.29919133548E+04  0.29030318586E+04 0.  0.
        2    1    3    3  502    0  0.40869554788E+03  0.13927833830E+04  0.35721196040E+03  0.14948170414E+04  0.25500000920E-02 0. -1.
       -2    1    3    3    0  502 -0.40869554788E+03 -0.13927833830E+04  0.36663301633E+03  0.14970963133E+04  0.25500000920E-02 0.  1.
</event>
<event>
 5   0  0.9950999E-07  0.2981774E+04  0.7818609E-02  0.8248955E-01
        2   -1    0    0  501    0  0.00000000000E+00  0.00000000000E+00  0.14037008850E+04  0.14037008850E+04  0.25500000920E-02 0. -1.
       -2   -1    0    0    0  501  0.00000000000E+00  0.00000000000E+00 -0.15834885861E+04  0.15834885861E+04  0.25500000920E-02 0.  1.
    10030    2    1    2    0    0  0.00000000000E+00  0.00000000000E+00 -0.17978770108E+03  0.29871894711E+04  0.29817741898E+04 0.  0.
        3    1    3    3  502    0 -0.11752772393E+04 -0.58012529877E+03  0.62197554761E+03  0.14507499934E+04  0.10100000352E+00 0.  1.
       -3    1    3    3    0  502  0.11752772393E+04  0.58012529877E+03 -0.80176324869E+03  0.15364394777E+04  0.10100000352E+00 0. -1.
</event>
<event>
 5   0  0.1063979E-06  0.2890527E+04  0.7818609E-02  0.8275702E-01
       -2   -1    0    0    0  501  0.00000000000E+00  0.00000000000E+00  0.11805998810E+04  0.11805998810E+04  0.25500000920E-02 0.  1.
        2   -1    0    0  501    0  0.00000000000E+00  0.00000000000E+00 -0.17692583697E+04  0.17692583697E+04  0.25500000920E-02 0. -1.
    10030    2    1    2    0    0  0.00000000000E+00  0.00000000000E+00 -0.58865848872E+03  0.29498582506E+04  0.28905267483E+04 0.  0.
        1    1    3    3  502    0 -0.13759827403E+04 -0.44042357431E+03 -0.33365320876E+03  0.14827764127E+04  0.50400001928E-02 0. -1.
       -1    1    3    3    0  502  0.13759827403E+04  0.44042357431E+03 -0.25500527996E+03  0.14670818379E+04  0.50400001928E-02 0.  1.
</event>
<event>
 5   0  0.9994311E-07  0.2900564E+04  0.7818609E-02  0.8272710E-01
        2   -1    0    0  501    0  0.00000000000E+00  0.00000000000E+00  0.17582454384E+04  0.17582454384E+04  0.25500000920E-02 0.  1.
       -2   -1    0    0    0  501  0.00000000000E+00  0.00000000000E+00 -0.11962598531E+04  0.11962598531E+04  0.25500000920E-02 0. -1.
    10030    2    1    2    0    0  0.00000000000E+00  0.00000000000E+00  0.56198558537E+03  0.29545052915E+04  0.29005643795E+04 0.  0.
        2    1    3    3  502    0 -0.11238825759E+04  0.20258176219E+03 -0.62959335242E+03  0.13040472400E+04  0.25500000920E-02 0. -1.
       -2    1    3    3    0  502  0.11238825759E+04 -0.20258176219E+03  0.11915789378E+04  0.16504580515E+04  0.25500000920E-02 0.  1.
</event>
<event>
 5   0  0.9950999E-07  0.2889328E+04  0.7818609E-02  0.8276060E-01
        2   -1    0    0  501    0  0.00000000000E+00  0.00000000000E+00  0.15621610813E+04  0.15621610813E+04  0.25500000920E-02 0.  1.
       -2   -1    0    0    0  501  0.00000000000E+00  0.00000000000E+00 -0.13360039706E+04  0.13360039706E+04  0.25500000920E-02 0. -1.
    10030    2    1    2    0    0  0.00000000000E+00  0.00000000000E+00  0.22615711079E+03  0.28981650519E+04  0.28893275393E+04 0.  0.
        3    1    3    3  502    0  0.27657820425E+03  0.31836425898E+03  0.14990436379E+04  0.15572357378E+04  0.10100000352E+00 0.  1.
       -3    1    3    3    0  502 -0.27657820425E+03 -0.31836425898E+03 -0.12728865271E+04  0.13409293141E+04  0.10100000352E+00 0. -1.
</event>
<event>
 5   0  0.3769563E-07  0.2902030E+04  0.7818609E-02  0.8272274E-01
        1   -1    0    0  501    0  0.00000000000E+00  0.00000000000E+00  0.13848220841E+04  0.13848220841E+04  0.50400001928E-02 0. -1.
       -1   -1    0    0    0  501  0.00000000000E+00  0.00000000000E+00 -0.15203719356E+04  0.15203719356E+04  0.50400001928E-02 0.  1.
    10030    2    1    2    0    0  0.00000000000E+00  0.00000000000E+00 -0.13554985147E+03  0.29051940197E+04  0.29020300704E+04 0.  0.
        3    1    3    3  502    0 -0.37115134394E+03  0.10648598047E+04 -0.98187772091E+03  0.14952470006E+04  0.10100000352E+00 0.  1.
       -3    1    3    3    0  502  0.37115134394E+03 -0.10648598047E+04  0.84632786943E+03  0.14099470191E+04  0.10100000352E+00 0. -1.
</event>
<event>
 5   0  0.1031339E-06  0.2898148E+04  0.7818609E-02  0.8273429E-01
       -2   -1    0    0    0  501  0.00000000000E+00  0.00000000000E+00  0.17118927898E+04  0.17118927898E+04  0.25500000920E-02 0.  1.
        2   -1    0    0  501    0  0.00000000000E+00  0.00000000000E+00 -0.12266048906E+04  0.12266048906E+04  0.25500000920E-02 0. -1.
    10030    2    1    2    0    0  0.00000000000E+00  0.00000000000E+00  0.48528789924E+03  0.29384976804E+04  0.28981484215E+04 0.  0.
        5    1    3    3  502    0  0.20340798835E+03 -0.66546220405E+03 -0.10461065865E+04  0.12564138788E+04  0.46999998093E+01 0.  1.
       -5    1    3    3    0  502 -0.20340798835E+03  0.66546220405E+03  0.15313944857E+04  0.16820838016E+04  0.46999998093E+01 0. -1.
</event>
<event>
 5   0  0.3786210E-07  0.2900056E+04  0.7818609E-02  0.8272861E-01
        1   -1    0    0  501    0  0.00000000000E+00  0.00000000000E+00  0.22740978103E+04  0.22740978103E+04  0.50400001928E-02 0. -1.
       -1   -1    0    0    0  501  0.00000000000E+00  0.00000000000E+00 -0.92457846319E+03  0.92457846320E+03  0.50400001928E-02 0.  1.
    10030    2    1    2    0    0  0.00000000000E+00  0.00000000000E+00  0.13495193471E+04  0.31986762735E+04  0.29000564536E+04 0.  0.
        5    1    3    3  502    0 -0.13299182835E+04 -0.57734821787E+03  0.70053623796E+03  0.16102132518E+04  0.46999998093E+01 0.  1.
       -5    1    3    3    0  502  0.13299182835E+04  0.57734821787E+03  0.64898310911E+03  0.15884630217E+04  0.46999998093E+01 0. -1.
</event>
<event>
 5   0  0.3769563E-07  0.2902209E+04  0.7818609E-02  0.8272220E-01
        1   -1    0    0  501    0  0.00000000000E+00  0.00000000000E+00  0.24371914536E+04  0.24371914536E+04  0.50400001928E-02 0. -1.
       -1   -1    0    0    0  501  0.00000000000E+00  0.00000000000E+00 -0.86398827750E+03  0.86398827751E+03  0.50400001928E-02 0.  1.
    10030    2    1    2    0    0  0.00000000000E+00  0.00000000000E+00  0.15732031761E+04  0.33011797312E+04  0.29022093970E+04 0.  0.
        3    1    3    3  502    0  0.65160711316E+03 -0.29054921605E+03 -0.65071121534E+03  0.96562713965E+03  0.10100000352E+00 0.  1.
       -3    1    3    3    0  502 -0.65160711316E+03  0.29054921605E+03  0.22239143915E+04  0.23355525915E+04  0.10100000352E+00 0. -1.
</event>
<event>
 5   0  0.9950999E-07  0.2907785E+04  0.7818609E-02  0.8270565E-01
       -2   -1    0    0    0  501  0.00000000000E+00  0.00000000000E+00  0.15942419011E+04  0.15942419011E+04  0.25500000920E-02 0.  1.
        2   -1    0    0  501    0  0.00000000000E+00  0.00000000000E+00 -0.13258990312E+04  0.13258990312E+04  0.25500000920E-02 0. -1.
    10030    2    1    2    0    0  0.00000000000E+00  0.00000000000E+00  0.26834286989E+03  0.29201409323E+04  0.29077852686E+04 0.  0.
        3    1    3    3  502    0  0.54209901747E+03  0.13143378077E+04 -0.17117409447E+03  0.14320111027E+04  0.10100000352E+00 0. -1.
       -3    1    3    3    0  502 -0.54209901747E+03 -0.13143378077E+04  0.43951696436E+03  0.14881298296E+04  0.10100000352E+00 0.  1.
</event>
<event>
 5   0  0.3770467E-07  0.2898757E+04  0.7818609E-02  0.8273247E-01
        1   -1    0    0  501    0  0.00000000000E+00  0.00000000000E+00  0.11423340731E+04  0.11423340731E+04  0.50400001928E-02 0. -1.
       -1   -1    0    0    0  501  0.00000000000E+00  0.00000000000E+00 -0.18389522404E+04  0.18389522404E+04  0.50400001928E-02 0.  1.
    10030    2    1    2    0    0  0.00000000000E+00  0.00000000000E+00 -0.69661816730E+03  0.29812863134E+04  0.28987568390E+04 0.  0.
        1    1    3    3  502    0 -0.71248626668E+03 -0.77372484080E+03 -0.13739016361E+04  0.17302868304E+04  0.50400001928E-02 0.  1.
       -1    1    3    3    0  502  0.71248626668E+03  0.77372484080E+03  0.67728346884E+03  0.12509994831E+04  0.50400001928E-02 0. -1.
</event>
<event>
 5   0  0.3769563E-07  0.2895872E+04  0.7818609E-02  0.8274107E-01
       -1   -1    0    0    0  501  0.00000000000E+00  0.00000000000E+00  0.12052868649E+04  0.12052868649E+04  0.50400001928E-02 0.  1.
        1   -1    0    0  501    0  0.00000000000E+00  0.00000000000E+00 -0.17394352430E+04  0.17394352430E+04  0.50400001928E-02 0. -1.
    10030    2    1    2    0    0  0.00000000000E+00  0.00000000000E+00 -0.53414837807E+03  0.29447221079E+04  0.28958718554E+04 0.  0.
        3    1    3    3  502    0 -0.14027188893E+04  0.24523603803E+03 -0.53371390494E+03  0.15207273060E+04  0.10100000352E+00 0.  1.
       -3    1    3    3    0  502  0.14027188893E+04 -0.24523603803E+03 -0.43447312981E+00  0.14239948019E+04  0.10100000352E+00 0. -1.
</event>
<event>
 5   0  0.3638028E-07  0.2899981E+04  0.7818609E-02  0.8272883E-01
        1   -1    0    0  501    0  0.00000000000E+00  0.00000000000E+00  0.15015706577E+04  0.15015706577E+04  0.50400001928E-02 0. -1.
       -1   -1    0    0    0  501  0.00000000000E+00  0.00000000000E+00 -0.14001820172E+04  0.14001820172E+04  0.50400001928E-02 0.  1.
    10030    2    1    2    0    0  0.00000000000E+00  0.00000000000E+00  0.10138864048E+03  0.29017526749E+04  0.28999808499E+04 0.  0.
        4    1    3    3  502    0  0.35854796683E+03  0.10001063512E+03  0.14529469350E+04  0.14998717213E+04  0.12699999809E+01 0. -1.
       -4    1    3    3    0  502 -0.35854796683E+03 -0.10001063512E+03 -0.13515582945E+04  0.14018809536E+04  0.12699999809E+01 0.  1.
</event>
<event>
 5   0  0.3786210E-07  0.2899930E+04  0.7818609E-02  0.8272898E-01
       -1   -1    0    0    0  501  0.00000000000E+00  0.00000000000E+00  0.18784955444E+04  0.18784955444E+04  0.50400001928E-02 0.  1.
        1   -1    0    0  501    0  0.00000000000E+00  0.00000000000E+00 -0.11191924357E+04  0.11191924358E+04  0.50400001928E-02 0. -1.
    10030    2    1    2    0    0  0.00000000000E+00  0.00000000000E+00  0.75930310867E+03  0.29976879802E+04  0.28999296570E+04 0.  0.
        5    1    3    3  502    0  0.18916769477E+03  0.14374912163E+04  0.39464927476E+03  0.15026428564E+04  0.46999998093E+01 0.  1.
       -5    1    3    3    0  502 -0.18916769477E+03 -0.14374912163E+04  0.36465383391E+03  0.14950451238E+04  0.46999998093E+01 0. -1.
</event>
<event>
 5   0  0.1006893E-06  0.2900554E+04  0.7818609E-02  0.8272713E-01
       -2   -1    0    0    0  501  0.00000000000E+00  0.00000000000E+00  0.10376683539E+04  0.10376683539E+04  0.25500000920E-02 0. -1.
        2   -1    0    0  501    0  0.00000000000E+00  0.00000000000E+00 -0.20269507881E+04  0.20269507881E+04  0.25500000920E-02 0.  1.
    10030    2    1    2    0    0  0.00000000000E+00  0.00000000000E+00 -0.98928243424E+03  0.30646191419E+04  0.29005535248E+04 0.  0.
        4    1    3    3  502    0  0.85621300149E+03  0.13812841978E+03  0.73348423949E+03  0.11358613061E+04  0.12699999809E+01 0. -1.
       -4    1    3    3    0  502 -0.85621300149E+03 -0.13812841978E+03 -0.17227666737E+04  0.19287578358E+04  0.12699999809E+01 0.  1.
</event>
<event>
 5   0  0.1063979E-06  0.2906782E+04  0.7818609E-02  0.8270863E-01
        2   -1    0    0  501    0  0.00000000000E+00  0.00000000000E+00  0.18393502026E+04  0.18393502026E+04  0.25500000920E-02 0. -1.
       -2   -1    0    0    0  501  0.00000000000E+00  0.00000000000E+00 -0.11484190425E+04  0.11484190425E+04  0.25500000920E-02 0.  1.
    10030    2    1    2    0    0  0.00000000000E+00  0.00000000000E+00  0.69093116007E+03  0.29877692451E+04  0.29067815869E+04 0.  0.
        1    1    3    3  502    0  0.13381315075E+04  0.56687436528E+03  0.32484879253E+03  0.14891169247E+04  0.50400001928E-02 0.  1.
       -1    1    3    3    0  502 -0.13381315075E+04 -0.56687436528E+03  0.36608236754E+03  0.14986523204E+04  0.50400001928E-02 0. -1.
</event>
<event>
 5   0  0.3638028E-07  0.2900205E+04  0.7818609E-02  0.8272816E-01
       -1   -1    0    0    0  501  0.00000000000E+00  0.00000000000E+00  0.16812741215E+04  0.16812741215E+04  0.50400001928E-02 0.  1.
        1   -1    0    0  501    0  0.00000000000E+00  0.00000000000E+00 -0.12507168818E+04  0.12507168818E+04  0.50400001928E-02 0. -1.
    10030    2    1    2    0    0  0.00000000000E+00  0.00000000000E+00  0.43055723972E+03  0.29319910032E+04  0.29002054593E+04 0.  0.
        4    1    3    3  502    0 -0.71342577890E+03  0.14429842488E+03  0.14832164045E+04  0.16521897267E+04  0.12699999809E+01 0.  1.
       -4    1    3    3    0  502  0.71342577890E+03 -0.14429842488E+03 -0.10526591648E+04  0.12798012766E+04  0.12699999809E+01 0. -1.
</event>
<event>
 5   0  0.9994311E-07  0.2895777E+04  0.7818609E-02  0.8274135E-01
       -2   -1    0    0    0  501  0.00000000000E+00  0.00000000000E+00  0.12112342651E+04  0.12112342651E+04  0.25500000920E-02 0.  1.
        2   -1    0    0  501    0  0.00000000000E+00  0.00000000000E+00 -0.17307813261E+04  0.17307813261E+04  0.25500000920E-02 0. -1.
    10030    2    1    2    0    0  0.00000000000E+00  0.00000000000E+00 -0.51954706098E+03  0.29420155912E+04  0.28957773724E+04 0.  0.
        2    1    3    3  502    0  0.44613426170E+03 -0.10761984185E+04  0.61368840691E+03  0.13167582451E+04  0.25500000920E-02 0.  1.
       -2    1    3    3    0  502 -0.44613426170E+03  0.10761984185E+04 -0.11332354679E+04  0.16252573461E+04  0.25500000920E-02 0. -1.
</event>
<event>
 5   0  0.3786210E-07  0.2891529E+04  0.7818609E-02  0.8275402E-01
       -1   -1    0    0    0  501  0.00000000000E+00  0.00000000000E+00  0.12553722698E+04  0.12553722698E+04  0.50400001928E-02 0.  1.
        1   -1    0    0  501    0  0.00000000000E+00  0.00000000000E+00 -0.16650317663E+04  0.16650317663E+04  0.50400001928E-02 0. -1.
    10030    2    1    2    0    0  0.00000000000E+00  0.00000000000E+00 -0.40965949655E+03  0.29204040361E+04  0.28915288052E+04 0.  0.
        5    1    3    3  502    0 -0.38646195381E+02  0.88345814961E+03  0.95036695213E+03  0.12981568720E+04  0.46999998093E+01 0.  1.
       -5    1    3    3    0  502  0.38646195381E+02 -0.88345814961E+03 -0.13600264487E+04  0.16222471642E+04  0.46999998093E+01 0. -1.
</event>
<event>
 5   0  0.9994311E-07  0.2904201E+04  0.7818609E-02  0.8271629E-01
        2   -1    0    0  501    0  0.00000000000E+00  0.00000000000E+00  0.25769897643E+04  0.25769897643E+04  0.25500000920E-02 0.  1.
       -2   -1    0    0    0  501  0.00000000000E+00  0.00000000000E+00 -0.81824006989E+03  0.81824006990E+03  0.25500000920E-02 0. -1.
    10030    2    1    2    0    0  0.00000000000E+00  0.00000000000E+00  0.17587496944E+04  0.33952298342E+04  0.29042012911E+04 0.  0.
        2    1    3    3  502    0 -0.37609529990E+03  0.70021246102E+03  0.23001024640E+04  0.24335604595E+04  0.25500000920E-02 0.  1.
       -2    1    3    3    0  502  0.37609529990E+03 -0.70021246102E+03 -0.54135276956E+03  0.96166937473E+03  0.25500000920E-02 0. -1.
</event>
<event>
 5   0  0.3638028E-07  0.2899312E+04  0.7818609E-02  0.8273082E-01
       -1   -1    0    0    0  501  0.00000000000E+00  0.00000000000E+00  0.94980237936E+03  0.94980237937E+03  0.50400001928E-02 0. -1.
        1   -1    0    0  501    0  0.00000000000E+00  0.00000000000E+00 -0.22125680609E+04  0.22125680609E+04  0.50400001928E-02 0.  1.
    10030    2    1    2    0    0  0.00000000000E+00  0.00000000000E+00 -0.12627656816E+04  0.31623704403E+04  0.28993119244E+04 0.  0.
        4    1    3    3  502    0  0.41523934387E+03  0.13596117100E+04 -0.94091441630E+03  0.17047842286E+04  0.12699999809E+01 0.  1.
       -4    1    3    3    0  502 -0.41523934387E+03 -0.13596117100E+04 -0.32185126527E+03  0.14575862117E+04  0.12699999809E+01 0. -1.
</event>
<event>
 5   0  0.3638028E-07  0.2903431E+04  0.7818609E-02  0.8271857E-01
        1   -1    0    0  501    0  0.00000000000E+00  0.00000000000E+00  0.20209995847E+04  0.20209995847E+04  0.50400001928E-02 0. -1.
       -1   -1    0    0    0  501  0.00000000000E+00  0.00000000000E+00 -0.10427901121E+04  0.10427901121E+04  0.50400001928E-02 0.  1.
    10030    2    1    2    0    0  0.00000000000E+00  0.00000000000E+00  0.97820947260E+03  0.30637896968E+04  0.29034313379E+04 0.  0.
        4    1    3    3  502    0  0.25934081125E+03  0.72197032632E+03 -0.81143350805E+03  0.11166578524E+04  0.12699999809E+01 0.  1.
       -4    1    3    3    0  502 -0.25934081125E+03 -0.72197032632E+03  0.17896429806E+04  0.19471318444E+04  0.12699999809E+01 0. -1.
</event>
<event>
 5   0  0.3885904E-07  0.2898057E+04  0.7818609E-02  0.8273456E-01
       -1   -1    0    0    0  501  0.00000000000E+00  0.00000000000E+00  0.16886723058E+04  0.16886723058E+04  0.50400001928E-02 0. -1.
        1   -1    0    0  501    0  0.00000000000E+00  0.00000000000E+00 -0.12433932699E+04  0.12433932699E+04  0.50400001928E-02 0.  1.
    10030    2    1    2    0    0  0.00000000000E+00  0.00000000000E+00  0.44527903590E+03  0.29320655757E+04  0.28980571285E+04 0.  0.
        2    1    3    3  502    0  0.69214370810E+03  0.16714173528E+03 -0.10541861790E+04  0.12721272626E+04  0.25500000920E-02 0.  1.
       -2    1    3    3    0  502 -0.69214370810E+03 -0.16714173528E+03  0.14994652149E+04  0.16599383130E+04  0.25500000920E-02 0. -1.
</event>
<event>
 5   0  0.9994311E-07  0.2902276E+04  0.7818609E-02  0.8272201E-01
       -2   -1    0    0    0  501  0.00000000000E+00  0.00000000000E+00  0.16644440226E+04  0.16644440226E+04  0.25500000920E-02 0.  1.
        2   -1    0    0  501    0  0.00000000000E+00  0.00000000000E+00 -0.12651678347E+04  0.12651678347E+04  0.25500000920E-02 0. -1.
    10030    2    1    2    0    0  0.00000000000E+00  0.00000000000E+00  0.39927618786E+03  0.29296118573E+04  0.29022756865E+04 0.  0.
        2    1    3    3  502    0  0.13851251224E+03  0.57604080575E+03  0.15368008845E+04  0.16470475660E+04  0.25500000920E-02 0.  1.
       -2    1    3    3    0  502 -0.13851251224E+03 -0.57604080575E+03 -0.11375246967E+04  0.12825642914E+04  0.25500000920E-02 0. -1.
</event>
<event>
 5   0  0.3378750E-07  0.2898861E+04  0.7818609E-02  0.8273216E-01
       -3   -1    0    0    0  501  0.00000000000E+00  0.00000000000E+00  0.23568486341E+04  0.23568486363E+04  0.10100000352E+00 0.  1.
        3   -1    0    0  501    0  0.00000000000E+00  0.00000000000E+00 -0.89138069204E+03  0.89138069776E+03  0.10100000352E+00 0. -1.
    10030    2    1    2    0    0  0.00000000000E+00  0.00000000000E+00  0.14654679421E+04  0.32482293340E+04  0.28988614174E+04 0.  0.
        2    1    3    3  502    0  0.50396678703E+03  0.13500889859E+04  0.90678122456E+03  0.17026376542E+04  0.25500000920E-02 0.  1.
       -2    1    3    3    0  502 -0.50396678703E+03 -0.13500889859E+04  0.55868671752E+03  0.15455916798E+04  0.25500000920E-02 0. -1.
</event>
<event>
 5   0  0.1031339E-06  0.2902157E+04  0.7818609E-02  0.8272236E-01
        2   -1    0    0  501    0  0.00000000000E+00  0.00000000000E+00  0.16924560386E+04  0.16924560386E+04  0.25500000920E-02 0.  1.
       -2   -1    0    0    0  501  0.00000000000E+00  0.00000000000E+00 -0.12441262768E+04  0.12441262768E+04  0.25500000920E-02 0. -1.
    10030    2    1    2    0    0  0.00000000000E+00  0.00000000000E+00  0.44832976174E+03  0.29365823154E+04  0.29021571494E+04 0.  0.
        5    1    3    3  502    0  0.51556478219E+03  0.11854331597E+03  0.15913949351E+04  0.16770269800E+04  0.46999998093E+01 0.  1.
       -5    1    3    3    0  502 -0.51556478219E+03 -0.11854331597E+03 -0.11430651733E+04  0.12595553354E+04  0.46999998093E+01 0. -1.
</event>
<event>
 5   0  0.1031339E-06  0.2899644E+04  0.7818609E-02  0.8272983E-01
       -2   -1    0    0    0  501  0.00000000000E+00  0.00000000000E+00  0.95411794006E+03  0.95411794007E+03  0.25500000920E-02 0.  1.
        2   -1    0    0  501    0  0.00000000000E+00  0.00000000000E+00 -0.22030656704E+04  0.22030656704E+04  0.25500000920E-02 0. -1.
    10030    2    1    2    0    0  0.00000000000E+00  0.00000000000E+00 -0.12489477304E+04  0.31571836105E+04  0.28996444467E+04 0.  0.
        5    1    3    3  502    0 -0.67320018362E+03 -0.21921010705E+03  0.75308933700E+03  0.10336426838E+04  0.46999998093E+01 0.  1.
       -5    1    3    3    0  502  0.67320018362E+03  0.21921010705E+03 -0.20020370674E+04  0.21235409267E+04  0.46999998093E+01 0. -1.
</event>
<event>
 5   0  0.1006893E-06  0.2896761E+04  0.7818609E-02  0.8273842E-01
       -2   -1    0    0    0  501  0.00000000000E+00  0.00000000000E+00  0.14415083952E+04  0.14415083952E+04  0.25500000920E-02 0. -1.
        2   -1    0    0  501    0  0.00000000000E+00  0.00000000000E+00 -0.14552858457E+04  0.14552858457E+04  0.25500000920E-02 0.  1.
    10030    2    1    2    0    0  0.00000000000E+00  0.00000000000E+00 -0.13777450586E+02  0.28967942409E+04  0.28967614772E+04 0.  0.
        4    1    3    3  502    0  0.62627079100E+03 -0.41971296990E+03  0.12298269525E+04  0.14425151738E+04  0.12699999809E+01 0. -1.
       -4    1    3    3    0  502 -0.62627079100E+03  0.41971296990E+03 -0.12436044031E+04  0.14542790671E+04  0.12699999809E+01 0.  1.
</event>
<event>
 5   0  0.3638028E-07  0.2900183E+04  0.7818609E-02  0.8272823E-01
       -1   -1    0    0    0  501  0.00000000000E+00  0.00000000000E+00  0.13619652851E+04  0.13619652851E+04  0.50400001928E-02 0.  1.
        1   -1    0    0  501    0  0.00000000000E+00  0.00000000000E+00 -0.15439202079E+04  0.15439202079E+04  0.50400001928E-02 0. -1.
    10030    2    1    2    0    0  0.00000000000E+00  0.00000000000E+00 -0.18195492287E+03  0.29058854930E+04  0.29001832536E+04 0.  0.
        4    1    3    3  502    0 -0.12253756611E+04  0.62712256344E+03  0.36591899224E+03  0.14243337187E+04  0.12699999809E+01 0.  1.
       -4    1    3    3    0  502  0.12253756611E+04 -0.62712256344E+03 -0.54787391511E+03  0.14815517744E+04  0.12699999809E+01 0. -1.
</event>
<event>
 5   0  0.3885904E-07  0.2892844E+04  0.7818609E-02  0.8275010E-01
        1   -1    0    0  501    0  0.00000000000E+00  0.00000000000E+00  0.18170331796E+04  0.18170331796E+04  0.50400001928E-02 0. -1.
       -1   -1    0    0    0  501  0.00000000000E+00  0.00000000000E+00 -0.11514022138E+04  0.11514022138E+04  0.50400001928E-02 0.  1.
    10030    2    1    2    0    0  0.00000000000E+00  0.00000000000E+00  0.66563096579E+03  0.29684353933E+04  0.28928436013E+04 0.  0.
        2    1    3    3  502    0  0.66893198476E+03  0.97559259941E+03 -0.52133277471E+03  0.12926866528E+04  0.25500000920E-02 0.  1.
       -2    1    3    3    0  502 -0.66893198476E+03 -0.97559259941E+03  0.11869637405E+04  0.16757487406E+04  0.25500000920E-02 0. -1.
</event>
<event>
 5   0  0.9994311E-07  0.2901686E+04  0.7818609E-02  0.8272376E-01
       -2   -1    0    0    0  501  0.00000000000E+00  0.00000000000E+00  0.11870151175E+04  0.11870151175E+04  0.25500000920E-02 0. -1.
        2   -1    0    0  501    0  0.00000000000E+00  0.00000000000E+00 -0.17733095138E+04  0.17733095138E+04  0.25500000920E-02 0.  1.
    10030    2    1    2    0    0  0.00000000000E+00  0.00000000000E+00 -0.58629439634E+03  0.29603246313E+04  0.29016858554E+04 0.  0.
        2    1    3    3  502    0  0.29769847403E+03  0.42057542403E+03  0.10905192835E+04  0.12061261860E+04  0.25500000920E-02 0. -1.
       -2    1    3    3    0  502 -0.29769847403E+03 -0.42057542403E+03 -0.16768136798E+04  0.17541984453E+04  0.25500000920E-02 0.  1.
</event>
<event>
 5   0  0.3885904E-07  0.2901977E+04  0.7818609E-02  0.8272289E-01
        1   -1    0    0  501    0  0.00000000000E+00  0.00000000000E+00  0.10773787228E+04  0.10773787228E+04  0.50400001928E-02 0. -1.
       -1   -1    0    0    0  501  0.00000000000E+00  0.00000000000E+00 -0.19541575940E+04  0.19541575940E+04  0.50400001928E-02 0.  1.
    10030    2    1    2    0    0  0.00000000000E+00  0.00000000000E+00 -0.87677887116E+03  0.30315363168E+04  0.29019771280E+04 0.  0.
        2    1    3    3  502    0 -0.90944736660E+03 -0.16822663381E+02 -0.16193423127E+04  0.18573225461E+04  0.25500000920E-02 0.  1.
       -2    1    3    3    0  502  0.90944736660E+03  0.16822663381E+02  0.74256344155E+03  0.11742137707E+04  0.25500000920E-02 0. -1.
</event>
<event>
 5   0  0.9950999E-07  0.2899242E+04  0.7818609E-02  0.8273103E-01
       -2   -1    0    0    0  501  0.00000000000E+00  0.00000000000E+00  0.11253281016E+04  0.11253281016E+04  0.25500000920E-02 0.  1.
        2   -1    0    0  501    0  0.00000000000E+00  0.00000000000E+00 -0.18673676435E+04  0.18673676435E+04  0.25500000920E-02 0. -1.
    10030    2    1    2    0    0  0.00000000000E+00  0.00000000000E+00 -0.74203954191E+03  0.29926957451E+04  0.28992421666E+04 0.  0.
        3    1    3    3  502    0  0.76736643485E+02  0.64811851372E+03 -0.17071367340E+04  0.18276383556E+04  0.10100000352E+00 0. -1.
       -3    1    3    3    0  502 -0.76736643485E+02 -0.64811851372E+03  0.96509719207E+03  0.11650573894E+04  0.10100000352E+00 0.  1.
</event>
<event>
 5   0  0.1031339E-06  0.2892480E+04  0.7818609E-02  0.8275118E-01
       -2   -1    0    0    0  501  0.00000000000E+00  0.00000000000E+00  0.13062387223E+04  0.13062387224E+04  0.25500000920E-02 0. -1.
        2   -1    0    0  501    0  0.00000000000E+00  0.00000000000E+00 -0.16012463049E+04  0.16012463049E+04  0.25500000920E-02 0.  1.
    10030    2    1    2    0    0  0.00000000000E+00  0.00000000000E+00 -0.29500758252E+03  0.29074850272E+04  0.28924798547E+04 0.  0.
        5    1    3    3  502    0  0.11474253509E+04 -0.79574204864E+03 -0.52601733283E+03  0.14921483399E+04  0.46999998093E+01 0.  1.
       -5    1    3    3    0  502 -0.11474253509E+04  0.79574204864E+03  0.23100975031E+03  0.14153366873E+04  0.46999998093E+01 0. -1.
</event>
<event>
 5   0  0.3786210E-07  0.2888399E+04  0.7818609E-02  0.8276338E-01
        1   -1    0    0  501    0  0.00000000000E+00  0.00000000000E+00  0.16050230606E+04  0.16050230606E+04  0.50400001928E-02 0.  1.
       -1   -1    0    0    0  501  0.00000000000E+00  0.00000000000E+00 -0.12994902674E+04  0.12994902674E+04  0.50400001928E-02 0. -1.
    10030    2    1    2    0    0  0.00000000000E+00  0.00000000000E+00  0.30553279317E+03  0.29045133280E+04  0.28883987579E+04 0.  0.
        5    1    3    3  502    0 -0.56707799426E+03  0.13149099974E+04  0.34122598134E+03  0.14720811843E+04  0.46999998093E+01 0. -1.
       -5    1    3    3    0  502  0.56707799426E+03 -0.13149099974E+04 -0.35693188175E+02  0.14324321437E+04  0.46999998093E+01 0.  1.
</event>
<event>
 5   0  0.3769563E-07  0.2907774E+04  0.7818609E-02  0.8270568E-01
       -1   -1    0    0    0  501  0.00000000000E+00  0.00000000000E+00  0.11607713153E+04  0.11607713153E+04  0.50400001928E-02 0. -1.
        1   -1    0    0  501    0  0.00000000000E+00  0.00000000000E+00 -0.18210197638E+04  0.18210197638E+04  0.50400001928E-02 0.  1.
    10030    2    1    2    0    0  0.00000000000E+00  0.00000000000E+00 -0.66024844851E+03  0.29817910792E+04  0.29077740673E+04 0.  0.
        3    1    3    3  502    0 -0.69913110450E+03 -0.27601021497E+02 -0.16370226572E+04  0.17802778738E+04  0.10100000352E+00 0.  1.
       -3    1    3    3    0  502  0.69913110450E+03  0.27601021497E+02  0.97677420869E+03  0.12015132054E+04  0.10100000352E+00 0. -1.
</event>
<event>
 5   0  0.9950999E-07  0.2903371E+04  0.7818609E-02  0.8271875E-01
        2   -1    0    0  501    0  0.00000000000E+00  0.00000000000E+00  0.15374648078E+04  0.15374648078E+04  0.25500000920E-02 0.  1.
       -2   -1    0    0    0  501  0.00000000000E+00  0.00000000000E+00 -0.13706920919E+04  0.13706920919E+04  0.25500000920E-02 0. -1.
    10030    2    1    2    0    0  0.00000000000E+00  0.00000000000E+00  0.16677271590E+03  0.29081568997E+04  0.29033710432E+04 0.  0.
        3    1    3    3  502    0  0.14380813758E+04  0.19676964989E+03  0.58963694199E+02  0.14526778947E+04  0.10100000352E+00 0. -1.
       -3    1    3    3    0  502 -0.14380813758E+04 -0.19676964989E+03  0.10780902170E+03  0.14554790049E+04  0.10100000352E+00 0.  1.
</event>
<event>
 5   0  0.1063979E-06  0.2892185E+04  0.7818609E-02  0.8275206E-01
        2   -1    0    0  501    0  0.00000000000E+00  0.00000000000E+00  0.17609886722E+04  0.17609886722E+04  0.25500000920E-02 0.  1.
       -2   -1    0    0    0  501  0.00000000000E+00  0.00000000000E+00 -0.11875055795E+04  0.11875055795E+04  0.25500000920E-02 0. -1.
    10030    2    1    2    0    0  0.00000000000E+00  0.00000000000E+00  0.57348309268E+03  0.29484942518E+04  0.28921852456E+04 0.  0.
        1    1    3    3  502    0  0.91770839721E+03  0.10796736685E+04  0.58097803296E+03  0.15314762184E+04  0.50400001928E-02 0.  1.
       -1    1    3    3    0  502 -0.91770839721E+03 -0.10796736685E+04 -0.74949402808E+01  0.14170180334E+04  0.50400001928E-02 0. -1.
</event>
<event>
 5   0  0.1063979E-06  0.2898582E+04  0.7818609E-02  0.8273300E-01
       -2   -1    0    0    0  501  0.00000000000E+00  0.00000000000E+00  0.94816657253E+03  0.94816657254E+03  0.25500000920E-02 0. -1.
        2   -1    0    0  501    0  0.00000000000E+00  0.00000000000E+00 -0.22152689526E+04  0.22152689526E+04  0.25500000920E-02 0.  1.
    10030    2    1    2    0    0  0.00000000000E+00  0.00000000000E+00 -0.12671023800E+04  0.31634355251E+04  0.28985817014E+04 0.  0.
        1    1    3    3  502    0  0.14082596941E+04 -0.25375355883E+03 -0.88446682149E+03  0.16822210892E+04  0.50400001928E-02 0.  1.
       -1    1    3    3    0  502 -0.14082596941E+04  0.25375355883E+03 -0.38263555854E+03  0.14812144359E+04  0.50400001928E-02 0. -1.
</event>
<event>
 5   0  0.9994311E-07  0.2901675E+04  0.7818609E-02  0.8272379E-01
       -2   -1    0    0    0  501  0.00000000000E+00  0.00000000000E+00  0.15309503296E+04  0.15309503296E+04  0.25500000920E-02 0. -1.
        2   -1    0    0  501    0  0.00000000000E+00  0.00000000000E+00 -0.13749167754E+04  0.13749167754E+04  0.25500000920E-02 0.  1.
    10030    2    1    2    0    0  0.00000000000E+00  0.00000000000E+00  0.15603355419E+03  0.29058671050E+04  0.29016748890E+04 0.  0.
        2    1    3    3  502    0  0.36838437034E+03 -0.73611388164E+03 -0.11184304437E+04  0.13886890755E+04  0.25500000920E-02 0.  1.
       -2    1    3    3    0  502 -0.36838437034E+03  0.73611388164E+03  0.12744639979E+04  0.15171780294E+04  0.25500000920E-02 0. -1.
</event>
<event>
 5   0  0.3770467E-07  0.2875983E+04  0.7818609E-02  0.8280059E-01
       -1   -1    0    0    0  501  0.00000000000E+00  0.00000000000E+00  0.13977809532E+04  0.13977809532E+04  0.50400001928E-02 0. -1.
        1   -1    0    0  501    0  0.00000000000E+00  0.00000000000E+00 -0.14793589898E+04  0.14793589898E+04  0.50400001928E-02 0.  1.
    10030    2    1    2    0    0  0.00000000000E+00  0.00000000000E+00 -0.81578036584E+02  0.28771399430E+04  0.28759831841E+04 0.  0.
        1    1    3    3  502    0  0.49552879018E+03 -0.12896530317E+04  0.35820230671E+03  0.14272570255E+04  0.50400001928E-02 0. -1.
       -1    1    3    3    0  502 -0.49552879018E+03  0.12896530317E+04 -0.43978034329E+03  0.14498829175E+04  0.50400001928E-02 0.  1.
</event>
<event>
 5   0  0.1063979E-06  0.2939420E+04  0.7818609E-02  0.8261244E-01
       -2   -1    0    0    0  501  0.00000000000E+00  0.00000000000E+00  0.14635134674E+04  0.14635134674E+04  0.25500000920E-02 0. -1.
        2   -1    0    0  501    0  0.00000000000E+00  0.00000000000E+00 -0.14759332697E+04  0.14759332697E+04  0.25500000920E-02 0.  1.
    10030    2    1    2    0    0  0.00000000000E+00  0.00000000000E+00 -0.12419802311E+02  0.29394467371E+04  0.29394204988E+04 0.  0.
        1    1    3    3  502    0  0.11502298284E+04  0.79017779366E+03  0.45492176087E+03  0.14677749869E+04  0.50400001928E-02 0. -1.
       -1    1    3    3    0  502 -0.11502298284E+04 -0.79017779366E+03 -0.46734156318E+03  0.14716717502E+04  0.50400001928E-02 0.  1.
</event>
<event>
 5   0  0.1006893E-06  0.2906193E+04  0.7818609E-02  0.8271037E-01
       -2   -1    0    0    0  501  0.00000000000E+00  0.00000000000E+00  0.61653923391E+03  0.61653923391E+03  0.25500000920E-02 0.  1.
        2   -1    0    0  501    0  0.00000000000E+00  0.00000000000E+00 -0.34247454553E+04  0.34247454553E+04  0.25500000920E-02 0. -1.
    10030    2    1    2    0    0  0.00000000000E+00  0.00000000000E+00 -0.28082062214E+04  0.40412846892E+04  0.29061933448E+04 0.  0.
        4    1    3    3  502    0 -0.19332261621E+03  0.12791577184E+04 -0.48393400433E+03  0.13812356193E+04  0.12699999809E+01 0.  1.
       -4    1    3    3    0  502  0.19332261621E+03 -0.12791577184E+04 -0.23242722170E+04  0.26600490699E+04  0.12699999809E+01 0. -1.
</event>
<event>
 5   0  0.9950999E-07  0.2899850E+04  0.7818609E-02  0.8272922E-01
       -2   -1    0    0    0  501  0.00000000000E+00  0.00000000000E+00  0.82771898418E+03  0.82771898418E+03  0.25500000920E-02 0.  1.
        2   -1    0    0  501    0  0.00000000000E+00  0.00000000000E+00 -0.25398506095E+04  0.25398506095E+04  0.25500000920E-02 0. -1.
    10030    2    1    2    0    0  0.00000000000E+00  0.00000000000E+00 -0.17121316253E+04  0.33675695937E+04  0.28998500420E+04 0.  0.
        3    1    3    3  502    0 -0.88268326158E+03  0.10213068350E+04 -0.14706566660E+04  0.19962535989E+04  0.10100000352E+00 0. -1.
       -3    1    3    3    0  502  0.88268326158E+03 -0.10213068350E+04 -0.24147495933E+03  0.13713159948E+04  0.10100000352E+00 0.  1.
</event>
<event>
 5   0  0.3786210E-07  0.2871074E+04  0.7818609E-02  0.8281536E-01
        1   -1    0    0  501    0  0.00000000000E+00  0.00000000000E+00  0.12581826765E+04  0.12581826765E+04  0.50400001928E-02 0.  1.
       -1   -1    0    0    0  501  0.00000000000E+00  0.00000000000E+00 -0.16378917155E+04  0.16378917155E+04  0.50400001928E-02 0. -1.
    10030    2    1    2    0    0  0.00000000000E+00  0.00000000000E+00 -0.37970903895E+03  0.28960743920E+04  0.28710743512E+04 0.  0.
        5    1    3    3  502    0  0.85453722110E+03 -0.82126909355E+03  0.62715383439E+03  0.13409178977E+04  0.46999998093E+01 0.  1.
       -5    1    3    3    0  502 -0.85453722110E+03  0.82126909355E+03 -0.10068628733E+04  0.15551564944E+04  0.46999998093E+01 0. -1.
</event>
<event>
 5   0  0.3885904E-07  0.2891521E+04  0.7818609E-02  0.8275405E-01
       -1   -1    0    0    0  501  0.00000000000E+00  0.00000000000E+00  0.17205319053E+04  0.17205319053E+04  0.50400001928E-02 0.  1.
        1   -1    0    0  501    0  0.00000000000E+00  0.00000000000E+00 -0.12148708170E+04  0.12148708170E+04  0.50400001928E-02 0. -1.
    10030    2    1    2    0    0  0.00000000000E+00  0.00000000000E+00  0.50566108831E+03  0.29354027223E+04  0.28915213998E+04 0.  0.
        2    1    3    3  502    0 -0.47792708315E+03 -0.97501092946E+02  0.16344782658E+04  0.17057080528E+04  0.25500000920E-02 0.  1.
       -2    1    3    3    0  502  0.47792708315E+03  0.97501092946E+02 -0.11288171775E+04  0.12296946695E+04  0.25500000920E-02 0. -1.
</event>
<event>
 5   0  0.1063979E-06  0.2899830E+04  0.7818609E-02  0.8272928E-01
        2   -1    0    0  501    0  0.00000000000E+00  0.00000000000E+00  0.16829813520E+04  0.16829813520E+04  0.25500000920E-02 0.  1.
       -2   -1    0    0    0  501  0.00000000000E+00  0.00000000000E+00 -0.12491248844E+04  0.12491248844E+04  0.25500000920E-02 0. -1.
    10030    2    1    2    0    0  0.00000000000E+00  0.00000000000E+00  0.43385646760E+03  0.29321062364E+04  0.28998302617E+04 0.  0.
        1    1    3    3  502    0  0.53585116964E+03 -0.91462654397E+03  0.12171685065E+04  0.16140561837E+04  0.50400001928E-02 0.  1.
       -1    1    3    3    0  502 -0.53585116964E+03  0.91462654397E+03 -0.78331203890E+03  0.13180500526E+04  0.50400001928E-02 0. -1.
</event>
<event>
 5   0  0.1006893E-06  0.2901844E+04  0.7818609E-02  0.8272329E-01
       -2   -1    0    0    0  501  0.00000000000E+00  0.00000000000E+00  0.12129473135E+04  0.12129473135E+04  0.25500000920E-02 0. -1.
        2   -1    0    0  501    0  0.00000000000E+00  0.00000000000E+00 -0.17355864879E+04  0.17355864879E+04  0.25500000920E-02 0.  1.
    10030    2    1    2    0    0  0.00000000000E+00  0.00000000000E+00 -0.52263917436E+03  0.29485338015E+04  0.29018442191E+04 0.  0.
        4    1    3    3  502    0 -0.64497383821E+01 -0.68268753491E+03  0.10395408299E+04  0.12436842925E+04  0.12699999809E+01 0. -1.
       -4    1    3    3    0  502  0.64497383821E+01  0.68268753491E+03 -0.15621800043E+04  0.17048495089E+04  0.12699999809E+01 0.  1.
</event>
<event>
 5   0  0.9950999E-07  0.2898040E+04  0.7818609E-02  0.8273461E-01
       -2   -1    0    0    0  501  0.00000000000E+00  0.00000000000E+00  0.12156184808E+04  0.12156184808E+04  0.25500000920E-02 0. -1.
        2   -1    0    0  501    0  0.00000000000E+00  0.00000000000E+00 -0.17272356084E+04  0.17272356084E+04  0.25500000920E-02 0.  1.
    10030    2    1    2    0    0  0.00000000000E+00  0.00000000000E+00 -0.51161712759E+03  0.29428540892E+04  0.28980403905E+04 0.  0.
        3    1    3    3  502    0 -0.80541578488E+03 -0.23654566078E+03  0.94356127774E+03  0.12629158053E+04  0.10100000352E+00 0. -1.
       -3    1    3    3    0  502  0.80541578488E+03  0.23654566078E+03 -0.14551784053E+04  0.16799382839E+04  0.10100000352E+00 0.  1.
</event>
<event>
 5   0  0.3770467E-07  0.2895544E+04  0.7818609E-02  0.8274204E-01
       -1   -1    0    0    0  501  0.00000000000E+00  0.00000000000E+00  0.20352363710E+04  0.20352363710E+04  0.50400001928E-02 0. -1.
        1   -1    0    0  501    0  0.00000000000E+00  0.00000000000E+00 -0.10298776260E+04  0.10298776260E+04  0.50400001928E-02 0.  1.
    10030    2    1    2    0    0  0.00000000000E+00  0.00000000000E+00  0.10053587450E+04  0.30651139970E+04  0.28955444408E+04 0.  0.
        1    1    3    3  502    0 -0.81899280845E+03  0.11910501132E+04  0.41606588784E+03  0.15041477373E+04  0.50400001928E-02 0. -1.
       -1    1    3    3    0  502  0.81899280845E+03 -0.11910501132E+04  0.58929285718E+03  0.15609662597E+04  0.50400001928E-02 0.  1.
</event>
<event>
 5   0  0.9994311E-07  0.2910180E+04  0.7818609E-02  0.8269855E-01
        2   -1    0    0  501    0  0.00000000000E+00  0.00000000000E+00  0.27620254910E+04  0.27620254910E+04  0.25500000920E-02 0.  1.
       -2   -1    0    0    0  501  0.00000000000E+00  0.00000000000E+00 -0.76657035772E+03  0.76657035772E+03  0.25500000920E-02 0. -1.
    10030    2    1    2    0    0  0.00000000000E+00  0.00000000000E+00  0.19954551332E+04  0.35285958487E+04  0.29101799729E+04 0.  0.
        2    1    3    3  502    0  0.10400802939E+04  0.91624826994E+03  0.15345368676E+04  0.20678687840E+04  0.25500000920E-02 0.  1.
       -2    1    3    3    0  502 -0.10400802939E+04 -0.91624826994E+03  0.46091826569E+03  0.14607270647E+04  0.25500000920E-02 0. -1.
</event>
<event>
 5   0  0.3770467E-07  0.2904054E+04  0.7818609E-02  0.8271672E-01
        1   -1    0    0  501    0  0.00000000000E+00  0.00000000000E+00  0.21002161138E+04  0.21002161138E+04  0.50400001928E-02 0.  1.
       -1   -1    0    0    0  501  0.00000000000E+00  0.00000000000E+00 -0.10038885961E+04  0.10038885961E+04  0.50400001928E-02 0. -1.
    10030    2    1    2    0    0  0.00000000000E+00  0.00000000000E+00  0.10963275177E+04  0.31041047099E+04  0.29040544113E+04 0.  0.
        1    1    3    3  502    0 -0.88582799091E+03 -0.16302705285E+03  0.17655283898E+04  0.19820089668E+04  0.50400001928E-02 0.  1.
       -1    1    3    3    0  502  0.88582799091E+03  0.16302705285E+03 -0.66920087208E+03  0.11220957431E+04  0.50400001928E-02 0. -1.
</event>
<event>
 5   0  0.3885904E-07  0.2899341E+04  0.7818609E-02  0.8273074E-01
        1   -1    0    0  501    0  0.00000000000E+00  0.00000000000E+00  0.15459440597E+04  0.15459440597E+04  0.50400001928E-02 0. -1.
       -1   -1    0    0    0  501  0.00000000000E+00  0.00000000000E+00 -0.13593922113E+04  0.13593922113E+04  0.50400001928E-02 0.  1.
    10030    2    1    2    0    0  0.00000000000E+00  0.00000000000E+00  0.18655184840E+03  0.29053362709E+04  0.28993408311E+04 0.  0.
        2    1    3    3  502    0 -0.17122995124E+03  0.11509892186E+03 -0.13446048165E+04  0.13603417109E+04  0.25500000920E-02 0.  1.
       -2    1    3    3    0  502  0.17122995124E+03 -0.11509892186E+03  0.15311566649E+04  0.15449945600E+04  0.25500000920E-02 0. -1.
</event>
<event>
 5   0  0.1031339E-06  0.2899093E+04  0.7818609E-02  0.8273147E-01
       -2   -1    0    0    0  501  0.00000000000E+00  0.00000000000E+00  0.13200086093E+04  0.13200086093E+04  0.25500000920E-02 0. -1.
        2   -1    0    0  501    0  0.00000000000E+00  0.00000000000E+00 -0.15917969002E+04  0.15917969002E+04  0.25500000920E-02 0.  1.
    10030    2    1    2    0    0  0.00000000000E+00  0.00000000000E+00 -0.27178829088E+03  0.29118055094E+04  0.28990933841E+04 0.  0.
        5    1    3    3  502    0 -0.85761170370E+03 -0.75306972677E+03  0.76164142869E+03  0.13721266718E+04  0.46999998093E+01 0. -1.
       -5    1    3    3    0  502  0.85761170370E+03  0.75306972677E+03 -0.10334297196E+04  0.15396788376E+04  0.46999998093E+01 0.  1.
</event>
<event>
 5   0  0.3770467E-07  0.2900766E+04  0.7818609E-02  0.8272650E-01
       -1   -1    0    0    0  501  0.00000000000E+00  0.00000000000E+00  0.28114659009E+04  0.28114659009E+04  0.50400001928E-02 0. -1.
        1   -1    0    0  501    0  0.00000000000E+00  0.00000000000E+00 -0.74822551914E+03  0.74822551916E+03  0.50400001928E-02 0.  1.
    10030    2    1    2    0    0  0.00000000000E+00  0.00000000000E+00  0.20632403818E+04  0.35596914201E+04  0.29007657839E+04 0.  0.
        1    1    3    3  502    0  0.29372111235E+03 -0.13931130023E+04  0.13712001631E+04  0.19766703864E+04  0.50400001928E-02 0. -1.
       -1    1    3    3    0  502 -0.29372111235E+03  0.13931130023E+04  0.69204021865E+03  0.15830210337E+04  0.50400001928E-02 0.  1.
</event>
<event>
 5   0  0.1006893E-06  0.2901862E+04  0.7818609E-02  0.8272324E-01
       -2   -1    0    0    0  501  0.00000000000E+00  0.00000000000E+00  0.88343831873E+03  0.88343831874E+03  0.25500000920E-02 0.  1.
        2   -1    0    0  501    0  0.00000000000E+00  0.00000000000E+00 -0.23829626918E+04  0.23829626918E+04  0.25500000920E-02 0. -1.
    10030    2    1    2    0    0  0.00000000000E+00  0.00000000000E+00 -0.14995243730E+04  0.32664010105E+04  0.29018618534E+04 0.  0.
        4    1    3    3  502    0 -0.13115878145E+04  0.61839530752E+03 -0.80630821758E+03  0.16591593975E+04  0.12699999809E+01 0. -1.
       -4    1    3    3    0  502  0.13115878145E+04 -0.61839530752E+03 -0.69321615545E+03  0.16072416130E+04  0.12699999809E+01 0.  1.
</event>
<event>
 5   0  0.3378750E-07  0.2904557E+04  0.7818609E-02  0.8271523E-01
       -3   -1    0    0    0  501  0.00000000000E+00  0.00000000000E+00  0.19764578211E+04  0.19764578237E+04  0.10100000352E+00 0. -1.
        3   -1    0    0  501    0  0.00000000000E+00  0.00000000000E+00 -0.10671172893E+04  0.10671172941E+04  0.10100000352E+00 0.  1.
    10030    2    1    2    0    0  0.00000000000E+00  0.00000000000E+00  0.90934053183E+03  0.30435751178E+04  0.29045566434E+04 0.  0.
        4    1    3    3  502    0  0.87222619467E+03  0.39284741687E+02 -0.76138674640E+03  0.11584615730E+04  0.12699999809E+01 0.  1.
       -4    1    3    3    0  502 -0.87222619467E+03 -0.39284741687E+02  0.16707272782E+04  0.18851135448E+04  0.12699999809E+01 0. -1.
</event>
<event>
 5   0  0.9950999E-07  0.2898576E+04  0.7818609E-02  0.8273301E-01
       -2   -1    0    0    0  501  0.00000000000E+00  0.00000000000E+00  0.18128044509E+04  0.18128044509E+04  0.25500000920E-02 0. -1.
        2   -1    0    0  501    0  0.00000000000E+00  0.00000000000E+00 -0.11586666364E+04  0.11586666364E+04  0.25500000920E-02 0.  1.
    10030    2    1    2    0    0  0.00000000000E+00  0.00000000000E+00  0.65413781445E+03  0.29714710873E+04  0.28985762268E+04 0.  0.
        3    1    3    3  502    0  0.10563979885E+03 -0.97526278743E+02  0.18054755437E+04  0.18111910698E+04  0.10100000352E+00 0. -1.
       -3    1    3    3    0  502 -0.10563979885E+03  0.97526278743E+02 -0.11513377292E+04  0.11602800175E+04  0.10100000352E+00 0.  1.
</event>
<event>
 5   0  0.9950999E-07  0.2904781E+04  0.7818609E-02  0.8271456E-01
       -2   -1    0    0    0  501  0.00000000000E+00  0.00000000000E+00  0.99867615439E+03  0.99867615439E+03  0.25500000920E-02 0.  1.
        2   -1    0    0  501    0  0.00000000000E+00  0.00000000000E+00 -0.21122343238E+04  0.21122343238E+04  0.25500000920E-02 0. -1.
    10030    2    1    2    0    0  0.00000000000E+00  0.00000000000E+00 -0.11135581695E+04  0.31109104782E+04  0.29047809224E+04 0.  0.
        3    1    3    3  502    0 -0.85913406345E+03 -0.10451286083E+04  0.89413056059E+01  0.13529542136E+04  0.10100000352E+00 0.  1.
       -3    1    3    3    0  502  0.85913406345E+03  0.10451286083E+04 -0.11224994751E+04  0.17579562647E+04  0.10100000352E+00 0. -1.
</event>
<event>
 5   0  0.3769563E-07  0.2893777E+04  0.7818609E-02  0.8274731E-01
       -1   -1    0    0    0  501  0.00000000000E+00  0.00000000000E+00  0.99661712848E+03  0.99661712849E+03  0.50400001928E-02 0. -1.
        1   -1    0    0  501    0  0.00000000000E+00  0.00000000000E+00 -0.21005929819E+04  0.21005929819E+04  0.50400001928E-02 0.  1.
    10030    2    1    2    0    0  0.00000000000E+00  0.00000000000E+00 -0.11039758534E+04  0.30972101104E+04  0.28937774246E+04 0.  0.
        3    1    3    3  502    0  0.34694495131E+03 -0.92060186863E+03  0.58354359470E+03  0.11438538967E+04  0.10100000352E+00 0. -1.
       -3    1    3    3    0  502 -0.34694495131E+03  0.92060186863E+03 -0.16875194481E+04  0.19533562137E+04  0.10100000352E+00 0.  1.
</event>
<event>
 5   0  0.9994311E-07  0.2904403E+04  0.7818609E-02  0.8271569E-01
        2   -1    0    0  501    0  0.00000000000E+00  0.00000000000E+00  0.13557485811E+04  0.13557485811E+04  0.25500000920E-02 0.  1.
       -2   -1    0    0    0  501  0.00000000000E+00  0.00000000000E+00 -0.15555167521E+04  0.15555167521E+04  0.25500000920E-02 0. -1.
    10030    2    1    2    0    0  0.00000000000E+00  0.00000000000E+00 -0.19976817095E+03  0.29112653332E+04  0.29044032981E+04 0.  0.
        2    1    3    3  502    0 -0.65934748064E+03  0.10975969284E+04 -0.78665356635E+03  0.15027581146E+04  0.25500000920E-02 0. -1.
       -2    1    3    3    0  502  0.65934748064E+03 -0.10975969284E+04  0.58688539540E+03  0.14085072186E+04  0.25500000920E-02 0.  1.
</event>
<event>
 5   0  0.1006893E-06  0.2909153E+04  0.7818609E-02  0.8270159E-01
       -2   -1    0    0    0  501  0.00000000000E+00  0.00000000000E+00  0.10769592913E+04  0.10769592913E+04  0.25500000920E-02 0.  1.
        2   -1    0    0  501    0  0.00000000000E+00  0.00000000000E+00 -0.19645990321E+04  0.19645990321E+04  0.25500000920E-02 0. -1.
    10030    2    1    2    0    0  0.00000000000E+00  0.00000000000E+00 -0.88763974080E+03  0.30415583233E+04  0.29091532660E+04 0.  0.
        4    1    3    3  502    0  0.10703441547E+04 -0.32125021443E+02 -0.14730653867E+04  0.18211512493E+04  0.12699999809E+01 0. -1.
       -4    1    3    3    0  502 -0.10703441547E+04  0.32125021443E+02  0.58542564587E+03  0.12204070740E+04  0.12699999809E+01 0.  1.
</event>
<event>
 5   0  0.1006893E-06  0.2892870E+04  0.7818609E-02  0.8275002E-01
       -2   -1    0    0    0  501  0.00000000000E+00  0.00000000000E+00  0.13324306677E+04  0.13324306677E+04  0.25500000920E-02 0.  1.
        2   -1    0    0  501    0  0.00000000000E+00  0.00000000000E+00 -0.15701931933E+04  0.15701931933E+04  0.25500000920E-02 0. -1.
    10030    2    1    2    0    0  0.00000000000E+00  0.00000000000E+00 -0.23776252561E+03  0.29026238610E+04  0.28928695546E+04 0.  0.
        4    1    3    3  502    0 -0.17542043185E+03  0.13876055024E+04  0.25107677271E+03  0.14210075711E+04  0.12699999809E+01 0.  1.
       -4    1    3    3    0  502  0.17542043185E+03 -0.13876055024E+04 -0.48883929831E+03  0.14816162900E+04  0.12699999809E+01 0. -1.
</event>
<event>
 5   0  0.3638028E-07  0.2900465E+04  0.7818609E-02  0.8272739E-01
       -1   -1    0    0    0  501  0.00000000000E+00  0.00000000000E+00  0.89879046499E+03  0.89879046501E+03  0.50400001928E-02 0.  1.
        1   -1    0    0  501    0  0.00000000000E+00  0.00000000000E+00 -0.23400051720E+04  0.23400051721E+04  0.50400001928E-02 0. -1.
    10030    2    1    2    0    0  0.00000000000E+00  0.00000000000E+00 -0.14412147071E+04  0.32387956371E+04  0.29004650225E+04 0.  0.
        4    1    3    3  502    0 -0.92025579428E+03  0.91325775085E+03 -0.14462236967E+04  0.19422860346E+04  0.12699999809E+01 0. -1.
       -4    1    3    3    0  502  0.92025579428E+03 -0.91325775085E+03  0.50089896460E+01  0.12965096025E+04  0.12699999809E+01 0.  1.
</event>
<event>
 5   0  0.3769563E-07  0.2942550E+04  0.7818609E-02  0.8260329E-01
        1   -1    0    0  501    0  0.00000000000E+00  0.00000000000E+00  0.16919957920E+04  0.16919957921E+04  0.50400001928E-02 0.  1.
       -1   -1    0    0    0  501  0.00000000000E+00  0.00000000000E+00 -0.12793471829E+04  0.12793471829E+04  0.50400001928E-02 0. -1.
    10030    2    1    2    0    0  0.00000000000E+00  0.00000000000E+00  0.41264860917E+03  0.29713429749E+04  0.29425499486E+04 0.  0.
        3    1    3    3  502    0  0.17983400842E+03  0.82898059013E+02 -0.12658293065E+04  0.12812244932E+04  0.10100000352E+00 0. -1.
       -3    1    3    3    0  502 -0.17983400842E+03 -0.82898059013E+02  0.16784779156E+04  0.16901184817E+04  0.10100000352E+00 0.  1.
</event>
<event>
 5   0  0.3770467E-07  0.2948264E+04  0.7818609E-02  0.8258661E-01
       -1   -1    0    0    0  501  0.00000000000E+00  0.00000000000E+00  0.11637800422E+04  0.11637800422E+04  0.50400001928E-02 0. -1.
        1   -1    0    0  501    0  0.00000000000E+00  0.00000000000E+00 -0.18672473240E+04  0.18672473240E+04  0.50400001928E-02 0.  1.
    10030    2    1    2    0    0  0.00000000000E+00  0.00000000000E+00 -0.70346728175E+03  0.30310273662E+04  0.29482640109E+04 0.  0.
        1    1    3    3  502    0 -0.58018776145E+03 -0.10612341548E+04 -0.12181423503E+04  0.17165973772E+04  0.50400001928E-02 0.  1.
       -1    1    3    3    0  502  0.58018776145E+03  0.10612341548E+04  0.51467506856E+03  0.13144299890E+04  0.50400001928E-02 0. -1.
</event>
<event>
 5   0  0.3638028E-07  0.2898738E+04  0.7818609E-02  0.8273253E-01
       -1   -1    0    0    0  501  0.00000000000E+00  0.00000000000E+00  0.12522345797E+04  0.12522345797E+04  0.50400001928E-02 0. -1.
        1   -1    0    0  501    0  0.00000000000E+00  0.00000000000E+00 -0.16775370170E+04  0.16775370170E+04  0.50400001928E-02 0.  1.
    10030    2    1    2    0    0  0.00000000000E+00  0.00000000000E+00 -0.42530243729E+03  0.29297715967E+04  0.28987375607E+04 0.  0.
        4    1    3    3  502    0  0.20770704524E+03  0.19553474012E+03 -0.16488827263E+04  0.16733773959E+04  0.12699999809E+01 0.  1.
       -4    1    3    3    0  502 -0.20770704524E+03 -0.19553474012E+03  0.12235802890E+04  0.12563942008E+04  0.12699999809E+01 0. -1.
</event>
<event>
 5   0  0.3770467E-07  0.2902519E+04  0.7818609E-02  0.8272128E-01
       -1   -1    0    0    0  501  0.00000000000E+00  0.00000000000E+00  0.76415148302E+03  0.76415148304E+03  0.50400001928E-02 0.  1.
        1   -1    0    0  501    0  0.00000000000E+00  0.00000000000E+00 -0.27562002398E+04  0.27562002398E+04  0.50400001928E-02 0. -1.
    10030    2    1    2    0    0  0.00000000000E+00  0.00000000000E+00 -0.19920487568E+04  0.35203517228E+04  0.29025192511E+04 0.  0.
        1    1    3    3  502    0  0.48913684982E+03  0.41866642272E+03 -0.25734979988E+04  0.26528151804E+04  0.50400001928E-02 0. -1.
       -1    1    3    3    0  502 -0.48913684982E+03 -0.41866642272E+03  0.58144924205E+03  0.86753654244E+03  0.50400001928E-02 0.  1.
</event>
<event>
 5   0  0.9994311E-07  0.2900225E+04  0.7818609E-02  0.8272810E-01
        2   -1    0    0  501    0  0.00000000000E+00  0.00000000000E+00  0.22870687564E+04  0.22870687564E+04  0.25500000920E-02 0. -1.
       -2   -1    0    0    0  501  0.00000000000E+00  0.00000000000E+00 -0.91944192490E+03  0.91944192490E+03  0.25500000920E-02 0.  1.
    10030    2    1    2    0    0  0.00000000000E+00  0.00000000000E+00  0.13676268315E+04  0.32065106813E+04  0.29002254393E+04 0.  0.
        2    1    3    3  502    0 -0.55966469280E+03 -0.12877274167E+04  0.28310061433E+03  0.14323450792E+04  0.25500000920E-02 0. -1.
       -2    1    3    3    0  502  0.55966469280E+03  0.12877274167E+04  0.10845262172E+04  0.17741656021E+04  0.25500000920E-02 0.  1.
</event>
<event>
 5   0  0.3638028E-07  0.2893921E+04  0.7818609E-02  0.8274688E-01
       -1   -1    0    0    0  501  0.00000000000E+00  0.00000000000E+00  0.19145712499E+04  0.19145712499E+04  0.50400001928E-02 0.  1.
        1   -1    0    0  501    0  0.00000000000E+00  0.00000000000E+00 -0.10935582470E+04  0.10935582470E+04  0.50400001928E-02 0. -1.
    10030    2    1    2    0    0  0.00000000000E+00  0.00000000000E+00  0.82101300288E+03  0.30081294969E+04  0.28939213395E+04 0.  0.
        4    1    3    3  502    0  0.19389796219E+02 -0.78869180330E+03  0.16713404420E+04  0.18481859243E+04  0.12699999809E+01 0.  1.
       -4    1    3    3    0  502 -0.19389796219E+02  0.78869180330E+03 -0.85032743916E+03  0.11599435725E+04  0.12699999809E+01 0. -1.
</event>
<event>
 5   0  0.9994311E-07  0.2894186E+04  0.7818609E-02  0.8274609E-01
        2   -1    0    0  501    0  0.00000000000E+00  0.00000000000E+00  0.16503886814E+04  0.16503886814E+04  0.25500000920E-02 0. -1.
       -2   -1    0    0    0  501  0.00000000000E+00  0.00000000000E+00 -0.12688393288E+04  0.12688393288E+04  0.25500000920E-02 0.  1.
    10030    2    1    2    0    0  0.00000000000E+00  0.00000000000E+00  0.38154935262E+03  0.29192280102E+04  0.28941859420E+04 0.  0.
        2    1    3    3  502    0  0.10058432874E+04  0.38098142671E+03 -0.78569814678E+03  0.13319869160E+04  0.25500000920E-02 0.  1.
       -2    1    3    3    0  502 -0.10058432874E+04 -0.38098142671E+03  0.11672474994E+04  0.15872410943E+04  0.25500000920E-02 0. -1.
</event>
<event>
 5   0  0.3770467E-07  0.2889698E+04  0.7818609E-02  0.8275949E-01
        1   -1    0    0  501    0  0.00000000000E+00  0.00000000000E+00  0.11316849718E+04  0.11316849718E+04  0.50400001928E-02 0.  1.
       -1   -1    0    0    0  501  0.00000000000E+00  0.00000000000E+00 -0.18446733871E+04  0.18446733871E+04  0.50400001928E-02 0. -1.
    10030    2    1    2    0    0  0.00000000000E+00  0.00000000000E+00 -0.71298841536E+03  0.29763583589E+04  0.28896983580E+04 0.  0.
        1    1    3    3  502    0  0.40450508683E+03  0.46100212380E+03 -0.17039476851E+04  0.18109624615E+04  0.50400001928E-02 0. -1.
       -1    1    3    3    0  502 -0.40450508683E+03 -0.46100212380E+03  0.99095926972E+03  0.11653958974E+04  0.50400001928E-02 0.  1.
</event>
<event>
 5   0  0.3769563E-07  0.2901604E+04  0.7818609E-02  0.8272400E-01
       -1   -1    0    0    0  501  0.00000000000E+00  0.00000000000E+00  0.18930580274E+04  0.18930580274E+04  0.50400001928E-02 0.  1.
        1   -1    0    0  501    0  0.00000000000E+00  0.00000000000E+00 -0.11118660439E+04  0.11118660440E+04  0.50400001928E-02 0. -1.
    10030    2    1    2    0    0  0.00000000000E+00  0.00000000000E+00  0.78119198348E+03  0.30049240714E+04  0.29016043424E+04 0.  0.
        3    1    3    3  502    0 -0.12056579768E+03 -0.58893269739E+03  0.17580097525E+04  0.18579494432E+04  0.10100000352E+00 0.  1.
       -3    1    3    3    0  502  0.12056579768E+03  0.58893269739E+03 -0.97681776899E+03  0.11469746282E+04  0.10100000352E+00 0. -1.
</event>
<event>
 5   0  0.9994311E-07  0.2894686E+04  0.7818609E-02  0.8274460E-01
       -2   -1    0    0    0  501  0.00000000000E+00  0.00000000000E+00  0.10470481013E+04  0.10470481013E+04  0.25500000920E-02 0.  1.
        2   -1    0    0  501    0  0.00000000000E+00  0.00000000000E+00 -0.20006741081E+04  0.20006741081E+04  0.25500000920E-02 0. -1.
    10030    2    1    2    0    0  0.00000000000E+00  0.00000000000E+00 -0.95362600687E+03  0.30477222094E+04  0.28946861842E+04 0.  0.
        2    1    3    3  502    0 -0.93149494566E+03  0.77847290194E+03  0.35295054659E+03  0.12642297976E+04  0.25500000920E-02 0.  1.
       -2    1    3    3    0  502  0.93149494566E+03 -0.77847290194E+03 -0.13065765535E+04  0.17834924118E+04  0.25500000920E-02 0. -1.
</event>
<event>
 5   0  0.1063979E-06  0.2902509E+04  0.7818609E-02  0.8272131E-01
        2   -1    0    0  501    0  0.00000000000E+00  0.00000000000E+00  0.24033583930E+04  0.24033583930E+04  0.25500000920E-02 0.  1.
       -2   -1    0    0    0  501  0.00000000000E+00  0.00000000000E+00 -0.87633208603E+03  0.87633208603E+03  0.25500000920E-02 0. -1.
    10030    2    1    2    0    0  0.00000000000E+00  0.00000000000E+00  0.15270263070E+04  0.32796904791E+04  0.29025093103E+04 0.  0.
        1    1    3    3  502    0 -0.24714744690E+03 -0.14282879747E+04  0.68320180173E+03  0.16024522149E+04  0.50400001928E-02 0. -1.
       -1    1    3    3    0  502  0.24714744690E+03  0.14282879747E+04  0.84382450527E+03  0.16772382642E+04  0.50400001928E-02 0.  1.
</event>
<event>
 5   0  0.1031339E-06  0.2899635E+04  0.7818609E-02  0.8272986E-01
       -2   -1    0    0    0  501  0.00000000000E+00  0.00000000000E+00  0.22417790490E+04  0.22417790490E+04  0.25500000920E-02 0. -1.
        2   -1    0    0  501    0  0.00000000000E+00  0.00000000000E+00 -0.93763504794E+03  0.93763504794E+03  0.25500000920E-02 0.  1.
    10030    2    1    2    0    0  0.00000000000E+00  0.00000000000E+00  0.13041440010E+04  0.31794140969E+04  0.28996348777E+04 0.  0.
        5    1    3    3  502    0  0.65883236835E+03  0.59293731676E+03 -0.60593625735E+03  0.10736925022E+04  0.46999998093E+01 0.  1.
       -5    1    3    3    0  502 -0.65883236835E+03 -0.59293731676E+03  0.19100802584E+04  0.21057215948E+04  0.46999998093E+01 0. -1.
</event>
<event>
 5   0  0.3638028E-07  0.2899989E+04  0.7818609E-02  0.8272881E-01
       -1   -1    0    0    0  501  0.00000000000E+00  0.00000000000E+00  0.11812203366E+04  0.11812203366E+04  0.50400001928E-02 0. -1.
        1   -1    0    0  501    0  0.00000000000E+00  0.00000000000E+00 -0.17799257614E+04  0.17799257614E+04  0.50400001928E-02 0.  1.
    10030    2    1    2    0    0  0.00000000000E+00  0.00000000000E+00 -0.59870542476E+03  0.29611460980E+04  0.28999893152E+04 0.  0.
        4    1    3    3  502    0  0.10373748112E+04  0.32668017674E+03  0.67983691621E+03  0.12825935765E+04  0.12699999809E+01 0. -1.
       -4    1    3    3    0  502 -0.10373748112E+04 -0.32668017674E+03 -0.12785423410E+04  0.16785525215E+04  0.12699999809E+01 0.  1.
</event>
<event>
 5   0  0.3770467E-07  0.2897376E+04  0.7818609E-02  0.8273659E-01
        1   -1    0    0  501    0  0.00000000000E+00  0.00000000000E+00  0.12730100204E+04  0.12730100204E+04  0.50400001928E-02 0. -1.
       -1   -1    0    0    0  501  0.00000000000E+00  0.00000000000E+00 -0.16486099505E+04  0.16486099505E+04  0.50400001928E-02 0.  1.
    10030    2    1    2    0    0  0.00000000000E+00  0.00000000000E+00 -0.37559993004E+03  0.29216199709E+04  0.28973760451E+04 0.  0.
        1    1    3    3  502    0  0.62709660750E+03 -0.12602500279E+04  0.15743406836E+03  0.14164271156E+04  0.50400001928E-02 0. -1.
       -1    1    3    3    0  502 -0.62709660750E+03  0.12602500279E+04 -0.53303399841E+03  0.15051928552E+04  0.50400001928E-02 0.  1.
</event>
<event>
 5   0  0.3769563E-07  0.2911115E+04  0.7818609E-02  0.8269578E-01
       -1   -1    0    0    0  501  0.00000000000E+00  0.00000000000E+00  0.88236496624E+03  0.88236496625E+03  0.50400001928E-02 0.  1.
        1   -1    0    0  501    0  0.00000000000E+00  0.00000000000E+00 -0.24011011247E+04  0.24011011248E+04  0.50400001928E-02 0. -1.
    10030    2    1    2    0    0  0.00000000000E+00  0.00000000000E+00 -0.15187361585E+04  0.32834660910E+04  0.29111149156E+04 0.  0.
        3    1    3    3  502    0  0.10141590173E+04  0.49878864883E+02  0.41692621168E+03  0.10976492562E+04  0.10100000352E+00 0.  1.
       -3    1    3    3    0  502 -0.10141590173E+04 -0.49878864883E+02 -0.19356623702E+04  0.21858168348E+04  0.10100000352E+00 0. -1.
</event>
<event>
 5   0  0.9950999E-07  0.2901314E+04  0.7818609E-02  0.8272487E-01
       -2   -1    0    0    0  501  0.00000000000E+00  0.00000000000E+00  0.11310434203E+04  0.11310434203E+04  0.25500000920E-02 0.  1.
        2   -1    0    0  501    0  0.00000000000E+00  0.00000000000E+00 -0.18605879372E+04  0.18605879372E+04  0.25500000920E-02 0. -1.
    10030    2    1    2    0    0  0.00000000000E+00  0.00000000000E+00 -0.72954451696E+03  0.29916313575E+04  0.29013140087E+04 0.  0.
        3    1    3    3  502    0  0.89688066236E+03  0.10316348028E+04 -0.86541784444E+03  0.16179039973E+04  0.10100000352E+00 0.  1.
       -3    1    3    3    0  502 -0.89688066236E+03 -0.10316348028E+04  0.13587332748E+03  0.13737273602E+04  0.10100000352E+00 0. -1.
</event>
<event>
 5   0  0.9994311E-07  0.2905363E+04  0.7818609E-02  0.8271284E-01
       -2   -1    0    0    0  501  0.00000000000E+00  0.00000000000E+00  0.97040005468E+03  0.97040005469E+03  0.25500000920E-02 0.  1.
        2   -1    0    0  501    0  0.00000000000E+00  0.00000000000E+00 -0.21746527738E+04  0.21746527738E+04  0.25500000920E-02 0. -1.
    10030    2    1    2    0    0  0.00000000000E+00  0.00000000000E+00 -0.12042527191E+04  0.31450528285E+04  0.29053627454E+04 0.  0.
        2    1    3    3  502    0  0.11170474300E+04 -0.79143184451E+02  0.39953615983E+03  0.11889860165E+04  0.25500000920E-02 0.  1.
       -2    1    3    3    0  502 -0.11170474300E+04  0.79143184451E+02 -0.16037888789E+04  0.19560668119E+04  0.25500000920E-02 0. -1.
</event>
<event>
 5   0  0.3885904E-07  0.2904145E+04  0.7818609E-02  0.8271645E-01
       -1   -1    0    0    0  501  0.00000000000E+00  0.00000000000E+00  0.14148307264E+04  0.14148307264E+04  0.50400001928E-02 0. -1.
        1   -1    0    0  501    0  0.00000000000E+00  0.00000000000E+00 -0.14902940574E+04  0.14902940574E+04  0.50400001928E-02 0.  1.
    10030    2    1    2    0    0  0.00000000000E+00  0.00000000000E+00 -0.75463331011E+02  0.29051247837E+04  0.29041445031E+04 0.  0.
        2    1    3    3  502    0  0.39818697597E+03 -0.46396048533E+03 -0.13552569604E+04  0.14867863426E+04  0.25500000920E-02 0.  1.
       -2    1    3    3    0  502 -0.39818697597E+03  0.46396048533E+03  0.12797936294E+04  0.14183384411E+04  0.25500000920E-02 0. -1.
</event>
<event>
 5   0  0.3885904E-07  0.2893772E+04  0.7818609E-02  0.8274733E-01
       -1   -1    0    0    0  501  0.00000000000E+00  0.00000000000E+00  0.11888556158E+04  0.11888556158E+04  0.50400001928E-02 0.  1.
        1   -1    0    0  501    0  0.00000000000E+00  0.00000000000E+00 -0.17609196834E+04  0.17609196834E+04  0.50400001928E-02 0. -1.
    10030    2    1    2    0    0  0.00000000000E+00  0.00000000000E+00 -0.57206406762E+03  0.29497752992E+04  0.28937721089E+04 0.  0.
        2    1    3    3  502    0  0.15112004523E+03  0.13851624446E+04  0.11134177283E+03  0.13978230419E+04  0.25500000920E-02 0.  1.
       -2    1    3    3    0  502 -0.15112004523E+03 -0.13851624446E+04 -0.68340584045E+03  0.15519522573E+04  0.25500000920E-02 0. -1.
</event>
<event>
 5   0  0.1006893E-06  0.2891934E+04  0.7818609E-02  0.8275281E-01
       -2   -1    0    0    0  501  0.00000000000E+00  0.00000000000E+00  0.91586255890E+03  0.91586255891E+03  0.25500000920E-02 0. -1.
        2   -1    0    0  501    0  0.00000000000E+00  0.00000000000E+00 -0.22828974169E+04  0.22828974169E+04  0.25500000920E-02 0.  1.
    10030    2    1    2    0    0  0.00000000000E+00  0.00000000000E+00 -0.13670348580E+04  0.31987599758E+04  0.28919337959E+04 0.  0.
        4    1    3    3  502    0 -0.12635591290E+04  0.25545503296E+03  0.40938019080E+02  0.12897738099E+04  0.12699999809E+01 0. -1.
       -4    1    3    3    0  502  0.12635591290E+04 -0.25545503296E+03 -0.14079728770E+04  0.19089861659E+04  0.12699999809E+01 0.  1.
</event>
<event>
 5   0  0.3769563E-07  0.2886858E+04  0.7818609E-02  0.8276798E-01
        1   -1    0    0  501    0  0.00000000000E+00  0.00000000000E+00  0.12346347909E+04  0.12346347909E+04  0.50400001928E-02 0.  1.
       -1   -1    0    0    0  501  0.00000000000E+00  0.00000000000E+00 -0.16875337079E+04  0.16875337080E+04  0.50400001928E-02 0. -1.
    10030    2    1    2    0    0  0.00000000000E+00  0.00000000000E+00 -0.45289891703E+03  0.29221684989E+04  0.28868583801E+04 0.  0.
        3    1    3    3  502    0 -0.99555292726E+03 -0.31401059984E+02  0.83101798762E+03  0.12971902572E+04  0.10100000352E+00 0.  1.
       -3    1    3    3    0  502  0.99555292726E+03  0.31401059984E+02 -0.12839169046E+04  0.16249782416E+04  0.10100000352E+00 0. -1.
</event>
<event>
 5   0  0.1063979E-06  0.2906064E+04  0.7818609E-02  0.8271076E-01
       -2   -1    0    0    0  501  0.00000000000E+00  0.00000000000E+00  0.10031647542E+04  0.10031647542E+04  0.25500000920E-02 0. -1.
        2   -1    0    0  501    0  0.00000000000E+00  0.00000000000E+00 -0.21046408509E+04  0.21046408509E+04  0.25500000920E-02 0.  1.
    10030    2    1    2    0    0  0.00000000000E+00  0.00000000000E+00 -0.11014760967E+04  0.31078056050E+04  0.29060636757E+04 0.  0.
        1    1    3    3  502    0 -0.10375680315E+04  0.93514074744E+03 -0.97886174003E+03  0.17056394530E+04  0.50400001928E-02 0.  1.
       -1    1    3    3    0  502  0.10375680315E+04 -0.93514074744E+03 -0.12261435671E+03  0.14021661521E+04  0.50400001928E-02 0. -1.
</event>
<event>
 5   0  0.3885904E-07  0.2894716E+04  0.7818609E-02  0.8274451E-01
       -1   -1    0    0    0  501  0.00000000000E+00  0.00000000000E+00  0.14886559320E+04  0.14886559320E+04  0.50400001928E-02 0.  1.
        1   -1    0    0  501    0  0.00000000000E+00  0.00000000000E+00 -0.14072055211E+04  0.14072055211E+04  0.50400001928E-02 0. -1.
    10030    2    1    2    0    0  0.00000000000E+00  0.00000000000E+00  0.81450410977E+02  0.28958614531E+04  0.28947157695E+04 0.  0.
        2    1    3    3  502    0  0.10206776973E+03  0.68353436090E+03  0.13129233737E+04  0.14837131924E+04  0.25500000920E-02 0.  1.
       -2    1    3    3    0  502 -0.10206776973E+03 -0.68353436090E+03 -0.12314729627E+04  0.14121482607E+04  0.25500000920E-02 0. -1.
</event>
<event>
 5   0  0.3638028E-07  0.2907050E+04  0.7818609E-02  0.8270783E-01
        1   -1    0    0  501    0  0.00000000000E+00  0.00000000000E+00  0.15154444628E+04  0.15154444628E+04  0.50400001928E-02 0.  1.
       -1   -1    0    0    0  501  0.00000000000E+00  0.00000000000E+00 -0.13941356932E+04  0.13941356932E+04  0.50400001928E-02 0. -1.
    10030    2    1    2    0    0  0.00000000000E+00  0.00000000000E+00  0.12130876964E+03  0.29095801561E+04  0.29070502003E+04 0.  0.
        4    1    3    3  502    0  0.58694883264E+03  0.90488490337E+03  0.10358780562E+04  0.14954499593E+04  0.12699999809E+01 0.  1.
       -4    1    3    3    0  502 -0.58694883264E+03 -0.90488490337E+03 -0.91456928660E+03  0.14141301968E+04  0.12699999809E+01 0. -1.
</event>
<event>
 5   0  0.1006893E-06  0.2902459E+04  0.7818609E-02  0.8272146E-01
       -2   -1    0    0    0  501  0.00000000000E+00  0.00000000000E+00  0.11936029408E+04  0.11936029408E+04  0.25500000920E-02 0. -1.
        2   -1    0    0  501    0  0.00000000000E+00  0.00000000000E+00 -0.17644621787E+04  0.17644621787E+04  0.25500000920E-02 0.  1.
    10030    2    1    2    0    0  0.00000000000E+00  0.00000000000E+00 -0.57085923792E+03  0.29580651195E+04  0.29024591266E+04 0.  0.
        4    1    3    3  502    0  0.57738694185E+03 -0.75775389149E+03  0.83030383318E+03  0.12637138557E+04  0.12699999809E+01 0. -1.
       -4    1    3    3    0  502 -0.57738694185E+03  0.75775389149E+03 -0.14011630711E+04  0.16943512639E+04  0.12699999809E+01 0.  1.
</event>
<event>
 5   0  0.9994311E-07  0.2902037E+04  0.7818609E-02  0.8272272E-01
       -2   -1    0    0    0  501  0.00000000000E+00  0.00000000000E+00  0.98939326628E+03  0.98939326629E+03  0.25500000920E-02 0. -1.
        2   -1    0    0  501    0  0.00000000000E+00  0.00000000000E+00 -0.21280261051E+04  0.21280261051E+04  0.25500000920E-02 0.  1.
    10030    2    1    2    0    0  0.00000000000E+00  0.00000000000E+00 -0.11386328389E+04  0.31174193714E+04  0.29020370080E+04 0.  0.
        2    1    3    3  502    0  0.11406680216E+04 -0.86784293282E+02  0.38956929957E+03  0.12084780876E+04  0.25500000920E-02 0. -1.
       -2    1    3    3    0  502 -0.11406680216E+04  0.86784293282E+02 -0.15282021384E+04  0.19089412838E+04  0.25500000920E-02 0.  1.
</event>
<event>
 5   0  0.3786210E-07  0.2924634E+04  0.7818609E-02  0.8265586E-01
       -1   -1    0    0    0  501  0.00000000000E+00  0.00000000000E+00  0.94797346138E+03  0.94797346139E+03  0.50400001928E-02 0.  1.
        1   -1    0    0  501    0  0.00000000000E+00  0.00000000000E+00 -0.22557288060E+04  0.22557288060E+04  0.50400001928E-02 0. -1.
    10030    2    1    2    0    0  0.00000000000E+00  0.00000000000E+00 -0.13077553446E+04  0.32037022674E+04  0.29246340244E+04 0.  0.
        5    1    3    3  502    0  0.11962164036E+04 -0.71215126201E+03 -0.11440775814E+04  0.18019513607E+04  0.46999998093E+01 0. -1.
       -5    1    3    3    0  502 -0.11962164036E+04  0.71215126201E+03 -0.16367776326E+03  0.14017509067E+04  0.46999998093E+01 0.  1.
</event>
<event>
 5   0  0.1031339E-06  0.2889264E+04  0.7818609E-02  0.8276079E-01
        2   -1    0    0  501    0  0.00000000000E+00  0.00000000000E+00  0.22503271803E+04  0.22503271803E+04  0.25500000920E-02 0.  1.
       -2   -1    0    0    0  501  0.00000000000E+00  0.00000000000E+00 -0.92740363046E+03  0.92740363047E+03  0.25500000920E-02 0. -1.
    10030    2    1    2    0    0  0.00000000000E+00  0.00000000000E+00  0.13229235498E+04  0.31777308107E+04  0.28892639870E+04 0.  0.
        5    1    3    3  502    0 -0.68006973959E+03 -0.58258657088E+03 -0.58531237298E+03  0.10698199041E+04  0.46999998093E+01 0. -1.
       -5    1    3    3    0  502  0.68006973959E+03  0.58258657088E+03  0.19082359228E+04  0.21079109066E+04  0.46999998093E+01 0.  1.
</event>
<event>
 5   0  0.9994311E-07  0.2900836E+04  0.7818609E-02  0.8272629E-01
       -2   -1    0    0    0  501  0.00000000000E+00  0.00000000000E+00  0.15409286480E+04  0.15409286480E+04  0.25500000920E-02 0.  1.
        2   -1    0    0  501    0  0.00000000000E+00  0.00000000000E+00 -0.13652234854E+04  0.13652234854E+04  0.25500000920E-02 0. -1.
    10030    2    1    2    0    0  0.00000000000E+00  0.00000000000E+00  0.17570516261E+03  0.29061521335E+04  0.29008357276E+04 0.  0.
        2    1    3    3  502    0 -0.13669804152E+04  0.59064323658E+02  0.56997038556E+03  0.14822247772E+04  0.25500000920E-02 0.  1.
       -2    1    3    3    0  502  0.13669804152E+04 -0.59064323658E+02 -0.39426522294E+03  0.14239273562E+04  0.25500000920E-02 0. -1.
</event>
<event>
 5   0  0.1031339E-06  0.2909886E+04  0.7818609E-02  0.8269942E-01
       -2   -1    0    0    0  501  0.00000000000E+00  0.00000000000E+00  0.10575587566E+04  0.10575587566E+04  0.25500000920E-02 0. -1.
        2   -1    0    0  501    0  0.00000000000E+00  0.00000000000E+00 -0.20016463170E+04  0.20016463170E+04  0.25500000920E-02 0.  1.
    10030    2    1    2    0    0  0.00000000000E+00  0.00000000000E+00 -0.94408756049E+03  0.30592050736E+04  0.29098856267E+04 0.  0.
        5    1    3    3  502    0  0.41660684951E+03  0.55593300902E+03  0.87191855588E+03  0.11148483465E+04  0.46999998093E+01 0. -1.
       -5    1    3    3    0  502 -0.41660684951E+03 -0.55593300902E+03 -0.18160061164E+04  0.19443567271E+04  0.46999998093E+01 0.  1.
</event>
<event>
 5   0  0.3769563E-07  0.2928195E+04  0.7818609E-02  0.8264538E-01
        1   -1    0    0  501    0  0.00000000000E+00  0.00000000000E+00  0.14300792108E+04  0.14300792108E+04  0.50400001928E-02 0.  1.
       -1   -1    0    0    0  501  0.00000000000E+00  0.00000000000E+00 -0.14989246781E+04  0.14989246781E+04  0.50400001928E-02 0. -1.
    10030    2    1    2    0    0  0.00000000000E+00  0.00000000000E+00 -0.68845467356E+02  0.29290038889E+04  0.29281946798E+04 0.  0.
        3    1    3    3  502    0 -0.13034153153E+04  0.42317875437E+03  0.48109263090E+03  0.14523848912E+04  0.10100000352E+00 0.  1.
       -3    1    3    3    0  502  0.13034153153E+04 -0.42317875437E+03 -0.54993809826E+03  0.14766189977E+04  0.10100000352E+00 0. -1.
</event>
<event>
 5   0  0.1063979E-06  0.2913934E+04  0.7818609E-02  0.8268744E-01
       -2   -1    0    0    0  501  0.00000000000E+00  0.00000000000E+00  0.79903433277E+03  0.79903433278E+03  0.25500000920E-02 0.  1.
        2   -1    0    0  501    0  0.00000000000E+00  0.00000000000E+00 -0.26566477063E+04  0.26566477063E+04  0.25500000920E-02 0. -1.
    10030    2    1    2    0    0  0.00000000000E+00  0.00000000000E+00 -0.18576133736E+04  0.34556820391E+04  0.29139339234E+04 0.  0.
        1    1    3    3  502    0  0.27369848910E+03 -0.62752096794E+03  0.59640320753E+03  0.90795936809E+03  0.50400001928E-02 0. -1.
       -1    1    3    3    0  502 -0.27369848910E+03  0.62752096794E+03 -0.24540165811E+04  0.25477226710E+04  0.50400001928E-02 0.  1.
</event>
<event>
 5   0  0.3769563E-07  0.2899331E+04  0.7818609E-02  0.8273077E-01
        1   -1    0    0  501    0  0.00000000000E+00  0.00000000000E+00  0.16806468993E+04  0.16806468993E+04  0.50400001928E-02 0.  1.
       -1   -1    0    0    0  501  0.00000000000E+00  0.00000000000E+00 -0.12504292008E+04  0.12504292008E+04  0.50400001928E-02 0. -1.
    10030    2    1    2    0    0  0.00000000000E+00  0.00000000000E+00  0.43021769853E+03  0.29310761002E+04  0.28993309292E+04 0.  0.
        3    1    3    3  502    0 -0.85497515252E+02 -0.56255727656E+03  0.15630302865E+04  0.16633833597E+04  0.10100000352E+00 0.  1.
       -3    1    3    3    0  502  0.85497515252E+02  0.56255727656E+03 -0.11328125880E+04  0.12676927405E+04  0.10100000352E+00 0. -1.
</event>
<event>
 5   0  0.9994311E-07  0.2896848E+04  0.7818609E-02  0.8273816E-01
       -2   -1    0    0    0  501  0.00000000000E+00  0.00000000000E+00  0.76227652654E+03  0.76227652655E+03  0.25500000920E-02 0. -1.
        2   -1    0    0  501    0  0.00000000000E+00  0.00000000000E+00 -0.27521934708E+04  0.27521934708E+04  0.25500000920E-02 0.  1.
    10030    2    1    2    0    0  0.00000000000E+00  0.00000000000E+00 -0.19899169442E+04  0.35144699973E+04  0.28968482731E+04 0.  0.
        2    1    3    3  502    0  0.11586689333E+04 -0.62247776408E+03 -0.17308651102E+04  0.21739103693E+04  0.25500000920E-02 0.  1.
       -2    1    3    3    0  502 -0.11586689333E+04  0.62247776408E+03 -0.25905183399E+03  0.13405596281E+04  0.25500000920E-02 0. -1.
</event>
<event>
 5   0  0.9950999E-07  0.2900813E+04  0.7818609E-02  0.8272636E-01
        2   -1    0    0  501    0  0.00000000000E+00  0.00000000000E+00  0.19791535025E+04  0.19791535025E+04  0.25500000920E-02 0.  1.
       -2   -1    0    0    0  501  0.00000000000E+00  0.00000000000E+00 -0.10629182207E+04  0.10629182207E+04  0.25500000920E-02 0. -1.
    10030    2    1    2    0    0  0.00000000000E+00  0.00000000000E+00  0.91623528177E+03  0.30420717232E+04  0.29008125202E+04 0.  0.
        3    1    3    3  502    0 -0.12225545597E+04  0.40369639986E+03  0.11585242918E+04  0.17319898901E+04  0.10100000352E+00 0.  1.
       -3    1    3    3    0  502  0.12225545597E+04 -0.40369639986E+03 -0.24228901000E+03  0.13100818330E+04  0.10100000352E+00 0. -1.
</event>
<event>
 5   0  0.1063979E-06  0.2904209E+04  0.7818609E-02  0.8271626E-01
        2   -1    0    0  501    0  0.00000000000E+00  0.00000000000E+00  0.18157901435E+04  0.18157901435E+04  0.25500000920E-02 0.  1.
       -2   -1    0    0    0  501  0.00000000000E+00  0.00000000000E+00 -0.11612619134E+04  0.11612619134E+04  0.25500000920E-02 0. -1.
    10030    2    1    2    0    0  0.00000000000E+00  0.00000000000E+00  0.65452823014E+03  0.29770520569E+04  0.29042093150E+04 0.  0.
        1    1    3    3  502    0  0.48857268020E+03 -0.89930488292E+03  0.13832254321E+04  0.17206874011E+04  0.50400001928E-02 0.  1.
       -1    1    3    3    0  502 -0.48857268020E+03  0.89930488292E+03 -0.72869720192E+03  0.12563646558E+04  0.50400001928E-02 0. -1.
</event>
<event>
 5   0  0.1031339E-06  0.2907422E+04  0.7818609E-02  0.8270673E-01
        2   -1    0    0  501    0  0.00000000000E+00  0.00000000000E+00  0.21561560383E+04  0.21561560383E+04  0.25500000920E-02 0. -1.
       -2   -1    0    0    0  501  0.00000000000E+00  0.00000000000E+00 -0.98011245400E+03  0.98011245400E+03  0.25500000920E-02 0.  1.
    10030    2    1    2    0    0  0.00000000000E+00  0.00000000000E+00  0.11760435843E+04  0.31362684923E+04  0.29074218035E+04 0.  0.
        5    1    3    3  502    0  0.70566687305E+03  0.11664860061E+04  0.11323146679E+04  0.17722341649E+04  0.46999998093E+01 0. -1.
       -5    1    3    3    0  502 -0.70566687305E+03 -0.11664860061E+04  0.43728916339E+02  0.13640343274E+04  0.46999998093E+01 0.  1.
</event>
<event>
 5   0  0.3638028E-07  0.2905383E+04  0.7818609E-02  0.8271278E-01
       -1   -1    0    0    0  501  0.00000000000E+00  0.00000000000E+00  0.12664113716E+04  0.12664113716E+04  0.50400001928E-02 0. -1.
        1   -1    0    0  501    0  0.00000000000E+00  0.00000000000E+00 -0.16663717725E+04  0.16663717725E+04  0.50400001928E-02 0.  1.
    10030    2    1    2    0    0  0.00000000000E+00  0.00000000000E+00 -0.39996040093E+03  0.29327831442E+04  0.29053827026E+04 0.  0.
        4    1    3    3  502    0 -0.12289781820E+03  0.13525164148E+04 -0.72050412115E+03  0.15373783944E+04  0.12699999809E+01 0.  1.
       -4    1    3    3    0  502  0.12289781820E+03 -0.13525164148E+04  0.32054372022E+03  0.13954047497E+04  0.12699999809E+01 0. -1.
</event>
<event>
 5   0  0.3786210E-07  0.2896045E+04  0.7818609E-02  0.8274055E-01
        1   -1    0    0  501    0  0.00000000000E+00  0.00000000000E+00  0.16305297142E+04  0.16305297142E+04  0.50400001928E-02 0.  1.
       -1   -1    0    0    0  501  0.00000000000E+00  0.00000000000E+00 -0.12859435928E+04  0.12859435928E+04  0.50400001928E-02 0. -1.
    10030    2    1    2    0    0  0.00000000000E+00  0.00000000000E+00  0.34458612144E+03  0.29164733070E+04  0.28960450541E+04 0.  0.
        5    1    3    3  502    0  0.36360371872E+03  0.12483385349E+04 -0.46953324422E+03  0.13824038192E+04  0.46999998093E+01 0. -1.
       -5    1    3    3    0  502 -0.36360371872E+03 -0.12483385349E+04  0.81411936566E+03  0.15340694878E+04  0.46999998093E+01 0.  1.
</event>
<event>
 5   0  0.1006893E-06  0.2896320E+04  0.7818609E-02  0.8273973E-01
        2   -1    0    0  501    0  0.00000000000E+00  0.00000000000E+00  0.13821510125E+04  0.13821510125E+04  0.25500000920E-02 0. -1.
       -2   -1    0    0    0  501  0.00000000000E+00  0.00000000000E+00 -0.15173216647E+04  0.15173216647E+04  0.25500000920E-02 0.  1.
    10030    2    1    2    0    0  0.00000000000E+00  0.00000000000E+00 -0.13517065217E+03  0.28994726772E+04  0.28963202000E+04 0.  0.
        4    1    3    3  502    0  0.13335797672E+04 -0.50273807416E+03  0.18957068975E+03  0.14377479703E+04  0.12699999809E+01 0. -1.
       -4    1    3    3    0  502 -0.13335797672E+04  0.50273807416E+03 -0.32474134192E+03  0.14617247069E+04  0.12699999809E+01 0.  1.
</event>
<event>
 5   0  0.3638028E-07  0.2898924E+04  0.7818609E-02  0.8273198E-01
        1   -1    0    0  501    0  0.00000000000E+00  0.00000000000E+00  0.23858748111E+04  0.23858748111E+04  0.50400001928E-02 0.  1.
       -1   -1    0    0    0  501  0.00000000000E+00  0.00000000000E+00 -0.88057412410E+03  0.88057412412E+03  0.50400001928E-02 0. -1.
    10030    2    1    2    0    0  0.00000000000E+00  0.00000000000E+00  0.15053006870E+04  0.32664489352E+04  0.28989236775E+04 0.  0.
        4    1    3    3  502    0  0.19942077192E+02  0.20947214277E+03  0.23685728382E+04  0.23779014210E+04  0.12699999809E+01 0.  1.
       -4    1    3    3    0  502 -0.19942077192E+02 -0.20947214277E+03 -0.86327215124E+03  0.88854751423E+03  0.12699999809E+01 0. -1.
</event>
<event>
 5   0  0.3770467E-07  0.2901511E+04  0.7818609E-02  0.8272428E-01
       -1   -1    0    0    0  501  0.00000000000E+00  0.00000000000E+00  0.25622625731E+04  0.25622625732E+04  0.50400001928E-02 0.  1.
        1   -1    0    0  501    0  0.00000000000E+00  0.00000000000E+00 -0.82141919053E+03  0.82141919055E+03  0.50400001928E-02 0. -1.
    10030    2    1    2    0    0  0.00000000000E+00  0.00000000000E+00  0.17408433826E+04  0.33836817637E+04  0.29015110882E+04 0.  0.
        1    1    3    3  502    0  0.40301108407E+03 -0.13810894024E+04  0.65266828722E+03  0.15798106736E+04  0.50400001928E-02 0.  1.
       -1    1    3    3    0  502 -0.40301108407E+03  0.13810894024E+04  0.10881750954E+04  0.18038710901E+04  0.50400001928E-02 0. -1.
</event>
<event>
 5   0  0.1063979E-06  0.2833802E+04  0.7818609E-02  0.8292850E-01
       -2   -1    0    0    0  501  0.00000000000E+00  0.00000000000E+00  0.12643629340E+04  0.12643629340E+04  0.25500000920E-02 0.  1.
        2   -1    0    0  501    0  0.00000000000E+00  0.00000000000E+00 -0.15878417669E+04  0.15878417669E+04  0.25500000920E-02 0. -1.
    10030    2    1    2    0    0  0.00000000000E+00  0.00000000000E+00 -0.32347883281E+03  0.28522047009E+04  0.28338018810E+04 0.  0.
        1    1    3    3  502    0 -0.87250602291E+03 -0.11148493767E+04 -0.22087796447E+03  0.14328094667E+04  0.50400001928E-02 0.  1.
       -1    1    3    3    0  502  0.87250602291E+03  0.11148493767E+04 -0.10260086834E+03  0.14193952342E+04  0.50400001928E-02 0. -1.
</event>
<event>
 5   0  0.3786210E-07  0.2899821E+04  0.7818609E-02  0.8272931E-01
        1   -1    0    0  501    0  0.00000000000E+00  0.00000000000E+00  0.12629683184E+04  0.12629683184E+04  0.50400001928E-02 0. -1.
       -1   -1    0    0    0  501  0.00000000000E+00  0.00000000000E+00 -0.16645240557E+04  0.16645240557E+04  0.50400001928E-02 0.  1.
    10030    2    1    2    0    0  0.00000000000E+00  0.00000000000E+00 -0.40155573728E+03  0.29274923740E+04  0.28998214755E+04 0.  0.
        5    1    3    3  502    0 -0.71429071431E+03  0.11126759062E+04  0.39984477663E+03  0.13813605005E+04  0.46999998093E+01 0. -1.
       -5    1    3    3    0  502  0.71429071431E+03 -0.11126759062E+04 -0.80140051392E+03  0.15461318736E+04  0.46999998093E+01 0.  1.
</event>
<event>
 5   0  0.1006893E-06  0.2899476E+04  0.7818609E-02  0.8273033E-01
       -2   -1    0    0    0  501  0.00000000000E+00  0.00000000000E+00  0.12203641058E+04  0.12203641058E+04  0.25500000920E-02 0. -1.
        2   -1    0    0  501    0  0.00000000000E+00  0.00000000000E+00 -0.17222236627E+04  0.17222236627E+04  0.25500000920E-02 0.  1.
    10030    2    1    2    0    0  0.00000000000E+00  0.00000000000E+00 -0.50185955692E+03  0.29425877684E+04  0.28994757733E+04 0.  0.
        4    1    3    3  502    0  0.19823193406E+03 -0.17783129185E+03  0.11953272822E+04  0.12246341463E+04  0.12699999809E+01 0. -1.
       -4    1    3    3    0  502 -0.19823193406E+03  0.17783129185E+03 -0.16971868391E+04  0.17179536221E+04  0.12699999809E+01 0.  1.
</event>
<event>
 5   0  0.1063979E-06  0.2901938E+04  0.7818609E-02  0.8272301E-01
       -2   -1    0    0    0  501  0.00000000000E+00  0.00000000000E+00  0.15809467522E+04  0.15809467522E+04  0.25500000920E-02 0.  1.
        2   -1    0    0  501    0  0.00000000000E+00  0.00000000000E+00 -0.13316773062E+04  0.13316773062E+04  0.25500000920E-02 0. -1.
    10030    2    1    2    0    0  0.00000000000E+00  0.00000000000E+00  0.24926944594E+03  0.29126240584E+04  0.29019379126E+04 0.  0.
        1    1    3    3  502    0 -0.11357210992E+04 -0.88808224463E+03  0.28881711566E+03  0.14703631574E+04  0.50400001928E-02 0.  1.
       -1    1    3    3    0  502  0.11357210992E+04  0.88808224463E+03 -0.39547669721E+02  0.14422609010E+04  0.50400001928E-02 0. -1.
</event>
<event>
 5   0  0.9950999E-07  0.2892496E+04  0.7818609E-02  0.8275114E-01
        2   -1    0    0  501    0  0.00000000000E+00  0.00000000000E+00  0.20324230291E+04  0.20324230291E+04  0.25500000920E-02 0.  1.
       -2   -1    0    0    0  501  0.00000000000E+00  0.00000000000E+00 -0.10291325882E+04  0.10291325882E+04  0.25500000920E-02 0. -1.
    10030    2    1    2    0    0  0.00000000000E+00  0.00000000000E+00  0.10032904409E+04  0.30615556173E+04  0.28924956506E+04 0.  0.
        3    1    3    3  502    0 -0.26005425271E+03  0.13768284229E+04  0.88084149503E+03  0.16550427396E+04  0.10100000352E+00 0. -1.
       -3    1    3    3    0  502  0.26005425271E+03 -0.13768284229E+04  0.12244894590E+03  0.14065128776E+04  0.10100000352E+00 0.  1.
</event>
<event>
 5   0  0.9994311E-07  0.2905846E+04  0.7818609E-02  0.8271140E-01
       -2   -1    0    0    0  501  0.00000000000E+00  0.00000000000E+00  0.10678497404E+04  0.10678497404E+04  0.25500000920E-02 0. -1.
        2   -1    0    0  501    0  0.00000000000E+00  0.00000000000E+00 -0.19768558351E+04  0.19768558351E+04  0.25500000920E-02 0.  1.
    10030    2    1    2    0    0  0.00000000000E+00  0.00000000000E+00 -0.90900609469E+03  0.30447055754E+04  0.29058458254E+04 0.  0.
        2    1    3    3  502    0  0.11234160918E+04  0.38219556660E+03  0.42391932143E+03  0.12600971222E+04  0.25500000920E-02 0. -1.
       -2    1    3    3    0  502 -0.11234160918E+04 -0.38219556660E+03 -0.13329254161E+04  0.17846084532E+04  0.25500000920E-02 0.  1.
</event>
<event>
 5   0  0.1063979E-06  0.2899709E+04  0.7818609E-02  0.8272964E-01
        2   -1    0    0  501    0  0.00000000000E+00  0.00000000000E+00  0.16849173612E+04  0.16849173612E+04  0.25500000920E-02 0.  1.
       -2   -1    0    0    0  501  0.00000000000E+00  0.00000000000E+00 -0.12475854390E+04  0.12475854390E+04  0.25500000920E-02 0. -1.
    10030    2    1    2    0    0  0.00000000000E+00  0.00000000000E+00  0.43733192220E+03  0.29325028003E+04  0.28997092033E+04 0.  0.
        1    1    3    3  502    0  0.14136655720E+04  0.21730691751E+03 -0.21518862072E+02  0.14304320003E+04  0.50400001928E-02 0. -1.
       -1    1    3    3    0  502 -0.14136655720E+04 -0.21730691751E+03  0.45885078427E+03  0.15020708000E+04  0.50400001928E-02 0.  1.
</event>
<event>
 5   0  0.1031339E-06  0.2899842E+04  0.7818609E-02  0.8272925E-01
       -2   -1    0    0    0  501  0.00000000000E+00  0.00000000000E+00  0.12623349126E+04  0.12623349126E+04  0.25500000920E-02 0.  1.
        2   -1    0    0  501    0  0.00000000000E+00  0.00000000000E+00 -0.16653823245E+04  0.16653823245E+04  0.25500000920E-02 0. -1.
    10030    2    1    2    0    0  0.00000000000E+00  0.00000000000E+00 -0.40304741187E+03  0.29277172371E+04  0.28998415481E+04 0.  0.
        5    1    3    3  502    0 -0.60124012167E+02 -0.97983454639E+02 -0.16607661749E+04  0.16647468372E+04  0.46999998093E+01 0. -1.
       -5    1    3    3    0  502  0.60124012167E+02  0.97983454639E+02  0.12577187630E+04  0.12629703999E+04  0.46999998093E+01 0.  1.
</event>
<event>
 5   0  0.9994311E-07  0.2902880E+04  0.7818609E-02  0.8272021E-01
        2   -1    0    0  501    0  0.00000000000E+00  0.00000000000E+00  0.17199053415E+04  0.17199053415E+04  0.25500000920E-02 0. -1.
       -2   -1    0    0    0  501  0.00000000000E+00  0.00000000000E+00 -0.12248804028E+04  0.12248804028E+04  0.25500000920E-02 0.  1.
    10030    2    1    2    0    0  0.00000000000E+00  0.00000000000E+00  0.49502493873E+03  0.29447857443E+04  0.29028801887E+04 0.  0.
        2    1    3    3  502    0 -0.10812603777E+04 -0.72446844442E+03  0.89920347681E+03  0.15819435591E+04  0.25500000920E-02 0. -1.
       -2    1    3    3    0  502  0.10812603777E+04  0.72446844442E+03 -0.40417853808E+03  0.13628421853E+04  0.25500000920E-02 0.  1.
</event>
<event>
 5   0  0.3769563E-07  0.2911837E+04  0.7818609E-02  0.8269364E-01
       -1   -1    0    0    0  501  0.00000000000E+00  0.00000000000E+00  0.88825529981E+03  0.88825529983E+03  0.50400001928E-02 0. -1.
        1   -1    0    0  501    0  0.00000000000E+00  0.00000000000E+00 -0.23863620016E+04  0.23863620016E+04  0.50400001928E-02 0.  1.
    10030    2    1    2    0    0  0.00000000000E+00  0.00000000000E+00 -0.14981067018E+04  0.32746173014E+04  0.29118370114E+04 0.  0.
        3    1    3    3  502    0  0.11412665218E+04 -0.46994486963E+03 -0.16175100936E+04  0.20346194650E+04  0.10100000352E+00 0.  1.
       -3    1    3    3    0  502 -0.11412665218E+04  0.46994486963E+03  0.11940339184E+03  0.12399978364E+04  0.10100000352E+00 0. -1.
</event>
<event>
 5   0  0.3770467E-07  0.2895963E+04  0.7818609E-02  0.8274080E-01
        1   -1    0    0  501    0  0.00000000000E+00  0.00000000000E+00  0.19679321232E+04  0.19679321232E+04  0.50400001928E-02 0.  1.
       -1   -1    0    0    0  501  0.00000000000E+00  0.00000000000E+00 -0.10654076825E+04  0.10654076825E+04  0.50400001928E-02 0. -1.
    10030    2    1    2    0    0  0.00000000000E+00  0.00000000000E+00  0.90252444069E+03  0.30333398057E+04  0.28959627088E+04 0.  0.
        1    1    3    3  502    0 -0.12616642893E+04  0.72934669218E+02  0.11915669439E+04  0.17369363910E+04  0.50400001928E-02 0.  1.
       -1    1    3    3    0  502  0.12616642893E+04 -0.72934669218E+02 -0.28904250316E+03  0.12964034146E+04  0.50400001928E-02 0. -1.
</event>
<event>
 5   0  0.9994311E-07  0.2891698E+04  0.7818609E-02  0.8275352E-01
        2   -1    0    0  501    0  0.00000000000E+00  0.00000000000E+00  0.87653458311E+03  0.87653458312E+03  0.25500000920E-02 0. -1.
       -2   -1    0    0    0  501  0.00000000000E+00  0.00000000000E+00 -0.23849359576E+04  0.23849359576E+04  0.25500000920E-02 0.  1.
    10030    2    1    2    0    0  0.00000000000E+00  0.00000000000E+00 -0.15084013745E+04  0.32614705407E+04  0.28916976643E+04 0.  0.
        2    1    3    3  502    0 -0.22464171953E+03  0.13886360988E+04 -0.37723974521E+03  0.14563941577E+04  0.25500000920E-02 0. -1.
       -2    1    3    3    0  502  0.22464171953E+03 -0.13886360988E+04 -0.11311616293E+04  0.18050763831E+04  0.25500000920E-02 0.  1.
</event>
<event>
 5   0  0.1031339E-06  0.2895549E+04  0.7818609E-02  0.8274203E-01
       -2   -1    0    0    0  501  0.00000000000E+00  0.00000000000E+00  0.17944503406E+04  0.17944503406E+04  0.25500000920E-02 0.  1.
        2   -1    0    0  501    0  0.00000000000E+00  0.00000000000E+00 -0.11680742190E+04  0.11680742190E+04  0.25500000920E-02 0. -1.
    10030    2    1    2    0    0  0.00000000000E+00  0.00000000000E+00  0.62637612152E+03  0.29625245596E+04  0.28955491225E+04 0.  0.
        5    1    3    3  502    0 -0.12995860227E+04  0.47136810011E+03 -0.12677871414E+03  0.13882386857E+04  0.46999998093E+01 0. -1.
       -5    1    3    3    0  502  0.12995860227E+04 -0.47136810011E+03  0.75315483566E+03  0.15742858739E+04  0.46999998093E+01 0.  1.
</event>
<event>
 5   0  0.1031339E-06  0.2884496E+04  0.7818609E-02  0.8277505E-01
        2   -1    0    0  501    0  0.00000000000E+00  0.00000000000E+00  0.17024287181E+04  0.17024287182E+04  0.25500000920E-02 0. -1.
       -2   -1    0    0    0  501  0.00000000000E+00  0.00000000000E+00 -0.12218308910E+04  0.12218308910E+04  0.25500000920E-02 0.  1.
    10030    2    1    2    0    0  0.00000000000E+00  0.00000000000E+00  0.48059782715E+03  0.29242596092E+04  0.28844964882E+04 0.  0.
        5    1    3    3  502    0 -0.11308322240E+04  0.89030918537E+03  0.14614265215E+03  0.14466553595E+04  0.46999998093E+01 0.  1.
       -5    1    3    3    0  502  0.11308322240E+04 -0.89030918537E+03  0.33445517500E+03  0.14776042496E+04  0.46999998093E+01 0. -1.
</event>
<event>
 5   0  0.3638028E-07  0.2898045E+04  0.7818609E-02  0.8273459E-01
       -1   -1    0    0    0  501  0.00000000000E+00  0.00000000000E+00  0.11834308872E+04  0.11834308872E+04  0.50400001928E-02 0.  1.
        1   -1    0    0  501    0  0.00000000000E+00  0.00000000000E+00 -0.17742198383E+04  0.17742198383E+04  0.50400001928E-02 0. -1.
    10030    2    1    2    0    0  0.00000000000E+00  0.00000000000E+00 -0.59078895109E+03  0.29576507255E+04  0.28980452428E+04 0.  0.
        4    1    3    3  502    0  0.12232731228E+04 -0.58951950629E+03 -0.81149754127E+03  0.15819166393E+04  0.12699999809E+01 0. -1.
       -4    1    3    3    0  502 -0.12232731228E+04  0.58951950629E+03  0.22070859018E+03  0.13757340862E+04  0.12699999809E+01 0.  1.
</event>
<event>
 5   0  0.3786210E-07  0.2901386E+04  0.7818609E-02  0.8272465E-01
        1   -1    0    0  501    0  0.00000000000E+00  0.00000000000E+00  0.14891408849E+04  0.14891408849E+04  0.50400001928E-02 0.  1.
       -1   -1    0    0    0  501  0.00000000000E+00  0.00000000000E+00 -0.14132380160E+04  0.14132380160E+04  0.50400001928E-02 0. -1.
    10030    2    1    2    0    0  0.00000000000E+00  0.00000000000E+00  0.75902868904E+02  0.29023789010E+04  0.29013862272E+04 0.  0.
        5    1    3    3  502    0  0.11988327423E+04 -0.31811858180E+03 -0.71469487745E+03  0.14315062815E+04  0.46999998093E+01 0. -1.
       -5    1    3    3    0  502 -0.11988327423E+04  0.31811858180E+03  0.79059774636E+03  0.14708726195E+04  0.46999998093E+01 0.  1.
</event>
<event>
 5   0  0.1063979E-06  0.2899138E+04  0.7818609E-02  0.8273134E-01
        2   -1    0    0  501    0  0.00000000000E+00  0.00000000000E+00  0.14620626838E+04  0.14620626838E+04  0.25500000920E-02 0. -1.
       -2   -1    0    0    0  501  0.00000000000E+00  0.00000000000E+00 -0.14371819903E+04  0.14371819903E+04  0.25500000920E-02 0.  1.
    10030    2    1    2    0    0  0.00000000000E+00  0.00000000000E+00  0.24880693473E+02  0.28992446742E+04  0.28991379118E+04 0.  0.
        1    1    3    3  502    0 -0.62484979323E+03  0.10279934063E+04 -0.79631834553E+03  0.14426817441E+04  0.50400001928E-02 0.  1.
       -1    1    3    3    0  502  0.62484979323E+03 -0.10279934063E+04  0.82119903901E+03  0.14565629300E+04  0.50400001928E-02 0. -1.
</event>
<event>
 5   0  0.1006893E-06  0.2907316E+04  0.7818609E-02  0.8270704E-01
        2   -1    0    0  501    0  0.00000000000E+00  0.00000000000E+00  0.15481877703E+04  0.15481877703E+04  0.25500000920E-02 0. -1.
       -2   -1    0    0    0  501  0.00000000000E+00  0.00000000000E+00 -0.13648996198E+04  0.13648996198E+04  0.25500000920E-02 0.  1.
    10030    2    1    2    0    0  0.00000000000E+00  0.00000000000E+00  0.18328815052E+03  0.29130873901E+04  0.29073155309E+04 0.  0.
        4    1    3    3  502    0  0.22427907305E+02 -0.59697764616E+03 -0.12362166660E+04  0.13729962051E+04  0.12699999809E+01 0.  1.
       -4    1    3    3    0  502 -0.22427907305E+02  0.59697764616E+03  0.14195048165E+04  0.15400911850E+04  0.12699999809E+01 0. -1.
</event>
<event>
 5   0  0.9994311E-07  0.2893399E+04  0.7818609E-02  0.8274844E-01
        2   -1    0    0  501    0  0.00000000000E+00  0.00000000000E+00  0.14214854595E+04  0.14214854595E+04  0.25500000920E-02 0. -1.
       -2   -1    0    0    0  501  0.00000000000E+00  0.00000000000E+00 -0.14723605777E+04  0.14723605777E+04  0.25500000920E-02 0.  1.
    10030    2    1    2    0    0  0.00000000000E+00  0.00000000000E+00 -0.50875118186E+02  0.28938460373E+04  0.28933987989E+04 0.  0.
        2    1    3    3  502    0  0.62463451674E+02 -0.14399954793E+04 -0.14975676968E+03  0.14491086064E+04  0.25500000920E-02 0.  1.
       -2    1    3    3    0  502 -0.62463451674E+02  0.14399954793E+04  0.98881651497E+02  0.14447374309E+04  0.25500000920E-02 0. -1.
</event>
<event>
 5   0  0.9994311E-07  0.2896575E+04  0.7818609E-02  0.8273897E-01
        2   -1    0    0  501    0  0.00000000000E+00  0.00000000000E+00  0.17377481774E+04  0.17377481774E+04  0.25500000920E-02 0. -1.
       -2   -1    0    0    0  501  0.00000000000E+00  0.00000000000E+00 -0.12070429404E+04  0.12070429404E+04  0.25500000920E-02 0.  1.
    10030    2    1    2    0    0  0.00000000000E+00  0.00000000000E+00  0.53070523693E+03  0.29447911178E+04  0.28965749911E+04 0.  0.
        2    1    3    3  502    0  0.76240760400E+03  0.12219896665E+04  0.11112850592E+03  0.14446015522E+04  0.25500000920E-02 0. -1.
       -2    1    3    3    0  502 -0.76240760400E+03 -0.12219896665E+04  0.41957673101E+03  0.15001895656E+04  0.25500000920E-02 0.  1.
</event>
<event>
 5   0  0.3885904E-07  0.2900162E+04  0.7818609E-02  0.8272829E-01
        1   -1    0    0  501    0  0.00000000000E+00  0.00000000000E+00  0.15709030461E+04  0.15709030461E+04  0.50400001928E-02 0.  1.
       -1   -1    0    0    0  501  0.00000000000E+00  0.00000000000E+00 -0.13385520456E+04  0.13385520456E+04  0.50400001928E-02 0. -1.
    10030    2    1    2    0    0  0.00000000000E+00  0.00000000000E+00  0.23235100048E+03  0.29094550917E+04  0.29001623995E+04 0.  0.
        2    1    3    3  502    0  0.47587726196E+03  0.51453867041E+03 -0.11573511447E+04  0.13530228689E+04  0.25500000920E-02 0. -1.
       -2    1    3    3    0  502 -0.47587726196E+03 -0.51453867041E+03  0.13897021452E+04  0.15564322228E+04  0.25500000920E-02 0.  1.
</event>
<event>
 5   0  0.3769563E-07  0.2899310E+04  0.7818609E-02  0.8273083E-01
        1   -1    0    0  501    0  0.00000000000E+00  0.00000000000E+00  0.16619752691E+04  0.16619752691E+04  0.50400001928E-02 0.  1.
       -1   -1    0    0    0  501  0.00000000000E+00  0.00000000000E+00 -0.12644588909E+04  0.12644588909E+04  0.50400001928E-02 0. -1.
    10030    2    1    2    0    0  0.00000000000E+00  0.00000000000E+00  0.39751637822E+03  0.29264341600E+04  0.28993098526E+04 0.  0.
        3    1    3    3  502    0  0.11830150969E+03  0.13282858176E+04 -0.37503257584E+03  0.13852753891E+04  0.10100000352E+00 0. -1.
       -3    1    3    3    0  502 -0.11830150969E+03 -0.13282858176E+04  0.77254895405E+03  0.15411587709E+04  0.10100000352E+00 0.  1.
</event>
<event>
 5   0  0.1031339E-06  0.2911504E+04  0.7818609E-02  0.8269463E-01
        2   -1    0    0  501    0  0.00000000000E+00  0.00000000000E+00  0.18059390736E+04  0.18059390736E+04  0.25500000920E-02 0.  1.
       -2   -1    0    0    0  501  0.00000000000E+00  0.00000000000E+00 -0.11734694622E+04  0.11734694622E+04  0.25500000920E-02 0. -1.
    10030    2    1    2    0    0  0.00000000000E+00  0.00000000000E+00  0.63246961146E+03  0.29794085358E+04  0.29115043215E+04 0.  0.
        5    1    3    3  502    0  0.12399332099E+04 -0.65016492321E+03  0.72433851444E+03  0.15763366283E+04  0.46999998093E+01 0.  1.
       -5    1    3    3    0  502 -0.12399332099E+04  0.65016492321E+03 -0.91868902983E+02  0.14030719075E+04  0.46999998093E+01 0. -1.
</event>
<event>
 5   0  0.1063979E-06  0.2896968E+04  0.7818609E-02  0.8273780E-01
       -2   -1    0    0    0  501  0.00000000000E+00  0.00000000000E+00  0.13254980138E+04  0.13254980138E+04  0.25500000920E-02 0. -1.
        2   -1    0    0  501    0  0.00000000000E+00  0.00000000000E+00 -0.15828815355E+04  0.15828815355E+04  0.25500000920E-02 0.  1.
    10030    2    1    2    0    0  0.00000000000E+00  0.00000000000E+00 -0.25738352170E+03  0.29083795493E+04  0.28969682991E+04 0.  0.
        1    1    3    3  502    0 -0.51650636849E+02  0.17817632369E+03  0.13135223896E+04  0.13265578233E+04  0.50400001928E-02 0. -1.
       -1    1    3    3    0  502  0.51650636849E+02 -0.17817632369E+03 -0.15709059113E+04  0.15818217260E+04  0.50400001928E-02 0.  1.
</event>
<event>
 5   0  0.3638028E-07  0.2911057E+04  0.7818609E-02  0.8269595E-01
        1   -1    0    0  501    0  0.00000000000E+00  0.00000000000E+00  0.12282024621E+04  0.12282024621E+04  0.50400001928E-02 0. -1.
       -1   -1    0    0    0  501  0.00000000000E+00  0.00000000000E+00 -0.17249296797E+04  0.17249296797E+04  0.50400001928E-02 0.  1.
    10030    2    1    2    0    0  0.00000000000E+00  0.00000000000E+00 -0.49672721752E+03  0.29531321418E+04  0.29110567700E+04 0.  0.
        4    1    3    3  502    0 -0.13056017422E+04  0.54357249729E+03  0.10084177540E+03  0.14178284965E+04  0.12699999809E+01 0.  1.
       -4    1    3    3    0  502  0.13056017422E+04 -0.54357249729E+03 -0.59756899292E+03  0.15353036453E+04  0.12699999809E+01 0. -1.
</event>
<event>
 5   0  0.3769563E-07  0.2895635E+04  0.7818609E-02  0.8274177E-01
        1   -1    0    0  501    0  0.00000000000E+00  0.00000000000E+00  0.13332323693E+04  0.13332323693E+04  0.50400001928E-02 0. -1.
       -1   -1    0    0    0  501  0.00000000000E+00  0.00000000000E+00 -0.15722510620E+04  0.15722510620E+04  0.50400001928E-02 0.  1.
    10030    2    1    2    0    0  0.00000000000E+00  0.00000000000E+00 -0.23901869270E+03  0.29054834313E+04  0.28956353420E+04 0.  0.
        3    1    3    3  502    0 -0.30010455986E+03 -0.13711692685E+04 -0.47569280474E+03  0.14820430373E+04  0.10100000352E+00 0.  1.
       -3    1    3    3    0  502  0.30010455986E+03  0.13711692685E+04  0.23667411204E+03  0.14234403940E+04  0.10100000352E+00 0. -1.
</event>
<event>
 5   0  0.1031339E-06  0.2900055E+04  0.7818609E-02  0.8272861E-01
       -2   -1    0    0    0  501  0.00000000000E+00  0.00000000000E+00  0.90966688752E+03  0.90966688753E+03  0.25500000920E-02 0.  1.
        2   -1    0    0  501    0  0.00000000000E+00  0.00000000000E+00 -0.23113731106E+04  0.23113731106E+04  0.25500000920E-02 0. -1.
    10030    2    1    2    0    0  0.00000000000E+00  0.00000000000E+00 -0.14017062231E+04  0.32210399981E+04  0.29000548846E+04 0.  0.
        5    1    3    3  502    0 -0.13865850774E+04  0.40383969267E+03 -0.55666608664E+03  0.15477738518E+04  0.46999998093E+01 0.  1.
       -5    1    3    3    0  502  0.13865850774E+04 -0.40383969267E+03 -0.84504013645E+03  0.16732661463E+04  0.46999998093E+01 0. -1.
</event>
<event>
 5   0  0.1031339E-06  0.2886054E+04  0.7818609E-02  0.8277039E-01
        2   -1    0    0  501    0  0.00000000000E+00  0.00000000000E+00  0.22490640767E+04  0.22490640767E+04  0.25500000920E-02 0.  1.
       -2   -1    0    0    0  501  0.00000000000E+00  0.00000000000E+00 -0.92586361721E+03  0.92586361721E+03  0.25500000920E-02 0. -1.
    10030    2    1    2    0    0  0.00000000000E+00  0.00000000000E+00  0.13232004595E+04  0.31749276939E+04  0.28860537773E+04 0.  0.
        5    1    3    3  502    0  0.29342097920E+03 -0.13023966094E+04  0.59082861013E+02  0.13363553695E+04  0.46999998093E+01 0. -1.
       -5    1    3    3    0  502 -0.29342097920E+03  0.13023966094E+04  0.12641175985E+04  0.18385723244E+04  0.46999998093E+01 0.  1.
</event>
<event>
 5   0  0.9994311E-07  0.2900105E+04  0.7818609E-02  0.8272846E-01
       -2   -1    0    0    0  501  0.00000000000E+00  0.00000000000E+00  0.13855362469E+04  0.13855362469E+04  0.25500000920E-02 0.  1.
        2   -1    0    0  501    0  0.00000000000E+00  0.00000000000E+00 -0.15175725320E+04  0.15175725320E+04  0.25500000920E-02 0. -1.
    10030    2    1    2    0    0  0.00000000000E+00  0.00000000000E+00 -0.13203628505E+03  0.29031087789E+04  0.29001046536E+04 0.  0.
        2    1    3    3  502    0 -0.17907429471E+03 -0.70425987634E+03  0.11901132293E+04  0.13944242808E+04  0.25500000920E-02 0.  1.
       -2    1    3    3    0  502  0.17907429471E+03  0.70425987634E+03 -0.13221495143E+04  0.15086844981E+04  0.25500000920E-02 0. -1.
</event>
<event>
 5   0  0.1006893E-06  0.2899525E+04  0.7818609E-02  0.8273019E-01
        2   -1    0    0  501    0  0.00000000000E+00  0.00000000000E+00  0.19985401497E+04  0.19985401497E+04  0.25500000920E-02 0. -1.
       -2   -1    0    0    0  501  0.00000000000E+00  0.00000000000E+00 -0.10516731462E+04  0.10516731462E+04  0.25500000920E-02 0.  1.
    10030    2    1    2    0    0  0.00000000000E+00  0.00000000000E+00  0.94686700343E+03  0.30502132959E+04  0.28995247936E+04 0.  0.
        4    1    3    3  502    0  0.90069452109E+03  0.10847595270E+04  0.11847263881E+03  0.14149173936E+04  0.12699999809E+01 0.  1.
       -4    1    3    3    0  502 -0.90069452109E+03 -0.10847595270E+04  0.82839436462E+03  0.16352959023E+04  0.12699999809E+01 0. -1.
</event>
<event>
 5   0  0.3770467E-07  0.2896731E+04  0.7818609E-02  0.8273851E-01
       -1   -1    0    0    0  501  0.00000000000E+00  0.00000000000E+00  0.76939995493E+03  0.76939995494E+03  0.50400001928E-02 0. -1.
        1   -1    0    0  501    0  0.00000000000E+00  0.00000000000E+00 -0.27264908949E+04  0.27264908949E+04  0.50400001928E-02 0.  1.
    10030    2    1    2    0    0  0.00000000000E+00  0.00000000000E+00 -0.19570909400E+04  0.34958908498E+04  0.28967305513E+04 0.  0.
        1    1    3    3  502    0  0.10944836290E+04 -0.83205145156E+03 -0.42872685454E+03  0.14401426138E+04  0.50400001928E-02 0. -1.
       -1    1    3    3    0  502 -0.10944836290E+04  0.83205145156E+03 -0.15283640854E+04  0.20557482360E+04  0.50400001928E-02 0.  1.
</event>
<event>
 5   0  0.3770467E-07  0.2899280E+04  0.7818609E-02  0.8273092E-01
        1   -1    0    0  501    0  0.00000000000E+00  0.00000000000E+00  0.93252248615E+03  0.93252248616E+03  0.50400001928E-02 0.  1.
       -1   -1    0    0    0  501  0.00000000000E+00  0.00000000000E+00 -0.22535176958E+04  0.22535176958E+04  0.50400001928E-02 0. -1.
    10030    2    1    2    0    0  0.00000000000E+00  0.00000000000E+00 -0.13209952097E+04  0.31860401820E+04  0.28992798584E+04 0.  0.
        1    1    3    3  502    0  0.11951745354E+04 -0.74857617795E+03 -0.10293238457E+04  0.17459427378E+04  0.50400001928E-02 0. -1.
       -1    1    3    3    0  502 -0.11951745354E+04  0.74857617795E+03 -0.29167136398E+03  0.14400974442E+04  0.50400001928E-02 0.  1.
</event>
<event>
 5   0  0.3769563E-07  0.2899421E+04  0.7818609E-02  0.8273050E-01
        1   -1    0    0  501    0  0.00000000000E+00  0.00000000000E+00  0.15938922600E+04  0.15938922600E+04  0.50400001928E-02 0.  1.
       -1   -1    0    0    0  501  0.00000000000E+00  0.00000000000E+00 -0.13185709660E+04  0.13185709660E+04  0.50400001928E-02 0. -1.
    10030    2    1    2    0    0  0.00000000000E+00  0.00000000000E+00  0.27532129405E+03  0.29124632260E+04  0.28994206711E+04 0.  0.
        3    1    3    3  502    0  0.82654906228E+03  0.17108959387E+03  0.13216080128E+04  0.15681526556E+04  0.10100000352E+00 0.  1.
       -3    1    3    3    0  502 -0.82654906228E+03 -0.17108959387E+03 -0.10462867188E+04  0.13443105704E+04  0.10100000352E+00 0. -1.
</event>
<event>
 5   0  0.1063979E-06  0.2899810E+04  0.7818609E-02  0.8272934E-01
        2   -1    0    0  501    0  0.00000000000E+00  0.00000000000E+00  0.13515858262E+04  0.13515858262E+04  0.25500000920E-02 0.  1.
       -2   -1    0    0    0  501  0.00000000000E+00  0.00000000000E+00 -0.15553758362E+04  0.15553758362E+04  0.25500000920E-02 0. -1.
    10030    2    1    2    0    0  0.00000000000E+00  0.00000000000E+00 -0.20379001001E+03  0.29069616624E+04  0.28998096039E+04 0.  0.
        1    1    3    3  502    0 -0.16245695139E+03 -0.89609689072E+03 -0.12328806044E+04  0.15327675895E+04  0.50400001928E-02 0. -1.
       -1    1    3    3    0  502  0.16245695139E+03  0.89609689072E+03  0.10290905944E+04  0.13741940729E+04  0.50400001928E-02 0.  1.
</event>
<event>
 5   0  0.9994311E-07  0.2899894E+04  0.7818609E-02  0.8272909E-01
        2   -1    0    0  501    0  0.00000000000E+00  0.00000000000E+00  0.20493407521E+04  0.20493407521E+04  0.25500000920E-02 0.  1.
       -2   -1    0    0    0  501  0.00000000000E+00  0.00000000000E+00 -0.10258646765E+04  0.10258646765E+04  0.25500000920E-02 0. -1.
    10030    2    1    2    0    0  0.00000000000E+00  0.00000000000E+00  0.10234760756E+04  0.30752054287E+04  0.28998939896E+04 0.  0.
        2    1    3    3  502    0  0.56941489029E+03 -0.42847053052E+03 -0.82734592843E+03  0.10919347957E+04  0.25500000920E-02 0. -1.
       -2    1    3    3    0  502 -0.56941489029E+03  0.42847053052E+03  0.18508220040E+04  0.19832706329E+04  0.25500000920E-02 0.  1.
</event>
<event>
 5   0  0.3638028E-07  0.2902868E+04  0.7818609E-02  0.8272025E-01
        1   -1    0    0  501    0  0.00000000000E+00  0.00000000000E+00  0.15123227055E+04  0.15123227055E+04  0.50400001928E-02 0. -1.
       -1   -1    0    0    0  501  0.00000000000E+00  0.00000000000E+00 -0.13929967977E+04  0.13929967977E+04  0.50400001928E-02 0.  1.
    10030    2    1    2    0    0  0.00000000000E+00  0.00000000000E+00  0.11932590782E+03  0.29053195032E+04  0.29028680204E+04 0.  0.
        4    1    3    3  502    0  0.15132567714E+03  0.12451044441E+04 -0.67134727761E+03  0.14226360453E+04  0.12699999809E+01 0.  1.
       -4    1    3    3    0  502 -0.15132567714E+03 -0.12451044441E+04  0.79067318543E+03  0.14826834579E+04  0.12699999809E+01 0. -1.
</event>
<event>
 5   0  0.3786210E-07  0.2899744E+04  0.7818609E-02  0.8272954E-01
        1   -1    0    0  501    0  0.00000000000E+00  0.00000000000E+00  0.12521574265E+04  0.12521574265E+04  0.50400001928E-02 0.  1.
       -1   -1    0    0    0  501  0.00000000000E+00  0.00000000000E+00 -0.16788058061E+04  0.16788058061E+04  0.50400001928E-02 0. -1.
    10030    2    1    2    0    0  0.00000000000E+00  0.00000000000E+00 -0.42664837957E+03  0.29309632326E+04  0.28997442355E+04 0.  0.
        5    1    3    3  502    0  0.29895712861E+03 -0.76205020692E+03  0.99622596622E+03  0.12894123268E+04  0.46999998093E+01 0.  1.
       -5    1    3    3    0  502 -0.29895712861E+03  0.76205020692E+03 -0.14228743458E+04  0.16415509059E+04  0.46999998093E+01 0. -1.
</event>
<event>
 5   0  0.1063979E-06  0.2893280E+04  0.7818609E-02  0.8274880E-01
       -2   -1    0    0    0  501  0.00000000000E+00  0.00000000000E+00  0.17360212974E+04  0.17360212974E+04  0.25500000920E-02 0.  1.
        2   -1    0    0  501    0  0.00000000000E+00  0.00000000000E+00 -0.12054963860E+04  0.12054963860E+04  0.25500000920E-02 0. -1.
    10030    2    1    2    0    0  0.00000000000E+00  0.00000000000E+00  0.53052491138E+03  0.29415176834E+04  0.28932800763E+04 0.  0.
        1    1    3    3  502    0  0.38520828454E+03  0.10433489958E+04 -0.67525824540E+03  0.13011288359E+04  0.50400001928E-02 0. -1.
       -1    1    3    3    0  502 -0.38520828454E+03 -0.10433489958E+04  0.12057831568E+04  0.16403888474E+04  0.50400001928E-02 0.  1.
</event>
<event>
 5   0  0.3769563E-07  0.2901420E+04  0.7818609E-02  0.8272455E-01
        1   -1    0    0  501    0  0.00000000000E+00  0.00000000000E+00  0.29512229937E+04  0.29512229937E+04  0.50400001928E-02 0. -1.
       -1   -1    0    0    0  501  0.00000000000E+00  0.00000000000E+00 -0.71311429570E+03  0.71311429572E+03  0.50400001928E-02 0.  1.
    10030    2    1    2    0    0  0.00000000000E+00  0.00000000000E+00  0.22381086980E+04  0.36643372894E+04  0.29014198639E+04 0.  0.
        3    1    3    3  502    0  0.45648028400E+03 -0.13668068174E+04  0.90763182865E+03  0.17030357226E+04  0.10100000352E+00 0. -1.
       -3    1    3    3    0  502 -0.45648028400E+03  0.13668068174E+04  0.13304768694E+04  0.19613015668E+04  0.10100000352E+00 0.  1.
</event>
<event>
 5   0  0.9994311E-07  0.2906744E+04  0.7818609E-02  0.8270874E-01
       -2   -1    0    0    0  501  0.00000000000E+00  0.00000000000E+00  0.12643913169E+04  0.12643913169E+04  0.25500000920E-02 0.  1.
        2   -1    0    0  501    0  0.00000000000E+00  0.00000000000E+00 -0.16705979493E+04  0.16705979493E+04  0.25500000920E-02 0. -1.
    10030    2    1    2    0    0  0.00000000000E+00  0.00000000000E+00 -0.40620663243E+03  0.29349892663E+04  0.29067435671E+04 0.  0.
        2    1    3    3  502    0  0.10482834324E+04  0.83248417038E+03 -0.77460820721E+03  0.15465917119E+04  0.25500000920E-02 0. -1.
       -2    1    3    3    0  502 -0.10482834324E+04 -0.83248417038E+03  0.36840157478E+03  0.13883975544E+04  0.25500000920E-02 0.  1.
</event>
<event>
 5   0  0.9994311E-07  0.2898652E+04  0.7818609E-02  0.8273279E-01
        2   -1    0    0  501    0  0.00000000000E+00  0.00000000000E+00  0.20054279367E+04  0.20054279367E+04  0.25500000920E-02 0. -1.
       -2   -1    0    0    0  501  0.00000000000E+00  0.00000000000E+00 -0.10474302129E+04  0.10474302129E+04  0.25500000920E-02 0.  1.
    10030    2    1    2    0    0  0.00000000000E+00  0.00000000000E+00  0.95799772380E+03  0.30528581496E+04  0.28986519699E+04 0.  0.
        2    1    3    3  502    0 -0.24357385740E+03  0.83105058787E+03 -0.74496755923E+03  0.11423440672E+04  0.25500000920E-02 0.  1.
       -2    1    3    3    0  502  0.24357385740E+03 -0.83105058787E+03  0.17029652830E+04  0.19105140823E+04  0.25500000920E-02 0. -1.
</event>
<event>
 5   0  0.1006893E-06  0.2902777E+04  0.7818609E-02  0.8272052E-01
       -2   -1    0    0    0  501  0.00000000000E+00  0.00000000000E+00  0.10673735930E+04  0.10673735930E+04  0.25500000920E-02 0.  1.
        2   -1    0    0  501    0  0.00000000000E+00  0.00000000000E+00 -0.19735627319E+04  0.19735627319E+04  0.25500000920E-02 0. -1.
    10030    2    1    2    0    0  0.00000000000E+00  0.00000000000E+00 -0.90618913888E+03  0.30409363249E+04  0.29027771146E+04 0.  0.
        4    1    3    3  502    0 -0.57661347407E+03  0.11873304832E+04 -0.10853862584E+04  0.17088890302E+04  0.12699999809E+01 0.  1.
       -4    1    3    3    0  502  0.57661347407E+03 -0.11873304832E+04  0.17919711954E+03  0.13320472947E+04  0.12699999809E+01 0. -1.
</event>
<event>
 5   0  0.9950999E-07  0.2971075E+04  0.7818609E-02  0.8252039E-01
       -2   -1    0    0    0  501  0.00000000000E+00  0.00000000000E+00  0.14871377225E+04  0.14871377225E+04  0.25500000920E-02 0. -1.
        2   -1    0    0  501    0  0.00000000000E+00  0.00000000000E+00 -0.14839386224E+04  0.14839386224E+04  0.25500000920E-02 0.  1.
    10030    2    1    2    0    0  0.00000000000E+00  0.00000000000E+00  0.31991000722E+01  0.29710763448E+04  0.29710746225E+04 0.  0.
        3    1    3    3  502    0 -0.28162936506E+03  0.14457671384E+04 -0.19143779979E+03  0.14853303199E+04  0.10100000352E+00 0.  1.
       -3    1    3    3    0  502  0.28162936506E+03 -0.14457671384E+04  0.19463689987E+03  0.14857460250E+04  0.10100000352E+00 0. -1.
</event>
<event>
 5   0  0.1063979E-06  0.2896579E+04  0.7818609E-02  0.8273896E-01
        2   -1    0    0  501    0  0.00000000000E+00  0.00000000000E+00  0.16782239691E+04  0.16782239691E+04  0.25500000920E-02 0. -1.
       -2   -1    0    0    0  501  0.00000000000E+00  0.00000000000E+00 -0.12498587973E+04  0.12498587973E+04  0.25500000920E-02 0.  1.
    10030    2    1    2    0    0  0.00000000000E+00  0.00000000000E+00  0.42836517178E+03  0.29280827664E+04  0.28965793561E+04 0.  0.
        1    1    3    3  502    0  0.86146067885E+03 -0.13800603437E+03  0.13827758000E+04  0.16350012477E+04  0.50400001928E-02 0. -1.
       -1    1    3    3    0  502 -0.86146067885E+03  0.13800603437E+03 -0.95441062824E+03  0.12930815187E+04  0.50400001928E-02 0.  1.
</event>
<event>
 5   0  0.1031339E-06  0.2902962E+04  0.7818609E-02  0.8271997E-01
       -2   -1    0    0    0  501  0.00000000000E+00  0.00000000000E+00  0.16357355399E+04  0.16357355399E+04  0.25500000920E-02 0.  1.
        2   -1    0    0  501    0  0.00000000000E+00  0.00000000000E+00 -0.12879816225E+04  0.12879816225E+04  0.25500000920E-02 0. -1.
    10030    2    1    2    0    0  0.00000000000E+00  0.00000000000E+00  0.34775391742E+03  0.29237171624E+04  0.29029621525E+04 0.  0.
        5    1    3    3  502    0  0.60088842213E+03  0.12360641879E+04 -0.29620805472E+03  0.14059455445E+04  0.46999998093E+01 0. -1.
       -5    1    3    3    0  502 -0.60088842213E+03 -0.12360641879E+04  0.64396197215E+03  0.15177716179E+04  0.46999998093E+01 0.  1.
</event>
<event>
 5   0  0.3638028E-07  0.2897569E+04  0.7818609E-02  0.8273601E-01
        1   -1    0    0  501    0  0.00000000000E+00  0.00000000000E+00  0.26996325896E+04  0.26996325896E+04  0.50400001928E-02 0. -1.
       -1   -1    0    0    0  501  0.00000000000E+00  0.00000000000E+00 -0.77750448832E+03  0.77750448834E+03  0.50400001928E-02 0.  1.
    10030    2    1    2    0    0  0.00000000000E+00  0.00000000000E+00  0.19221281013E+04  0.34771370780E+04  0.28975689502E+04 0.  0.
        4    1    3    3  502    0 -0.52766743492E+03 -0.10126206629E+04  0.20311291322E+04  0.23300902758E+04  0.12699999809E+01 0. -1.
       -4    1    3    3    0  502  0.52766743492E+03  0.10126206629E+04 -0.10900103092E+03  0.11470468022E+04  0.12699999809E+01 0.  1.
</event>
<event>
 5   0  0.3786210E-07  0.2901958E+04  0.7818609E-02  0.8272295E-01
        1   -1    0    0  501    0  0.00000000000E+00  0.00000000000E+00  0.13174334444E+04  0.13174334444E+04  0.50400001928E-02 0.  1.
       -1   -1    0    0    0  501  0.00000000000E+00  0.00000000000E+00 -0.15980619413E+04  0.15980619413E+04  0.50400001928E-02 0. -1.
    10030    2    1    2    0    0  0.00000000000E+00  0.00000000000E+00 -0.28062849695E+03  0.29154953857E+04  0.29019581305E+04 0.  0.
        5    1    3    3  502    0 -0.84676928214E+03 -0.56485589364E+03  0.89854894579E+03  0.13577528110E+04  0.46999998093E+01 0.  1.
       -5    1    3    3    0  502  0.84676928214E+03  0.56485589364E+03 -0.11791774427E+04  0.15577425748E+04  0.46999998093E+01 0. -1.
</event>
<event>
 5   0  0.1006893E-06  0.2900592E+04  0.7818609E-02  0.8272701E-01
        2   -1    0    0  501    0  0.00000000000E+00  0.00000000000E+00  0.13041559707E+04  0.13041559707E+04  0.25500000920E-02 0. -1.
       -2   -1    0    0    0  501  0.00000000000E+00  0.00000000000E+00 -0.16128126105E+04  0.16128126105E+04  0.25500000920E-02 0.  1.
    10030    2    1    2    0    0  0.00000000000E+00  0.00000000000E+00 -0.30865663984E+03  0.29169685812E+04  0.29005924882E+04 0.  0.
        4    1    3    3  502    0 -0.65026327799E+03 -0.76025673995E+03 -0.12102683277E+04  0.15702177171E+04  0.12699999809E+01 0.  1.
       -4    1    3    3    0  502  0.65026327799E+03  0.76025673995E+03  0.90161168783E+03  0.13467508641E+04  0.12699999809E+01 0. -1.
</event>
<event>
 5   0  0.9994311E-07  0.2900772E+04  0.7818609E-02  0.8272648E-01
       -2   -1    0    0    0  501  0.00000000000E+00  0.00000000000E+00  0.16153535076E+04  0.16153535076E+04  0.25500000920E-02 0. -1.
        2   -1    0    0  501    0  0.00000000000E+00  0.00000000000E+00 -0.13022661205E+04  0.13022661205E+04  0.25500000920E-02 0.  1.
    10030    2    1    2    0    0  0.00000000000E+00  0.00000000000E+00  0.31308738705E+03  0.29176196281E+04  0.29007724113E+04 0.  0.
        2    1    3    3  502    0 -0.84014424955E+03  0.28422091346E+03 -0.99772598194E+03  0.13349460748E+04  0.25500000920E-02 0.  1.
       -2    1    3    3    0  502  0.84014424955E+03 -0.28422091346E+03  0.13108133690E+04  0.15826735532E+04  0.25500000920E-02 0. -1.
</event>
<event>
 5   0  0.3786210E-07  0.2903944E+04  0.7818609E-02  0.8271705E-01
        1   -1    0    0  501    0  0.00000000000E+00  0.00000000000E+00  0.13159305922E+04  0.13159305922E+04  0.50400001928E-02 0. -1.
       -1   -1    0    0    0  501  0.00000000000E+00  0.00000000000E+00 -0.16020774676E+04  0.16020774676E+04  0.50400001928E-02 0.  1.
    10030    2    1    2    0    0  0.00000000000E+00  0.00000000000E+00 -0.28614687541E+03  0.29180080598E+04  0.29039440426E+04 0.  0.
        5    1    3    3  502    0  0.13927239592E+04 -0.26557533027E+03  0.17147675853E+03  0.14281584825E+04  0.46999998093E+01 0. -1.
       -5    1    3    3    0  502 -0.13927239592E+04  0.26557533027E+03 -0.45762363394E+03  0.14898495772E+04  0.46999998093E+01 0.  1.
</event>
<event>
 5   0  0.3638028E-07  0.2897261E+04  0.7818609E-02  0.8273693E-01
        1   -1    0    0  501    0  0.00000000000E+00  0.00000000000E+00  0.16003673588E+04  0.16003673588E+04  0.50400001928E-02 0.  1.
       -1   -1    0    0    0  501  0.00000000000E+00  0.00000000000E+00 -0.13112807438E+04  0.13112807438E+04  0.50400001928E-02 0. -1.
    10030    2    1    2    0    0  0.00000000000E+00  0.00000000000E+00  0.28908661497E+03  0.29116481026E+04  0.28972613970E+04 0.  0.
        4    1    3    3  502    0  0.79527825553E+03 -0.11857328789E+04  0.39091227249E+03  0.14802851014E+04  0.12699999809E+01 0.  1.
       -4    1    3    3    0  502 -0.79527825553E+03  0.11857328789E+04 -0.10182565752E+03  0.14313630012E+04  0.12699999809E+01 0. -1.
</event>
<event>
 5   0  0.1031339E-06  0.2899036E+04  0.7818609E-02  0.8273164E-01
        2   -1    0    0  501    0  0.00000000000E+00  0.00000000000E+00  0.15821159533E+04  0.15821159533E+04  0.25500000920E-02 0.  1.
       -2   -1    0    0    0  501  0.00000000000E+00  0.00000000000E+00 -0.13280327511E+04  0.13280327511E+04  0.25500000920E-02 0. -1.
    10030    2    1    2    0    0  0.00000000000E+00  0.00000000000E+00  0.25408320216E+03  0.29101487044E+04  0.28990355652E+04 0.  0.
        5    1    3    3  502    0 -0.40784103564E+03  0.75439514465E+02 -0.12671865978E+04  0.13333451894E+04  0.46999998093E+01 0. -1.
       -5    1    3    3    0  502  0.40784103564E+03 -0.75439514465E+02  0.15212697999E+04  0.15768035150E+04  0.46999998093E+01 0.  1.
</event>
<event>
 5   0  0.3885904E-07  0.2892595E+04  0.7818609E-02  0.8275084E-01
        1   -1    0    0  501    0  0.00000000000E+00  0.00000000000E+00  0.15672999144E+04  0.15672999144E+04  0.50400001928E-02 0. -1.
       -1   -1    0    0    0  501  0.00000000000E+00  0.00000000000E+00 -0.13346370569E+04  0.13346370569E+04  0.50400001928E-02 0.  1.
    10030    2    1    2    0    0  0.00000000000E+00  0.00000000000E+00  0.23266285752E+03  0.29019369714E+04  0.28925950599E+04 0.  0.
        2    1    3    3  502    0 -0.67342374870E+03  0.12481584076E+04 -0.16809360872E+03  0.14281647023E+04  0.25500000920E-02 0. -1.
       -2    1    3    3    0  502  0.67342374870E+03 -0.12481584076E+04  0.40075646624E+03  0.14737722690E+04  0.25500000920E-02 0.  1.
</event>
<event>
 5   0  0.3769563E-07  0.2912252E+04  0.7818609E-02  0.8269242E-01
        1   -1    0    0  501    0  0.00000000000E+00  0.00000000000E+00  0.13757090229E+04  0.13757090229E+04  0.50400001928E-02 0. -1.
       -1   -1    0    0    0  501  0.00000000000E+00  0.00000000000E+00 -0.15412432362E+04  0.15412432362E+04  0.50400001928E-02 0.  1.
    10030    2    1    2    0    0  0.00000000000E+00  0.00000000000E+00 -0.16553421326E+03  0.29169522591E+04  0.29122515183E+04 0.  0.
        3    1    3    3  502    0 -0.38140205695E+03  0.82359193325E+03  0.10577239812E+04  0.13937543658E+04  0.10100000352E+00 0. -1.
       -3    1    3    3    0  502  0.38140205695E+03 -0.82359193325E+03 -0.12232581945E+04  0.15231978933E+04  0.10100000352E+00 0.  1.
</event>
<event>
 5   0  0.3770467E-07  0.2897645E+04  0.7818609E-02  0.8273578E-01
        1   -1    0    0  501    0  0.00000000000E+00  0.00000000000E+00  0.13455210589E+04  0.13455210589E+04  0.50400001928E-02 0.  1.
       -1   -1    0    0    0  501  0.00000000000E+00  0.00000000000E+00 -0.15600552326E+04  0.15600552326E+04  0.50400001928E-02 0. -1.
    10030    2    1    2    0    0  0.00000000000E+00  0.00000000000E+00 -0.21453417362E+03  0.29055762915E+04  0.28976453672E+04 0.  0.
        1    1    3    3  502    0  0.20933949474E+03  0.27996751041E+03  0.13025976921E+04  0.13486903197E+04  0.50400001928E-02 0.  1.
       -1    1    3    3    0  502 -0.20933949474E+03 -0.27996751041E+03 -0.15171318658E+04  0.15568859718E+04  0.50400001928E-02 0. -1.
</event>
<event>
 5   0  0.1063979E-06  0.2887038E+04  0.7818609E-02  0.8276745E-01
       -2   -1    0    0    0  501  0.00000000000E+00  0.00000000000E+00  0.64440809676E+03  0.64440809676E+03  0.25500000920E-02 0.  1.
        2   -1    0    0  501    0  0.00000000000E+00  0.00000000000E+00 -0.32335829994E+04  0.32335829994E+04  0.25500000920E-02 0. -1.
    10030    2    1    2    0    0  0.00000000000E+00  0.00000000000E+00 -0.25891749026E+04  0.38779910961E+04  0.28870379744E+04 0.  0.
        1    1    3    3  502    0 -0.84748939020E+03 -0.53628186155E+03 -0.26891746536E+04  0.28701039736E+04  0.50400001928E-02 0. -1.
       -1    1    3    3    0  502  0.84748939020E+03  0.53628186155E+03  0.99999751019E+02  0.10078871225E+04  0.50400001928E-02 0.  1.
</event>
<event>
 5   0  0.9950999E-07  0.2896507E+04  0.7818609E-02  0.8273917E-01
        2   -1    0    0  501    0  0.00000000000E+00  0.00000000000E+00  0.26590308110E+04  0.26590308110E+04  0.25500000920E-02 0.  1.
       -2   -1    0    0    0  501  0.00000000000E+00  0.00000000000E+00 -0.78879821143E+03  0.78879821144E+03  0.25500000920E-02 0. -1.
    10030    2    1    2    0    0  0.00000000000E+00  0.00000000000E+00  0.18702325996E+04  0.34478290225E+04  0.28965073781E+04 0.  0.
        3    1    3    3  502    0  0.67359271405E+03  0.71387048516E+03 -0.33252639341E+03  0.10362972674E+04  0.10100000352E+00 0. -1.
       -3    1    3    3    0  502 -0.67359271405E+03 -0.71387048516E+03  0.22027589930E+04  0.24115317550E+04  0.10100000352E+00 0.  1.
</event>
<event>
 5   0  0.1031339E-06  0.2903105E+04  0.7818609E-02  0.8271954E-01
       -2   -1    0    0    0  501  0.00000000000E+00  0.00000000000E+00  0.15027061710E+04  0.15027061710E+04  0.25500000920E-02 0.  1.
        2   -1    0    0  501    0  0.00000000000E+00  0.00000000000E+00 -0.14021403175E+04  0.14021403175E+04  0.25500000920E-02 0. -1.
    10030    2    1    2    0    0  0.00000000000E+00  0.00000000000E+00  0.10056585353E+03  0.29048464885E+04  0.29031051704E+04 0.  0.
        5    1    3    3  502    0  0.28472615659E+03 -0.25527423619E+03 -0.13508244087E+04  0.14039168754E+04  0.46999998093E+01 0. -1.
       -5    1    3    3    0  502 -0.28472615659E+03  0.25527423619E+03  0.14513902623E+04  0.15009296130E+04  0.46999998093E+01 0.  1.
</event>
<event>
 5   0  0.1006893E-06  0.2911884E+04  0.7818609E-02  0.8269350E-01
       -2   -1    0    0    0  501  0.00000000000E+00  0.00000000000E+00  0.18511154410E+04  0.18511154410E+04  0.25500000920E-02 0. -1.
        2   -1    0    0  501    0  0.00000000000E+00  0.00000000000E+00 -0.11451298302E+04  0.11451298302E+04  0.25500000920E-02 0.  1.
    10030    2    1    2    0    0  0.00000000000E+00  0.00000000000E+00  0.70598561087E+03  0.29962452712E+04  0.29118842770E+04 0.  0.
        4    1    3    3  502    0 -0.17598955325E+03 -0.11671982198E+04 -0.52401546759E+03  0.12914789315E+04  0.12699999809E+01 0.  1.
       -4    1    3    3    0  502  0.17598955325E+03  0.11671982198E+04  0.12300010785E+04  0.17047663397E+04  0.12699999809E+01 0. -1.
</event>
<event>
 5   0  0.1063979E-06  0.2891340E+04  0.7818609E-02  0.8275459E-01
       -2   -1    0    0    0  501  0.00000000000E+00  0.00000000000E+00  0.11350242842E+04  0.11350242842E+04  0.25500000920E-02 0.  1.
        2   -1    0    0  501    0  0.00000000000E+00  0.00000000000E+00 -0.18413361444E+04  0.18413361444E+04  0.25500000920E-02 0. -1.
    10030    2    1    2    0    0  0.00000000000E+00  0.00000000000E+00 -0.70631186021E+03  0.29763604286E+04  0.28913396474E+04 0.  0.
        1    1    3    3  502    0 -0.13152302187E+04 -0.56202931436E+03 -0.56970758251E+03  0.15395694879E+04  0.50400001928E-02 0. -1.
       -1    1    3    3    0  502  0.13152302187E+04  0.56202931436E+03 -0.13660427770E+03  0.14367909407E+04  0.50400001928E-02 0.  1.
</event>
<event>
 5   0  0.3885904E-07  0.2901703E+04  0.7818609E-02  0.8272371E-01
        1   -1    0    0  501    0  0.00000000000E+00  0.00000000000E+00  0.10454434014E+04  0.10454434014E+04  0.50400001928E-02 0.  1.
       -1   -1    0    0    0  501  0.00000000000E+00  0.00000000000E+00 -0.20134709851E+04  0.20134709851E+04  0.50400001928E-02 0. -1.
    10030    2    1    2    0    0  0.00000000000E+00  0.00000000000E+00 -0.96802758374E+03  0.30589143865E+04  0.29017029174E+04 0.  0.
        2    1    3    3  502    0 -0.12679340294E+04  0.25676738763E+03  0.20836900999E+03  0.13103449312E+04  0.25500000920E-02 0. -1.
       -2    1    3    3    0  502  0.12679340294E+04 -0.25676738763E+03 -0.11763965937E+04  0.17485694553E+04  0.25500000920E-02 0.  1.
</event>
<event>
 5   0  0.3769563E-07  0.2896195E+04  0.7818609E-02  0.8274010E-01
        1   -1    0    0  501    0  0.00000000000E+00  0.00000000000E+00  0.13555114756E+04  0.13555114756E+04  0.50400001928E-02 0.  1.
       -1   -1    0    0    0  501  0.00000000000E+00  0.00000000000E+00 -0.15470078064E+04  0.15470078064E+04  0.50400001928E-02 0. -1.
    10030    2    1    2    0    0  0.00000000000E+00  0.00000000000E+00 -0.19149633081E+03  0.29025192820E+04  0.28961953211E+04 0.  0.
        3    1    3    3  502    0 -0.46382083361E+03  0.11583478608E+04 -0.83225917852E+03  0.14998516202E+04  0.10100000352E+00 0. -1.
       -3    1    3    3    0  502  0.46382083361E+03 -0.11583478608E+04  0.64076284771E+03  0.14026676618E+04  0.10100000352E+00 0.  1.
</event>
<event>
 5   0  0.9950999E-07  0.2899736E+04  0.7818609E-02  0.8272956E-01
       -2   -1    0    0    0  501  0.00000000000E+00  0.00000000000E+00  0.98570896225E+03  0.98570896225E+03  0.25500000920E-02 0.  1.
        2   -1    0    0  501    0  0.00000000000E+00  0.00000000000E+00 -0.21325948081E+04  0.21325948081E+04  0.25500000920E-02 0. -1.
    10030    2    1    2    0    0  0.00000000000E+00  0.00000000000E+00 -0.11468858458E+04  0.31183037703E+04  0.28997364123E+04 0.  0.
        3    1    3    3  502    0 -0.46019649473E+03  0.10501312129E+04  0.38089485586E+03  0.12081544932E+04  0.10100000352E+00 0.  1.
       -3    1    3    3    0  502  0.46019649473E+03 -0.10501312129E+04 -0.15277807017E+04  0.19101492771E+04  0.10100000352E+00 0. -1.
</event>
<event>
 5   0  0.9950999E-07  0.2900417E+04  0.7818609E-02  0.8272753E-01
        2   -1    0    0  501    0  0.00000000000E+00  0.00000000000E+00  0.21905870580E+04  0.21905870580E+04  0.25500000920E-02 0. -1.
       -2   -1    0    0    0  501  0.00000000000E+00  0.00000000000E+00 -0.96006452940E+03  0.96006452940E+03  0.25500000920E-02 0.  1.
    10030    2    1    2    0    0  0.00000000000E+00  0.00000000000E+00  0.12305225286E+04  0.31506515874E+04  0.29004171651E+04 0.  0.
        3    1    3    3  502    0 -0.10390289063E+04  0.28866450664E+03  0.16685544254E+04  0.19867013229E+04  0.10100000352E+00 0. -1.
       -3    1    3    3    0  502  0.10390289063E+04 -0.28866450664E+03 -0.43803189681E+03  0.11639502645E+04  0.10100000352E+00 0.  1.
</event>
<event>
 5   0  0.3638028E-07  0.2895304E+04  0.7818609E-02  0.8274276E-01
        1   -1    0    0  501    0  0.00000000000E+00  0.00000000000E+00  0.14265279602E+04  0.14265279602E+04  0.50400001928E-02 0.  1.
       -1   -1    0    0    0  501  0.00000000000E+00  0.00000000000E+00 -0.14690888750E+04  0.14690888750E+04  0.50400001928E-02 0. -1.
    10030    2    1    2    0    0  0.00000000000E+00  0.00000000000E+00 -0.42560914776E+02  0.28956168352E+04  0.28953040297E+04 0.  0.
        4    1    3    3  502    0 -0.72689746890E+03  0.44693728777E+03  0.11482738977E+04  0.14306178478E+04  0.12699999809E+01 0.  1.
       -4    1    3    3    0  502  0.72689746890E+03 -0.44693728777E+03 -0.11908348125E+04  0.14649989874E+04  0.12699999809E+01 0. -1.
</event>
<event>
 5   0  0.3770467E-07  0.2893802E+04  0.7818609E-02  0.8274724E-01
        1   -1    0    0  501    0  0.00000000000E+00  0.00000000000E+00  0.89266693073E+03  0.89266693074E+03  0.50400001928E-02 0. -1.
       -1   -1    0    0    0  501  0.00000000000E+00  0.00000000000E+00 -0.23452453524E+04  0.23452453524E+04  0.50400001928E-02 0.  1.
    10030    2    1    2    0    0  0.00000000000E+00  0.00000000000E+00 -0.14525784216E+04  0.32379122831E+04  0.28938023226E+04 0.  0.
        1    1    3    3  502    0  0.80514373444E+03 -0.11897776206E+04 -0.53347307544E+03  0.15324557879E+04  0.50400001928E-02 0.  1.
       -1    1    3    3    0  502 -0.80514373444E+03  0.11897776206E+04 -0.91910534619E+03  0.17054564952E+04  0.50400001928E-02 0. -1.
</event>
<event>
 5   0  0.1031339E-06  0.2827135E+04  0.7818609E-02  0.8294893E-01
        2   -1    0    0  501    0  0.00000000000E+00  0.00000000000E+00  0.24272510757E+04  0.24272510757E+04  0.25500000920E-02 0.  1.
       -2   -1    0    0    0  501  0.00000000000E+00  0.00000000000E+00 -0.82322475564E+03  0.82322475564E+03  0.25500000920E-02 0. -1.
    10030    2    1    2    0    0  0.00000000000E+00  0.00000000000E+00  0.16040263200E+04  0.32504758313E+04  0.28271350683E+04 0.  0.
        5    1    3    3  502    0  0.54123530805E+02  0.88044655428E+02  0.24228923996E+04  0.24251001810E+04  0.46999998093E+01 0.  1.
       -5    1    3    3    0  502 -0.54123530805E+02 -0.88044655428E+02 -0.81886607954E+03  0.82537565032E+03  0.46999998093E+01 0. -1.
</event>
<event>
 5   0  0.3638028E-07  0.2900501E+04  0.7818609E-02  0.8272728E-01
        1   -1    0    0  501    0  0.00000000000E+00  0.00000000000E+00  0.24040661754E+04  0.24040661754E+04  0.50400001928E-02 0.  1.
       -1   -1    0    0    0  501  0.00000000000E+00  0.00000000000E+00 -0.87486229381E+03  0.87486229382E+03  0.50400001928E-02 0. -1.
    10030    2    1    2    0    0  0.00000000000E+00  0.00000000000E+00  0.15292038816E+04  0.32789284693E+04  0.29005012317E+04 0.  0.
        4    1    3    3  502    0  0.75359046038E+02  0.65704115433E+03 -0.69446744359E+03  0.95899359091E+03  0.12699999809E+01 0. -1.
       -4    1    3    3    0  502 -0.75359046038E+02 -0.65704115433E+03  0.22236713252E+04  0.23199348783E+04  0.12699999809E+01 0.  1.
</event>
<event>
 5   0  0.3770467E-07  0.2901039E+04  0.7818609E-02  0.8272568E-01
       -1   -1    0    0    0  501  0.00000000000E+00  0.00000000000E+00  0.12361014009E+04  0.12361014009E+04  0.50400001928E-02 0. -1.
        1   -1    0    0  501    0  0.00000000000E+00  0.00000000000E+00 -0.17021310362E+04  0.17021310362E+04  0.50400001928E-02 0.  1.
    10030    2    1    2    0    0  0.00000000000E+00  0.00000000000E+00 -0.46602963533E+03  0.29382324371E+04  0.29010388197E+04 0.  0.
        1    1    3    3  502    0 -0.86047099000E+03 -0.10912326538E+04 -0.65404568705E+03  0.15358954359E+04  0.50400001928E-02 0.  1.
       -1    1    3    3    0  502  0.86047099000E+03  0.10912326538E+04  0.18801605172E+03  0.14023370012E+04  0.50400001928E-02 0. -1.
</event>
<event>
 5   0  0.1006893E-06  0.2901859E+04  0.7818609E-02  0.8272325E-01
       -2   -1    0    0    0  501  0.00000000000E+00  0.00000000000E+00  0.22830341972E+04  0.22830341972E+04  0.25500000920E-02 0.  1.
        2   -1    0    0  501    0  0.00000000000E+00  0.00000000000E+00 -0.92210448650E+03  0.92210448651E+03  0.25500000920E-02 0. -1.
    10030    2    1    2    0    0  0.00000000000E+00  0.00000000000E+00  0.13609297107E+04  0.32051386837E+04  0.29018587671E+04 0.  0.
        4    1    3    3  502    0 -0.86958109085E+03 -0.53737625472E+03  0.18177639270E+04  0.20854764012E+04  0.12699999809E+01 0.  1.
       -4    1    3    3    0  502  0.86958109085E+03  0.53737625472E+03 -0.45683421634E+03  0.11196622825E+04  0.12699999809E+01 0. -1.
</event>
<event>
 5   0  0.3769563E-07  0.2881650E+04  0.7818609E-02  0.8278358E-01
        1   -1    0    0  501    0  0.00000000000E+00  0.00000000000E+00  0.15608041452E+04  0.15608041452E+04  0.50400001928E-02 0.  1.
       -1   -1    0    0    0  501  0.00000000000E+00  0.00000000000E+00 -0.13300688077E+04  0.13300688077E+04  0.50400001928E-02 0. -1.
    10030    2    1    2    0    0  0.00000000000E+00  0.00000000000E+00  0.23073533750E+03  0.28908729528E+04  0.28816501580E+04 0.  0.
        3    1    3    3  502    0 -0.92953636049E+03 -0.10152564697E+04 -0.31166281891E+03  0.14113529918E+04  0.10100000352E+00 0.  1.
       -3    1    3    3    0  502  0.92953636049E+03  0.10152564697E+04  0.54239815641E+03  0.14795199610E+04  0.10100000352E+00 0. -1.
</event>
<event>
 5   0  0.3770467E-07  0.2899175E+04  0.7818609E-02  0.8273123E-01
       -1   -1    0    0    0  501  0.00000000000E+00  0.00000000000E+00  0.88999956721E+03  0.88999956722E+03  0.50400001928E-02 0. -1.
        1   -1    0    0  501    0  0.00000000000E+00  0.00000000000E+00 -0.23610170378E+04  0.23610170378E+04  0.50400001928E-02 0.  1.
    10030    2    1    2    0    0  0.00000000000E+00  0.00000000000E+00 -0.14710174706E+04  0.32510166050E+04  0.28991751529E+04 0.  0.
        1    1    3    3  502    0  0.41368473265E+03  0.64714398904E+03 -0.21140845973E+04  0.22492852387E+04  0.50400001928E-02 0.  1.
       -1    1    3    3    0  502 -0.41368473265E+03 -0.64714398904E+03  0.64306712676E+03  0.10017313662E+04  0.50400001928E-02 0. -1.
</event>
<event>
 5   0  0.3770467E-07  0.2894774E+04  0.7818609E-02  0.8274434E-01
        1   -1    0    0  501    0  0.00000000000E+00  0.00000000000E+00  0.14282776580E+04  0.14282776580E+04  0.50400001928E-02 0.  1.
       -1   -1    0    0    0  501  0.00000000000E+00  0.00000000000E+00 -0.14667521377E+04  0.14667521378E+04  0.50400001928E-02 0. -1.
    10030    2    1    2    0    0  0.00000000000E+00  0.00000000000E+00 -0.38474479770E+02  0.28950297957E+04  0.28947741246E+04 0.  0.
        1    1    3    3  502    0 -0.97489856294E+03  0.10202563707E+04 -0.34110263967E+03  0.14517924372E+04  0.50400001928E-02 0.  1.
       -1    1    3    3    0  502  0.97489856294E+03 -0.10202563707E+04  0.30262815989E+03  0.14432373585E+04  0.50400001928E-02 0. -1.
</event>
<event>
 5   0  0.3786210E-07  0.2903427E+04  0.7818609E-02  0.8271858E-01
        1   -1    0    0  501    0  0.00000000000E+00  0.00000000000E+00  0.20275453245E+04  0.20275453245E+04  0.50400001928E-02 0. -1.
       -1   -1    0    0    0  501  0.00000000000E+00  0.00000000000E+00 -0.10394207678E+04  0.10394207678E+04  0.50400001928E-02 0.  1.
    10030    2    1    2    0    0  0.00000000000E+00  0.00000000000E+00  0.98812455669E+03  0.30669660924E+04  0.29034274353E+04 0.  0.
        5    1    3    3  502    0 -0.73989671553E+03  0.12233392582E+04  0.22799276412E+03  0.14477599528E+04  0.46999998093E+01 0. -1.
       -5    1    3    3    0  502  0.73989671553E+03 -0.12233392582E+04  0.76013179257E+03  0.16192061396E+04  0.46999998093E+01 0.  1.
</event>
<event>
 5   0  0.3786210E-07  0.2903694E+04  0.7818609E-02  0.8271779E-01
       -1   -1    0    0    0  501  0.00000000000E+00  0.00000000000E+00  0.16185765446E+04  0.16185765446E+04  0.50400001928E-02 0. -1.
        1   -1    0    0  501    0  0.00000000000E+00  0.00000000000E+00 -0.13022922334E+04  0.13022922334E+04  0.50400001928E-02 0.  1.
    10030    2    1    2    0    0  0.00000000000E+00  0.00000000000E+00  0.31628431121E+03  0.29208687780E+04  0.29036939668E+04 0.  0.
        5    1    3    3  502    0  0.24258680958E+03 -0.13099197164E+04 -0.42241933750E+03  0.13975686782E+04  0.46999998093E+01 0.  1.
       -5    1    3    3    0  502 -0.24258680958E+03  0.13099197164E+04  0.73870364871E+03  0.15233000998E+04  0.46999998093E+01 0. -1.
</event>
<event>
 5   0  0.3885904E-07  0.2886443E+04  0.7818609E-02  0.8276923E-01
       -1   -1    0    0    0  501  0.00000000000E+00  0.00000000000E+00  0.15728764898E+04  0.15728764898E+04  0.50400001928E-02 0. -1.
        1   -1    0    0  501    0  0.00000000000E+00  0.00000000000E+00 -0.13242539053E+04  0.13242539053E+04  0.50400001928E-02 0.  1.
    10030    2    1    2    0    0  0.00000000000E+00  0.00000000000E+00  0.24862258447E+03  0.28971303952E+04  0.28864426786E+04 0.  0.
        2    1    3    3  502    0  0.44567903127E+03 -0.56254220116E+03 -0.11324448944E+04  0.13407143491E+04  0.25500000920E-02 0.  1.
       -2    1    3    3    0  502 -0.44567903127E+03  0.56254220116E+03  0.13810674789E+04  0.15564160460E+04  0.25500000920E-02 0. -1.
</event>
<event>
 5   0  0.3885904E-07  0.2899467E+04  0.7818609E-02  0.8273036E-01
        1   -1    0    0  501    0  0.00000000000E+00  0.00000000000E+00  0.17856651234E+04  0.17856651234E+04  0.50400001928E-02 0.  1.
       -1   -1    0    0    0  501  0.00000000000E+00  0.00000000000E+00 -0.11769998602E+04  0.11769998602E+04  0.50400001928E-02 0. -1.
    10030    2    1    2    0    0  0.00000000000E+00  0.00000000000E+00  0.60866526318E+03  0.29626649836E+04  0.28994672619E+04 0.  0.
        2    1    3    3  502    0 -0.34026923312E+03  0.78835258179E+03  0.14978872496E+04  0.17265425442E+04  0.25500000920E-02 0.  1.
       -2    1    3    3    0  502  0.34026923312E+03 -0.78835258179E+03 -0.88922198643E+03  0.12361224395E+04  0.25500000920E-02 0. -1.
</event>
<event>
 5   0  0.3885904E-07  0.2907221E+04  0.7818609E-02  0.8270732E-01
        1   -1    0    0  501    0  0.00000000000E+00  0.00000000000E+00  0.22025802010E+04  0.22025802011E+04  0.50400001928E-02 0.  1.
       -1   -1    0    0    0  501  0.00000000000E+00  0.00000000000E+00 -0.95932183347E+03  0.95932183348E+03  0.50400001928E-02 0. -1.
    10030    2    1    2    0    0  0.00000000000E+00  0.00000000000E+00  0.12432583676E+04  0.31619020345E+04  0.29072208563E+04 0.  0.
        2    1    3    3  502    0  0.42618773185E+03  0.13522986108E+04  0.27319581628E+03  0.14439471838E+04  0.25500000920E-02 0. -1.
       -2    1    3    3    0  502 -0.42618773185E+03 -0.13522986108E+04  0.97006255129E+03  0.17179548507E+04  0.25500000920E-02 0.  1.
</event>
<event>
 5   0  0.1031339E-06  0.2893852E+04  0.7818609E-02  0.8274709E-01
        2   -1    0    0  501    0  0.00000000000E+00  0.00000000000E+00  0.91669948343E+03  0.91669948344E+03  0.25500000920E-02 0. -1.
       -2   -1    0    0    0  501  0.00000000000E+00  0.00000000000E+00 -0.22838402683E+04  0.22838402684E+04  0.25500000920E-02 0.  1.
    10030    2    1    2    0    0  0.00000000000E+00  0.00000000000E+00 -0.13671407849E+04  0.32005397518E+04  0.28938522383E+04 0.  0.
        5    1    3    3  502    0 -0.25450077202E+03 -0.86831801387E+03 -0.19323114145E+04  0.21336813982E+04  0.46999998093E+01 0.  1.
       -5    1    3    3    0  502  0.25450077202E+03  0.86831801387E+03  0.56517062960E+03  0.10668583536E+04  0.46999998093E+01 0. -1.
</event>
<event>
 5   0  0.3770467E-07  0.2899784E+04  0.7818609E-02  0.8272942E-01
       -1   -1    0    0    0  501  0.00000000000E+00  0.00000000000E+00  0.97626749130E+03  0.97626749131E+03  0.50400001928E-02 0. -1.
        1   -1    0    0  501    0  0.00000000000E+00  0.00000000000E+00 -0.21532901179E+04  0.21532901179E+04  0.50400001928E-02 0.  1.
    10030    2    1    2    0    0  0.00000000000E+00  0.00000000000E+00 -0.11770226266E+04  0.31295576093E+04  0.28997842275E+04 0.  0.
        1    1    3    3  502    0 -0.11237873736E+03  0.11809911992E+04  0.31109559412E+03  0.12264377937E+04  0.50400001928E-02 0. -1.
       -1    1    3    3    0  502  0.11237873736E+03 -0.11809911992E+04 -0.14881182208E+04  0.19031198155E+04  0.50400001928E-02 0.  1.
</event>
<event>
 5   0  0.3378750E-07  0.2889256E+04  0.7818609E-02  0.8276081E-01
        3   -1    0    0  501    0  0.00000000000E+00  0.00000000000E+00  0.14681963013E+04  0.14681963047E+04  0.10100000352E+00 0. -1.
       -3   -1    0    0    0  501  0.00000000000E+00  0.00000000000E+00 -0.14214382118E+04  0.14214382154E+04  0.10100000352E+00 0.  1.
    10030    2    1    2    0    0  0.00000000000E+00  0.00000000000E+00  0.46758089438E+02  0.28896345201E+04  0.28892561917E+04 0.  0.
        1    1    3    3  502    0 -0.23123748030E+03 -0.23787991643E+02 -0.14026104790E+04  0.14217428729E+04  0.50400001928E-02 0.  1.
       -1    1    3    3    0  502  0.23123748030E+03  0.23787991643E+02  0.14493685684E+04  0.14678916472E+04  0.50400001928E-02 0. -1.
</event>
<event>
 5   0  0.9950999E-07  0.2901974E+04  0.7818609E-02  0.8272290E-01
       -2   -1    0    0    0  501  0.00000000000E+00  0.00000000000E+00  0.13468657537E+04  0.13468657537E+04  0.25500000920E-02 0.  1.
        2   -1    0    0  501    0  0.00000000000E+00  0.00000000000E+00 -0.15631574306E+04  0.15631574306E+04  0.25500000920E-02 0. -1.
    10030    2    1    2    0    0  0.00000000000E+00  0.00000000000E+00 -0.21629167688E+03  0.29100231843E+04  0.29019739564E+04 0.  0.
        3    1    3    3  502    0  0.26677933217E+03  0.63845837786E+02  0.13206274858E+04  0.13488159509E+04  0.10100000352E+00 0.  1.
       -3    1    3    3    0  502 -0.26677933217E+03 -0.63845837786E+02 -0.15369191626E+04  0.15612072334E+04  0.10100000352E+00 0. -1.
</event>
<event>
 5   0  0.3638028E-07  0.2887304E+04  0.7818609E-02  0.8276665E-01
       -1   -1    0    0    0  501  0.00000000000E+00  0.00000000000E+00  0.13389221154E+04  0.13389221154E+04  0.50400001928E-02 0. -1.
        1   -1    0    0  501    0  0.00000000000E+00  0.00000000000E+00 -0.15565734699E+04  0.15565734699E+04  0.50400001928E-02 0.  1.
    10030    2    1    2    0    0  0.00000000000E+00  0.00000000000E+00 -0.21765135452E+03  0.28954955852E+04  0.28873036855E+04 0.  0.
        4    1    3    3  502    0 -0.68684240257E+03  0.58724759803E+00  0.11645707625E+04  0.13520279230E+04  0.12699999809E+01 0. -1.
       -4    1    3    3    0  502  0.68684240257E+03 -0.58724759803E+00 -0.13822221170E+04  0.15434676623E+04  0.12699999809E+01 0.  1.
</event>
<event>
 5   0  0.1006893E-06  0.2900012E+04  0.7818609E-02  0.8272874E-01
        2   -1    0    0  501    0  0.00000000000E+00  0.00000000000E+00  0.17938199836E+04  0.17938199836E+04  0.25500000920E-02 0.  1.
       -2   -1    0    0    0  501  0.00000000000E+00  0.00000000000E+00 -0.11720891097E+04  0.11720891097E+04  0.25500000920E-02 0. -1.
    10030    2    1    2    0    0  0.00000000000E+00  0.00000000000E+00  0.62173087388E+03  0.29659090933E+04  0.29000116327E+04 0.  0.
        4    1    3    3  502    0  0.34945541247E+03 -0.64528636389E+02 -0.11268637319E+04  0.11815695128E+04  0.12699999809E+01 0. -1.
       -4    1    3    3    0  502 -0.34945541247E+03  0.64528636389E+02  0.17485946058E+04  0.17843395805E+04  0.12699999809E+01 0.  1.
</event>
<event>
 5   0  0.1063979E-06  0.2911915E+04  0.7818609E-02  0.8269341E-01
       -2   -1    0    0    0  501  0.00000000000E+00  0.00000000000E+00  0.12570828060E+04  0.12570828060E+04  0.25500000920E-02 0. -1.
        2   -1    0    0  501    0  0.00000000000E+00  0.00000000000E+00 -0.16862943645E+04  0.16862943645E+04  0.25500000920E-02 0.  1.
    10030    2    1    2    0    0  0.00000000000E+00  0.00000000000E+00 -0.42921155845E+03  0.29433771705E+04  0.29119145946E+04 0.  0.
        1    1    3    3  502    0 -0.19972146843E+03 -0.50999078182E+03 -0.15781931777E+04  0.16705307446E+04  0.50400001928E-02 0.  1.
       -1    1    3    3    0  502  0.19972146843E+03  0.50999078182E+03  0.11489816193E+04  0.12728464259E+04  0.50400001928E-02 0. -1.
</event>
<event>
 5   0  0.3769563E-07  0.2898277E+04  0.7818609E-02  0.8273390E-01
        1   -1    0    0  501    0  0.00000000000E+00  0.00000000000E+00  0.23841062337E+04  0.23841062338E+04  0.50400001928E-02 0. -1.
       -1   -1    0    0    0  501  0.00000000000E+00  0.00000000000E+00 -0.88083419258E+03  0.88083419259E+03  0.50400001928E-02 0.  1.
    10030    2    1    2    0    0  0.00000000000E+00  0.00000000000E+00  0.15032720412E+04  0.32649404263E+04  0.28982769291E+04 0.  0.
        3    1    3    3  502    0  0.12141985967E+04 -0.39902025434E+03 -0.17785642731E+02  0.12782064523E+04  0.10100000352E+00 0.  1.
       -3    1    3    3    0  502 -0.12141985967E+04  0.39902025434E+03  0.15210576839E+04  0.19867339740E+04  0.10100000352E+00 0. -1.
</event>
<event>
 5   0  0.9950999E-07  0.2868066E+04  0.7818609E-02  0.8282443E-01
        2   -1    0    0  501    0  0.00000000000E+00  0.00000000000E+00  0.21237754746E+04  0.21237754746E+04  0.25500000920E-02 0. -1.
       -2   -1    0    0    0  501  0.00000000000E+00  0.00000000000E+00 -0.96829945926E+03  0.96829945927E+03  0.25500000920E-02 0.  1.
    10030    2    1    2    0    0  0.00000000000E+00  0.00000000000E+00  0.11554760153E+04  0.30920749338E+04  0.28680659990E+04 0.  0.
        3    1    3    3  502    0 -0.11032181067E+04 -0.91459181496E+03  0.51985820604E+03  0.15244083913E+04  0.10100000352E+00 0. -1.
       -3    1    3    3    0  502  0.11032181067E+04  0.91459181496E+03  0.63561780925E+03  0.15676665425E+04  0.10100000352E+00 0.  1.
</event>
<event>
 5   0  0.3638028E-07  0.2902405E+04  0.7818609E-02  0.8272162E-01
       -1   -1    0    0    0  501  0.00000000000E+00  0.00000000000E+00  0.13317909358E+04  0.13317909358E+04  0.50400001928E-02 0.  1.
        1   -1    0    0  501    0  0.00000000000E+00  0.00000000000E+00 -0.15813210107E+04  0.15813210107E+04  0.50400001928E-02 0. -1.
    10030    2    1    2    0    0  0.00000000000E+00  0.00000000000E+00 -0.24953007489E+03  0.29131119465E+04  0.29024052017E+04 0.  0.
        4    1    3    3  502    0  0.11435423573E+04  0.88727491092E+03 -0.19298938524E+02  0.14475220041E+04  0.12699999809E+01 0.  1.
       -4    1    3    3    0  502 -0.11435423573E+04 -0.88727491092E+03 -0.23023113637E+03  0.14655899425E+04  0.12699999809E+01 0. -1.
</event>
<event>
 5   0  0.9994311E-07  0.2900940E+04  0.7818609E-02  0.8272598E-01
       -2   -1    0    0    0  501  0.00000000000E+00  0.00000000000E+00  0.64621123463E+03  0.64621123464E+03  0.25500000920E-02 0.  1.
        2   -1    0    0  501    0  0.00000000000E+00  0.00000000000E+00 -0.32556888245E+04  0.32556888245E+04  0.25500000920E-02 0. -1.
    10030    2    1    2    0    0  0.00000000000E+00  0.00000000000E+00 -0.26094775899E+04  0.39019000592E+04  0.29009396374E+04 0.  0.
        2    1    3    3  502    0  0.16373184944E+03  0.13161969482E+04 -0.51506886887E+03  0.14228416864E+04  0.25500000920E-02 0.  1.
       -2    1    3    3    0  502 -0.16373184944E+03 -0.13161969482E+04 -0.20944087210E+04  0.24790583728E+04  0.25500000920E-02 0. -1.
</event>
<event>
 5   0  0.3638028E-07  0.2907811E+04  0.7818609E-02  0.8270557E-01
       -1   -1    0    0    0  501  0.00000000000E+00  0.00000000000E+00  0.85718202768E+03  0.85718202770E+03  0.50400001928E-02 0. -1.
        1   -1    0    0  501    0  0.00000000000E+00  0.00000000000E+00 -0.24660354366E+04  0.24660354366E+04  0.50400001928E-02 0.  1.
    10030    2    1    2    0    0  0.00000000000E+00  0.00000000000E+00 -0.16088534089E+04  0.33232174643E+04  0.29078110364E+04 0.  0.
        4    1    3    3  502    0  0.75554385055E+03 -0.47633752415E+02 -0.22230106063E+04  0.23483809855E+04  0.12699999809E+01 0.  1.
       -4    1    3    3    0  502 -0.75554385055E+03  0.47633752415E+02  0.61415719736E+03  0.97483647882E+03  0.12699999809E+01 0. -1.
</event>
<event>
 5   0  0.3638028E-07  0.2892465E+04  0.7818609E-02  0.8275123E-01
        1   -1    0    0  501    0  0.00000000000E+00  0.00000000000E+00  0.12691555844E+04  0.12691555844E+04  0.50400001928E-02 0.  1.
       -1   -1    0    0    0  501  0.00000000000E+00  0.00000000000E+00 -0.16480154684E+04  0.16480154684E+04  0.50400001928E-02 0. -1.
    10030    2    1    2    0    0  0.00000000000E+00  0.00000000000E+00 -0.37885988392E+03  0.29171710528E+04  0.28924647171E+04 0.  0.
        4    1    3    3  502    0 -0.66151144857E+03 -0.12798852767E+04 -0.62326870975E+02  0.14420783508E+04  0.12699999809E+01 0. -1.
       -4    1    3    3    0  502  0.66151144857E+03  0.12798852767E+04 -0.31653301295E+03  0.14750927020E+04  0.12699999809E+01 0.  1.
</event>
<event>
 5   0  0.3885904E-07  0.2901642E+04  0.7818609E-02  0.8272389E-01
        1   -1    0    0  501    0  0.00000000000E+00  0.00000000000E+00  0.18917630173E+04  0.18917630173E+04  0.50400001928E-02 0. -1.
       -1   -1    0    0    0  501  0.00000000000E+00  0.00000000000E+00 -0.11126558138E+04  0.11126558138E+04  0.50400001928E-02 0.  1.
    10030    2    1    2    0    0  0.00000000000E+00  0.00000000000E+00  0.77910720357E+03  0.30044188311E+04  0.29016416867E+04 0.  0.
        2    1    3    3  502    0 -0.10149908445E+03 -0.15351923229E+03 -0.11005205662E+04  0.11158027315E+04  0.25500000920E-02 0.  1.
       -2    1    3    3    0  502  0.10149908445E+03  0.15351923229E+03  0.18796277698E+04  0.18886160996E+04  0.25500000920E-02 0. -1.
</event>
<event>
 5   0  0.9994311E-07  0.2900920E+04  0.7818609E-02  0.8272604E-01
        2   -1    0    0  501    0  0.00000000000E+00  0.00000000000E+00  0.13367700155E+04  0.13367700155E+04  0.25500000920E-02 0. -1.
       -2   -1    0    0    0  501  0.00000000000E+00  0.00000000000E+00 -0.15738191541E+04  0.15738191541E+04  0.25500000920E-02 0.  1.
    10030    2    1    2    0    0  0.00000000000E+00  0.00000000000E+00 -0.23704913857E+03  0.29105891696E+04  0.29009200299E+04 0.  0.
        2    1    3    3  502    0 -0.42249337723E+03  0.54560643359E+03 -0.13985697320E+04  0.15595461935E+04  0.25500000920E-02 0.  1.
       -2    1    3    3    0  502  0.42249337723E+03 -0.54560643359E+03  0.11615205935E+04  0.13510429761E+04  0.25500000920E-02 0. -1.
</event>
<event>
 5   0  0.1063979E-06  0.2899891E+04  0.7818609E-02  0.8272910E-01
       -2   -1    0    0    0  501  0.00000000000E+00  0.00000000000E+00  0.14257708105E+04  0.14257708105E+04  0.25500000920E-02 0.  1.
        2   -1    0    0  501    0  0.00000000000E+00  0.00000000000E+00 -0.14745298526E+04  0.14745298526E+04  0.25500000920E-02 0. -1.
    10030    2    1    2    0    0  0.00000000000E+00  0.00000000000E+00 -0.48759042143E+02  0.29003006631E+04  0.28998907725E+04 0.  0.
        1    1    3    3  502    0  0.78326910089E+03  0.67119881928E+02  0.11941218944E+04  0.14296652272E+04  0.50400001928E-02 0.  1.
       -1    1    3    3    0  502 -0.78326910089E+03 -0.67119881928E+02 -0.12428809366E+04  0.14706354360E+04  0.50400001928E-02 0. -1.
</event>
<event>
 5   0  0.1031339E-06  0.2901246E+04  0.7818609E-02  0.8272507E-01
        2   -1    0    0  501    0  0.00000000000E+00  0.00000000000E+00  0.10682449957E+04  0.10682449957E+04  0.25500000920E-02 0. -1.
       -2   -1    0    0    0  501  0.00000000000E+00  0.00000000000E+00 -0.19698735528E+04  0.19698735528E+04  0.25500000920E-02 0.  1.
    10030    2    1    2    0    0  0.00000000000E+00  0.00000000000E+00 -0.90162855706E+03  0.30381185485E+04  0.29012463287E+04 0.  0.
        5    1    3    3  502    0  0.10467672742E+04  0.74514500193E+02 -0.14995668372E+04  0.18302996821E+04  0.46999998093E+01 0.  1.
       -5    1    3    3    0  502 -0.10467672742E+04 -0.74514500193E+02  0.59793828012E+03  0.12078188664E+04  0.46999998093E+01 0. -1.
</event>
<event>
 5   0  0.1063979E-06  0.2905485E+04  0.7818609E-02  0.8271247E-01
       -2   -1    0    0    0  501  0.00000000000E+00  0.00000000000E+00  0.13542117043E+04  0.13542117043E+04  0.25500000920E-02 0. -1.
        2   -1    0    0  501    0  0.00000000000E+00  0.00000000000E+00 -0.15584428039E+04  0.15584428039E+04  0.25500000920E-02 0.  1.
    10030    2    1    2    0    0  0.00000000000E+00  0.00000000000E+00 -0.20423109966E+03  0.29126545082E+04  0.29054854916E+04 0.  0.
        1    1    3    3  502    0  0.10811990549E+04 -0.74733879508E+02  0.86768291016E+03  0.13883263960E+04  0.50400001928E-02 0. -1.
       -1    1    3    3    0  502 -0.10811990549E+04  0.74733879508E+02 -0.10719140098E+04  0.15243281122E+04  0.50400001928E-02 0.  1.
</event>
<event>
 5   0  0.3770467E-07  0.2912200E+04  0.7818609E-02  0.8269257E-01
        1   -1    0    0  501    0  0.00000000000E+00  0.00000000000E+00  0.15287390560E+04  0.15287390560E+04  0.50400001928E-02 0.  1.
       -1   -1    0    0    0  501  0.00000000000E+00  0.00000000000E+00 -0.13869126449E+04  0.13869126449E+04  0.50400001928E-02 0. -1.
    10030    2    1    2    0    0  0.00000000000E+00  0.00000000000E+00  0.14182641112E+03  0.29156517009E+04  0.29122002180E+04 0.  0.
        1    1    3    3  502    0  0.36453607746E+03 -0.10069111859E+04  0.10587288179E+04  0.15058762891E+04  0.50400001928E-02 0.  1.
       -1    1    3    3    0  502 -0.36453607746E+03  0.10069111859E+04 -0.91690240679E+03  0.14097754118E+04  0.50400001928E-02 0. -1.
</event>
<event>
 5   0  0.1031339E-06  0.2903983E+04  0.7818609E-02  0.8271693E-01
       -2   -1    0    0    0  501  0.00000000000E+00  0.00000000000E+00  0.11683622594E+04  0.11683622594E+04  0.25500000920E-02 0. -1.
        2   -1    0    0  501    0  0.00000000000E+00  0.00000000000E+00 -0.18044736708E+04  0.18044736708E+04  0.25500000920E-02 0.  1.
    10030    2    1    2    0    0  0.00000000000E+00  0.00000000000E+00 -0.63611141145E+03  0.29728359302E+04  0.29039827376E+04 0.  0.
        5    1    3    3  502    0  0.12196646856E+04  0.78421282029E+03 -0.39524338103E+03  0.15029341679E+04  0.46999998093E+01 0.  1.
       -5    1    3    3    0  502 -0.12196646856E+04 -0.78421282029E+03 -0.24086803043E+03  0.14699017623E+04  0.46999998093E+01 0. -1.
</event>
<event>
 5   0  0.1006893E-06  0.2902881E+04  0.7818609E-02  0.8272021E-01
       -2   -1    0    0    0  501  0.00000000000E+00  0.00000000000E+00  0.10596381711E+04  0.10596381712E+04  0.25500000920E-02 0. -1.
        2   -1    0    0  501    0  0.00000000000E+00  0.00000000000E+00 -0.19881127911E+04  0.19881127911E+04  0.25500000920E-02 0.  1.
    10030    2    1    2    0    0  0.00000000000E+00  0.00000000000E+00 -0.92847461992E+03  0.30477509622E+04  0.29028814664E+04 0.  0.
        4    1    3    3  502    0 -0.26568897717E+03  0.97008211762E+03 -0.15628963001E+04  0.18585737556E+04  0.12699999809E+01 0.  1.
       -4    1    3    3    0  502  0.26568897717E+03 -0.97008211762E+03  0.63442168014E+03  0.11891772066E+04  0.12699999809E+01 0. -1.
</event>
<event>
 5   0  0.1006893E-06  0.2898938E+04  0.7818609E-02  0.8273193E-01
        2   -1    0    0  501    0  0.00000000000E+00  0.00000000000E+00  0.10822529002E+04  0.10822529002E+04  0.25500000920E-02 0.  1.
       -2   -1    0    0    0  501  0.00000000000E+00  0.00000000000E+00 -0.19412845218E+04  0.19412845218E+04  0.25500000920E-02 0. -1.
    10030    2    1    2    0    0  0.00000000000E+00  0.00000000000E+00 -0.85903162163E+03  0.30235374221E+04  0.28989382911E+04 0.  0.
        4    1    3    3  502    0  0.62661994494E+03 -0.12564037652E+04 -0.80521517561E+03  0.16185104475E+04  0.12699999809E+01 0.  1.
       -4    1    3    3    0  502 -0.62661994494E+03  0.12564037652E+04 -0.53816446021E+02  0.14050269746E+04  0.12699999809E+01 0. -1.
</event>
<event>
 5   0  0.3885904E-07  0.2900799E+04  0.7818609E-02  0.8272640E-01
        1   -1    0    0  501    0  0.00000000000E+00  0.00000000000E+00  0.20590701125E+04  0.20590701125E+04  0.50400001928E-02 0. -1.
       -1   -1    0    0    0  501  0.00000000000E+00  0.00000000000E+00 -0.10216549708E+04  0.10216549708E+04  0.50400001928E-02 0.  1.
    10030    2    1    2    0    0  0.00000000000E+00  0.00000000000E+00  0.10374151417E+04  0.30807250833E+04  0.29007993489E+04 0.  0.
        2    1    3    3  502    0 -0.11499038054E+04  0.47055442160E+03  0.13134261501E+04  0.18079791141E+04  0.25500000920E-02 0. -1.
       -2    1    3    3    0  502  0.11499038054E+04 -0.47055442160E+03 -0.27601100841E+03  0.12727459692E+04  0.25500000920E-02 0.  1.
</event>
<event>
 5   0  0.3769563E-07  0.2898788E+04  0.7818609E-02  0.8273238E-01
       -1   -1    0    0    0  501  0.00000000000E+00  0.00000000000E+00  0.81206451057E+03  0.81206451058E+03  0.50400001928E-02 0.  1.
        1   -1    0    0  501    0  0.00000000000E+00  0.00000000000E+00 -0.25869162627E+04  0.25869162627E+04  0.50400001928E-02 0. -1.
    10030    2    1    2    0    0  0.00000000000E+00  0.00000000000E+00 -0.17748517521E+04  0.33989807733E+04  0.28987879459E+04 0.  0.
        3    1    3    3  502    0  0.38198249524E+03 -0.38570631728E+03 -0.24632171660E+04  0.25223240884E+04  0.10100000352E+00 0. -1.
       -3    1    3    3    0  502 -0.38198249524E+03  0.38570631728E+03  0.68836541390E+03  0.87665668486E+03  0.10100000352E+00 0.  1.
</event>
<event>
 5   0  0.3786210E-07  0.2906420E+04  0.7818609E-02  0.8270970E-01
        1   -1    0    0  501    0  0.00000000000E+00  0.00000000000E+00  0.14471874650E+04  0.14471874650E+04  0.50400001928E-02 0.  1.
       -1   -1    0    0    0  501  0.00000000000E+00  0.00000000000E+00 -0.14592575217E+04  0.14592575217E+04  0.50400001928E-02 0. -1.
    10030    2    1    2    0    0  0.00000000000E+00  0.00000000000E+00 -0.12070056785E+02  0.29064449867E+04  0.29064199240E+04 0.  0.
        5    1    3    3  502    0 -0.69328124921E+03 -0.71536577559E+03 -0.10640659004E+04  0.14576163466E+04  0.46999998093E+01 0. -1.
       -5    1    3    3    0  502  0.69328124921E+03  0.71536577559E+03  0.10519958436E+04  0.14488286401E+04  0.46999998093E+01 0.  1.
</event>
<event>
 5   0  0.1006893E-06  0.2896741E+04  0.7818609E-02  0.8273848E-01
        2   -1    0    0  501    0  0.00000000000E+00  0.00000000000E+00  0.17894410559E+04  0.17894410559E+04  0.25500000920E-02 0.  1.
       -2   -1    0    0    0  501  0.00000000000E+00  0.00000000000E+00 -0.11723085415E+04  0.11723085415E+04  0.25500000920E-02 0. -1.
    10030    2    1    2    0    0  0.00000000000E+00  0.00000000000E+00  0.61713251445E+03  0.29617495974E+04  0.28967409510E+04 0.  0.
        4    1    3    3  502    0  0.48658040449E+03 -0.31347343854E+03 -0.10489153652E+04  0.11980196756E+04  0.12699999809E+01 0. -1.
       -4    1    3    3    0  502 -0.48658040449E+03  0.31347343854E+03  0.16660478797E+04  0.17637299218E+04  0.12699999809E+01 0.  1.
</event>
<event>
 5   0  0.1031339E-06  0.2896823E+04  0.7818609E-02  0.8273823E-01
        2   -1    0    0  501    0  0.00000000000E+00  0.00000000000E+00  0.14901905266E+04  0.14901905266E+04  0.25500000920E-02 0.  1.
       -2   -1    0    0    0  501  0.00000000000E+00  0.00000000000E+00 -0.14078041160E+04  0.14078041160E+04  0.25500000920E-02 0. -1.
    10030    2    1    2    0    0  0.00000000000E+00  0.00000000000E+00  0.82386410564E+02  0.28979946426E+04  0.28968233340E+04 0.  0.
        5    1    3    3  502    0  0.93123127864E+03  0.82495713201E+03  0.78319945424E+03  0.14700916431E+04  0.46999998093E+01 0.  1.
       -5    1    3    3    0  502 -0.93123127864E+03 -0.82495713201E+03 -0.70081304367E+03  0.14279029996E+04  0.46999998093E+01 0. -1.
</event>
<event>
 5   0  0.1063979E-06  0.2913270E+04  0.7818609E-02  0.8268940E-01
       -2   -1    0    0    0  501  0.00000000000E+00  0.00000000000E+00  0.32419427066E+04  0.32419427066E+04  0.25500000920E-02 0.  1.
        2   -1    0    0  501    0  0.00000000000E+00  0.00000000000E+00 -0.65447982130E+03  0.65447982130E+03  0.25500000920E-02 0. -1.
    10030    2    1    2    0    0  0.00000000000E+00  0.00000000000E+00  0.25874628853E+04  0.38964225279E+04  0.29132703845E+04 0.  0.
        1    1    3    3  502    0  0.10404865888E+03  0.92421165322E+03  0.27931300054E+04  0.29439036211E+04  0.50400001928E-02 0.  1.
       -1    1    3    3    0  502 -0.10404865888E+03 -0.92421165322E+03 -0.20566712014E+03  0.95251890674E+03  0.50400001928E-02 0. -1.
</event>
<event>
 5   0  0.1063979E-06  0.2898210E+04  0.7818609E-02  0.8273410E-01
       -2   -1    0    0    0  501  0.00000000000E+00  0.00000000000E+00  0.15432373405E+04  0.15432373405E+04  0.25500000920E-02 0. -1.
        2   -1    0    0  501    0  0.00000000000E+00  0.00000000000E+00 -0.13607146584E+04  0.13607146584E+04  0.25500000920E-02 0.  1.
    10030    2    1    2    0    0  0.00000000000E+00  0.00000000000E+00  0.18252268205E+03  0.29039519989E+04  0.28982102550E+04 0.  0.
        1    1    3    3  502    0 -0.10482363074E+04  0.65606898962E+03  0.84819147107E+03  0.14995514819E+04  0.50400001928E-02 0. -1.
       -1    1    3    3    0  502  0.10482363074E+04 -0.65606898962E+03 -0.66566878902E+03  0.14044005169E+04  0.50400001928E-02 0.  1.
</event>
<event>
 5   0  0.3786210E-07  0.2894520E+04  0.7818609E-02  0.8274510E-01
        1   -1    0    0  501    0  0.00000000000E+00  0.00000000000E+00  0.21221736735E+04  0.21221736735E+04  0.50400001928E-02 0.  1.
       -1   -1    0    0    0  501  0.00000000000E+00  0.00000000000E+00 -0.98698886694E+03  0.98698886695E+03  0.50400001928E-02 0. -1.
    10030    2    1    2    0    0  0.00000000000E+00  0.00000000000E+00  0.11351848066E+04  0.31091625405E+04  0.28945201948E+04 0.  0.
        5    1    3    3  502    0  0.12983939924E+04 -0.63739611605E+03  0.62064011162E+03  0.15739494930E+04  0.46999998093E+01 0.  1.
       -5    1    3    3    0  502 -0.12983939924E+04  0.63739611605E+03  0.51454469499E+03  0.15352130475E+04  0.46999998093E+01 0. -1.
</event>
<event>
 5   0  0.3378750E-07  0.2902908E+04  0.7818609E-02  0.8272013E-01
        3   -1    0    0  501    0  0.00000000000E+00  0.00000000000E+00  0.20545151723E+04  0.20545151748E+04  0.10100000352E+00 0. -1.
       -3   -1    0    0    0  501  0.00000000000E+00  0.00000000000E+00 -0.10254088666E+04  0.10254088716E+04  0.10100000352E+00 0.  1.
    10030    2    1    2    0    0  0.00000000000E+00  0.00000000000E+00  0.10291063057E+04  0.30799240464E+04  0.29029075671E+04 0.  0.
        2    1    3    3  502    0 -0.13959462762E+04  0.17299293718E+03  0.89432662531E+03  0.16668571250E+04  0.25500000920E-02 0. -1.
       -2    1    3    3    0  502  0.13959462762E+04 -0.17299293718E+03  0.13477968037E+03  0.14130669215E+04  0.25500000920E-02 0.  1.
</event>
<event>
 5   0  0.1006893E-06  0.2896421E+04  0.7818609E-02  0.8273943E-01
        2   -1    0    0  501    0  0.00000000000E+00  0.00000000000E+00  0.26450434294E+04  0.26450434294E+04  0.25500000920E-02 0. -1.
       -2   -1    0    0    0  501  0.00000000000E+00  0.00000000000E+00 -0.79292199327E+03  0.79292199328E+03  0.25500000920E-02 0.  1.
    10030    2    1    2    0    0  0.00000000000E+00  0.00000000000E+00  0.18521214362E+04  0.34379654227E+04  0.28964206244E+04 0.  0.
        4    1    3    3  502    0 -0.80375194481E+03 -0.11363060193E+04  0.45111987053E+03  0.14631197178E+04  0.12699999809E+01 0.  1.
       -4    1    3    3    0  502  0.80375194481E+03  0.11363060193E+04  0.14010015656E+04  0.19748457049E+04  0.12699999809E+01 0. -1.
</event>
<event>
 5   0  0.3638028E-07  0.2900325E+04  0.7818609E-02  0.8272781E-01
        1   -1    0    0  501    0  0.00000000000E+00  0.00000000000E+00  0.14147241273E+04  0.14147241273E+04  0.50400001928E-02 0.  1.
       -1   -1    0    0    0  501  0.00000000000E+00  0.00000000000E+00 -0.14864889609E+04  0.14864889609E+04  0.50400001928E-02 0. -1.
    10030    2    1    2    0    0  0.00000000000E+00  0.00000000000E+00 -0.71764833611E+02  0.29012130883E+04  0.29003253597E+04 0.  0.
        4    1    3    3  502    0  0.11250710426E+04  0.64389693909E+03  0.61437967851E+03  0.14345215653E+04  0.12699999809E+01 0. -1.
       -4    1    3    3    0  502 -0.11250710426E+04 -0.64389693909E+03 -0.68614451212E+03  0.14666915230E+04  0.12699999809E+01 0.  1.
</event>
<event>
 5   0  0.1006893E-06  0.2900508E+04  0.7818609E-02  0.8272726E-01
       -2   -1    0    0    0  501  0.00000000000E+00  0.00000000000E+00  0.10729737006E+04  0.10729737006E+04  0.25500000920E-02 0.  1.
        2   -1    0    0  501    0  0.00000000000E+00  0.00000000000E+00 -0.19601940283E+04  0.19601940283E+04  0.25500000920E-02 0. -1.
    10030    2    1    2    0    0  0.00000000000E+00  0.00000000000E+00 -0.88722032771E+03  0.30331677289E+04  0.29005079834E+04 0.  0.
        4    1    3    3  502    0 -0.12964083868E+04 -0.64907513085E+03 -0.40646373730E+03  0.15057183049E+04  0.12699999809E+01 0. -1.
       -4    1    3    3    0  502  0.12964083868E+04  0.64907513085E+03 -0.48075659041E+03  0.15274494241E+04  0.12699999809E+01 0.  1.
</event>
<event>
 5   0  0.3769563E-07  0.2831585E+04  0.7818609E-02  0.8293529E-01
        1   -1    0    0  501    0  0.00000000000E+00  0.00000000000E+00  0.99270304874E+03  0.99270304875E+03  0.50400001928E-02 0. -1.
       -1   -1    0    0    0  501  0.00000000000E+00  0.00000000000E+00 -0.20192020746E+04  0.20192020746E+04  0.50400001928E-02 0.  1.
    10030    2    1    2    0    0  0.00000000000E+00  0.00000000000E+00 -0.10264990258E+04  0.30119051233E+04  0.28315847545E+04 0.  0.
        3    1    3    3  502    0 -0.98446144485E+03 -0.10145219417E+04 -0.59597728173E+03  0.15341473323E+04  0.10100000352E+00 0. -1.
       -3    1    3    3    0  502  0.98446144485E+03  0.10145219417E+04 -0.43052174412E+03  0.14777577910E+04  0.10100000352E+00 0.  1.
</event>
<event>
 5   0  0.3638028E-07  0.2900206E+04  0.7818609E-02  0.8272816E-01
       -1   -1    0    0    0  501  0.00000000000E+00  0.00000000000E+00  0.17355317164E+04  0.17355317164E+04  0.50400001928E-02 0.  1.
        1   -1    0    0  501    0  0.00000000000E+00  0.00000000000E+00 -0.12116161401E+04  0.12116161401E+04  0.50400001928E-02 0. -1.
    10030    2    1    2    0    0  0.00000000000E+00  0.00000000000E+00  0.52391557632E+03  0.29471478565E+04  0.29002056750E+04 0.  0.
        4    1    3    3  502    0 -0.48646916817E+03  0.43903345084E+03 -0.10525774450E+04  0.12398885084E+04  0.12699999809E+01 0. -1.
       -4    1    3    3    0  502  0.48646916817E+03 -0.43903345084E+03  0.15764930214E+04  0.17072593481E+04  0.12699999809E+01 0.  1.
</event>
<event>
 5   0  0.3885904E-07  0.2901036E+04  0.7818609E-02  0.8272569E-01
        1   -1    0    0  501    0  0.00000000000E+00  0.00000000000E+00  0.15839487996E+04  0.15839487996E+04  0.50400001928E-02 0.  1.
       -1   -1    0    0    0  501  0.00000000000E+00  0.00000000000E+00 -0.13283270020E+04  0.13283270020E+04  0.50400001928E-02 0. -1.
    10030    2    1    2    0    0  0.00000000000E+00  0.00000000000E+00  0.25562179762E+03  0.29122758016E+04  0.29010356498E+04 0.  0.
        2    1    3    3  502    0 -0.91159066989E+03 -0.13096268329E+03  0.12528014423E+04  0.15548827054E+04  0.25500000920E-02 0.  1.
       -2    1    3    3    0  502  0.91159066989E+03  0.13096268329E+03 -0.99717964468E+03  0.13573930962E+04  0.25500000920E-02 0. -1.
</event>
<event>
 5   0  0.1063979E-06  0.2901846E+04  0.7818609E-02  0.8272329E-01
       -2   -1    0    0    0  501  0.00000000000E+00  0.00000000000E+00  0.10235247997E+04  0.10235247997E+04  0.25500000920E-02 0.  1.
        2   -1    0    0  501    0  0.00000000000E+00  0.00000000000E+00 -0.20567912514E+04  0.20567912514E+04  0.25500000920E-02 0. -1.
    10030    2    1    2    0    0  0.00000000000E+00  0.00000000000E+00 -0.10332664517E+04  0.30803160511E+04  0.29018455187E+04 0.  0.
        1    1    3    3  502    0  0.13385457873E+04  0.41135961765E+03 -0.91980198303E+03  0.16753976387E+04  0.50400001928E-02 0. -1.
       -1    1    3    3    0  502 -0.13385457873E+04 -0.41135961765E+03 -0.11346446872E+03  0.14049184124E+04  0.50400001928E-02 0.  1.
</event>
<event>
 5   0  0.3770467E-07  0.2896229E+04  0.7818609E-02  0.8274000E-01
        1   -1    0    0  501    0  0.00000000000E+00  0.00000000000E+00  0.12825917902E+04  0.12825917902E+04  0.50400001928E-02 0. -1.
       -1   -1    0    0    0  501  0.00000000000E+00  0.00000000000E+00 -0.16349986974E+04  0.16349986974E+04  0.50400001928E-02 0.  1.
    10030    2    1    2    0    0  0.00000000000E+00  0.00000000000E+00 -0.35240690722E+03  0.29175904876E+04  0.28962292079E+04 0.  0.
        1    1    3    3  502    0  0.53488990044E+03  0.13436042129E+04 -0.10043957085E+03  0.14496439541E+04  0.50400001928E-02 0.  1.
       -1    1    3    3    0  502 -0.53488990044E+03 -0.13436042129E+04 -0.25196733637E+03  0.14679465334E+04  0.50400001928E-02 0. -1.
</event>
<event>
 5   0  0.1063979E-06  0.2902078E+04  0.7818609E-02  0.8272259E-01
        2   -1    0    0  501    0  0.00000000000E+00  0.00000000000E+00  0.22254539870E+04  0.22254539870E+04  0.25500000920E-02 0. -1.
       -2   -1    0    0    0  501  0.00000000000E+00  0.00000000000E+00 -0.94610555109E+03  0.94610555110E+03  0.25500000920E-02 0.  1.
    10030    2    1    2    0    0  0.00000000000E+00  0.00000000000E+00  0.12793484360E+04  0.31715595381E+04  0.29020781319E+04 0.  0.
        1    1    3    3  502    0 -0.81804847110E+03 -0.56302812308E+03 -0.51654194965E+03  0.11193835599E+04  0.50400001928E-02 0.  1.
       -1    1    3    3    0  502  0.81804847110E+03  0.56302812308E+03  0.17958903856E+04  0.20521759782E+04  0.50400001928E-02 0. -1.
</event>
<event>
 5   0  0.9994311E-07  0.2901088E+04  0.7818609E-02  0.8272554E-01
        2   -1    0    0  501    0  0.00000000000E+00  0.00000000000E+00  0.15198992505E+04  0.15198992505E+04  0.25500000920E-02 0.  1.
       -2   -1    0    0    0  501  0.00000000000E+00  0.00000000000E+00 -0.13843530735E+04  0.13843530735E+04  0.25500000920E-02 0. -1.
    10030    2    1    2    0    0  0.00000000000E+00  0.00000000000E+00  0.13554617694E+03  0.29042523240E+04  0.29010875194E+04 0.  0.
        2    1    3    3  502    0  0.22684306741E+03  0.13360015277E+04  0.58575356073E+03  0.14763011526E+04  0.25500000920E-02 0. -1.
       -2    1    3    3    0  502 -0.22684306741E+03 -0.13360015277E+04 -0.45020738379E+03  0.14279511714E+04  0.25500000920E-02 0.  1.
</event>
<event>
 5   0  0.1006893E-06  0.2903279E+04  0.7818609E-02  0.8271903E-01
        2   -1    0    0  501    0  0.00000000000E+00  0.00000000000E+00  0.25321471778E+04  0.25321471778E+04  0.25500000920E-02 0. -1.
       -2   -1    0    0    0  501  0.00000000000E+00  0.00000000000E+00 -0.83220144555E+03  0.83220144556E+03  0.25500000920E-02 0.  1.
    10030    2    1    2    0    0  0.00000000000E+00  0.00000000000E+00  0.16999457322E+04  0.33643486233E+04  0.29032785204E+04 0.  0.
        4    1    3    3  502    0  0.50675275782E+03 -0.34033817130E+02 -0.72588038855E+03  0.88592359131E+03  0.12699999809E+01 0.  1.
       -4    1    3    3    0  502 -0.50675275782E+03  0.34033817130E+02  0.24258261208E+04  0.24784250320E+04  0.12699999809E+01 0. -1.
</event>
<event>
 5   0  0.3638028E-07  0.2936558E+04  0.7818609E-02  0.8262083E-01
        1   -1    0    0  501    0  0.00000000000E+00  0.00000000000E+00  0.23646192825E+04  0.23646192825E+04  0.50400001928E-02 0. -1.
       -1   -1    0    0    0  501  0.00000000000E+00  0.00000000000E+00 -0.91170842363E+03  0.91170842364E+03  0.50400001928E-02 0.  1.
    10030    2    1    2    0    0  0.00000000000E+00  0.00000000000E+00  0.14529108589E+04  0.32763277061E+04  0.29365580659E+04 0.  0.
        4    1    3    3  502    0 -0.59640041537E+03  0.17624178735E+03  0.22104193679E+04  0.22962382320E+04  0.12699999809E+01 0. -1.
       -4    1    3    3    0  502  0.59640041537E+03 -0.17624178735E+03 -0.75750850908E+03  0.98008947413E+03  0.12699999809E+01 0.  1.
</event>
<event>
 5   0  0.3770467E-07  0.2902940E+04  0.7818609E-02  0.8272003E-01
        1   -1    0    0  501    0  0.00000000000E+00  0.00000000000E+00  0.11765412950E+04  0.11765412951E+04  0.50400001928E-02 0. -1.
       -1   -1    0    0    0  501  0.00000000000E+00  0.00000000000E+00 -0.17906425431E+04  0.17906425431E+04  0.50400001928E-02 0.  1.
    10030    2    1    2    0    0  0.00000000000E+00  0.00000000000E+00 -0.61410124801E+03  0.29671838381E+04  0.29029398179E+04 0.  0.
        1    1    3    3  502    0  0.11215600516E+04  0.91748787235E+03 -0.22102175646E+03  0.14657870112E+04  0.50400001928E-02 0. -1.
       -1    1    3    3    0  502 -0.11215600516E+04 -0.91748787235E+03 -0.39307949156E+03  0.15013968269E+04  0.50400001928E-02 0.  1.
</event>
<event>
 5   0  0.1006893E-06  0.2900082E+04  0.7818609E-02  0.8272853E-01
        2   -1    0    0  501    0  0.00000000000E+00  0.00000000000E+00  0.13031842989E+04  0.13031842989E+04  0.25500000920E-02 0. -1.
       -2   -1    0    0    0  501  0.00000000000E+00  0.00000000000E+00 -0.16134469019E+04  0.16134469019E+04  0.25500000920E-02 0.  1.
    10030    2    1    2    0    0  0.00000000000E+00  0.00000000000E+00 -0.31026260303E+03  0.29166312007E+04  0.29000818399E+04 0.  0.
        4    1    3    3  502    0  0.39129034954E+03 -0.12374340243E+04  0.49529414165E+03  0.13891252650E+04  0.12699999809E+01 0. -1.
       -4    1    3    3    0  502 -0.39129034954E+03  0.12374340243E+04 -0.80555674468E+03  0.15275059358E+04  0.12699999809E+01 0.  1.
</event>
<event>
 5   0  0.1031339E-06  0.2870409E+04  0.7818609E-02  0.8281736E-01
        2   -1    0    0  501    0  0.00000000000E+00  0.00000000000E+00  0.16927865185E+04  0.16927865185E+04  0.25500000920E-02 0.  1.
       -2   -1    0    0    0  501  0.00000000000E+00  0.00000000000E+00 -0.12168172555E+04  0.12168172555E+04  0.25500000920E-02 0. -1.
    10030    2    1    2    0    0  0.00000000000E+00  0.00000000000E+00  0.47596926301E+03  0.29096037739E+04  0.28704089224E+04 0.  0.
        5    1    3    3  502    0  0.25449639957E+03  0.60898122785E+03  0.15298132855E+04  0.16661264453E+04  0.46999998093E+01 0.  1.
       -5    1    3    3    0  502 -0.25449639957E+03 -0.60898122785E+03 -0.10538440225E+04  0.12434773287E+04  0.46999998093E+01 0. -1.
</event>
<event>
 5   0  0.3885904E-07  0.2905804E+04  0.7818609E-02  0.8271153E-01
       -1   -1    0    0    0  501  0.00000000000E+00  0.00000000000E+00  0.10949763141E+04  0.10949763141E+04  0.50400001928E-02 0.  1.
        1   -1    0    0  501    0  0.00000000000E+00  0.00000000000E+00 -0.19278265488E+04  0.19278265488E+04  0.50400001928E-02 0. -1.
    10030    2    1    2    0    0  0.00000000000E+00  0.00000000000E+00 -0.83285023469E+03  0.30228028629E+04  0.29058041287E+04 0.  0.
        2    1    3    3  502    0  0.15897127728E+02 -0.14464354940E+04 -0.55790119259E+03  0.15503812749E+04  0.25500000920E-02 0. -1.
       -2    1    3    3    0  502 -0.15897127728E+02  0.14464354940E+04 -0.27494904211E+03  0.14724215880E+04  0.25500000920E-02 0.  1.
</event>
<event>
 5   0  0.3769563E-07  0.2899246E+04  0.7818609E-02  0.8273102E-01
       -1   -1    0    0    0  501  0.00000000000E+00  0.00000000000E+00  0.16442810943E+04  0.16442810943E+04  0.50400001928E-02 0. -1.
        1   -1    0    0  501    0  0.00000000000E+00  0.00000000000E+00 -0.12780099224E+04  0.12780099224E+04  0.50400001928E-02 0.  1.
    10030    2    1    2    0    0  0.00000000000E+00  0.00000000000E+00  0.36627117190E+03  0.29222910167E+04  0.28992464909E+04 0.  0.
        3    1    3    3  502    0 -0.58168638497E+03  0.96112985425E+03  0.11065384465E+04  0.15768820472E+04  0.10100000352E+00 0. -1.
       -3    1    3    3    0  502  0.58168638497E+03 -0.96112985425E+03 -0.74026727457E+03  0.13454089695E+04  0.10100000352E+00 0.  1.
</event>
<event>
 5   0  0.9994311E-07  0.2900601E+04  0.7818609E-02  0.8272699E-01
       -2   -1    0    0    0  501  0.00000000000E+00  0.00000000000E+00  0.12433807865E+04  0.12433807865E+04  0.25500000920E-02 0. -1.
        2   -1    0    0  501    0  0.00000000000E+00  0.00000000000E+00 -0.16916547648E+04  0.16916547648E+04  0.25500000920E-02 0.  1.
    10030    2    1    2    0    0  0.00000000000E+00  0.00000000000E+00 -0.44827397831E+03  0.29350355512E+04  0.29006006494E+04 0.  0.
        2    1    3    3  502    0  0.50951491892E+03  0.99459110573E+03 -0.11595323470E+04  0.16103826204E+04  0.25500000920E-02 0.  1.
       -2    1    3    3    0  502 -0.50951491892E+03 -0.99459110573E+03  0.71125836870E+03  0.13246529309E+04  0.25500000920E-02 0. -1.
</event>
<event>
 5   0  0.1006893E-06  0.2911902E+04  0.7818609E-02  0.8269345E-01
        2   -1    0    0  501    0  0.00000000000E+00  0.00000000000E+00  0.22707555645E+04  0.22707555645E+04  0.25500000920E-02 0. -1.
       -2   -1    0    0    0  501  0.00000000000E+00  0.00000000000E+00 -0.93351879687E+03  0.93351879687E+03  0.25500000920E-02 0.  1.
    10030    2    1    2    0    0  0.00000000000E+00  0.00000000000E+00  0.13372367677E+04  0.32042743614E+04  0.29119017858E+04 0.  0.
        4    1    3    3  502    0 -0.95310730193E+03  0.10786492332E+04  0.90943815116E+03  0.17026382649E+04  0.12699999809E+01 0. -1.
       -4    1    3    3    0  502  0.95310730193E+03 -0.10786492332E+04  0.42779861652E+03  0.15016360966E+04  0.12699999809E+01 0.  1.
</event>
<event>
 5   0  0.3770467E-07  0.2904469E+04  0.7818609E-02  0.8271549E-01
        1   -1    0    0  501    0  0.00000000000E+00  0.00000000000E+00  0.23086487078E+04  0.23086487078E+04  0.50400001928E-02 0. -1.
       -1   -1    0    0    0  501  0.00000000000E+00  0.00000000000E+00 -0.91351520331E+03  0.91351520332E+03  0.50400001928E-02 0.  1.
    10030    2    1    2    0    0  0.00000000000E+00  0.00000000000E+00  0.13951335045E+04  0.32221639112E+04  0.29044694481E+04 0.  0.
        1    1    3    3  502    0 -0.88670920262E+03 -0.35571809852E+03 -0.51577234635E+03  0.10857300258E+04  0.50400001928E-02 0.  1.
       -1    1    3    3    0  502  0.88670920262E+03  0.35571809852E+03  0.19109058509E+04  0.21364338854E+04  0.50400001928E-02 0. -1.
</event>
<event>
 5   0  0.3770467E-07  0.2906047E+04  0.7818609E-02  0.8271081E-01
       -1   -1    0    0    0  501  0.00000000000E+00  0.00000000000E+00  0.12089829967E+04  0.12089829967E+04  0.50400001928E-02 0. -1.
        1   -1    0    0  501    0  0.00000000000E+00  0.00000000000E+00 -0.17463251659E+04  0.17463251659E+04  0.50400001928E-02 0.  1.
    10030    2    1    2    0    0  0.00000000000E+00  0.00000000000E+00 -0.53734216922E+03  0.29553081626E+04  0.29060470968E+04 0.  0.
        1    1    3    3  502    0 -0.55519257547E+03 -0.11697443933E+04 -0.93919345629E+03  0.15995702829E+04  0.50400001928E-02 0.  1.
       -1    1    3    3    0  502  0.55519257547E+03  0.11697443933E+04  0.40185128707E+03  0.13557378797E+04  0.50400001928E-02 0. -1.
</event>
<event>
 5   0  0.9950999E-07  0.2899657E+04  0.7818609E-02  0.8272980E-01
        2   -1    0    0  501    0  0.00000000000E+00  0.00000000000E+00  0.17765834632E+04  0.17765834632E+04  0.25500000920E-02 0.  1.
       -2   -1    0    0    0  501  0.00000000000E+00  0.00000000000E+00 -0.11831710257E+04  0.11831710257E+04  0.25500000920E-02 0. -1.
    10030    2    1    2    0    0  0.00000000000E+00  0.00000000000E+00  0.59341243754E+03  0.29597544889E+04  0.28996565855E+04 0.  0.
        3    1    3    3  502    0  0.12477338281E+04  0.34353487355E+03  0.96381609683E+03  0.16136286419E+04  0.10100000352E+00 0.  1.
       -3    1    3    3    0  502 -0.12477338281E+04 -0.34353487355E+03 -0.37040365929E+03  0.13461258471E+04  0.10100000352E+00 0. -1.
</event>
<event>
 5   0  0.3638028E-07  0.2899457E+04  0.7818609E-02  0.8273039E-01
        1   -1    0    0  501    0  0.00000000000E+00  0.00000000000E+00  0.11396749241E+04  0.11396749241E+04  0.50400001928E-02 0. -1.
       -1   -1    0    0    0  501  0.00000000000E+00  0.00000000000E+00 -0.18441340178E+04  0.18441340178E+04  0.50400001928E-02 0.  1.
    10030    2    1    2    0    0  0.00000000000E+00  0.00000000000E+00 -0.70445909365E+03  0.29838089419E+04  0.28994573953E+04 0.  0.
        4    1    3    3  502    0 -0.10669488197E+04  0.80853447920E+03 -0.92483764797E+03  0.16270937514E+04  0.12699999809E+01 0.  1.
       -4    1    3    3    0  502  0.10669488197E+04 -0.80853447920E+03  0.22037855432E+03  0.13567151905E+04  0.12699999809E+01 0. -1.
</event>
<event>
 5   0  0.3770467E-07  0.2905330E+04  0.7818609E-02  0.8271293E-01
        1   -1    0    0  501    0  0.00000000000E+00  0.00000000000E+00  0.14354569423E+04  0.14354569423E+04  0.50400001928E-02 0.  1.
       -1   -1    0    0    0  501  0.00000000000E+00  0.00000000000E+00 -0.14700798291E+04  0.14700798291E+04  0.50400001928E-02 0. -1.
    10030    2    1    2    0    0  0.00000000000E+00  0.00000000000E+00 -0.34622886865E+02  0.29055367714E+04  0.29053304779E+04 0.  0.
        1    1    3    3  502    0  0.96416226353E+03 -0.10464157217E+04 -0.30997802129E+03  0.14562558521E+04  0.50400001928E-02 0. -1.
       -1    1    3    3    0  502 -0.96416226353E+03  0.10464157217E+04  0.27535513442E+03  0.14492809193E+04  0.50400001928E-02 0.  1.
</event>
<event>
 5   0  0.3770467E-07  0.2906263E+04  0.7818609E-02  0.8271017E-01
        1   -1    0    0  501    0  0.00000000000E+00  0.00000000000E+00  0.17547221374E+04  0.17547221374E+04  0.50400001928E-02 0.  1.
       -1   -1    0    0    0  501  0.00000000000E+00  0.00000000000E+00 -0.12033760092E+04  0.12033760093E+04  0.50400001928E-02 0. -1.
    10030    2    1    2    0    0  0.00000000000E+00  0.00000000000E+00  0.55134612816E+03  0.29580981467E+04  0.29062625642E+04 0.  0.
        1    1    3    3  502    0 -0.89031183567E+03 -0.11088990589E+04  0.57979694969E+03  0.15357333071E+04  0.50400001928E-02 0. -1.
       -1    1    3    3    0  502  0.89031183567E+03  0.11088990589E+04 -0.28450821526E+02  0.14223648396E+04  0.50400001928E-02 0.  1.
</event>
<event>
 5   0  0.3769563E-07  0.2883906E+04  0.7818609E-02  0.8277682E-01
        1   -1    0    0  501    0  0.00000000000E+00  0.00000000000E+00  0.19734004457E+04  0.19734004457E+04  0.50400001928E-02 0. -1.
       -1   -1    0    0    0  501  0.00000000000E+00  0.00000000000E+00 -0.10536275481E+04  0.10536275481E+04  0.50400001928E-02 0.  1.
    10030    2    1    2    0    0  0.00000000000E+00  0.00000000000E+00  0.91977289757E+03  0.30270279938E+04  0.28839064291E+04 0.  0.
        3    1    3    3  502    0 -0.12387283261E+04 -0.65010688137E+03  0.82671929187E+03  0.16249774216E+04  0.10100000352E+00 0. -1.
       -3    1    3    3    0  502  0.12387283261E+04  0.65010688137E+03  0.93053605701E+02  0.14020505721E+04  0.10100000352E+00 0.  1.
</event>
<event>
 5   0  0.1031339E-06  0.2898524E+04  0.7818609E-02  0.8273317E-01
       -2   -1    0    0    0  501  0.00000000000E+00  0.00000000000E+00  0.83026285451E+03  0.83026285452E+03  0.25500000920E-02 0.  1.
        2   -1    0    0  501    0  0.00000000000E+00  0.00000000000E+00 -0.25297529917E+04  0.25297529917E+04  0.25500000920E-02 0. -1.
    10030    2    1    2    0    0  0.00000000000E+00  0.00000000000E+00 -0.16994901372E+04  0.33600158462E+04  0.28985237209E+04 0.  0.
        5    1    3    3  502    0  0.53772274235E+03  0.35132876427E+03 -0.23557272646E+04  0.24417310834E+04  0.46999998093E+01 0. -1.
       -5    1    3    3    0  502 -0.53772274235E+03 -0.35132876427E+03  0.65623712743E+03  0.91828476284E+03  0.46999998093E+01 0.  1.
</event>
<event>
 5   0  0.3638028E-07  0.2904701E+04  0.7818609E-02  0.8271480E-01
        1   -1    0    0  501    0  0.00000000000E+00  0.00000000000E+00  0.93115994191E+03  0.93115994193E+03  0.50400001928E-02 0.  1.
       -1   -1    0    0    0  501  0.00000000000E+00  0.00000000000E+00 -0.22652632963E+04  0.22652632963E+04  0.50400001928E-02 0. -1.
    10030    2    1    2    0    0  0.00000000000E+00  0.00000000000E+00 -0.13341033544E+04  0.31964232382E+04  0.29047013199E+04 0.  0.
        4    1    3    3  502    0  0.95504300124E+03  0.86371165418E+03 -0.14062398011E+04  0.19067293848E+04  0.12699999809E+01 0. -1.
       -4    1    3    3    0  502 -0.95504300124E+03 -0.86371165418E+03  0.72136446682E+02  0.12896938534E+04  0.12699999809E+01 0.  1.
</event>
<event>
 5   0  0.3770467E-07  0.2905180E+04  0.7818609E-02  0.8271338E-01
        1   -1    0    0  501    0  0.00000000000E+00  0.00000000000E+00  0.74460031504E+03  0.74460031506E+03  0.50400001928E-02 0.  1.
       -1   -1    0    0    0  501  0.00000000000E+00  0.00000000000E+00 -0.28337595860E+04  0.28337595860E+04  0.50400001928E-02 0. -1.
    10030    2    1    2    0    0  0.00000000000E+00  0.00000000000E+00 -0.20891592710E+04  0.35783599011E+04  0.29051803941E+04 0.  0.
        1    1    3    3  502    0  0.68011589586E+03 -0.12577893208E+04 -0.13596360548E+04  0.19731198161E+04  0.50400001928E-02 0. -1.
       -1    1    3    3    0  502 -0.68011589586E+03  0.12577893208E+04 -0.72952321621E+03  0.16052400850E+04  0.50400001928E-02 0.  1.
</event>
<event>
 5   0  0.3770467E-07  0.2901622E+04  0.7818609E-02  0.8272395E-01
        1   -1    0    0  501    0  0.00000000000E+00  0.00000000000E+00  0.22859914868E+04  0.22859914868E+04  0.50400001928E-02 0.  1.
       -1   -1    0    0    0  501  0.00000000000E+00  0.00000000000E+00 -0.92076155905E+03  0.92076155906E+03  0.50400001928E-02 0. -1.
    10030    2    1    2    0    0  0.00000000000E+00  0.00000000000E+00  0.13652299277E+04  0.32067530458E+04  0.29016223637E+04 0.  0.
        1    1    3    3  502    0  0.11946810157E+04  0.82654001682E+02 -0.22250839740E+03  0.12180330046E+04  0.50400001928E-02 0. -1.
       -1    1    3    3    0  502 -0.11946810157E+04 -0.82654001682E+02  0.15877383251E+04  0.19887200412E+04  0.50400001928E-02 0.  1.
</event>
<event>
 5   0  0.1031339E-06  0.2900300E+04  0.7818609E-02  0.8272788E-01
        2   -1    0    0  501    0  0.00000000000E+00  0.00000000000E+00  0.19883787968E+04  0.19883787968E+04  0.25500000920E-02 0.  1.
       -2   -1    0    0    0  501  0.00000000000E+00  0.00000000000E+00 -0.10576132234E+04  0.10576132234E+04  0.25500000920E-02 0. -1.
    10030    2    1    2    0    0  0.00000000000E+00  0.00000000000E+00  0.93076557342E+03  0.30459920202E+04  0.29003004731E+04 0.  0.
        5    1    3    3  502    0 -0.12473566148E+04 -0.73960320392E+03  0.46382684823E+03  0.15225205611E+04  0.46999998093E+01 0.  1.
       -5    1    3    3    0  502  0.12473566148E+04  0.73960320392E+03  0.46693872519E+03  0.15234714591E+04  0.46999998093E+01 0. -1.
</event>
<event>
 5   0  0.1006893E-06  0.2899877E+04  0.7818609E-02  0.8272914E-01
        2   -1    0    0  501    0  0.00000000000E+00  0.00000000000E+00  0.16739387220E+04  0.16739387220E+04  0.25500000920E-02 0. -1.
       -2   -1    0    0    0  501  0.00000000000E+00  0.00000000000E+00 -0.12559131711E+04  0.12559131711E+04  0.25500000920E-02 0.  1.
    10030    2    1    2    0    0  0.00000000000E+00  0.00000000000E+00  0.41802555094E+03  0.29298518931E+04  0.28998770240E+04 0.  0.
        4    1    3    3  502    0 -0.34821958518E+03  0.61816088578E+03  0.14865754424E+04  0.16472060949E+04  0.12699999809E+01 0. -1.
       -4    1    3    3    0  502  0.34821958518E+03 -0.61816088578E+03 -0.10685498915E+04  0.12826457982E+04  0.12699999809E+01 0.  1.
</event>
<event>
 5   0  0.3786210E-07  0.2890479E+04  0.7818609E-02  0.8275716E-01
        1   -1    0    0  501    0  0.00000000000E+00  0.00000000000E+00  0.20662096081E+04  0.20662096081E+04  0.50400001928E-02 0.  1.
       -1   -1    0    0    0  501  0.00000000000E+00  0.00000000000E+00 -0.10108930864E+04  0.10108930864E+04  0.50400001928E-02 0. -1.
    10030    2    1    2    0    0  0.00000000000E+00  0.00000000000E+00  0.10553165217E+04  0.30771026945E+04  0.28904788586E+04 0.  0.
        5    1    3    3  502    0  0.11738915843E+04 -0.66766450788E+03  0.10755707268E+04  0.17264622281E+04  0.46999998093E+01 0.  1.
       -5    1    3    3    0  502 -0.11738915843E+04  0.66766450788E+03 -0.20254205140E+02  0.13506404664E+04  0.46999998093E+01 0. -1.
</event>
<event>
 5   0  0.1006893E-06  0.2894236E+04  0.7818609E-02  0.8274594E-01
        2   -1    0    0  501    0  0.00000000000E+00  0.00000000000E+00  0.20007470649E+04  0.20007470649E+04  0.25500000920E-02 0.  1.
       -2   -1    0    0    0  501  0.00000000000E+00  0.00000000000E+00 -0.10466844233E+04  0.10466844233E+04  0.25500000920E-02 0. -1.
    10030    2    1    2    0    0  0.00000000000E+00  0.00000000000E+00  0.95406264156E+03  0.30474314882E+04  0.28942361948E+04 0.  0.
        4    1    3    3  502    0 -0.38936367324E+03  0.13779625344E+04  0.25675882927E+03  0.14547547992E+04  0.12699999809E+01 0.  1.
       -4    1    3    3    0  502  0.38936367324E+03 -0.13779625344E+04  0.69730381229E+03  0.15926766891E+04  0.12699999809E+01 0. -1.
</event>
<event>
 5   0  0.3769563E-07  0.2898043E+04  0.7818609E-02  0.8273460E-01
        1   -1    0    0  501    0  0.00000000000E+00  0.00000000000E+00  0.11390932093E+04  0.11390932093E+04  0.50400001928E-02 0. -1.
       -1   -1    0    0    0  501  0.00000000000E+00  0.00000000000E+00 -0.18432755609E+04  0.18432755609E+04  0.50400001928E-02 0.  1.
    10030    2    1    2    0    0  0.00000000000E+00  0.00000000000E+00 -0.70418235163E+03  0.29823687702E+04  0.28980425630E+04 0.  0.
        3    1    3    3  502    0  0.98242881384E+01 -0.18329359876E+03 -0.18312627329E+04  0.18404391506E+04  0.10100000352E+00 0.  1.
       -3    1    3    3    0  502 -0.98242881384E+01  0.18329359876E+03  0.11270803813E+04  0.11419296196E+04  0.10100000352E+00 0. -1.
</event>
<event>
 5   0  0.9994311E-07  0.2895109E+04  0.7818609E-02  0.8274334E-01
        2   -1    0    0  501    0  0.00000000000E+00  0.00000000000E+00  0.20207440412E+04  0.20207440412E+04  0.25500000920E-02 0. -1.
       -2   -1    0    0    0  501  0.00000000000E+00  0.00000000000E+00 -0.10369518271E+04  0.10369518271E+04  0.25500000920E-02 0.  1.
    10030    2    1    2    0    0  0.00000000000E+00  0.00000000000E+00  0.98379221413E+03  0.30576958684E+04  0.28951091349E+04 0.  0.
        2    1    3    3  502    0  0.14253362181E+04 -0.15857277821E+03  0.28416390767E+03  0.14620115550E+04  0.25500000920E-02 0.  1.
       -2    1    3    3    0  502 -0.14253362181E+04  0.15857277821E+03  0.69962830646E+03  0.15956843133E+04  0.25500000920E-02 0. -1.
</event>
<event>
 5   0  0.1063979E-06  0.2904993E+04  0.7818609E-02  0.8271393E-01
        2   -1    0    0  501    0  0.00000000000E+00  0.00000000000E+00  0.14506584050E+04  0.14506584050E+04  0.25500000920E-02 0. -1.
       -2   -1    0    0    0  501  0.00000000000E+00  0.00000000000E+00 -0.14543372077E+04  0.14543372077E+04  0.25500000920E-02 0.  1.
    10030    2    1    2    0    0  0.00000000000E+00  0.00000000000E+00 -0.36788027011E+01  0.29049956127E+04  0.29049932834E+04 0.  0.
        1    1    3    3  502    0 -0.33771165105E+03  0.63240555642E+03 -0.12650745759E+04  0.14540975310E+04  0.50400001928E-02 0.  1.
       -1    1    3    3    0  502  0.33771165105E+03 -0.63240555642E+03  0.12613957732E+04  0.14508980818E+04  0.50400001928E-02 0. -1.
</event>
<event>
 5   0  0.3638028E-07  0.2898754E+04  0.7818609E-02  0.8273248E-01
       -1   -1    0    0    0  501  0.00000000000E+00  0.00000000000E+00  0.11606443880E+04  0.11606443881E+04  0.50400001928E-02 0. -1.
        1   -1    0    0  501    0  0.00000000000E+00  0.00000000000E+00 -0.18099374111E+04  0.18099374111E+04  0.50400001928E-02 0.  1.
    10030    2    1    2    0    0  0.00000000000E+00  0.00000000000E+00 -0.64929302308E+03  0.29705817992E+04  0.28987540075E+04 0.  0.
        4    1    3    3  502    0 -0.41764542053E+03 -0.88457500067E+02  0.10947516086E+04  0.11750468603E+04  0.12699999809E+01 0. -1.
       -4    1    3    3    0  502  0.41764542053E+03  0.88457500067E+02 -0.17440446317E+04  0.17955349389E+04  0.12699999809E+01 0.  1.
</event>
<event>
 5   0  0.1063979E-06  0.2899137E+04  0.7818609E-02  0.8273134E-01
        2   -1    0    0  501    0  0.00000000000E+00  0.00000000000E+00  0.13108523430E+04  0.13108523430E+04  0.25500000920E-02 0.  1.
       -2   -1    0    0    0  501  0.00000000000E+00  0.00000000000E+00 -0.16029634493E+04  0.16029634493E+04  0.25500000920E-02 0. -1.
    10030    2    1    2    0    0  0.00000000000E+00  0.00000000000E+00 -0.29211110630E+03  0.29138157924E+04  0.28991366945E+04 0.  0.
        1    1    3    3  502    0  0.80456677714E+02 -0.12903847332E+04  0.51276503219E+03  0.13908608899E+04  0.50400001928E-02 0. -1.
       -1    1    3    3    0  502 -0.80456677714E+02  0.12903847332E+04 -0.80487613850E+03  0.15229549025E+04  0.50400001928E-02 0.  1.
</event>
<event>
 5   0  0.3885904E-07  0.2899430E+04  0.7818609E-02  0.8273047E-01
       -1   -1    0    0    0  501  0.00000000000E+00  0.00000000000E+00  0.16534488364E+04  0.16534488364E+04  0.50400001928E-02 0. -1.
        1   -1    0    0  501    0  0.00000000000E+00  0.00000000000E+00 -0.12710848384E+04  0.12710848384E+04  0.50400001928E-02 0.  1.
    10030    2    1    2    0    0  0.00000000000E+00  0.00000000000E+00  0.38236399808E+03  0.29245336748E+04  0.28994301144E+04 0.  0.
        2    1    3    3  502    0 -0.46189290852E+03  0.11468585337E+04  0.95473297854E+03  0.15620962248E+04  0.25500000920E-02 0.  1.
       -2    1    3    3    0  502  0.46189290852E+03 -0.11468585337E+04 -0.57236898046E+03  0.13624374500E+04  0.25500000920E-02 0. -1.
</event>
<event>
 5   0  0.1006893E-06  0.2904623E+04  0.7818609E-02  0.8271503E-01
       -2   -1    0    0    0  501  0.00000000000E+00  0.00000000000E+00  0.21994198088E+04  0.21994198088E+04  0.25500000920E-02 0. -1.
        2   -1    0    0  501    0  0.00000000000E+00  0.00000000000E+00 -0.95898445518E+03  0.95898445518E+03  0.25500000920E-02 0.  1.
    10030    2    1    2    0    0  0.00000000000E+00  0.00000000000E+00  0.12404353536E+04  0.31584042640E+04  0.29046234916E+04 0.  0.
        4    1    3    3  502    0  0.71568349683E+03 -0.69622396265E+03  0.17670089351E+04  0.20295942607E+04  0.12699999809E+01 0. -1.
       -4    1    3    3    0  502 -0.71568349683E+03  0.69622396265E+03 -0.52657358144E+03  0.11288100032E+04  0.12699999809E+01 0.  1.
</event>
<event>
 5   0  0.9950999E-07  0.2903029E+04  0.7818609E-02  0.8271977E-01
       -2   -1    0    0    0  501  0.00000000000E+00  0.00000000000E+00  0.71662881189E+03  0.71662881189E+03  0.25500000920E-02 0. -1.
        2   -1    0    0  501    0  0.00000000000E+00  0.00000000000E+00 -0.29400086715E+04  0.29400086715E+04  0.25500000920E-02 0.  1.
    10030    2    1    2    0    0  0.00000000000E+00  0.00000000000E+00 -0.22233798596E+04  0.36566374834E+04  0.29030293979E+04 0.  0.
        3    1    3    3  502    0 -0.12629976478E+04 -0.15336590560E+03 -0.19917942295E+04  0.23634568797E+04  0.10100000352E+00 0. -1.
       -3    1    3    3    0  502  0.12629976478E+04  0.15336590560E+03 -0.23158563014E+03  0.12931806037E+04  0.10100000352E+00 0.  1.
</event>
<event>
 5   0  0.3885904E-07  0.2900938E+04  0.7818609E-02  0.8272598E-01
       -1   -1    0    0    0  501  0.00000000000E+00  0.00000000000E+00  0.10207535196E+04  0.10207535196E+04  0.50400001928E-02 0.  1.
        1   -1    0    0  501    0  0.00000000000E+00  0.00000000000E+00 -0.20610860496E+04  0.20610860496E+04  0.50400001928E-02 0. -1.
    10030    2    1    2    0    0  0.00000000000E+00  0.00000000000E+00 -0.10403325300E+04  0.30818395692E+04  0.29009383581E+04 0.  0.
        2    1    3    3  502    0 -0.12117700088E+04 -0.20648853005E+03 -0.13381395001E+04  0.18170419337E+04  0.25500000920E-02 0. -1.
       -2    1    3    3    0  502  0.12117700088E+04  0.20648853005E+03  0.29780697010E+03  0.12647976355E+04  0.25500000920E-02 0.  1.
</event>
<event>
 5   0  0.3638028E-07  0.2900552E+04  0.7818609E-02  0.8272713E-01
        1   -1    0    0  501    0  0.00000000000E+00  0.00000000000E+00  0.14882594729E+04  0.14882594729E+04  0.50400001928E-02 0. -1.
       -1   -1    0    0    0  501  0.00000000000E+00  0.00000000000E+00 -0.14132622152E+04  0.14132622152E+04  0.50400001928E-02 0.  1.
    10030    2    1    2    0    0  0.00000000000E+00  0.00000000000E+00  0.74997257742E+02  0.29015216881E+04  0.29005522781E+04 0.  0.
        4    1    3    3  502    0  0.60864667409E+03  0.64021295460E+03  0.11880899254E+04  0.14805008223E+04  0.12699999809E+01 0. -1.
       -4    1    3    3    0  502 -0.60864667409E+03 -0.64021295460E+03 -0.11130926677E+04  0.14210208658E+04  0.12699999809E+01 0.  1.
</event>
<event>
 5   0  0.3769563E-07  0.2899509E+04  0.7818609E-02  0.8273023E-01
       -1   -1    0    0    0  501  0.00000000000E+00  0.00000000000E+00  0.18488021968E+04  0.18488021968E+04  0.50400001928E-02 0. -1.
        1   -1    0    0  501    0  0.00000000000E+00  0.00000000000E+00 -0.11368379726E+04  0.11368379726E+04  0.50400001928E-02 0.  1.
    10030    2    1    2    0    0  0.00000000000E+00  0.00000000000E+00  0.71196422427E+03  0.29856401694E+04  0.28995092972E+04 0.  0.
        3    1    3    3  502    0 -0.91927928799E+03  0.29050756409E+03  0.14708822002E+04  0.17586823224E+04  0.10100000352E+00 0. -1.
       -3    1    3    3    0  502  0.91927928799E+03 -0.29050756409E+03 -0.75891797589E+03  0.12269578471E+04  0.10100000352E+00 0.  1.
</event>
<event>
 5   0  0.3769563E-07  0.2895648E+04  0.7818609E-02  0.8274174E-01
       -1   -1    0    0    0  501  0.00000000000E+00  0.00000000000E+00  0.10262301953E+04  0.10262301953E+04  0.50400001928E-02 0.  1.
        1   -1    0    0  501    0  0.00000000000E+00  0.00000000000E+00 -0.20426160657E+04  0.20426160657E+04  0.50400001928E-02 0. -1.
    10030    2    1    2    0    0  0.00000000000E+00  0.00000000000E+00 -0.10163858705E+04  0.30688462610E+04  0.28956479648E+04 0.  0.
        3    1    3    3  502    0  0.34828815935E+03 -0.77777025891E+03  0.73227001736E+03  0.11235882725E+04  0.10100000352E+00 0.  1.
       -3    1    3    3    0  502 -0.34828815935E+03  0.77777025891E+03 -0.17486558878E+04  0.19452579885E+04  0.10100000352E+00 0. -1.
</event>
<event>
 5   0  0.1063979E-06  0.2901587E+04  0.7818609E-02  0.8272405E-01
        2   -1    0    0  501    0  0.00000000000E+00  0.00000000000E+00  0.17374927877E+04  0.17374927877E+04  0.25500000920E-02 0.  1.
       -2   -1    0    0    0  501  0.00000000000E+00  0.00000000000E+00 -0.12114019854E+04  0.12114019854E+04  0.25500000920E-02 0. -1.
    10030    2    1    2    0    0  0.00000000000E+00  0.00000000000E+00  0.52609080225E+03  0.29488947731E+04  0.29015872985E+04 0.  0.
        1    1    3    3  502    0  0.98432944421E+01 -0.91049776493E+03  0.14109287761E+04  0.16792328849E+04  0.50400001928E-02 0.  1.
       -1    1    3    3    0  502 -0.98432944421E+01  0.91049776493E+03 -0.88483797387E+03  0.12696618882E+04  0.50400001928E-02 0. -1.
</event>
<event>
 5   0  0.1031339E-06  0.2903055E+04  0.7818609E-02  0.8271969E-01
       -2   -1    0    0    0  501  0.00000000000E+00  0.00000000000E+00  0.83223599656E+03  0.83223599656E+03  0.25500000920E-02 0. -1.
        2   -1    0    0  501    0  0.00000000000E+00  0.00000000000E+00 -0.25316515246E+04  0.25316515246E+04  0.25500000920E-02 0.  1.
    10030    2    1    2    0    0  0.00000000000E+00  0.00000000000E+00 -0.16994155280E+04  0.33638875211E+04  0.29030546185E+04 0.  0.
        5    1    3    3  502    0  0.57167246915E+03  0.11584675438E+04 -0.82788622739E+02  0.12945008722E+04  0.46999998093E+01 0. -1.
       -5    1    3    3    0  502 -0.57167246915E+03 -0.11584675438E+04 -0.16166269053E+04  0.20693866490E+04  0.46999998093E+01 0.  1.
</event>
<event>
 5   0  0.9994311E-07  0.2882255E+04  0.7818609E-02  0.8278177E-01
        2   -1    0    0  501    0  0.00000000000E+00  0.00000000000E+00  0.18663788611E+04  0.18663788611E+04  0.25500000920E-02 0.  1.
       -2   -1    0    0    0  501  0.00000000000E+00  0.00000000000E+00 -0.11127689365E+04  0.11127689365E+04  0.25500000920E-02 0. -1.
    10030    2    1    2    0    0  0.00000000000E+00  0.00000000000E+00  0.75360992460E+03  0.29791477976E+04  0.28822549647E+04 0.  0.
        2    1    3    3  502    0 -0.12379790691E+04  0.28864470581E+03 -0.32494448249E+03  0.13120582527E+04  0.25500000920E-02 0.  1.
       -2    1    3    3    0  502  0.12379790691E+04 -0.28864470581E+03  0.10785544071E+04  0.16670895449E+04  0.25500000920E-02 0. -1.
</event>
<event>
 5   0  0.3770467E-07  0.2896505E+04  0.7818609E-02  0.8273918E-01
       -1   -1    0    0    0  501  0.00000000000E+00  0.00000000000E+00  0.91061425774E+03  0.91061425776E+03  0.50400001928E-02 0.  1.
        1   -1    0    0  501    0  0.00000000000E+00  0.00000000000E+00 -0.23033189019E+04  0.23033189019E+04  0.50400001928E-02 0. -1.
    10030    2    1    2    0    0  0.00000000000E+00  0.00000000000E+00 -0.13927046441E+04  0.32139331596E+04  0.28965048125E+04 0.  0.
        1    1    3    3  502    0 -0.13062251367E+03  0.14423495756E+04 -0.69557344569E+03  0.16066290666E+04  0.50400001928E-02 0.  1.
       -1    1    3    3    0  502  0.13062251367E+03 -0.14423495756E+04 -0.69713119843E+03  0.16073040930E+04  0.50400001928E-02 0. -1.
</event>
<event>
 5   0  0.9994311E-07  0.2921951E+04  0.7818609E-02  0.8266376E-01
        2   -1    0    0  501    0  0.00000000000E+00  0.00000000000E+00  0.18631837771E+04  0.18631837771E+04  0.25500000920E-02 0. -1.
       -2   -1    0    0    0  501  0.00000000000E+00  0.00000000000E+00 -0.11455922062E+04  0.11455922062E+04  0.25500000920E-02 0.  1.
    10030    2    1    2    0    0  0.00000000000E+00  0.00000000000E+00  0.71759157092E+03  0.30087759834E+04  0.29219505909E+04 0.  0.
        2    1    3    3  502    0  0.65477061259E+03 -0.11136407531E+04  0.10613666532E+04  0.16719507931E+04  0.25500000920E-02 0. -1.
       -2    1    3    3    0  502 -0.65477061259E+03  0.11136407531E+04 -0.34377508233E+03  0.13368251902E+04  0.25500000920E-02 0.  1.
</event>
<event>
 5   0  0.3770467E-07  0.2887535E+04  0.7818609E-02  0.8276596E-01
        1   -1    0    0  501    0  0.00000000000E+00  0.00000000000E+00  0.16076067418E+04  0.16076067418E+04  0.50400001928E-02 0.  1.
       -1   -1    0    0    0  501  0.00000000000E+00  0.00000000000E+00 -0.12966261108E+04  0.12966261108E+04  0.50400001928E-02 0. -1.
    10030    2    1    2    0    0  0.00000000000E+00  0.00000000000E+00  0.31098063101E+03  0.29042328526E+04  0.28875351962E+04 0.  0.
        1    1    3    3  502    0  0.97941318149E+03 -0.10433396936E+04  0.34805759490E+03  0.14727362241E+04  0.50400001928E-02 0.  1.
       -1    1    3    3    0  502 -0.97941318149E+03  0.10433396936E+04 -0.37076963884E+02  0.14314966286E+04  0.50400001928E-02 0. -1.
</event>
<event>
 5   0  0.3786210E-07  0.2900456E+04  0.7818609E-02  0.8272742E-01
        1   -1    0    0  501    0  0.00000000000E+00  0.00000000000E+00  0.14613756600E+04  0.14613756600E+04  0.50400001928E-02 0.  1.
       -1   -1    0    0    0  501  0.00000000000E+00  0.00000000000E+00 -0.14391655765E+04  0.14391655765E+04  0.50400001928E-02 0. -1.
    10030    2    1    2    0    0  0.00000000000E+00  0.00000000000E+00  0.22210083507E+02  0.29005412366E+04  0.29004562016E+04 0.  0.
        5    1    3    3  502    0  0.35123680667E+02 -0.14447373875E+04  0.13210306248E+03  0.14511971268E+04  0.46999998093E+01 0.  1.
       -5    1    3    3    0  502 -0.35123680667E+02  0.14447373875E+04 -0.10989297897E+03  0.14493441098E+04  0.46999998093E+01 0. -1.
</event>
<event>
 5   0  0.1006893E-06  0.2901658E+04  0.7818609E-02  0.8272384E-01
        2   -1    0    0  501    0  0.00000000000E+00  0.00000000000E+00  0.16863608847E+04  0.16863608847E+04  0.25500000920E-02 0.  1.
       -2   -1    0    0    0  501  0.00000000000E+00  0.00000000000E+00 -0.12481934605E+04  0.12481934605E+04  0.25500000920E-02 0. -1.
    10030    2    1    2    0    0  0.00000000000E+00  0.00000000000E+00  0.43816742418E+03  0.29345543452E+04  0.29016578905E+04 0.  0.
        4    1    3    3  502    0  0.80024549573E+03 -0.90859151268E+03  0.10275031287E+04  0.15879847867E+04  0.12699999809E+01 0.  1.
       -4    1    3    3    0  502 -0.80024549573E+03  0.90859151268E+03 -0.58933570456E+03  0.13465695585E+04  0.12699999809E+01 0. -1.
</event>
<event>
 5   0  0.3769563E-07  0.2897908E+04  0.7818609E-02  0.8273500E-01
       -1   -1    0    0    0  501  0.00000000000E+00  0.00000000000E+00  0.12077163500E+04  0.12077163500E+04  0.50400001928E-02 0. -1.
        1   -1    0    0  501    0  0.00000000000E+00  0.00000000000E+00 -0.17383784125E+04  0.17383784125E+04  0.50400001928E-02 0.  1.
    10030    2    1    2    0    0  0.00000000000E+00  0.00000000000E+00 -0.53066206246E+03  0.29460947625E+04  0.28979082327E+04 0.  0.
        3    1    3    3  502    0 -0.62553244882E+03  0.11758108694E+04 -0.84547387760E+03  0.15775449702E+04  0.10100000352E+00 0.  1.
       -3    1    3    3    0  502  0.62553244882E+03 -0.11758108694E+04  0.31481181514E+03  0.13685497924E+04  0.10100000352E+00 0. -1.
</event>
<event>
 5   0  0.3378750E-07  0.2905790E+04  0.7818609E-02  0.8271157E-01
        3   -1    0    0  501    0  0.00000000000E+00  0.00000000000E+00  0.95797543134E+03  0.95797543667E+03  0.10100000352E+00 0.  1.
       -3   -1    0    0    0  501  0.00000000000E+00  0.00000000000E+00 -0.22035054467E+04  0.22035054490E+04  0.10100000352E+00 0. -1.
    10030    2    1    2    0    0  0.00000000000E+00  0.00000000000E+00 -0.12455300154E+04  0.31614808857E+04  0.29057901458E+04 0.  0.
        1    1    3    3  502    0 -0.75475430978E+03  0.10566103780E+04  0.86373564448E+02  0.13013608076E+04  0.50400001928E-02 0. -1.
       -1    1    3    3    0  502  0.75475430978E+03 -0.10566103780E+04 -0.13319035798E+04  0.18601200781E+04  0.50400001928E-02 0.  1.
</event>
<event>
 5   0  0.3770467E-07  0.2900365E+04  0.7818609E-02  0.8272769E-01
        1   -1    0    0  501    0  0.00000000000E+00  0.00000000000E+00  0.21366691053E+04  0.21366691053E+04  0.50400001928E-02 0. -1.
       -1   -1    0    0    0  501  0.00000000000E+00  0.00000000000E+00 -0.98425622686E+03  0.98425622687E+03  0.50400001928E-02 0.  1.
    10030    2    1    2    0    0  0.00000000000E+00  0.00000000000E+00  0.11524128784E+04  0.31209253321E+04  0.29003654057E+04 0.  0.
        1    1    3    3  502    0 -0.37023485465E+02  0.68384116397E+02  0.21344239856E+04  0.21358400868E+04  0.50400001928E-02 0. -1.
       -1    1    3    3    0  502  0.37023485465E+02 -0.68384116397E+02 -0.98201110723E+03  0.98508524535E+03  0.50400001928E-02 0.  1.
</event>
<event>
 5   0  0.3885904E-07  0.2899207E+04  0.7818609E-02  0.8273113E-01
       -1   -1    0    0    0  501  0.00000000000E+00  0.00000000000E+00  0.27626503420E+04  0.27626503420E+04  0.50400001928E-02 0. -1.
        1   -1    0    0  501    0  0.00000000000E+00  0.00000000000E+00 -0.76062842588E+03  0.76062842590E+03  0.50400001928E-02 0.  1.
    10030    2    1    2    0    0  0.00000000000E+00  0.00000000000E+00  0.20020219161E+04  0.35232787679E+04  0.28992070509E+04 0.  0.
        2    1    3    3  502    0  0.14061428407E+04 -0.19866667543E+03  0.64744821761E+03  0.15607355095E+04  0.25500000920E-02 0.  1.
       -2    1    3    3    0  502 -0.14061428407E+04  0.19866667543E+03  0.13545736985E+04  0.19625432584E+04  0.25500000920E-02 0. -1.
</event>
<event>
 5   0  0.3638028E-07  0.2897846E+04  0.7818609E-02  0.8273519E-01
       -1   -1    0    0    0  501  0.00000000000E+00  0.00000000000E+00  0.10934811051E+04  0.10934811051E+04  0.50400001928E-02 0. -1.
        1   -1    0    0  501    0  0.00000000000E+00  0.00000000000E+00 -0.19199031064E+04  0.19199031064E+04  0.50400001928E-02 0.  1.
    10030    2    1    2    0    0  0.00000000000E+00  0.00000000000E+00 -0.82642200128E+03  0.30133842115E+04  0.28978459383E+04 0.  0.
        4    1    3    3  502    0 -0.12584134009E+04 -0.12913252673E+03  0.32142388476E+03  0.13052181517E+04  0.12699999809E+01 0. -1.
       -4    1    3    3    0  502  0.12584134009E+04  0.12913252673E+03 -0.11478458860E+04  0.17081660598E+04  0.12699999809E+01 0.  1.
</event>
<event>
 5   0  0.3786210E-07  0.2876511E+04  0.7818609E-02  0.8279901E-01
       -1   -1    0    0    0  501  0.00000000000E+00  0.00000000000E+00  0.10863576098E+04  0.10863576098E+04  0.50400001928E-02 0.  1.
        1   -1    0    0  501    0  0.00000000000E+00  0.00000000000E+00 -0.19041412670E+04  0.19041412670E+04  0.50400001928E-02 0. -1.
    10030    2    1    2    0    0  0.00000000000E+00  0.00000000000E+00 -0.81778365721E+03  0.29904988769E+04  0.28765106332E+04 0.  0.
        5    1    3    3  502    0  0.13875602648E+03  0.12310739180E+04 -0.11684318949E+04  0.17029537309E+04  0.46999998093E+01 0. -1.
       -5    1    3    3    0  502 -0.13875602648E+03 -0.12310739180E+04  0.35064823769E+03  0.12875451460E+04  0.46999998093E+01 0.  1.
</event>
<event>
 5   0  0.1063979E-06  0.2899056E+04  0.7818609E-02  0.8273158E-01
        2   -1    0    0  501    0  0.00000000000E+00  0.00000000000E+00  0.16483042356E+04  0.16483042356E+04  0.25500000920E-02 0. -1.
       -2   -1    0    0    0  501  0.00000000000E+00  0.00000000000E+00 -0.12747233008E+04  0.12747233009E+04  0.25500000920E-02 0.  1.
    10030    2    1    2    0    0  0.00000000000E+00  0.00000000000E+00  0.37358093476E+03  0.29230275365E+04  0.28990562713E+04 0.  0.
        1    1    3    3  502    0  0.91314526353E+03  0.43149757598E+03  0.12351510381E+04  0.15955007106E+04  0.50400001928E-02 0. -1.
       -1    1    3    3    0  502 -0.91314526353E+03 -0.43149757598E+03 -0.86157010339E+03  0.13275268259E+04  0.50400001928E-02 0.  1.
</event>
<event>
 5   0  0.3885904E-07  0.2907009E+04  0.7818609E-02  0.8270795E-01
       -1   -1    0    0    0  501  0.00000000000E+00  0.00000000000E+00  0.92544550913E+03  0.92544550914E+03  0.50400001928E-02 0.  1.
        1   -1    0    0  501    0  0.00000000000E+00  0.00000000000E+00 -0.22828738634E+04  0.22828738634E+04  0.50400001928E-02 0. -1.
    10030    2    1    2    0    0  0.00000000000E+00  0.00000000000E+00 -0.13574283543E+04  0.32083193725E+04  0.29070090229E+04 0.  0.
        2    1    3    3  502    0 -0.24089253763E+03 -0.14083641475E+04 -0.38431354250E+03  0.14795998396E+04  0.25500000920E-02 0.  1.
       -2    1    3    3    0  502  0.24089253763E+03  0.14083641475E+04 -0.97311481176E+03  0.17287195329E+04  0.25500000920E-02 0. -1.
</event>
<event>
 5   0  0.9950999E-07  0.2903661E+04  0.7818609E-02  0.8271789E-01
        2   -1    0    0  501    0  0.00000000000E+00  0.00000000000E+00  0.23134763912E+04  0.23134763912E+04  0.25500000920E-02 0.  1.
       -2   -1    0    0    0  501  0.00000000000E+00  0.00000000000E+00 -0.91110176581E+03  0.91110176582E+03  0.25500000920E-02 0. -1.
    10030    2    1    2    0    0  0.00000000000E+00  0.00000000000E+00  0.14023746254E+04  0.32245781570E+04  0.29036614301E+04 0.  0.
        3    1    3    3  502    0  0.60913361258E+03 -0.17573296634E+03 -0.74926016961E+03  0.98148695631E+03  0.10100000352E+00 0. -1.
       -3    1    3    3    0  502 -0.60913361258E+03  0.17573296634E+03  0.21516347950E+04  0.22430912007E+04  0.10100000352E+00 0.  1.
</event>
<event>
 5   0  0.3638028E-07  0.2901116E+04  0.7818609E-02  0.8272545E-01
        1   -1    0    0  501    0  0.00000000000E+00  0.00000000000E+00  0.20652199082E+04  0.20652199082E+04  0.50400001928E-02 0.  1.
       -1   -1    0    0    0  501  0.00000000000E+00  0.00000000000E+00 -0.10188352210E+04  0.10188352210E+04  0.50400001928E-02 0. -1.
    10030    2    1    2    0    0  0.00000000000E+00  0.00000000000E+00  0.10463846872E+04  0.30840551293E+04  0.29011161863E+04 0.  0.
        4    1    3    3  502    0  0.34938267962E+03 -0.11931293824E+04  0.13176397901E+04  0.18115745111E+04  0.12699999809E+01 0.  1.
       -4    1    3    3    0  502 -0.34938267962E+03  0.11931293824E+04 -0.27125510292E+03  0.12724806182E+04  0.12699999809E+01 0. -1.
</event>
<event>
 5   0  0.1063979E-06  0.2873420E+04  0.7818609E-02  0.8280830E-01
       -2   -1    0    0    0  501  0.00000000000E+00  0.00000000000E+00  0.11784407448E+04  0.11784407448E+04  0.25500000920E-02 0.  1.
        2   -1    0    0  501    0  0.00000000000E+00  0.00000000000E+00 -0.17515816156E+04  0.17515816156E+04  0.25500000920E-02 0. -1.
    10030    2    1    2    0    0  0.00000000000E+00  0.00000000000E+00 -0.57314087082E+03  0.29300223603E+04  0.28734196655E+04 0.  0.
        1    1    3    3  502    0 -0.54639057946E+03 -0.15112570545E+03 -0.16327092803E+04  0.17283290307E+04  0.50400001928E-02 0. -1.
       -1    1    3    3    0  502  0.54639057946E+03  0.15112570545E+03  0.10595684095E+04  0.12016933297E+04  0.50400001928E-02 0.  1.
</event>
<event>
 5   0  0.3769563E-07  0.2900533E+04  0.7818609E-02  0.8272719E-01
        1   -1    0    0  501    0  0.00000000000E+00  0.00000000000E+00  0.18216795322E+04  0.18216795322E+04  0.50400001928E-02 0.  1.
       -1   -1    0    0    0  501  0.00000000000E+00  0.00000000000E+00 -0.11545786654E+04  0.11545786654E+04  0.50400001928E-02 0. -1.
    10030    2    1    2    0    0  0.00000000000E+00  0.00000000000E+00  0.66710086687E+03  0.29762581976E+04  0.29005325877E+04 0.  0.
        3    1    3    3  502    0 -0.14357155385E+04 -0.18187058337E+03  0.43044180512E+03  0.15098464075E+04  0.10100000352E+00 0.  1.
       -3    1    3    3    0  502  0.14357155385E+04  0.18187058337E+03  0.23665906175E+03  0.14664117901E+04  0.10100000352E+00 0. -1.
</event>
<event>
 5   0  0.1006893E-06  0.2900546E+04  0.7818609E-02  0.8272715E-01
        2   -1    0    0  501    0  0.00000000000E+00  0.00000000000E+00  0.11869314732E+04  0.11869314732E+04  0.25500000920E-02 0. -1.
       -2   -1    0    0    0  501  0.00000000000E+00  0.00000000000E+00 -0.17720412432E+04  0.17720412432E+04  0.25500000920E-02 0.  1.
    10030    2    1    2    0    0  0.00000000000E+00  0.00000000000E+00 -0.58510977004E+03  0.29589727164E+04  0.29005458268E+04 0.  0.
        4    1    3    3  502    0 -0.38306683190E+03 -0.70040329697E+02  0.11325982644E+04  0.11976753679E+04  0.12699999809E+01 0. -1.
       -4    1    3    3    0  502  0.38306683190E+03  0.70040329697E+02 -0.17177080344E+04  0.17612973485E+04  0.12699999809E+01 0.  1.
</event>
<event>
 5   0  0.9994311E-07  0.2900454E+04  0.7818609E-02  0.8272742E-01
       -2   -1    0    0    0  501  0.00000000000E+00  0.00000000000E+00  0.16829300237E+04  0.16829300237E+04  0.25500000920E-02 0.  1.
        2   -1    0    0  501    0  0.00000000000E+00  0.00000000000E+00 -0.12497006467E+04  0.12497006467E+04  0.25500000920E-02 0. -1.
    10030    2    1    2    0    0  0.00000000000E+00  0.00000000000E+00  0.43322937701E+03  0.29326306704E+04  0.29004542672E+04 0.  0.
        2    1    3    3  502    0 -0.58216827088E+03  0.73717335253E+03  0.13337766825E+04  0.16313505712E+04  0.25500000920E-02 0.  1.
       -2    1    3    3    0  502  0.58216827088E+03 -0.73717335253E+03 -0.90054730548E+03  0.13012800993E+04  0.25500000920E-02 0. -1.
</event>
<event>
 5   0  0.1031339E-06  0.2899523E+04  0.7818609E-02  0.8273019E-01
       -2   -1    0    0    0  501  0.00000000000E+00  0.00000000000E+00  0.20115306299E+04  0.20115306299E+04  0.25500000920E-02 0.  1.
        2   -1    0    0  501    0  0.00000000000E+00  0.00000000000E+00 -0.10448801929E+04  0.10448801929E+04  0.25500000920E-02 0. -1.
    10030    2    1    2    0    0  0.00000000000E+00  0.00000000000E+00  0.96665043704E+03  0.30564108228E+04  0.28995230729E+04 0.  0.
        5    1    3    3  502    0 -0.11796718054E+04  0.66019446915E+03  0.10354043395E+04  0.17028113641E+04  0.46999998093E+01 0.  1.
       -5    1    3    3    0  502  0.11796718054E+04 -0.66019446915E+03 -0.68753902450E+02  0.13535994587E+04  0.46999998093E+01 0. -1.
</event>
<event>
 5   0  0.9994311E-07  0.2895629E+04  0.7818609E-02  0.8274179E-01
        2   -1    0    0  501    0  0.00000000000E+00  0.00000000000E+00  0.18628695014E+04  0.18628695014E+04  0.25500000920E-02 0.  1.
       -2   -1    0    0    0  501  0.00000000000E+00  0.00000000000E+00 -0.11252355507E+04  0.11252355507E+04  0.25500000920E-02 0. -1.
    10030    2    1    2    0    0  0.00000000000E+00  0.00000000000E+00  0.73763395074E+03  0.29881050521E+04  0.28956291125E+04 0.  0.
        2    1    3    3  502    0 -0.10057271156E+04 -0.71035664458E+03  0.11547660397E+04  0.16880693706E+04  0.25500000920E-02 0.  1.
       -2    1    3    3    0  502  0.10057271156E+04  0.71035664458E+03 -0.41713208900E+03  0.13000356815E+04  0.25500000920E-02 0. -1.
</event>
<event>
 5   0  0.9950999E-07  0.2891120E+04  0.7818609E-02  0.8275525E-01
       -2   -1    0    0    0  501  0.00000000000E+00  0.00000000000E+00  0.13888835698E+04  0.13888835698E+04  0.25500000920E-02 0. -1.
        2   -1    0    0  501    0  0.00000000000E+00  0.00000000000E+00 -0.15045487962E+04  0.15045487962E+04  0.25500000920E-02 0.  1.
    10030    2    1    2    0    0  0.00000000000E+00  0.00000000000E+00 -0.11566522643E+03  0.28934323660E+04  0.28911195776E+04 0.  0.
        3    1    3    3  502    0  0.34304818101E+03 -0.77000077225E+03  0.11174405997E+04  0.13997345276E+04  0.10100000352E+00 0. -1.
       -3    1    3    3    0  502 -0.34304818101E+03  0.77000077225E+03 -0.12331058261E+04  0.14936978384E+04  0.10100000352E+00 0.  1.
</event>
<event>
 5   0  0.9950999E-07  0.2896747E+04  0.7818609E-02  0.8273846E-01
        2   -1    0    0  501    0  0.00000000000E+00  0.00000000000E+00  0.17598437966E+04  0.17598437966E+04  0.25500000920E-02 0. -1.
       -2   -1    0    0    0  501  0.00000000000E+00  0.00000000000E+00 -0.11920298289E+04  0.11920298289E+04  0.25500000920E-02 0.  1.
    10030    2    1    2    0    0  0.00000000000E+00  0.00000000000E+00  0.56781396773E+03  0.29518736255E+04  0.28967473481E+04 0.  0.
        3    1    3    3  502    0  0.93438014959E+03  0.97528245477E+02 -0.83943631854E+03  0.12598537081E+04  0.10100000352E+00 0.  1.
       -3    1    3    3    0  502 -0.93438014959E+03 -0.97528245477E+02  0.14072502863E+04  0.16920199174E+04  0.10100000352E+00 0. -1.
</event>
<event>
 5   0  0.9994311E-07  0.2908642E+04  0.7818609E-02  0.8270311E-01
       -2   -1    0    0    0  501  0.00000000000E+00  0.00000000000E+00  0.13666206608E+04  0.13666206609E+04  0.25500000920E-02 0. -1.
        2   -1    0    0  501    0  0.00000000000E+00  0.00000000000E+00 -0.15476490453E+04  0.15476490453E+04  0.25500000920E-02 0.  1.
    10030    2    1    2    0    0  0.00000000000E+00  0.00000000000E+00 -0.18102838441E+03  0.29142697061E+04  0.29086417181E+04 0.  0.
        2    1    3    3  502    0  0.58177573259E+03  0.10556345949E+04  0.72483047792E+03  0.14064873347E+04  0.25500000920E-02 0. -1.
       -2    1    3    3    0  502 -0.58177573259E+03 -0.10556345949E+04 -0.90585886232E+03  0.15077823714E+04  0.25500000920E-02 0.  1.
</event>
<event>
 5   0  0.3378750E-07  0.2896346E+04  0.7818609E-02  0.8273965E-01
       -3   -1    0    0    0  501  0.00000000000E+00  0.00000000000E+00  0.12697747614E+04  0.12697747655E+04  0.10100000352E+00 0.  1.
        3   -1    0    0  501    0  0.00000000000E+00  0.00000000000E+00 -0.16516357689E+04  0.16516357720E+04  0.10100000352E+00 0. -1.
    10030    2    1    2    0    0  0.00000000000E+00  0.00000000000E+00 -0.38186100743E+03  0.29214105374E+04  0.28963462671E+04 0.  0.
        5    1    3    3  502    0  0.31748651429E+03 -0.12692317395E+04  0.43527732807E+03  0.13788529065E+04  0.46999998093E+01 0.  1.
       -5    1    3    3    0  502 -0.31748651429E+03  0.12692317395E+04 -0.81713833550E+03  0.15425576309E+04  0.46999998093E+01 0. -1.
</event>
<event>
 5   0  0.1031339E-06  0.2900554E+04  0.7818609E-02  0.8272713E-01
        2   -1    0    0  501    0  0.00000000000E+00  0.00000000000E+00  0.10981149530E+04  0.10981149530E+04  0.25500000920E-02 0. -1.
       -2   -1    0    0    0  501  0.00000000000E+00  0.00000000000E+00 -0.19153763120E+04  0.19153763120E+04  0.25500000920E-02 0.  1.
    10030    2    1    2    0    0  0.00000000000E+00  0.00000000000E+00 -0.81726135895E+03  0.30134912650E+04  0.29005539946E+04 0.  0.
        5    1    3    3  502    0  0.40838130834E+03 -0.59432048946E+03 -0.17159121311E+04  0.18612814588E+04  0.46999998093E+01 0.  1.
       -5    1    3    3    0  502 -0.40838130834E+03  0.59432048946E+03  0.89865077215E+03  0.11522098062E+04  0.46999998093E+01 0. -1.
</event>
<event>
 5   0  0.9950999E-07  0.2900133E+04  0.7818609E-02  0.8272838E-01
       -2   -1    0    0    0  501  0.00000000000E+00  0.00000000000E+00  0.15972300721E+04  0.15972300721E+04  0.25500000920E-02 0.  1.
        2   -1    0    0  501    0  0.00000000000E+00  0.00000000000E+00 -0.13164623711E+04  0.13164623711E+04  0.25500000920E-02 0. -1.
    10030    2    1    2    0    0  0.00000000000E+00  0.00000000000E+00  0.28076770099E+03  0.29136924432E+04  0.29001332989E+04 0.  0.
        3    1    3    3  502    0  0.98493026966E+03  0.21323196454E+02  0.12093843740E+04  0.15598566886E+04  0.10100000352E+00 0.  1.
       -3    1    3    3    0  502 -0.98493026966E+03 -0.21323196454E+02 -0.92861667299E+03  0.13538357546E+04  0.10100000352E+00 0. -1.
</event>
<event>
 5   0  0.3638028E-07  0.2901247E+04  0.7818609E-02  0.8272507E-01
       -1   -1    0    0    0  501  0.00000000000E+00  0.00000000000E+00  0.12818854405E+04  0.12818854405E+04  0.50400001928E-02 0.  1.
        1   -1    0    0  501    0  0.00000000000E+00  0.00000000000E+00 -0.16415730447E+04  0.16415730447E+04  0.50400001928E-02 0. -1.
    10030    2    1    2    0    0  0.00000000000E+00  0.00000000000E+00 -0.35968760414E+03  0.29234584852E+04  0.29012470323E+04 0.  0.
        4    1    3    3  502    0  0.91186972275E+03  0.10228902602E+04  0.29971579099E+03  0.14027266462E+04  0.12699999809E+01 0.  1.
       -4    1    3    3    0  502 -0.91186972275E+03 -0.10228902602E+04 -0.65940339512E+03  0.15207318390E+04  0.12699999809E+01 0. -1.
</event>
<event>
 5   0  0.1063979E-06  0.2896785E+04  0.7818609E-02  0.8273835E-01
        2   -1    0    0  501    0  0.00000000000E+00  0.00000000000E+00  0.68447202506E+03  0.68447202506E+03  0.25500000920E-02 0. -1.
       -2   -1    0    0    0  501  0.00000000000E+00  0.00000000000E+00 -0.30649040309E+04  0.30649040309E+04  0.25500000920E-02 0.  1.
    10030    2    1    2    0    0  0.00000000000E+00  0.00000000000E+00 -0.23804320059E+04  0.37493760560E+04  0.28967851620E+04 0.  0.
        1    1    3    3  502    0 -0.12991889292E+04 -0.60001000239E+02 -0.20152889587E+04  0.23985165375E+04  0.50400001928E-02 0. -1.
       -1    1    3    3    0  502  0.12991889292E+04  0.60001000239E+02 -0.36514304721E+03  0.13508595185E+04  0.50400001928E-02 0.  1.
</event>
<event>
 5   0  0.9994311E-07  0.2895562E+04  0.7818609E-02  0.8274199E-01
        2   -1    0    0  501    0  0.00000000000E+00  0.00000000000E+00  0.17402831140E+04  0.17402831140E+04  0.25500000920E-02 0. -1.
       -2   -1    0    0    0  501  0.00000000000E+00  0.00000000000E+00 -0.12044419356E+04  0.12044419356E+04  0.25500000920E-02 0.  1.
    10030    2    1    2    0    0  0.00000000000E+00  0.00000000000E+00  0.53584117844E+03  0.29447250496E+04  0.28955620955E+04 0.  0.
        2    1    3    3  502    0 -0.75733021424E+03  0.62381672414E+03 -0.81475517382E+03  0.12753518542E+04  0.25500000920E-02 0.  1.
       -2    1    3    3    0  502  0.75733021424E+03 -0.62381672414E+03  0.13505963523E+04  0.16693731954E+04  0.25500000920E-02 0. -1.
</event>
<event>
 5   0  0.3885904E-07  0.2911413E+04  0.7818609E-02  0.8269490E-01
       -1   -1    0    0    0  501  0.00000000000E+00  0.00000000000E+00  0.10806646162E+04  0.10806646162E+04  0.50400001928E-02 0. -1.
        1   -1    0    0  501    0  0.00000000000E+00  0.00000000000E+00 -0.19609062310E+04  0.19609062310E+04  0.50400001928E-02 0.  1.
    10030    2    1    2    0    0  0.00000000000E+00  0.00000000000E+00 -0.88024161481E+03  0.30415708472E+04  0.29114133884E+04 0.  0.
        2    1    3    3  502    0 -0.51588120279E+03  0.87092939481E+03 -0.15330402867E+04  0.18370802777E+04  0.25500000920E-02 0.  1.
       -2    1    3    3    0  502  0.51588120279E+03 -0.87092939481E+03  0.65279867186E+03  0.12044905695E+04  0.25500000920E-02 0. -1.
</event>
<event>
 5   0  0.1031339E-06  0.2904126E+04  0.7818609E-02  0.8271651E-01
       -2   -1    0    0    0  501  0.00000000000E+00  0.00000000000E+00  0.11145627607E+04  0.11145627607E+04  0.25500000920E-02 0.  1.
        2   -1    0    0  501    0  0.00000000000E+00  0.00000000000E+00 -0.18917621679E+04  0.18917621679E+04  0.25500000920E-02 0. -1.
    10030    2    1    2    0    0  0.00000000000E+00  0.00000000000E+00 -0.77719940721E+03  0.30063249286E+04  0.29041264880E+04 0.  0.
        5    1    3    3  502    0  0.10223897373E+04 -0.31518851086E+03 -0.14049024257E+04  0.17658984932E+04  0.46999998093E+01 0. -1.
       -5    1    3    3    0  502 -0.10223897373E+04  0.31518851086E+03  0.62770301853E+03  0.12404264355E+04  0.46999998093E+01 0.  1.
</event>
<event>
 5   0  0.3769563E-07  0.2899776E+04  0.7818609E-02  0.8272944E-01
       -1   -1    0    0    0  501  0.00000000000E+00  0.00000000000E+00  0.23433038434E+04  0.23433038434E+04  0.50400001928E-02 0. -1.
        1   -1    0    0  501    0  0.00000000000E+00  0.00000000000E+00 -0.89709897426E+03  0.89709897428E+03  0.50400001928E-02 0.  1.
    10030    2    1    2    0    0  0.00000000000E+00  0.00000000000E+00  0.14462048692E+04  0.32404028177E+04  0.28997761806E+04 0.  0.
        3    1    3    3  502    0  0.52974191799E+03  0.79096951979E+03 -0.49893608220E+03  0.10748006816E+04  0.10100000352E+00 0.  1.
       -3    1    3    3    0  502 -0.52974191799E+03 -0.79096951979E+03  0.19451409514E+04  0.21656021361E+04  0.10100000352E+00 0. -1.
</event>
<event>
 5   0  0.3769563E-07  0.2851282E+04  0.7818609E-02  0.8287522E-01
        1   -1    0    0  501    0  0.00000000000E+00  0.00000000000E+00  0.21104179293E+04  0.21104179293E+04  0.50400001928E-02 0.  1.
       -1   -1    0    0    0  501  0.00000000000E+00  0.00000000000E+00 -0.96305704682E+03  0.96305704683E+03  0.50400001928E-02 0. -1.
    10030    2    1    2    0    0  0.00000000000E+00  0.00000000000E+00  0.11473608825E+04  0.30734749761E+04  0.28512824192E+04 0.  0.
        3    1    3    3  502    0 -0.31725167738E+03  0.38773145974E+03  0.20124078705E+04  0.20738297324E+04  0.10100000352E+00 0.  1.
       -3    1    3    3    0  502  0.31725167738E+03 -0.38773145974E+03 -0.86504698799E+03  0.99964524373E+03  0.10100000352E+00 0. -1.
</event>
<event>
 5   0  0.3638028E-07  0.2905305E+04  0.7818609E-02  0.8271301E-01
       -1   -1    0    0    0  501  0.00000000000E+00  0.00000000000E+00  0.19744957782E+04  0.19744957782E+04  0.50400001928E-02 0. -1.
        1   -1    0    0  501    0  0.00000000000E+00  0.00000000000E+00 -0.10687284136E+04  0.10687284136E+04  0.50400001928E-02 0.  1.
    10030    2    1    2    0    0  0.00000000000E+00  0.00000000000E+00  0.90576736461E+03  0.30432241918E+04  0.29053053132E+04 0.  0.
        4    1    3    3  502    0 -0.21149771850E+03  0.10706326505E+04  0.14571528899E+04  0.18205168812E+04  0.12699999809E+01 0. -1.
       -4    1    3    3    0  502  0.21149771850E+03 -0.10706326505E+04 -0.55138552526E+03  0.12227073107E+04  0.12699999809E+01 0.  1.
</event>
<event>
 5   0  0.1006893E-06  0.2899156E+04  0.7818609E-02  0.8273129E-01
       -2   -1    0    0    0  501  0.00000000000E+00  0.00000000000E+00  0.11164556405E+04  0.11164556405E+04  0.25500000920E-02 0.  1.
        2   -1    0    0  501    0  0.00000000000E+00  0.00000000000E+00 -0.18820958221E+04  0.18820958221E+04  0.25500000920E-02 0. -1.
    10030    2    1    2    0    0  0.00000000000E+00  0.00000000000E+00 -0.76564018160E+03  0.29985514626E+04  0.28991560817E+04 0.  0.
        4    1    3    3  502    0  0.26867125711E+03  0.84571205501E+03  0.80271590818E+03  0.11965649028E+04  0.12699999809E+01 0.  1.
       -4    1    3    3    0  502 -0.26867125711E+03 -0.84571205501E+03 -0.15683560898E+04  0.18019865598E+04  0.12699999809E+01 0. -1.
</event>
<event>
 5   0  0.9994311E-07  0.2900242E+04  0.7818609E-02  0.8272806E-01
       -2   -1    0    0    0  501  0.00000000000E+00  0.00000000000E+00  0.76653423604E+03  0.76653423605E+03  0.25500000920E-02 0. -1.
        2   -1    0    0  501    0  0.00000000000E+00  0.00000000000E+00 -0.27433219952E+04  0.27433219952E+04  0.25500000920E-02 0.  1.
    10030    2    1    2    0    0  0.00000000000E+00  0.00000000000E+00 -0.19767877591E+04  0.35098562312E+04  0.29002415277E+04 0.  0.
        2    1    3    3  502    0  0.10716117763E+04  0.42292079523E+03  0.77427090078E+02  0.11546465920E+04  0.25500000920E-02 0. -1.
       -2    1    3    3    0  502 -0.10716117763E+04 -0.42292079523E+03 -0.20542148492E+04  0.23552096393E+04  0.25500000920E-02 0.  1.
</event>
<event>
 5   0  0.1006893E-06  0.2881482E+04  0.7818609E-02  0.8278408E-01
       -2   -1    0    0    0  501  0.00000000000E+00  0.00000000000E+00  0.99201819850E+03  0.99201819850E+03  0.25500000920E-02 0.  1.
        2   -1    0    0  501    0  0.00000000000E+00  0.00000000000E+00 -0.20924363073E+04  0.20924363073E+04  0.25500000920E-02 0. -1.
    10030    2    1    2    0    0  0.00000000000E+00  0.00000000000E+00 -0.11004181088E+04  0.30844545058E+04  0.28814821853E+04 0.  0.
        4    1    3    3  502    0 -0.94280253273E+03  0.10670361126E+04 -0.78543961277E+03  0.16261487261E+04  0.12699999809E+01 0.  1.
       -4    1    3    3    0  502  0.94280253273E+03 -0.10670361126E+04 -0.31497849606E+03  0.14583057797E+04  0.12699999809E+01 0. -1.
</event>
<event>
 5   0  0.1063979E-06  0.2901004E+04  0.7818609E-02  0.8272579E-01
        2   -1    0    0  501    0  0.00000000000E+00  0.00000000000E+00  0.20361892894E+04  0.20361892894E+04  0.25500000920E-02 0. -1.
       -2   -1    0    0    0  501  0.00000000000E+00  0.00000000000E+00 -0.10332812846E+04  0.10332812846E+04  0.25500000920E-02 0.  1.
    10030    2    1    2    0    0  0.00000000000E+00  0.00000000000E+00  0.10029080048E+04  0.30694705740E+04  0.29010041604E+04 0.  0.
        1    1    3    3  502    0 -0.52870123899E+03  0.94381356479E+03  0.15238203163E+04  0.18687796557E+04  0.50400001928E-02 0. -1.
       -1    1    3    3    0  502  0.52870123899E+03 -0.94381356479E+03 -0.52091231145E+03  0.12006909184E+04  0.50400001928E-02 0.  1.
</event>
<event>
 5   0  0.9950999E-07  0.2895161E+04  0.7818609E-02  0.8274319E-01
       -2   -1    0    0    0  501  0.00000000000E+00  0.00000000000E+00  0.11272793441E+04  0.11272793441E+04  0.25500000920E-02 0.  1.
        2   -1    0    0  501    0  0.00000000000E+00  0.00000000000E+00 -0.18588914213E+04  0.18588914213E+04  0.25500000920E-02 0. -1.
    10030    2    1    2    0    0  0.00000000000E+00  0.00000000000E+00 -0.73161207727E+03  0.29861707654E+04  0.28951614132E+04 0.  0.
        3    1    3    3  502    0 -0.36886757942E+03 -0.10536076044E+04  0.58475943788E+03  0.12601967646E+04  0.10100000352E+00 0.  1.
       -3    1    3    3    0  502  0.36886757942E+03  0.10536076044E+04 -0.13163715151E+04  0.17259740008E+04  0.10100000352E+00 0. -1.
</event>
<event>
 5   0  0.3770467E-07  0.2912366E+04  0.7818609E-02  0.8269208E-01
        1   -1    0    0  501    0  0.00000000000E+00  0.00000000000E+00  0.28062830777E+04  0.28062830777E+04  0.50400001928E-02 0.  1.
       -1   -1    0    0    0  501  0.00000000000E+00  0.00000000000E+00 -0.75561459751E+03  0.75561459753E+03  0.50400001928E-02 0. -1.
    10030    2    1    2    0    0  0.00000000000E+00  0.00000000000E+00  0.20506684802E+04  0.35618976753E+04  0.29123656764E+04 0.  0.
        1    1    3    3  502    0 -0.10694478684E+04  0.84197700886E+03  0.16582714541E+04  0.21453457162E+04  0.50400001928E-02 0.  1.
       -1    1    3    3    0  502  0.10694478684E+04 -0.84197700886E+03  0.39239702616E+03  0.14165519591E+04  0.50400001928E-02 0. -1.
</event>
<event>
 5   0  0.9994311E-07  0.2900291E+04  0.7818609E-02  0.8272791E-01
        2   -1    0    0  501    0  0.00000000000E+00  0.00000000000E+00  0.24752226465E+04  0.24752226465E+04  0.25500000920E-02 0. -1.
       -2   -1    0    0    0  501  0.00000000000E+00  0.00000000000E+00 -0.84958902422E+03  0.84958902422E+03  0.25500000920E-02 0.  1.
    10030    2    1    2    0    0  0.00000000000E+00  0.00000000000E+00  0.16256336223E+04  0.33248116707E+04  0.29002910150E+04 0.  0.
        2    1    3    3  502    0  0.25442426993E+03 -0.84046888680E+03 -0.51013906315E+03  0.10155597090E+04  0.25500000920E-02 0.  1.
       -2    1    3    3    0  502 -0.25442426993E+03  0.84046888680E+03  0.21357726854E+04  0.23092519617E+04  0.25500000920E-02 0. -1.
</event>
<event>
 5   0  0.3885904E-07  0.2902568E+04  0.7818609E-02  0.8272114E-01
        1   -1    0    0  501    0  0.00000000000E+00  0.00000000000E+00  0.16133459607E+04  0.16133459607E+04  0.50400001928E-02 0.  1.
       -1   -1    0    0    0  501  0.00000000000E+00  0.00000000000E+00 -0.13055010248E+04  0.13055010248E+04  0.50400001928E-02 0. -1.
    10030    2    1    2    0    0  0.00000000000E+00  0.00000000000E+00  0.30784493588E+03  0.29188469856E+04  0.29025676944E+04 0.  0.
        2    1    3    3  502    0 -0.20265705425E+03  0.11514040438E+04  0.10186427397E+04  0.15506238051E+04  0.25500000920E-02 0.  1.
       -2    1    3    3    0  502  0.20265705425E+03 -0.11514040438E+04 -0.71079780379E+03  0.13682231805E+04  0.25500000920E-02 0. -1.
</event>
<event>
 5   0  0.9994311E-07  0.2901029E+04  0.7818609E-02  0.8272572E-01
        2   -1    0    0  501    0  0.00000000000E+00  0.00000000000E+00  0.26321486589E+04  0.26321486589E+04  0.25500000920E-02 0. -1.
       -2   -1    0    0    0  501  0.00000000000E+00  0.00000000000E+00 -0.79934376798E+03  0.79934376798E+03  0.25500000920E-02 0.  1.
    10030    2    1    2    0    0  0.00000000000E+00  0.00000000000E+00  0.18328048909E+04  0.34314924268E+04  0.29010285258E+04 0.  0.
        2    1    3    3  502    0  0.12808463150E+04  0.26034858690E+03  0.17238560568E+03  0.13183571089E+04  0.25500000920E-02 0.  1.
       -2    1    3    3    0  502 -0.12808463150E+04 -0.26034858690E+03  0.16604192852E+04  0.21131353180E+04  0.25500000920E-02 0. -1.
</event>
<event>
 5   0  0.1006893E-06  0.2904966E+04  0.7818609E-02  0.8271401E-01
       -2   -1    0    0    0  501  0.00000000000E+00  0.00000000000E+00  0.12807730192E+04  0.12807730192E+04  0.25500000920E-02 0. -1.
        2   -1    0    0  501    0  0.00000000000E+00  0.00000000000E+00 -0.16472136676E+04  0.16472136676E+04  0.25500000920E-02 0.  1.
    10030    2    1    2    0    0  0.00000000000E+00  0.00000000000E+00 -0.36644064840E+03  0.29279866868E+04  0.29049659705E+04 0.  0.
        4    1    3    3  502    0 -0.10647613941E+04 -0.77523618252E+03 -0.80044330365E+03  0.15412394559E+04  0.12699999809E+01 0.  1.
       -4    1    3    3    0  502  0.10647613941E+04  0.77523618252E+03  0.43400265525E+03  0.13867472310E+04  0.12699999809E+01 0. -1.
</event>
<event>
 5   0  0.3770467E-07  0.2901865E+04  0.7818609E-02  0.8272323E-01
        1   -1    0    0  501    0  0.00000000000E+00  0.00000000000E+00  0.13675679560E+04  0.13675679560E+04  0.50400001928E-02 0. -1.
       -1   -1    0    0    0  501  0.00000000000E+00  0.00000000000E+00 -0.15393789919E+04  0.15393789919E+04  0.50400001928E-02 0.  1.
    10030    2    1    2    0    0  0.00000000000E+00  0.00000000000E+00 -0.17181103591E+03  0.29069469480E+04  0.29018651806E+04 0.  0.
        1    1    3    3  502    0 -0.55532316634E+02 -0.99527362403E+03  0.97024242681E+03  0.13910513260E+04  0.50400001928E-02 0. -1.
       -1    1    3    3    0  502  0.55532316634E+02  0.99527362403E+03 -0.11420534627E+04  0.15158956219E+04  0.50400001928E-02 0.  1.
</event>
<event>
 5   0  0.3769563E-07  0.2888937E+04  0.7818609E-02  0.8276177E-01
       -1   -1    0    0    0  501  0.00000000000E+00  0.00000000000E+00  0.12679608492E+04  0.12679608492E+04  0.50400001928E-02 0.  1.
        1   -1    0    0  501    0  0.00000000000E+00  0.00000000000E+00 -0.16455471064E+04  0.16455471064E+04  0.50400001928E-02 0. -1.
    10030    2    1    2    0    0  0.00000000000E+00  0.00000000000E+00 -0.37758625721E+03  0.29135079557E+04  0.28889370409E+04 0.  0.
        3    1    3    3  502    0 -0.64156037348E+03  0.29805290791E+03 -0.14588908074E+04  0.16213567303E+04  0.10100000352E+00 0. -1.
       -3    1    3    3    0  502  0.64156037348E+03 -0.29805290791E+03  0.10813045502E+04  0.12921512254E+04  0.10100000352E+00 0.  1.
</event>
<event>
 5   0  0.9950999E-07  0.2897528E+04  0.7818609E-02  0.8273613E-01
        2   -1    0    0  501    0  0.00000000000E+00  0.00000000000E+00  0.14448362883E+04  0.14448362883E+04  0.25500000920E-02 0. -1.
       -2   -1    0    0    0  501  0.00000000000E+00  0.00000000000E+00 -0.14527022482E+04  0.14527022482E+04  0.25500000920E-02 0.  1.
    10030    2    1    2    0    0  0.00000000000E+00  0.00000000000E+00 -0.78659598922E+01  0.28975385365E+04  0.28975278596E+04 0.  0.
        3    1    3    3  502    0 -0.23513210972E+02  0.14316147880E+04 -0.22493863973E+03  0.14493692332E+04  0.10100000352E+00 0. -1.
       -3    1    3    3    0  502  0.23513210972E+02 -0.14316147880E+04  0.21707267983E+03  0.14481693033E+04  0.10100000352E+00 0.  1.
</event>
<event>
 5   0  0.3786210E-07  0.2887466E+04  0.7818609E-02  0.8276617E-01
        1   -1    0    0  501    0  0.00000000000E+00  0.00000000000E+00  0.27707112408E+04  0.27707112408E+04  0.50400001928E-02 0.  1.
       -1   -1    0    0    0  501  0.00000000000E+00  0.00000000000E+00 -0.75228509250E+03  0.75228509252E+03  0.50400001928E-02 0. -1.
    10030    2    1    2    0    0  0.00000000000E+00  0.00000000000E+00  0.20184261483E+04  0.35229963333E+04  0.28874658523E+04 0.  0.
        5    1    3    3  502    0 -0.66266615144E+03  0.85686859726E+03  0.21737485503E+04  0.24286941082E+04  0.46999998093E+01 0.  1.
       -5    1    3    3    0  502  0.66266615144E+03 -0.85686859726E+03 -0.15532240205E+03  0.10943022251E+04  0.46999998093E+01 0. -1.
</event>
<event>
 5   0  0.3638028E-07  0.2901668E+04  0.7818609E-02  0.8272381E-01
        1   -1    0    0  501    0  0.00000000000E+00  0.00000000000E+00  0.13683632499E+04  0.13683632499E+04  0.50400001928E-02 0. -1.
       -1   -1    0    0    0  501  0.00000000000E+00  0.00000000000E+00 -0.15382756309E+04  0.15382756309E+04  0.50400001928E-02 0.  1.
    10030    2    1    2    0    0  0.00000000000E+00  0.00000000000E+00 -0.16991238106E+03  0.29066388808E+04  0.29016683763E+04 0.  0.
        4    1    3    3  502    0  0.89247313852E+02 -0.14449897866E+04 -0.17976324241E+03  0.14588615434E+04  0.12699999809E+01 0. -1.
       -4    1    3    3    0  502 -0.89247313852E+02  0.14449897866E+04  0.98508613495E+01  0.14477773375E+04  0.12699999809E+01 0.  1.
</event>
<event>
 5   0  0.1006893E-06  0.2897629E+04  0.7818609E-02  0.8273583E-01
       -2   -1    0    0    0  501  0.00000000000E+00  0.00000000000E+00  0.12976177402E+04  0.12976177402E+04  0.25500000920E-02 0.  1.
        2   -1    0    0  501    0  0.00000000000E+00  0.00000000000E+00 -0.16176289197E+04  0.16176289197E+04  0.25500000920E-02 0. -1.
    10030    2    1    2    0    0  0.00000000000E+00  0.00000000000E+00 -0.32001117943E+03  0.29152466599E+04  0.28976293643E+04 0.  0.
        4    1    3    3  502    0 -0.10685083230E+04 -0.58067561520E+03  0.63228994161E+03  0.13706518119E+04  0.12699999809E+01 0.  1.
       -4    1    3    3    0  502  0.10685083230E+04  0.58067561520E+03 -0.95230112105E+03  0.15445948480E+04  0.12699999809E+01 0. -1.
</event>
<event>
 5   0  0.1063979E-06  0.2897872E+04  0.7818609E-02  0.8273511E-01
       -2   -1    0    0    0  501  0.00000000000E+00  0.00000000000E+00  0.14487395992E+04  0.14487395992E+04  0.25500000920E-02 0. -1.
        2   -1    0    0  501    0  0.00000000000E+00  0.00000000000E+00 -0.14491324551E+04  0.14491324551E+04  0.25500000920E-02 0.  1.
    10030    2    1    2    0    0  0.00000000000E+00  0.00000000000E+00 -0.39285595579E+00  0.28978720543E+04  0.28978720277E+04 0.  0.
        1    1    3    3  502    0 -0.73903976487E+03 -0.78639428918E+03  0.96666438787E+03  0.14488049527E+04  0.50400001928E-02 0. -1.
       -1    1    3    3    0  502  0.73903976487E+03  0.78639428918E+03 -0.96705724382E+03  0.14490671016E+04  0.50400001928E-02 0.  1.
</event>
<event>
 5   0  0.3885904E-07  0.2940892E+04  0.7818609E-02  0.8260814E-01
        1   -1    0    0  501    0  0.00000000000E+00  0.00000000000E+00  0.16566663290E+04  0.16566663290E+04  0.50400001928E-02 0. -1.
       -1   -1    0    0    0  501  0.00000000000E+00  0.00000000000E+00 -0.13051577175E+04  0.13051577175E+04  0.50400001928E-02 0.  1.
    10030    2    1    2    0    0  0.00000000000E+00  0.00000000000E+00  0.35150861147E+03  0.29618240465E+04  0.29408915958E+04 0.  0.
        2    1    3    3  502    0 -0.87206008001E+03 -0.11401503860E+04  0.49705352252E+03  0.15190437420E+04  0.25500000920E-02 0.  1.
       -2    1    3    3    0  502  0.87206008001E+03  0.11401503860E+04 -0.14554491104E+03  0.14427803045E+04  0.25500000920E-02 0. -1.
</event>
<event>
 5   0  0.9994311E-07  0.2901896E+04  0.7818609E-02  0.8272314E-01
        2   -1    0    0  501    0  0.00000000000E+00  0.00000000000E+00  0.22566212984E+04  0.22566212984E+04  0.25500000920E-02 0.  1.
       -2   -1    0    0    0  501  0.00000000000E+00  0.00000000000E+00 -0.93292148791E+03  0.93292148792E+03  0.25500000920E-02 0. -1.
    10030    2    1    2    0    0  0.00000000000E+00  0.00000000000E+00  0.13236998104E+04  0.31895427863E+04  0.29018962761E+04 0.  0.
        2    1    3    3  502    0  0.91894537915E+03  0.11187689902E+04  0.55673646479E+03  0.15511480118E+04  0.25500000920E-02 0.  1.
       -2    1    3    3    0  502 -0.91894537915E+03 -0.11187689902E+04  0.76696334566E+03  0.16383947745E+04  0.25500000920E-02 0. -1.
</event>
<event>
 5   0  0.1063979E-06  0.2943424E+04  0.7818609E-02  0.8260074E-01
       -2   -1    0    0    0  501  0.00000000000E+00  0.00000000000E+00  0.90613009098E+03  0.90613009098E+03  0.25500000920E-02 0.  1.
        2   -1    0    0  501    0  0.00000000000E+00  0.00000000000E+00 -0.23903150626E+04  0.23903150626E+04  0.25500000920E-02 0. -1.
    10030    2    1    2    0    0  0.00000000000E+00  0.00000000000E+00 -0.14841849716E+04  0.32964451535E+04  0.29434241319E+04 0.  0.
        1    1    3    3  502    0 -0.20530356074E+02  0.13447212254E+04 -0.72712246084E+02  0.13468421364E+04  0.50400001928E-02 0.  1.
       -1    1    3    3    0  502  0.20530356074E+02 -0.13447212254E+04 -0.14114727255E+04  0.19496030171E+04  0.50400001928E-02 0. -1.
</event>
<event>
 5   0  0.9950999E-07  0.2892465E+04  0.7818609E-02  0.8275123E-01
       -2   -1    0    0    0  501  0.00000000000E+00  0.00000000000E+00  0.11317114778E+04  0.11317114778E+04  0.25500000920E-02 0.  1.
        2   -1    0    0  501    0  0.00000000000E+00  0.00000000000E+00 -0.18481646351E+04  0.18481646351E+04  0.25500000920E-02 0. -1.
    10030    2    1    2    0    0  0.00000000000E+00  0.00000000000E+00 -0.71645315733E+03  0.29798761129E+04  0.28924654746E+04 0.  0.
        3    1    3    3  502    0  0.27920536898E+03 -0.69802657214E+03  0.91458207883E+03  0.11839160116E+04  0.10100000352E+00 0.  1.
       -3    1    3    3    0  502 -0.27920536898E+03  0.69802657214E+03 -0.16310352362E+04  0.17959601013E+04  0.10100000352E+00 0. -1.
</event>
<event>
 5   0  0.9994311E-07  0.2906531E+04  0.7818609E-02  0.8270937E-01
       -2   -1    0    0    0  501  0.00000000000E+00  0.00000000000E+00  0.79624377027E+03  0.79624377028E+03  0.25500000920E-02 0.  1.
        2   -1    0    0  501    0  0.00000000000E+00  0.00000000000E+00 -0.26524296326E+04  0.26524296326E+04  0.25500000920E-02 0. -1.
    10030    2    1    2    0    0  0.00000000000E+00  0.00000000000E+00 -0.18561858624E+04  0.34486734029E+04  0.29065309708E+04 0.  0.
        2    1    3    3  502    0 -0.86564975180E+03 -0.58438319878E+03 -0.21270870920E+04  0.23696735456E+04  0.25500000920E-02 0.  1.
       -2    1    3    3    0  502  0.86564975180E+03  0.58438319878E+03  0.27090122965E+03  0.10789998573E+04  0.25500000920E-02 0. -1.
</event>
<event>
 5   0  0.3786210E-07  0.2905781E+04  0.7818609E-02  0.8271160E-01
        1   -1    0    0  501    0  0.00000000000E+00  0.00000000000E+00  0.12224921660E+04  0.12224921660E+04  0.50400001928E-02 0.  1.
       -1   -1    0    0    0  501  0.00000000000E+00  0.00000000000E+00 -0.17267110657E+04  0.17267110658E+04  0.50400001928E-02 0. -1.
    10030    2    1    2    0    0  0.00000000000E+00  0.00000000000E+00 -0.50421889977E+03  0.29492032317E+04  0.29057809627E+04 0.  0.
        5    1    3    3  502    0 -0.52246958354E+03 -0.35424199964E+02  0.11233689223E+04  0.12394390526E+04  0.46999998093E+01 0.  1.
       -5    1    3    3    0  502  0.52246958354E+03  0.35424199964E+02 -0.16275878221E+04  0.17097641791E+04  0.46999998093E+01 0. -1.
</event>
<event>
 5   0  0.1006893E-06  0.2866058E+04  0.7818609E-02  0.8283049E-01
       -2   -1    0    0    0  501  0.00000000000E+00  0.00000000000E+00  0.17781914140E+04  0.17781914140E+04  0.25500000920E-02 0.  1.
        2   -1    0    0  501    0  0.00000000000E+00  0.00000000000E+00 -0.11548653500E+04  0.11548653500E+04  0.25500000920E-02 0. -1.
    10030    2    1    2    0    0  0.00000000000E+00  0.00000000000E+00  0.62332606395E+03  0.29330567640E+04  0.28660576754E+04 0.  0.
        4    1    3    3  502    0 -0.20582674352E+03  0.49988091585E+03 -0.10465103830E+04  0.11778926831E+04  0.12699999809E+01 0. -1.
       -4    1    3    3    0  502  0.20582674352E+03 -0.49988091585E+03  0.16698364469E+04  0.17551640809E+04  0.12699999809E+01 0.  1.
</event>
<event>
 5   0  0.3769563E-07  0.2899651E+04  0.7818609E-02  0.8272981E-01
       -1   -1    0    0    0  501  0.00000000000E+00  0.00000000000E+00  0.10295515961E+04  0.10295515961E+04  0.50400001928E-02 0.  1.
        1   -1    0    0  501    0  0.00000000000E+00  0.00000000000E+00 -0.20416591249E+04  0.20416591249E+04  0.50400001928E-02 0. -1.
    10030    2    1    2    0    0  0.00000000000E+00  0.00000000000E+00 -0.10121075288E+04  0.30712107209E+04  0.28996506070E+04 0.  0.
        3    1    3    3  502    0 -0.63565194177E+03 -0.10250645049E+04 -0.13581279686E+04  0.18164036500E+04  0.10100000352E+00 0. -1.
       -3    1    3    3    0  502  0.63565194177E+03  0.10250645049E+04  0.34602043981E+03  0.12548070710E+04  0.10100000352E+00 0.  1.
</event>
<event>
 5   0  0.3770467E-07  0.2905852E+04  0.7818609E-02  0.8271138E-01
       -1   -1    0    0    0  501  0.00000000000E+00  0.00000000000E+00  0.11588278045E+04  0.11588278045E+04  0.50400001928E-02 0. -1.
        1   -1    0    0  501    0  0.00000000000E+00  0.00000000000E+00 -0.18216633427E+04  0.18216633427E+04  0.50400001928E-02 0.  1.
    10030    2    1    2    0    0  0.00000000000E+00  0.00000000000E+00 -0.66283553820E+03  0.29804911471E+04  0.29058521173E+04 0.  0.
        1    1    3    3  502    0 -0.10340639334E+04  0.22717125746E+03  0.68917777453E+03  0.12632739226E+04  0.50400001928E-02 0. -1.
       -1    1    3    3    0  502  0.10340639334E+04 -0.22717125746E+03 -0.13520133127E+04  0.17172172246E+04  0.50400001928E-02 0.  1.
</event>
<event>
 5   0  0.9950999E-07  0.2897682E+04  0.7818609E-02  0.8273567E-01
       -2   -1    0    0    0  501  0.00000000000E+00  0.00000000000E+00  0.91458204838E+03  0.91458204838E+03  0.25500000920E-02 0.  1.
        2   -1    0    0  501    0  0.00000000000E+00  0.00000000000E+00 -0.22951910111E+04  0.22951910111E+04  0.25500000920E-02 0. -1.
    10030    2    1    2    0    0  0.00000000000E+00  0.00000000000E+00 -0.13806089627E+04  0.32097730594E+04  0.28976821747E+04 0.  0.
        3    1    3    3  502    0  0.66761024273E+03 -0.21221054349E+03  0.71451692040E+03  0.10006353935E+04  0.10100000352E+00 0.  1.
       -3    1    3    3    0  502 -0.66761024273E+03  0.21221054349E+03 -0.20951258831E+04  0.22091376660E+04  0.10100000352E+00 0. -1.
</event>
<event>
 5   0  0.3378750E-07  0.2906490E+04  0.7818609E-02  0.8270949E-01
        3   -1    0    0  501    0  0.00000000000E+00  0.00000000000E+00  0.12788771824E+04  0.12788771864E+04  0.10100000352E+00 0. -1.
       -3   -1    0    0    0  501  0.00000000000E+00  0.00000000000E+00 -0.16513868179E+04  0.16513868210E+04  0.10100000352E+00 0.  1.
    10030    2    1    2    0    0  0.00000000000E+00  0.00000000000E+00 -0.37250963543E+03  0.29302640074E+04  0.29064899320E+04 0.  0.
        1    1    3    3  502    0  0.52307711761E+03  0.13373318761E+04 -0.41136287461E+03  0.14937488519E+04  0.50400001928E-02 0. -1.
       -1    1    3    3    0  502 -0.52307711761E+03 -0.13373318761E+04  0.38853239180E+02  0.14365151555E+04  0.50400001928E-02 0.  1.
</event>
<event>
 5   0  0.3769563E-07  0.2898545E+04  0.7818609E-02  0.8273310E-01
        1   -1    0    0  501    0  0.00000000000E+00  0.00000000000E+00  0.18992571582E+04  0.18992571582E+04  0.50400001928E-02 0. -1.
       -1   -1    0    0    0  501  0.00000000000E+00  0.00000000000E+00 -0.11059014990E+04  0.11059014990E+04  0.50400001928E-02 0.  1.
    10030    2    1    2    0    0  0.00000000000E+00  0.00000000000E+00  0.79335565923E+03  0.30051586572E+04  0.28985453856E+04 0.  0.
        3    1    3    3  502    0  0.94109517083E+03  0.10800923987E+04  0.62413651737E+03  0.15626279509E+04  0.10100000352E+00 0. -1.
       -3    1    3    3    0  502 -0.94109517083E+03 -0.10800923987E+04  0.16921914187E+03  0.14425307063E+04  0.10100000352E+00 0.  1.
</event>
<event>
 5   0  0.3638028E-07  0.2896000E+04  0.7818609E-02  0.8274069E-01
        1   -1    0    0  501    0  0.00000000000E+00  0.00000000000E+00  0.13114484043E+04  0.13114484043E+04  0.50400001928E-02 0. -1.
       -1   -1    0    0    0  501  0.00000000000E+00  0.00000000000E+00 -0.15987696758E+04  0.15987696759E+04  0.50400001928E-02 0.  1.
    10030    2    1    2    0    0  0.00000000000E+00  0.00000000000E+00 -0.28732127159E+03  0.29102180801E+04  0.28959999587E+04 0.  0.
        4    1    3    3  502    0 -0.17689597689E+03  0.27921645206E+03  0.12730296132E+04  0.13152414313E+04  0.12699999809E+01 0. -1.
       -4    1    3    3    0  502  0.17689597689E+03 -0.27921645206E+03 -0.15603508848E+04  0.15949766488E+04  0.12699999809E+01 0.  1.
</event>
<event>
 5   0  0.3786210E-07  0.2898246E+04  0.7818609E-02  0.8273399E-01
       -1   -1    0    0    0  501  0.00000000000E+00  0.00000000000E+00  0.96965982391E+03  0.96965982392E+03  0.50400001928E-02 0.  1.
        1   -1    0    0  501    0  0.00000000000E+00  0.00000000000E+00 -0.21656644676E+04  0.21656644676E+04  0.50400001928E-02 0. -1.
    10030    2    1    2    0    0  0.00000000000E+00  0.00000000000E+00 -0.11960046437E+04  0.31353242915E+04  0.28982462465E+04 0.  0.
        5    1    3    3  502    0  0.10730703481E+04  0.61075261619E+03 -0.14186298456E+04  0.18806997259E+04  0.46999998093E+01 0. -1.
       -5    1    3    3    0  502 -0.10730703481E+04 -0.61075261619E+03  0.22262520191E+03  0.12546245656E+04  0.46999998093E+01 0.  1.
</event>
<event>
 5   0  0.3638028E-07  0.2908791E+04  0.7818609E-02  0.8270267E-01
        1   -1    0    0  501    0  0.00000000000E+00  0.00000000000E+00  0.15126520887E+04  0.15126520887E+04  0.50400001928E-02 0.  1.
       -1   -1    0    0    0  501  0.00000000000E+00  0.00000000000E+00 -0.13983826217E+04  0.13983826217E+04  0.50400001928E-02 0. -1.
    10030    2    1    2    0    0  0.00000000000E+00  0.00000000000E+00  0.11426946698E+03  0.29110347104E+04  0.29087910847E+04 0.  0.
        4    1    3    3  502    0  0.25215897704E+03  0.11224525081E+04 -0.83337237561E+03  0.14205614777E+04  0.12699999809E+01 0. -1.
       -4    1    3    3    0  502 -0.25215897704E+03 -0.11224525081E+04  0.94764184259E+03  0.14904732327E+04  0.12699999809E+01 0.  1.
</event>
<event>
 5   0  0.9950999E-07  0.2897771E+04  0.7818609E-02  0.8273541E-01
        2   -1    0    0  501    0  0.00000000000E+00  0.00000000000E+00  0.24188616204E+04  0.24188616205E+04  0.25500000920E-02 0. -1.
       -2   -1    0    0    0  501  0.00000000000E+00  0.00000000000E+00 -0.86787512241E+03  0.86787512241E+03  0.25500000920E-02 0.  1.
    10030    2    1    2    0    0  0.00000000000E+00  0.00000000000E+00  0.15509864980E+04  0.32867367429E+04  0.28977714368E+04 0.  0.
        3    1    3    3  502    0  0.37944240753E+03  0.29682113432E+03 -0.77437615795E+03  0.91199658476E+03  0.10100000352E+00 0.  1.
       -3    1    3    3    0  502 -0.37944240753E+03 -0.29682113432E+03  0.23253626560E+04  0.23747401581E+04  0.10100000352E+00 0. -1.
</event>
<event>
 5   0  0.3770467E-07  0.2898667E+04  0.7818609E-02  0.8273274E-01
       -1   -1    0    0    0  501  0.00000000000E+00  0.00000000000E+00  0.15235567672E+04  0.15235567672E+04  0.50400001928E-02 0.  1.
        1   -1    0    0  501    0  0.00000000000E+00  0.00000000000E+00 -0.13787261473E+04  0.13787261473E+04  0.50400001928E-02 0. -1.
    10030    2    1    2    0    0  0.00000000000E+00  0.00000000000E+00  0.14483061993E+03  0.29022829145E+04  0.28986669707E+04 0.  0.
        1    1    3    3  502    0 -0.45790528507E+03 -0.12946732405E+04  0.53636306572E+03  0.14742935217E+04  0.50400001928E-02 0.  1.
       -1    1    3    3    0  502  0.45790528507E+03  0.12946732405E+04 -0.39153244579E+03  0.14279893928E+04  0.50400001928E-02 0. -1.
</event>
<event>
 5   0  0.9950999E-07  0.2903761E+04  0.7818609E-02  0.8271759E-01
       -2   -1    0    0    0  501  0.00000000000E+00  0.00000000000E+00  0.11394087147E+04  0.11394087147E+04  0.25500000920E-02 0. -1.
        2   -1    0    0  501    0  0.00000000000E+00  0.00000000000E+00 -0.18500447418E+04  0.18500447418E+04  0.25500000920E-02 0.  1.
    10030    2    1    2    0    0  0.00000000000E+00  0.00000000000E+00 -0.71063602714E+03  0.29894534565E+04  0.29037610792E+04 0.  0.
        3    1    3    3  502    0  0.53182284034E+02  0.38481697860E+02  0.11378801301E+04  0.11397720812E+04  0.10100000352E+00 0. -1.
       -3    1    3    3    0  502 -0.53182284034E+02 -0.38481697860E+02 -0.18485161572E+04  0.18496813753E+04  0.10100000352E+00 0.  1.
</event>
<event>
 5   0  0.1006893E-06  0.2907663E+04  0.7818609E-02  0.8270601E-01
        2   -1    0    0  501    0  0.00000000000E+00  0.00000000000E+00  0.13560471019E+04  0.13560471019E+04  0.25500000920E-02 0. -1.
       -2   -1    0    0    0  501  0.00000000000E+00  0.00000000000E+00 -0.15586671695E+04  0.15586671695E+04  0.25500000920E-02 0.  1.
    10030    2    1    2    0    0  0.00000000000E+00  0.00000000000E+00 -0.20262006764E+03  0.29147142714E+04  0.29076630465E+04 0.  0.
        4    1    3    3  502    0 -0.12243968113E+04  0.24717523872E+03 -0.84701006922E+03  0.15091954216E+04  0.12699999809E+01 0.  1.
       -4    1    3    3    0  502  0.12243968113E+04 -0.24717523872E+03  0.64439000158E+03  0.14055188498E+04  0.12699999809E+01 0. -1.
</event>
<event>
 5   0  0.3638028E-07  0.2899774E+04  0.7818609E-02  0.8272945E-01
       -1   -1    0    0    0  501  0.00000000000E+00  0.00000000000E+00  0.20142071045E+04  0.20142071045E+04  0.50400001928E-02 0. -1.
        1   -1    0    0  501    0  0.00000000000E+00  0.00000000000E+00 -0.10436722024E+04  0.10436722024E+04  0.50400001928E-02 0.  1.
    10030    2    1    2    0    0  0.00000000000E+00  0.00000000000E+00  0.97053490206E+03  0.30578793069E+04  0.28997737601E+04 0.  0.
        4    1    3    3  502    0  0.32118868916E+03 -0.89897826055E+03  0.16360256393E+04  0.18941767585E+04  0.12699999809E+01 0. -1.
       -4    1    3    3    0  502 -0.32118868916E+03  0.89897826055E+03 -0.66549073725E+03  0.11637025484E+04  0.12699999809E+01 0.  1.
</event>
<event>
 5   0  0.3770467E-07  0.2951310E+04  0.7818609E-02  0.8257773E-01
        1   -1    0    0  501    0  0.00000000000E+00  0.00000000000E+00  0.15108238536E+04  0.15108238536E+04  0.50400001928E-02 0.  1.
       -1   -1    0    0    0  501  0.00000000000E+00  0.00000000000E+00 -0.14413044217E+04  0.14413044217E+04  0.50400001928E-02 0. -1.
    10030    2    1    2    0    0  0.00000000000E+00  0.00000000000E+00  0.69519431872E+02  0.29521282753E+04  0.29513096080E+04 0.  0.
        1    1    3    3  502    0 -0.49111721990E+03  0.11941469453E+04  0.74936256764E+03  0.14928922629E+04  0.50400001928E-02 0.  1.
       -1    1    3    3    0  502  0.49111721990E+03 -0.11941469453E+04 -0.67984313577E+03  0.14592360124E+04  0.50400001928E-02 0. -1.
</event>
<event>
 5   0  0.9994311E-07  0.2898721E+04  0.7818609E-02  0.8273258E-01
        2   -1    0    0  501    0  0.00000000000E+00  0.00000000000E+00  0.98624151366E+03  0.98624151366E+03  0.25500000920E-02 0. -1.
       -2   -1    0    0    0  501  0.00000000000E+00  0.00000000000E+00 -0.21299510155E+04  0.21299510155E+04  0.25500000920E-02 0.  1.
    10030    2    1    2    0    0  0.00000000000E+00  0.00000000000E+00 -0.11437095019E+04  0.31161925292E+04  0.28987211757E+04 0.  0.
        2    1    3    3  502    0 -0.62531599927E+03 -0.12754803104E+04 -0.26256178955E+03  0.14445791133E+04  0.25500000920E-02 0. -1.
       -2    1    3    3    0  502  0.62531599927E+03  0.12754803104E+04 -0.88114771231E+03  0.16716134159E+04  0.25500000920E-02 0.  1.
</event>
<event>
 5   0  0.9950999E-07  0.2895502E+04  0.7818609E-02  0.8274217E-01
       -2   -1    0    0    0  501  0.00000000000E+00  0.00000000000E+00  0.14594851626E+04  0.14594851626E+04  0.25500000920E-02 0.  1.
        2   -1    0    0  501    0  0.00000000000E+00  0.00000000000E+00 -0.14361111528E+04  0.14361111528E+04  0.25500000920E-02 0. -1.
    10030    2    1    2    0    0  0.00000000000E+00  0.00000000000E+00  0.23374009731E+02  0.28955963154E+04  0.28955019733E+04 0.  0.
        3    1    3    3  502    0  0.12017321872E+04  0.18865297928E+03  0.79671749466E+03  0.14541351288E+04  0.10100000352E+00 0.  1.
       -3    1    3    3    0  502 -0.12017321872E+04 -0.18865297928E+03 -0.77334348493E+03  0.14414611865E+04  0.10100000352E+00 0. -1.
</event>
<event>
 5   0  0.3638028E-07  0.2899260E+04  0.7818609E-02  0.8273098E-01
        1   -1    0    0  501    0  0.00000000000E+00  0.00000000000E+00  0.13673706941E+04  0.13673706941E+04  0.50400001928E-02 0.  1.
       -1   -1    0    0    0  501  0.00000000000E+00  0.00000000000E+00 -0.15368377495E+04  0.15368377495E+04  0.50400001928E-02 0. -1.
    10030    2    1    2    0    0  0.00000000000E+00  0.00000000000E+00 -0.16946705540E+03  0.29042084436E+04  0.28992598368E+04 0.  0.
        4    1    3    3  502    0 -0.71247847892E+03  0.11261610452E+04  0.48681990119E+03  0.14187528015E+04  0.12699999809E+01 0.  1.
       -4    1    3    3    0  502  0.71247847892E+03 -0.11261610452E+04 -0.65628695659E+03  0.14854556422E+04  0.12699999809E+01 0. -1.
</event>
<event>
 5   0  0.3885904E-07  0.2899814E+04  0.7818609E-02  0.8272933E-01
       -1   -1    0    0    0  501  0.00000000000E+00  0.00000000000E+00  0.14437961199E+04  0.14437961199E+04  0.50400001928E-02 0.  1.
        1   -1    0    0  501    0  0.00000000000E+00  0.00000000000E+00 -0.14560437762E+04  0.14560437762E+04  0.50400001928E-02 0. -1.
    10030    2    1    2    0    0  0.00000000000E+00  0.00000000000E+00 -0.12247656364E+02  0.28998398961E+04  0.28998140316E+04 0.  0.
        2    1    3    3  502    0 -0.46433224656E+03  0.21091427718E+03  0.13511432600E+04  0.14441874451E+04  0.25500000920E-02 0.  1.
       -2    1    3    3    0  502  0.46433224656E+03 -0.21091427718E+03 -0.13633909163E+04  0.14556524510E+04  0.25500000920E-02 0. -1.
</event>
<event>
 5   0  0.3770467E-07  0.2910826E+04  0.7818609E-02  0.8269664E-01
       -1   -1    0    0    0  501  0.00000000000E+00  0.00000000000E+00  0.19817147902E+04  0.19817147902E+04  0.50400001928E-02 0. -1.
        1   -1    0    0  501    0  0.00000000000E+00  0.00000000000E+00 -0.10688856254E+04  0.10688856254E+04  0.50400001928E-02 0.  1.
    10030    2    1    2    0    0  0.00000000000E+00  0.00000000000E+00  0.91282916481E+03  0.30506004157E+04  0.29108256238E+04 0.  0.
        1    1    3    3  502    0 -0.47301536913E+03 -0.72495604952E+03 -0.76977728164E+03  0.11583876193E+04  0.50400001928E-02 0.  1.
       -1    1    3    3    0  502  0.47301536913E+03  0.72495604952E+03  0.16826064464E+04  0.18922127964E+04  0.50400001928E-02 0. -1.
</event>
<event>
 5   0  0.9994311E-07  0.2903008E+04  0.7818609E-02  0.8271983E-01
       -2   -1    0    0    0  501  0.00000000000E+00  0.00000000000E+00  0.15236577739E+04  0.15236577739E+04  0.25500000920E-02 0. -1.
        2   -1    0    0  501    0  0.00000000000E+00  0.00000000000E+00 -0.13827667903E+04  0.13827667903E+04  0.25500000920E-02 0.  1.
    10030    2    1    2    0    0  0.00000000000E+00  0.00000000000E+00  0.14089098364E+03  0.29064245642E+04  0.29030076607E+04 0.  0.
        2    1    3    3  502    0  0.10897389579E+04 -0.95871358516E+03  0.84626724325E+02  0.14538997274E+04  0.25500000920E-02 0.  1.
       -2    1    3    3    0  502 -0.10897389579E+04  0.95871358516E+03  0.56264259311E+02  0.14525248368E+04  0.25500000920E-02 0. -1.
</event>
<event>
 5   0  0.3786210E-07  0.2900712E+04  0.7818609E-02  0.8272666E-01
        1   -1    0    0  501    0  0.00000000000E+00  0.00000000000E+00  0.12194036822E+04  0.12194036822E+04  0.50400001928E-02 0.  1.
       -1   -1    0    0    0  501  0.00000000000E+00  0.00000000000E+00 -0.17250504201E+04  0.17250504201E+04  0.50400001928E-02 0. -1.
    10030    2    1    2    0    0  0.00000000000E+00  0.00000000000E+00 -0.50564673785E+03  0.29444541023E+04  0.29007122120E+04 0.  0.
        5    1    3    3  502    0  0.64993886428E+03  0.92478332723E+03  0.66965234869E+03  0.13138116637E+04  0.46999998093E+01 0.  1.
       -5    1    3    3    0  502 -0.64993886428E+03 -0.92478332723E+03 -0.11752990865E+04  0.16306424386E+04  0.46999998093E+01 0. -1.
</event>
<event>
 5   0  0.3769563E-07  0.2904315E+04  0.7818609E-02  0.8271595E-01
        1   -1    0    0  501    0  0.00000000000E+00  0.00000000000E+00  0.18143212076E+04  0.18143212077E+04  0.50400001928E-02 0. -1.
       -1   -1    0    0    0  501  0.00000000000E+00  0.00000000000E+00 -0.11622864280E+04  0.11622864280E+04  0.50400001928E-02 0.  1.
    10030    2    1    2    0    0  0.00000000000E+00  0.00000000000E+00  0.65203477969E+03  0.29766076356E+04  0.29043146631E+04 0.  0.
        3    1    3    3  502    0 -0.26493635558E+03 -0.76362977057E+03  0.15624628344E+04  0.17591508799E+04  0.10100000352E+00 0. -1.
       -3    1    3    3    0  502  0.26493635558E+03  0.76362977057E+03 -0.91042805475E+03  0.12174567557E+04  0.10100000352E+00 0.  1.
</event>
<event>
 5   0  0.9950999E-07  0.2900062E+04  0.7818609E-02  0.8272859E-01
        2   -1    0    0  501    0  0.00000000000E+00  0.00000000000E+00  0.15045806274E+04  0.15045806274E+04  0.25500000920E-02 0.  1.
       -2   -1    0    0    0  501  0.00000000000E+00  0.00000000000E+00 -0.13974587751E+04  0.13974587751E+04  0.25500000920E-02 0. -1.
    10030    2    1    2    0    0  0.00000000000E+00  0.00000000000E+00  0.10712185236E+03  0.29020394025E+04  0.29000616550E+04 0.  0.
        3    1    3    3  502    0 -0.10164690366E+04 -0.10285471892E+04  0.16073563589E+03  0.14549757997E+04  0.10100000352E+00 0.  1.
       -3    1    3    3    0  502  0.10164690366E+04  0.10285471892E+04 -0.53613783525E+02  0.14470636029E+04  0.10100000352E+00 0. -1.
</event>
<event>
 5   0  0.9950999E-07  0.2899832E+04  0.7818609E-02  0.8272928E-01
        2   -1    0    0  501    0  0.00000000000E+00  0.00000000000E+00  0.10893093323E+04  0.10893093323E+04  0.25500000920E-02 0. -1.
       -2   -1    0    0    0  501  0.00000000000E+00  0.00000000000E+00 -0.19298980908E+04  0.19298980908E+04  0.25500000920E-02 0.  1.
    10030    2    1    2    0    0  0.00000000000E+00  0.00000000000E+00 -0.84058875852E+03  0.30192074231E+04  0.28998317198E+04 0.  0.
        3    1    3    3  502    0  0.11864702416E+04  0.76764797138E+03 -0.75808982792E+03  0.16036505977E+04  0.10100000352E+00 0.  1.
       -3    1    3    3    0  502 -0.11864702416E+04 -0.76764797138E+03 -0.82498930598E+02  0.14155568254E+04  0.10100000352E+00 0. -1.
</event>
<event>
 5   0  0.3770467E-07  0.2900878E+04  0.7818609E-02  0.8272616E-01
        1   -1    0    0  501    0  0.00000000000E+00  0.00000000000E+00  0.22675929903E+04  0.22675929903E+04  0.50400001928E-02 0. -1.
       -1   -1    0    0    0  501  0.00000000000E+00  0.00000000000E+00 -0.92775621305E+03  0.92775621306E+03  0.50400001928E-02 0.  1.
    10030    2    1    2    0    0  0.00000000000E+00  0.00000000000E+00  0.13398367772E+04  0.31953492034E+04  0.29008781329E+04 0.  0.
        1    1    3    3  502    0  0.40725774005E+03 -0.60019512709E+03 -0.71364277069E+03  0.10175357790E+04  0.50400001928E-02 0.  1.
       -1    1    3    3    0  502 -0.40725774005E+03  0.60019512709E+03  0.20534795479E+04  0.21778134243E+04  0.50400001928E-02 0. -1.
</event>
<event>
 5   0  0.1063979E-06  0.2887300E+04  0.7818609E-02  0.8276666E-01
        2   -1    0    0  501    0  0.00000000000E+00  0.00000000000E+00  0.14684316083E+04  0.14684316083E+04  0.25500000920E-02 0. -1.
       -2   -1    0    0    0  501  0.00000000000E+00  0.00000000000E+00 -0.14192861569E+04  0.14192861569E+04  0.25500000920E-02 0.  1.
    10030    2    1    2    0    0  0.00000000000E+00  0.00000000000E+00  0.49145451412E+02  0.28877177653E+04  0.28872995370E+04 0.  0.
        1    1    3    3  502    0 -0.92119214641E+03  0.10050999667E+04  0.49930319255E+03  0.14519382190E+04  0.50400001928E-02 0. -1.
       -1    1    3    3    0  502  0.92119214641E+03 -0.10050999667E+04 -0.45015774114E+03  0.14357795463E+04  0.50400001928E-02 0.  1.
</event>
<event>
 5   0  0.3885904E-07  0.2891756E+04  0.7818609E-02  0.8275334E-01
        1   -1    0    0  501    0  0.00000000000E+00  0.00000000000E+00  0.23759892809E+04  0.23759892809E+04  0.50400001928E-02 0. -1.
       -1   -1    0    0    0  501  0.00000000000E+00  0.00000000000E+00 -0.87987074775E+03  0.87987074776E+03  0.50400001928E-02 0.  1.
    10030    2    1    2    0    0  0.00000000000E+00  0.00000000000E+00  0.14961185331E+04  0.32558600287E+04  0.28917561898E+04 0.  0.
        2    1    3    3  502    0 -0.80787894496E+03 -0.52080944923E+02  0.20968905813E+04  0.22477390695E+04  0.25500000920E-02 0. -1.
       -2    1    3    3    0  502  0.80787894496E+03  0.52080944923E+02 -0.60077204814E+03  0.10081209592E+04  0.25500000920E-02 0.  1.
</event>
<event>
 5   0  0.3770467E-07  0.2898854E+04  0.7818609E-02  0.8273219E-01
       -1   -1    0    0    0  501  0.00000000000E+00  0.00000000000E+00  0.14123763180E+04  0.14123763180E+04  0.50400001928E-02 0. -1.
        1   -1    0    0  501    0  0.00000000000E+00  0.00000000000E+00 -0.14874493116E+04  0.14874493116E+04  0.50400001928E-02 0.  1.
    10030    2    1    2    0    0  0.00000000000E+00  0.00000000000E+00 -0.75072993585E+02  0.28998256296E+04  0.28988536921E+04 0.  0.
        1    1    3    3  502    0  0.89757807454E+03  0.58060426431E+03 -0.10166856385E+04  0.14752618070E+04  0.50400001928E-02 0. -1.
       -1    1    3    3    0  502 -0.89757807454E+03 -0.58060426431E+03  0.94161264494E+03  0.14245638226E+04  0.50400001928E-02 0.  1.
</event>
<event>
 5   0  0.3378750E-07  0.2921101E+04  0.7818609E-02  0.8266627E-01
        4   -1    0    0  501    0  0.00000000000E+00  0.00000000000E+00  0.25723305414E+04  0.25723308549E+04  0.12699999809E+01 0.  1.
       -4   -1    0    0    0  501  0.00000000000E+00  0.00000000000E+00 -0.82928922213E+03  0.82929019458E+03  0.12699999809E+01 0. -1.
    10030    2    1    2    0    0  0.00000000000E+00  0.00000000000E+00  0.17430413192E+04  0.34016210495E+04  0.29211012861E+04 0.  0.
        1    1    3    3  502    0  0.89164157700E+03 -0.66493712628E+03  0.19738300859E+04  0.22656503022E+04  0.50400001928E-02 0.  1.
       -1    1    3    3    0  502 -0.89164157700E+03  0.66493712628E+03 -0.23078876669E+03  0.11359707472E+04  0.50400001928E-02 0. -1.
</event>
<event>
 5   0  0.1063979E-06  0.2903280E+04  0.7818609E-02  0.8271902E-01
        2   -1    0    0  501    0  0.00000000000E+00  0.00000000000E+00  0.10801302772E+04  0.10801302772E+04  0.25500000920E-02 0. -1.
       -2   -1    0    0    0  501  0.00000000000E+00  0.00000000000E+00 -0.19509303296E+04  0.19509303296E+04  0.25500000920E-02 0.  1.
    10030    2    1    2    0    0  0.00000000000E+00  0.00000000000E+00 -0.87080005247E+03  0.30310606068E+04  0.29032801571E+04 0.  0.
        1    1    3    3  502    0  0.98592014210E+03 -0.82236765136E+03  0.27186106661E+03  0.13123397122E+04  0.50400001928E-02 0. -1.
       -1    1    3    3    0  502 -0.98592014210E+03  0.82236765136E+03 -0.11426611191E+04  0.17187208946E+04  0.50400001928E-02 0.  1.
</event>
<event>
 5   0  0.3638028E-07  0.2898883E+04  0.7818609E-02  0.8273210E-01
        1   -1    0    0  501    0  0.00000000000E+00  0.00000000000E+00  0.16145380156E+04  0.16145380156E+04  0.50400001928E-02 0. -1.
       -1   -1    0    0    0  501  0.00000000000E+00  0.00000000000E+00 -0.13012269081E+04  0.13012269081E+04  0.50400001928E-02 0.  1.
    10030    2    1    2    0    0  0.00000000000E+00  0.00000000000E+00  0.31331110753E+03  0.29157649237E+04  0.28988827572E+04 0.  0.
        4    1    3    3  502    0  0.34142359770E+03  0.13568194696E+04 -0.22416468810E+03  0.14169617378E+04  0.12699999809E+01 0.  1.
       -4    1    3    3    0  502 -0.34142359770E+03 -0.13568194696E+04  0.53747579563E+03  0.14988031859E+04  0.12699999809E+01 0. -1.
</event>
<event>
 5   0  0.3885904E-07  0.2895586E+04  0.7818609E-02  0.8274192E-01
        1   -1    0    0  501    0  0.00000000000E+00  0.00000000000E+00  0.28831710440E+04  0.28831710441E+04  0.50400001928E-02 0. -1.
       -1   -1    0    0    0  501  0.00000000000E+00  0.00000000000E+00 -0.72701355032E+03  0.72701355034E+03  0.50400001928E-02 0.  1.
    10030    2    1    2    0    0  0.00000000000E+00  0.00000000000E+00  0.21561574937E+04  0.36101845944E+04  0.28955858937E+04 0.  0.
        2    1    3    3  502    0 -0.12229399704E+04 -0.10517238311E+03  0.20353180026E+04  0.23767967463E+04  0.25500000920E-02 0. -1.
       -2    1    3    3    0  502  0.12229399704E+04  0.10517238311E+03  0.12083949112E+03  0.12333878481E+04  0.25500000920E-02 0.  1.
</event>
<event>
 5   0  0.9994311E-07  0.2897881E+04  0.7818609E-02  0.8273508E-01
       -2   -1    0    0    0  501  0.00000000000E+00  0.00000000000E+00  0.11218436208E+04  0.11218436208E+04  0.25500000920E-02 0. -1.
        2   -1    0    0  501    0  0.00000000000E+00  0.00000000000E+00 -0.18714097340E+04  0.18714097340E+04  0.25500000920E-02 0.  1.
    10030    2    1    2    0    0  0.00000000000E+00  0.00000000000E+00 -0.74956611324E+03  0.29932533549E+04  0.28978813447E+04 0.  0.
        2    1    3    3  502    0 -0.42807576362E+03 -0.78484640934E+02  0.10527358823E+04  0.11391494793E+04  0.25500000920E-02 0. -1.
       -2    1    3    3    0  502  0.42807576362E+03  0.78484640934E+02 -0.18023019955E+04  0.18541038756E+04  0.25500000920E-02 0.  1.
</event>
<event>
 5   0  0.3769563E-07  0.2901553E+04  0.7818609E-02  0.8272416E-01
        1   -1    0    0  501    0  0.00000000000E+00  0.00000000000E+00  0.20155987684E+04  0.20155987684E+04  0.50400001928E-02 0.  1.
       -1   -1    0    0    0  501  0.00000000000E+00  0.00000000000E+00 -0.10442318261E+04  0.10442318261E+04  0.50400001928E-02 0. -1.
    10030    2    1    2    0    0  0.00000000000E+00  0.00000000000E+00  0.97136694228E+03  0.30598305945E+04  0.29015529516E+04 0.  0.
        3    1    3    3  502    0 -0.10583073360E+04  0.84972552745E+03 -0.54822659453E+02  0.13583274361E+04  0.10100000352E+00 0.  1.
       -3    1    3    3    0  502  0.10583073360E+04 -0.84972552745E+03  0.10261896017E+04  0.17015031585E+04  0.10100000352E+00 0. -1.
</event>
<event>
 5   0  0.1031339E-06  0.2900351E+04  0.7818609E-02  0.8272773E-01
        2   -1    0    0  501    0  0.00000000000E+00  0.00000000000E+00  0.15955971630E+04  0.15955971630E+04  0.25500000920E-02 0.  1.
       -2   -1    0    0    0  501  0.00000000000E+00  0.00000000000E+00 -0.13180070268E+04  0.13180070268E+04  0.25500000920E-02 0. -1.
    10030    2    1    2    0    0  0.00000000000E+00  0.00000000000E+00  0.27759013618E+03  0.29136041897E+04  0.29003505117E+04 0.  0.
        5    1    3    3  502    0 -0.10690606212E+04  0.15808578786E+03 -0.83263184141E+03  0.13642505640E+04  0.46999998093E+01 0. -1.
       -5    1    3    3    0  502  0.10690606212E+04 -0.15808578786E+03  0.11102219776E+04  0.15493536257E+04  0.46999998093E+01 0.  1.
</event>
<event>
 5   0  0.3769563E-07  0.2900700E+04  0.7818609E-02  0.8272669E-01
        1   -1    0    0  501    0  0.00000000000E+00  0.00000000000E+00  0.16815285044E+04  0.16815285044E+04  0.50400001928E-02 0.  1.
       -1   -1    0    0    0  501  0.00000000000E+00  0.00000000000E+00 -0.12509546139E+04  0.12509546139E+04  0.50400001928E-02 0. -1.
    10030    2    1    2    0    0  0.00000000000E+00  0.00000000000E+00  0.43057389053E+03  0.29324831183E+04  0.29007004954E+04 0.  0.
        3    1    3    3  502    0  0.14393253648E+04 -0.17761112307E+03  0.19741231940E+03  0.14636170437E+04  0.10100000352E+00 0. -1.
       -3    1    3    3    0  502 -0.14393253648E+04  0.17761112307E+03  0.23316157113E+03  0.14688660746E+04  0.10100000352E+00 0.  1.
</event>
<event>
 5   0  0.9994311E-07  0.2898414E+04  0.7818609E-02  0.8273350E-01
       -2   -1    0    0    0  501  0.00000000000E+00  0.00000000000E+00  0.17977189434E+04  0.17977189434E+04  0.25500000920E-02 0.  1.
        2   -1    0    0  501    0  0.00000000000E+00  0.00000000000E+00 -0.11682583866E+04  0.11682583866E+04  0.25500000920E-02 0. -1.
    10030    2    1    2    0    0  0.00000000000E+00  0.00000000000E+00  0.62946055674E+03  0.29659773300E+04  0.28984135194E+04 0.  0.
        2    1    3    3  502    0  0.14300381258E+04 -0.87451389096E+02  0.91602928196E+02  0.14356350104E+04  0.25500000920E-02 0. -1.
       -2    1    3    3    0  502 -0.14300381258E+04  0.87451389096E+02  0.53785762854E+03  0.15303423196E+04  0.25500000920E-02 0.  1.
</event>
<event>
 5   0  0.9994311E-07  0.2898252E+04  0.7818609E-02  0.8273398E-01
        2   -1    0    0  501    0  0.00000000000E+00  0.00000000000E+00  0.16719789942E+04  0.16719789942E+04  0.25500000920E-02 0. -1.
       -2   -1    0    0    0  501  0.00000000000E+00  0.00000000000E+00 -0.12559763480E+04  0.12559763480E+04  0.25500000920E-02 0.  1.
    10030    2    1    2    0    0  0.00000000000E+00  0.00000000000E+00  0.41600264628E+03  0.29279553422E+04  0.28982519360E+04 0.  0.
        2    1    3    3  502    0 -0.52116467524E+03 -0.32432434021E+03  0.15341494016E+04  0.16523962245E+04  0.25500000920E-02 0. -1.
       -2    1    3    3    0  502  0.52116467524E+03  0.32432434021E+03 -0.11181467553E+04  0.12755591177E+04  0.25500000920E-02 0.  1.
</event>
<event>
 5   0  0.3770467E-07  0.2882022E+04  0.7818609E-02  0.8278247E-01
       -1   -1    0    0    0  501  0.00000000000E+00  0.00000000000E+00  0.11328257056E+04  0.11328257056E+04  0.50400001928E-02 0.  1.
        1   -1    0    0  501    0  0.00000000000E+00  0.00000000000E+00 -0.18330382350E+04  0.18330382350E+04  0.50400001928E-02 0. -1.
    10030    2    1    2    0    0  0.00000000000E+00  0.00000000000E+00 -0.70021252941E+03  0.29658639407E+04  0.28820220902E+04 0.  0.
        1    1    3    3  502    0 -0.66698780673E+03 -0.39520437192E+03 -0.16001255031E+04  0.17780497337E+04  0.50400001928E-02 0. -1.
       -1    1    3    3    0  502  0.66698780673E+03  0.39520437192E+03  0.89991297370E+03  0.11878142069E+04  0.50400001928E-02 0.  1.
</event>
<event>
 5   0  0.9950999E-07  0.2900469E+04  0.7818609E-02  0.8272738E-01
        2   -1    0    0  501    0  0.00000000000E+00  0.00000000000E+00  0.20527896371E+04  0.20527896371E+04  0.25500000920E-02 0.  1.
       -2   -1    0    0    0  501  0.00000000000E+00  0.00000000000E+00 -0.10245475989E+04  0.10245475989E+04  0.25500000920E-02 0. -1.
    10030    2    1    2    0    0  0.00000000000E+00  0.00000000000E+00  0.10282420382E+04  0.30773372359E+04  0.29004694059E+04 0.  0.
        3    1    3    3  502    0  0.34979140162E+03  0.18365393278E+03 -0.96635267919E+03  0.10439924820E+04  0.10100000352E+00 0. -1.
       -3    1    3    3    0  502 -0.34979140162E+03 -0.18365393278E+03  0.19945947174E+04  0.20333447540E+04  0.10100000352E+00 0.  1.
</event>
<event>
 5   0  0.9994311E-07  0.2902522E+04  0.7818609E-02  0.8272128E-01
        2   -1    0    0  501    0  0.00000000000E+00  0.00000000000E+00  0.15690361613E+04  0.15690361613E+04  0.25500000920E-02 0.  1.
       -2   -1    0    0    0  501  0.00000000000E+00  0.00000000000E+00 -0.13423259777E+04  0.13423259777E+04  0.25500000920E-02 0. -1.
    10030    2    1    2    0    0  0.00000000000E+00  0.00000000000E+00  0.22671018356E+03  0.29113621390E+04  0.29025216617E+04 0.  0.
        2    1    3    3  502    0  0.38954663248E+03  0.17893529075E+03  0.15040821814E+04  0.15639781410E+04  0.25500000920E-02 0.  1.
       -2    1    3    3    0  502 -0.38954663248E+03 -0.17893529075E+03 -0.12773719978E+04  0.13473839980E+04  0.25500000920E-02 0. -1.
</event>
<event>
 5   0  0.3769563E-07  0.2878461E+04  0.7818609E-02  0.8279315E-01
        1   -1    0    0  501    0  0.00000000000E+00  0.00000000000E+00  0.16916992901E+04  0.16916992901E+04  0.50400001928E-02 0.  1.
       -1   -1    0    0    0  501  0.00000000000E+00  0.00000000000E+00 -0.12244401780E+04  0.12244401780E+04  0.50400001928E-02 0. -1.
    10030    2    1    2    0    0  0.00000000000E+00  0.00000000000E+00  0.46725911212E+03  0.29161394681E+04  0.28784611026E+04 0.  0.
        3    1    3    3  502    0 -0.11811198747E+04 -0.48081400029E+03 -0.44230580590E+03  0.13497632005E+04  0.10100000352E+00 0. -1.
       -3    1    3    3    0  502  0.11811198747E+04  0.48081400029E+03  0.90956491802E+03  0.15663762676E+04  0.10100000352E+00 0.  1.
</event>
<event>
 5   0  0.3769563E-07  0.2899449E+04  0.7818609E-02  0.8273041E-01
        1   -1    0    0  501    0  0.00000000000E+00  0.00000000000E+00  0.18467579700E+04  0.18467579700E+04  0.50400001928E-02 0. -1.
       -1   -1    0    0    0  501  0.00000000000E+00  0.00000000000E+00 -0.11380490727E+04  0.11380490727E+04  0.50400001928E-02 0.  1.
    10030    2    1    2    0    0  0.00000000000E+00  0.00000000000E+00  0.70870889732E+03  0.29848070427E+04  0.28994490478E+04 0.  0.
        3    1    3    3  502    0 -0.79186143046E+03  0.55550989238E+02  0.16031500277E+04  0.17889160011E+04  0.10100000352E+00 0. -1.
       -3    1    3    3    0  502  0.79186143046E+03 -0.55550989238E+02 -0.89444113038E+03  0.11958910416E+04  0.10100000352E+00 0.  1.
</event>
<event>
 5   0  0.3638028E-07  0.2905980E+04  0.7818609E-02  0.8271100E-01
       -1   -1    0    0    0  501  0.00000000000E+00  0.00000000000E+00  0.13402525730E+04  0.13402525730E+04  0.50400001928E-02 0. -1.
        1   -1    0    0  501    0  0.00000000000E+00  0.00000000000E+00 -0.15752105762E+04  0.15752105762E+04  0.50400001928E-02 0.  1.
    10030    2    1    2    0    0  0.00000000000E+00  0.00000000000E+00 -0.23495800314E+03  0.29154631492E+04  0.29059800604E+04 0.  0.
        4    1    3    3  502    0 -0.55916537320E+03  0.87779057216E+03  0.89973114488E+03  0.13757543200E+04  0.12699999809E+01 0. -1.
       -4    1    3    3    0  502  0.55916537320E+03 -0.87779057216E+03 -0.11346891480E+04  0.15397088292E+04  0.12699999809E+01 0.  1.
</event>
<event>
 5   0  0.9950999E-07  0.2901301E+04  0.7818609E-02  0.8272491E-01
        2   -1    0    0  501    0  0.00000000000E+00  0.00000000000E+00  0.14323347154E+04  0.14323347154E+04  0.25500000920E-02 0.  1.
       -2   -1    0    0    0  501  0.00000000000E+00  0.00000000000E+00 -0.14692001306E+04  0.14692001306E+04  0.25500000920E-02 0. -1.
    10030    2    1    2    0    0  0.00000000000E+00  0.00000000000E+00 -0.36865415199E+02  0.29015348460E+04  0.29013006400E+04 0.  0.
        3    1    3    3  502    0  0.84415189302E+03 -0.63986863347E+03  0.97278909499E+03  0.14381734666E+04  0.10100000352E+00 0.  1.
       -3    1    3    3    0  502 -0.84415189302E+03  0.63986863347E+03 -0.10096545102E+04  0.14633613794E+04  0.10100000352E+00 0. -1.
</event>
<event>
 5   0  0.9994311E-07  0.2906430E+04  0.7818609E-02  0.8270967E-01
        2   -1    0    0  501    0  0.00000000000E+00  0.00000000000E+00  0.74959832548E+03  0.74959832549E+03  0.25500000920E-02 0. -1.
       -2   -1    0    0    0  501  0.00000000000E+00  0.00000000000E+00 -0.28172864452E+04  0.28172864452E+04  0.25500000920E-02 0.  1.
    10030    2    1    2    0    0  0.00000000000E+00  0.00000000000E+00 -0.20676881197E+04  0.35668847707E+04  0.29064295634E+04 0.  0.
        2    1    3    3  502    0  0.14818583214E+03  0.98873067239E+03 -0.23281515879E+04  0.25337397655E+04  0.25500000920E-02 0.  1.
       -2    1    3    3    0  502 -0.14818583214E+03 -0.98873067239E+03  0.26046346817E+03  0.10331450051E+04  0.25500000920E-02 0. -1.
</event>
<event>
 5   0  0.1006893E-06  0.2896851E+04  0.7818609E-02  0.8273815E-01
       -2   -1    0    0    0  501  0.00000000000E+00  0.00000000000E+00  0.10891761519E+04  0.10891761519E+04  0.25500000920E-02 0.  1.
        2   -1    0    0  501    0  0.00000000000E+00  0.00000000000E+00 -0.19261678505E+04  0.19261678505E+04  0.25500000920E-02 0. -1.
    10030    2    1    2    0    0  0.00000000000E+00  0.00000000000E+00 -0.83699169859E+03  0.30153440024E+04  0.28968507641E+04 0.  0.
        4    1    3    3  502    0  0.63878621956E+03  0.41609636997E+03  0.86344447663E+03  0.11518341897E+04  0.12699999809E+01 0.  1.
       -4    1    3    3    0  502 -0.63878621956E+03 -0.41609636997E+03 -0.17004361752E+04  0.18635098128E+04  0.12699999809E+01 0. -1.
</event>
<event>
 5   0  0.3885904E-07  0.2883861E+04  0.7818609E-02  0.8277696E-01
        1   -1    0    0  501    0  0.00000000000E+00  0.00000000000E+00  0.13526534416E+04  0.13526534416E+04  0.50400001928E-02 0. -1.
       -1   -1    0    0    0  501  0.00000000000E+00  0.00000000000E+00 -0.15371000386E+04  0.15371000386E+04  0.50400001928E-02 0.  1.
    10030    2    1    2    0    0  0.00000000000E+00  0.00000000000E+00 -0.18444659701E+03  0.28897534802E+04  0.28838610627E+04 0.  0.
        2    1    3    3  502    0 -0.86153534182E+03  0.10268259285E+04  0.44041619920E+03  0.14108795346E+04  0.25500000920E-02 0. -1.
       -2    1    3    3    0  502  0.86153534182E+03 -0.10268259285E+04 -0.62486279622E+03  0.14788739455E+04  0.25500000920E-02 0.  1.
</event>
<event>
 5   0  0.3378750E-07  0.2898649E+04  0.7818609E-02  0.8273279E-01
        3   -1    0    0  501    0  0.00000000000E+00  0.00000000000E+00  0.20367802870E+04  0.20367802895E+04  0.10100000352E+00 0. -1.
       -3   -1    0    0    0  501  0.00000000000E+00  0.00000000000E+00 -0.10313050831E+04  0.10313050881E+04  0.10100000352E+00 0.  1.
    10030    2    1    2    0    0  0.00000000000E+00  0.00000000000E+00  0.10054752039E+04  0.30680853776E+04  0.28986492542E+04 0.  0.
        5    1    3    3  502    0  0.36584101109E+03  0.12768049820E+04  0.11166854883E+04  0.17352461431E+04  0.46999998093E+01 0. -1.
       -5    1    3    3    0  502 -0.36584101109E+03 -0.12768049820E+04 -0.11121028444E+03  0.13328392345E+04  0.46999998093E+01 0.  1.
</event>
<event>
 5   0  0.1063979E-06  0.2895680E+04  0.7818609E-02  0.8274164E-01
       -2   -1    0    0    0  501  0.00000000000E+00  0.00000000000E+00  0.96768879661E+03  0.96768879661E+03  0.25500000920E-02 0. -1.
        2   -1    0    0  501    0  0.00000000000E+00  0.00000000000E+00 -0.21662341989E+04  0.21662341989E+04  0.25500000920E-02 0.  1.
    10030    2    1    2    0    0  0.00000000000E+00  0.00000000000E+00 -0.11985454023E+04  0.31339229955E+04  0.28956799306E+04 0.  0.
        1    1    3    3  502    0  0.96970917820E+03  0.40274031984E+03  0.47959075512E+03  0.11543582407E+04  0.50400001928E-02 0. -1.
       -1    1    3    3    0  502 -0.96970917820E+03 -0.40274031984E+03 -0.16781361574E+04  0.19795647548E+04  0.50400001928E-02 0.  1.
</event>
<event>
 5   0  0.9994311E-07  0.2901955E+04  0.7818609E-02  0.8272296E-01
        2   -1    0    0  501    0  0.00000000000E+00  0.00000000000E+00  0.24568629258E+04  0.24568629258E+04  0.25500000920E-02 0. -1.
       -2   -1    0    0    0  501  0.00000000000E+00  0.00000000000E+00 -0.85692031530E+03  0.85692031531E+03  0.25500000920E-02 0.  1.
    10030    2    1    2    0    0  0.00000000000E+00  0.00000000000E+00  0.15999426105E+04  0.33137832411E+04  0.29019550327E+04 0.  0.
        2    1    3    3  502    0  0.19612910035E+03  0.88536614324E+03 -0.49346800704E+03  0.10324003611E+04  0.25500000920E-02 0.  1.
       -2    1    3    3    0  502 -0.19612910035E+03 -0.88536614324E+03  0.20934106175E+04  0.22813828800E+04  0.25500000920E-02 0. -1.
</event>
<event>
 5   0  0.3770467E-07  0.2897666E+04  0.7818609E-02  0.8273572E-01
        1   -1    0    0  501    0  0.00000000000E+00  0.00000000000E+00  0.18929163280E+04  0.18929163280E+04  0.50400001928E-02 0.  1.
       -1   -1    0    0    0  501  0.00000000000E+00  0.00000000000E+00 -0.11089330089E+04  0.11089330089E+04  0.50400001928E-02 0. -1.
    10030    2    1    2    0    0  0.00000000000E+00  0.00000000000E+00  0.78398331918E+03  0.30018493369E+04  0.28976662328E+04 0.  0.
        1    1    3    3  502    0 -0.83262659123E+03  0.14119444903E+03  0.16115673201E+04  0.18194373142E+04  0.50400001928E-02 0.  1.
       -1    1    3    3    0  502  0.83262659123E+03 -0.14119444903E+03 -0.82758400096E+03  0.11824120227E+04  0.50400001928E-02 0. -1.
</event>
<event>
 5   0  0.3769563E-07  0.2888343E+04  0.7818609E-02  0.8276354E-01
       -1   -1    0    0    0  501  0.00000000000E+00  0.00000000000E+00  0.11027993619E+04  0.11027993619E+04  0.50400001928E-02 0.  1.
        1   -1    0    0  501    0  0.00000000000E+00  0.00000000000E+00 -0.18912161894E+04  0.18912161894E+04  0.50400001928E-02 0. -1.
    10030    2    1    2    0    0  0.00000000000E+00  0.00000000000E+00 -0.78841682746E+03  0.29940155513E+04  0.28883434747E+04 0.  0.
        3    1    3    3  502    0 -0.13575263001E+04 -0.48333039302E+03 -0.49334239191E+03  0.15231128159E+04  0.10100000352E+00 0.  1.
       -3    1    3    3    0  502  0.13575263001E+04  0.48333039302E+03 -0.29507443555E+03  0.14709027354E+04  0.10100000352E+00 0. -1.
</event>
<event>
 5   0  0.3638028E-07  0.2899168E+04  0.7818609E-02  0.8273125E-01
       -1   -1    0    0    0  501  0.00000000000E+00  0.00000000000E+00  0.29116707428E+04  0.29116707428E+04  0.50400001928E-02 0. -1.
        1   -1    0    0  501    0  0.00000000000E+00  0.00000000000E+00 -0.72167977686E+03  0.72167977688E+03  0.50400001928E-02 0.  1.
    10030    2    1    2    0    0  0.00000000000E+00  0.00000000000E+00  0.21899909659E+04  0.36333505197E+04  0.28991680820E+04 0.  0.
        4    1    3    3  502    0  0.65780364505E+03  0.95205209046E+03  0.87874250442E+00  0.11571997250E+04  0.12699999809E+01 0.  1.
       -4    1    3    3    0  502 -0.65780364505E+03 -0.95205209046E+03  0.21891122234E+04  0.24761507947E+04  0.12699999809E+01 0. -1.
</event>
<event>
 5   0  0.3770467E-07  0.2905120E+04  0.7818609E-02  0.8271356E-01
        1   -1    0    0  501    0  0.00000000000E+00  0.00000000000E+00  0.17779153964E+04  0.17779153964E+04  0.50400001928E-02 0. -1.
       -1   -1    0    0    0  501  0.00000000000E+00  0.00000000000E+00 -0.11867443570E+04  0.11867443570E+04  0.50400001928E-02 0.  1.
    10030    2    1    2    0    0  0.00000000000E+00  0.00000000000E+00  0.59117103939E+03  0.29646597534E+04  0.29051203513E+04 0.  0.
        1    1    3    3  502    0  0.11238509399E+04  0.74508057752E+03 -0.25561863917E+03  0.13724164422E+04  0.50400001928E-02 0.  1.
       -1    1    3    3    0  502 -0.11238509399E+04 -0.74508057752E+03  0.84678967856E+03  0.15922433112E+04  0.50400001928E-02 0. -1.
</event>
<event>
 5   0  0.9950999E-07  0.2899585E+04  0.7818609E-02  0.8273001E-01
        2   -1    0    0  501    0  0.00000000000E+00  0.00000000000E+00  0.17038636094E+04  0.17038636094E+04  0.25500000920E-02 0.  1.
       -2   -1    0    0    0  501  0.00000000000E+00  0.00000000000E+00 -0.12336071584E+04  0.12336071584E+04  0.25500000920E-02 0. -1.
    10030    2    1    2    0    0  0.00000000000E+00  0.00000000000E+00  0.47025645104E+03  0.29374707678E+04  0.28995850362E+04 0.  0.
        3    1    3    3  502    0 -0.53417586347E+03  0.10350678390E+04 -0.63939417079E+03  0.13287340593E+04  0.10100000352E+00 0.  1.
       -3    1    3    3    0  502  0.53417586347E+03 -0.10350678390E+04  0.11096506218E+04  0.16087367085E+04  0.10100000352E+00 0. -1.
</event>
<event>
 5   0  0.3885904E-07  0.2895207E+04  0.7818609E-02  0.8274305E-01
        1   -1    0    0  501    0  0.00000000000E+00  0.00000000000E+00  0.10519124079E+04  0.10519124079E+04  0.50400001928E-02 0. -1.
       -1   -1    0    0    0  501  0.00000000000E+00  0.00000000000E+00 -0.19921395713E+04  0.19921395713E+04  0.50400001928E-02 0.  1.
    10030    2    1    2    0    0  0.00000000000E+00  0.00000000000E+00 -0.94022716339E+03  0.30440519792E+04  0.28952073040E+04 0.  0.
        2    1    3    3  502    0  0.76093436116E+03  0.85435556090E+03 -0.14026217156E+04  0.18100530941E+04  0.25500000920E-02 0.  1.
       -2    1    3    3    0  502 -0.76093436116E+03 -0.85435556090E+03  0.46239455220E+03  0.12339988851E+04  0.25500000920E-02 0. -1.
</event>
<event>
 5   0  0.1063979E-06  0.2921455E+04  0.7818609E-02  0.8266522E-01
        2   -1    0    0  501    0  0.00000000000E+00  0.00000000000E+00  0.20970107531E+04  0.20970107531E+04  0.25500000920E-02 0. -1.
       -2   -1    0    0    0  501  0.00000000000E+00  0.00000000000E+00 -0.10175079668E+04  0.10175079668E+04  0.25500000920E-02 0.  1.
    10030    2    1    2    0    0  0.00000000000E+00  0.00000000000E+00  0.10795027863E+04  0.31145187198E+04  0.29214552180E+04 0.  0.
        1    1    3    3  502    0 -0.67914737519E+03 -0.10566274589E+04 -0.25519502602E+03  0.12817282260E+04  0.50400001928E-02 0.  1.
       -1    1    3    3    0  502  0.67914737519E+03  0.10566274589E+04  0.13346978123E+04  0.18327904938E+04  0.50400001928E-02 0. -1.
</event>
<event>
 5   0  0.3885904E-07  0.2900676E+04  0.7818609E-02  0.8272677E-01
        1   -1    0    0  501    0  0.00000000000E+00  0.00000000000E+00  0.15711540799E+04  0.15711540799E+04  0.50400001928E-02 0. -1.
       -1   -1    0    0    0  501  0.00000000000E+00  0.00000000000E+00 -0.13388118386E+04  0.13388118386E+04  0.50400001928E-02 0.  1.
    10030    2    1    2    0    0  0.00000000000E+00  0.00000000000E+00  0.23234224129E+03  0.29099659184E+04  0.29006755643E+04 0.  0.
        2    1    3    3  502    0 -0.11434060456E+04 -0.87566141347E+03 -0.55606341516E+02  0.14412676231E+04  0.25500000920E-02 0.  1.
       -2    1    3    3    0  502  0.11434060456E+04  0.87566141347E+03  0.28794858281E+03  0.14686982953E+04  0.25500000920E-02 0. -1.
</event>
<event>
 5   0  0.3769563E-07  0.2898796E+04  0.7818609E-02  0.8273236E-01
       -1   -1    0    0    0  501  0.00000000000E+00  0.00000000000E+00  0.90659880640E+03  0.90659880642E+03  0.50400001928E-02 0. -1.
        1   -1    0    0  501    0  0.00000000000E+00  0.00000000000E+00 -0.23171827130E+04  0.23171827130E+04  0.50400001928E-02 0.  1.
    10030    2    1    2    0    0  0.00000000000E+00  0.00000000000E+00 -0.14105839066E+04  0.32237815194E+04  0.28987963584E+04 0.  0.
        3    1    3    3  502    0 -0.81727092191E+03  0.29431000545E+03 -0.19956299406E+04  0.21764854719E+04  0.10100000352E+00 0.  1.
       -3    1    3    3    0  502  0.81727092191E+03 -0.29431000545E+03  0.58504603403E+03  0.10472960476E+04  0.10100000352E+00 0. -1.
</event>
<event>
 5   0  0.1006893E-06  0.2896799E+04  0.7818609E-02  0.8273831E-01
        2   -1    0    0  501    0  0.00000000000E+00  0.00000000000E+00  0.17872634073E+04  0.17872634073E+04  0.25500000920E-02 0. -1.
       -2   -1    0    0    0  501  0.00000000000E+00  0.00000000000E+00 -0.11737838324E+04  0.11737838324E+04  0.25500000920E-02 0.  1.
    10030    2    1    2    0    0  0.00000000000E+00  0.00000000000E+00  0.61347957482E+03  0.29610472397E+04  0.28967988482E+04 0.  0.
        4    1    3    3  502    0 -0.13909121237E+04 -0.98972315431E+02  0.70712516678E+03  0.15634767889E+04  0.12699999809E+01 0. -1.
       -4    1    3    3    0  502  0.13909121237E+04  0.98972315431E+02 -0.93645591951E+02  0.13975704508E+04  0.12699999809E+01 0.  1.
</event>
<event>
 5   0  0.3638028E-07  0.2902512E+04  0.7818609E-02  0.8272131E-01
       -1   -1    0    0    0  501  0.00000000000E+00  0.00000000000E+00  0.11140932313E+04  0.11140932313E+04  0.50400001928E-02 0. -1.
        1   -1    0    0  501    0  0.00000000000E+00  0.00000000000E+00 -0.18904554295E+04  0.18904554295E+04  0.50400001928E-02 0.  1.
    10030    2    1    2    0    0  0.00000000000E+00  0.00000000000E+00 -0.77636219815E+03  0.30045486608E+04  0.29025117386E+04 0.  0.
        4    1    3    3  502    0 -0.12557945235E+04 -0.24149287416E+03  0.32209140484E+03  0.13187430301E+04  0.12699999809E+01 0. -1.
       -4    1    3    3    0  502  0.12557945235E+04  0.24149287416E+03 -0.10984536030E+04  0.16858056307E+04  0.12699999809E+01 0.  1.
</event>
<event>
 5   0  0.9994311E-07  0.2903157E+04  0.7818609E-02  0.8271939E-01
        2   -1    0    0  501    0  0.00000000000E+00  0.00000000000E+00  0.21998510462E+04  0.21998510462E+04  0.25500000920E-02 0. -1.
       -2   -1    0    0    0  501  0.00000000000E+00  0.00000000000E+00 -0.95782876213E+03  0.95782876214E+03  0.25500000920E-02 0.  1.
    10030    2    1    2    0    0  0.00000000000E+00  0.00000000000E+00  0.12420222841E+04  0.31576798083E+04  0.29031573188E+04 0.  0.
        2    1    3    3  502    0 -0.13685020258E+04  0.25884641939E+03  0.17615328004E+03  0.14038622588E+04  0.25500000920E-02 0.  1.
       -2    1    3    3    0  502  0.13685020258E+04 -0.25884641939E+03  0.10658690040E+04  0.17538175496E+04  0.25500000920E-02 0. -1.
</event>
<event>
 5   0  0.3786210E-07  0.2893349E+04  0.7818609E-02  0.8274859E-01
       -1   -1    0    0    0  501  0.00000000000E+00  0.00000000000E+00  0.19108529710E+04  0.19108529710E+04  0.50400001928E-02 0. -1.
        1   -1    0    0  501    0  0.00000000000E+00  0.00000000000E+00 -0.10952529912E+04  0.10952529912E+04  0.50400001928E-02 0.  1.
    10030    2    1    2    0    0  0.00000000000E+00  0.00000000000E+00  0.81559997988E+03  0.30061059622E+04  0.28933492235E+04 0.  0.
        5    1    3    3  502    0  0.71486707175E+03  0.94499879880E+03 -0.45447564656E+03  0.12691051427E+04  0.46999998093E+01 0.  1.
       -5    1    3    3    0  502 -0.71486707175E+03 -0.94499879880E+03  0.12700756264E+04  0.17370008195E+04  0.46999998093E+01 0. -1.
</event>
<event>
 5   0  0.9950999E-07  0.2900562E+04  0.7818609E-02  0.8272710E-01
       -2   -1    0    0    0  501  0.00000000000E+00  0.00000000000E+00  0.11479154506E+04  0.11479154506E+04  0.25500000920E-02 0.  1.
        2   -1    0    0  501    0  0.00000000000E+00  0.00000000000E+00 -0.18322914591E+04  0.18322914591E+04  0.25500000920E-02 0. -1.
    10030    2    1    2    0    0  0.00000000000E+00  0.00000000000E+00 -0.68437600845E+03  0.29802069097E+04  0.29005624806E+04 0.  0.
        3    1    3    3  502    0  0.99076830891E+03  0.28272831564E+03  0.70650343687E+03  0.12492814971E+04  0.10100000352E+00 0.  1.
       -3    1    3    3    0  502 -0.99076830891E+03 -0.28272831564E+03 -0.13908794453E+04  0.17309254126E+04  0.10100000352E+00 0. -1.
</event>
<event>
 5   0  0.3885904E-07  0.2902658E+04  0.7818609E-02  0.8272087E-01
        1   -1    0    0  501    0  0.00000000000E+00  0.00000000000E+00  0.22706667868E+04  0.22706667868E+04  0.50400001928E-02 0.  1.
       -1   -1    0    0    0  501  0.00000000000E+00  0.00000000000E+00 -0.92763733336E+03  0.92763733338E+03  0.50400001928E-02 0. -1.
    10030    2    1    2    0    0  0.00000000000E+00  0.00000000000E+00  0.13430294535E+04  0.31983041202E+04  0.29026575982E+04 0.  0.
        2    1    3    3  502    0  0.98649240021E+03  0.54617736111E+03  0.16782969529E+04  0.20219192930E+04  0.25500000920E-02 0. -1.
       -2    1    3    3    0  502 -0.98649240021E+03 -0.54617736111E+03 -0.33526749942E+03  0.11763848272E+04  0.25500000920E-02 0.  1.
</event>
<event>
 5   0  0.9994311E-07  0.2896337E+04  0.7818609E-02  0.8273968E-01
        2   -1    0    0  501    0  0.00000000000E+00  0.00000000000E+00  0.19006730942E+04  0.19006730942E+04  0.25500000920E-02 0.  1.
       -2   -1    0    0    0  501  0.00000000000E+00  0.00000000000E+00 -0.11033941777E+04  0.11033941777E+04  0.25500000920E-02 0. -1.
    10030    2    1    2    0    0  0.00000000000E+00  0.00000000000E+00  0.79727891658E+03  0.30040672719E+04  0.28963367386E+04 0.  0.
        2    1    3    3  502    0  0.18405124956E+03  0.13099612089E+04 -0.21261845308E+03  0.13398058956E+04  0.25500000920E-02 0. -1.
       -2    1    3    3    0  502 -0.18405124956E+03 -0.13099612089E+04  0.10098973697E+04  0.16642613763E+04  0.25500000920E-02 0.  1.
</event>
<event>
 5   0  0.1063979E-06  0.2872826E+04  0.7818609E-02  0.8281009E-01
       -2   -1    0    0    0  501  0.00000000000E+00  0.00000000000E+00  0.30429035092E+04  0.30429035092E+04  0.25500000920E-02 0.  1.
        2   -1    0    0  501    0  0.00000000000E+00  0.00000000000E+00 -0.67806387350E+03  0.67806387351E+03  0.25500000920E-02 0. -1.
    10030    2    1    2    0    0  0.00000000000E+00  0.00000000000E+00  0.23648396357E+04  0.37209673827E+04  0.28728264411E+04 0.  0.
        1    1    3    3  502    0 -0.13648631907E+04 -0.35569675313E+03  0.15345487342E+04  0.20842772194E+04  0.50400001928E-02 0.  1.
       -1    1    3    3    0  502  0.13648631907E+04  0.35569675313E+03  0.83029090147E+03  0.16366901633E+04  0.50400001928E-02 0. -1.
</event>
<event>
 5   0  0.3769563E-07  0.2898722E+04  0.7818609E-02  0.8273258E-01
       -1   -1    0    0    0  501  0.00000000000E+00  0.00000000000E+00  0.93987588434E+03  0.93987588435E+03  0.50400001928E-02 0. -1.
        1   -1    0    0  501    0  0.00000000000E+00  0.00000000000E+00 -0.22350258548E+04  0.22350258548E+04  0.50400001928E-02 0.  1.
    10030    2    1    2    0    0  0.00000000000E+00  0.00000000000E+00 -0.12951499705E+04  0.31749017392E+04  0.28987217195E+04 0.  0.
        3    1    3    3  502    0  0.32437537459E+03  0.63091503748E+03 -0.20318648277E+04  0.21521495897E+04  0.10100000352E+00 0.  1.
       -3    1    3    3    0  502 -0.32437537459E+03 -0.63091503748E+03  0.73671485724E+03  0.10227521495E+04  0.10100000352E+00 0. -1.
</event>
<event>
 5   0  0.3638028E-07  0.2903625E+04  0.7818609E-02  0.8271800E-01
       -1   -1    0    0    0  501  0.00000000000E+00  0.00000000000E+00  0.18975187038E+04  0.18975187038E+04  0.50400001928E-02 0. -1.
        1   -1    0    0  501    0  0.00000000000E+00  0.00000000000E+00 -0.11107974402E+04  0.11107974402E+04  0.50400001928E-02 0.  1.
    10030    2    1    2    0    0  0.00000000000E+00  0.00000000000E+00  0.78672126362E+03  0.30083161440E+04  0.29036245755E+04 0.  0.
        4    1    3    3  502    0 -0.22964345451E+03  0.12145297044E+04  0.11823553370E+04  0.17104924071E+04  0.12699999809E+01 0. -1.
       -4    1    3    3    0  502  0.22964345451E+03 -0.12145297044E+04 -0.39563407338E+03  0.12978237369E+04  0.12699999809E+01 0.  1.
</event>
<event>
 5   0  0.9994311E-07  0.2898334E+04  0.7818609E-02  0.8273373E-01
       -2   -1    0    0    0  501  0.00000000000E+00  0.00000000000E+00  0.13109834840E+04  0.13109834840E+04  0.25500000920E-02 0. -1.
        2   -1    0    0  501    0  0.00000000000E+00  0.00000000000E+00 -0.16019160597E+04  0.16019160597E+04  0.25500000920E-02 0.  1.
    10030    2    1    2    0    0  0.00000000000E+00  0.00000000000E+00 -0.29093257568E+03  0.29128995437E+04  0.28983343472E+04 0.  0.
        2    1    3    3  502    0  0.50554410428E+03  0.13184835580E+04  0.18191872117E+03  0.14237514373E+04  0.25500000920E-02 0. -1.
       -2    1    3    3    0  502 -0.50554410428E+03 -0.13184835580E+04 -0.47285129685E+03  0.14891481064E+04  0.25500000920E-02 0.  1.
</event>
<event>
 5   0  0.1006893E-06  0.2895267E+04  0.7818609E-02  0.8274287E-01
        2   -1    0    0  501    0  0.00000000000E+00  0.00000000000E+00  0.21102346219E+04  0.21102346219E+04  0.25500000920E-02 0.  1.
       -2   -1    0    0    0  501  0.00000000000E+00  0.00000000000E+00 -0.99308519071E+03  0.99308519072E+03  0.25500000920E-02 0. -1.
    10030    2    1    2    0    0  0.00000000000E+00  0.00000000000E+00  0.11171494312E+04  0.31033198127E+04  0.28952670011E+04 0.  0.
        4    1    3    3  502    0  0.12632870778E+04  0.67441459599E+03  0.33142176066E+03  0.14698881877E+04  0.12699999809E+01 0.  1.
       -4    1    3    3    0  502 -0.12632870778E+04 -0.67441459599E+03  0.78572767056E+03  0.16334316249E+04  0.12699999809E+01 0. -1.
</event>
<event>
 5   0  0.9950999E-07  0.2898075E+04  0.7818609E-02  0.8273450E-01
        2   -1    0    0  501    0  0.00000000000E+00  0.00000000000E+00  0.13505834262E+04  0.13505834262E+04  0.25500000920E-02 0. -1.
       -2   -1    0    0    0  501  0.00000000000E+00  0.00000000000E+00 -0.15546689691E+04  0.15546689691E+04  0.25500000920E-02 0.  1.
    10030    2    1    2    0    0  0.00000000000E+00  0.00000000000E+00 -0.20408554294E+03  0.29052523953E+04  0.28980753220E+04 0.  0.
        3    1    3    3  502    0  0.56286789853E+03 -0.13347146243E+04 -0.64177106340E+02  0.14499662447E+04  0.10100000352E+00 0.  1.
       -3    1    3    3    0  502 -0.56286789853E+03  0.13347146243E+04 -0.13990843660E+03  0.14552861507E+04  0.10100000352E+00 0. -1.
</event>
<event>
 5   0  0.1031339E-06  0.2898841E+04  0.7818609E-02  0.8273222E-01
       -2   -1    0    0    0  501  0.00000000000E+00  0.00000000000E+00  0.17930998350E+04  0.17930998350E+04  0.25500000920E-02 0. -1.
        2   -1    0    0  501    0  0.00000000000E+00  0.00000000000E+00 -0.11716135107E+04  0.11716135107E+04  0.25500000920E-02 0.  1.
    10030    2    1    2    0    0  0.00000000000E+00  0.00000000000E+00  0.62148632430E+03  0.29647133458E+04  0.28988411428E+04 0.  0.
        5    1    3    3  502    0 -0.12086279455E+03  0.13637163189E+04 -0.17595713104E+03  0.13803307631E+04  0.46999998093E+01 0.  1.
       -5    1    3    3    0  502  0.12086279455E+03 -0.13637163189E+04  0.79744345534E+03  0.15843825826E+04  0.46999998093E+01 0. -1.
</event>
<event>
 5   0  0.3638028E-07  0.2884025E+04  0.7818609E-02  0.8277646E-01
       -1   -1    0    0    0  501  0.00000000000E+00  0.00000000000E+00  0.16881951077E+04  0.16881951078E+04  0.50400001928E-02 0. -1.
        1   -1    0    0  501    0  0.00000000000E+00  0.00000000000E+00 -0.12317300792E+04  0.12317300792E+04  0.50400001928E-02 0.  1.
    10030    2    1    2    0    0  0.00000000000E+00  0.00000000000E+00  0.45646502858E+03  0.29199251869E+04  0.28840254463E+04 0.  0.
        4    1    3    3  502    0  0.13607386141E+04 -0.13029010274E+02  0.71126640967E+03  0.15354741449E+04  0.12699999809E+01 0. -1.
       -4    1    3    3    0  502 -0.13607386141E+04  0.13029010274E+02 -0.25480138109E+03  0.13844510421E+04  0.12699999809E+01 0.  1.
</event>
<event>
 5   0  0.3786210E-07  0.2897951E+04  0.7818609E-02  0.8273487E-01
        1   -1    0    0  501    0  0.00000000000E+00  0.00000000000E+00  0.10805285176E+04  0.10805285176E+04  0.50400001928E-02 0.  1.
       -1   -1    0    0    0  501  0.00000000000E+00  0.00000000000E+00 -0.19430582031E+04  0.19430582031E+04  0.50400001928E-02 0. -1.
    10030    2    1    2    0    0  0.00000000000E+00  0.00000000000E+00 -0.86252968555E+03  0.30235867207E+04  0.28979508621E+04 0.  0.
        5    1    3    3  502    0 -0.69042125015E+03 -0.95763777790E+03 -0.13077785867E+04  0.17618338565E+04  0.46999998093E+01 0. -1.
       -5    1    3    3    0  502  0.69042125015E+03  0.95763777790E+03  0.44524890112E+03  0.12617528642E+04  0.46999998093E+01 0.  1.
</event>
<event>
 5   0  0.3770467E-07  0.2905945E+04  0.7818609E-02  0.8271111E-01
        1   -1    0    0  501    0  0.00000000000E+00  0.00000000000E+00  0.21821899034E+04  0.21821899034E+04  0.50400001928E-02 0.  1.
       -1   -1    0    0    0  501  0.00000000000E+00  0.00000000000E+00 -0.96743613247E+03  0.96743613248E+03  0.50400001928E-02 0. -1.
    10030    2    1    2    0    0  0.00000000000E+00  0.00000000000E+00  0.12147537709E+04  0.31496260359E+04  0.29059451891E+04 0.  0.
        1    1    3    3  502    0 -0.10115300467E+04 -0.18876672763E+03 -0.50446254005E+03  0.11459966698E+04  0.50400001928E-02 0. -1.
       -1    1    3    3    0  502  0.10115300467E+04  0.18876672763E+03  0.17192163110E+04  0.20036293661E+04  0.50400001928E-02 0.  1.
</event>
<event>
 5   0  0.1006893E-06  0.2900092E+04  0.7818609E-02  0.8272850E-01
        2   -1    0    0  501    0  0.00000000000E+00  0.00000000000E+00  0.12801182540E+04  0.12801182540E+04  0.25500000920E-02 0.  1.
       -2   -1    0    0    0  501  0.00000000000E+00  0.00000000000E+00 -0.16425300996E+04  0.16425300996E+04  0.25500000920E-02 0. -1.
    10030    2    1    2    0    0  0.00000000000E+00  0.00000000000E+00 -0.36241184564E+03  0.29226483536E+04  0.29000915594E+04 0.  0.
        4    1    3    3  502    0  0.63527122880E+03 -0.11811813008E+04 -0.73673967310E+03  0.15302110176E+04  0.12699999809E+01 0. -1.
       -4    1    3    3    0  502 -0.63527122880E+03  0.11811813008E+04  0.37432782746E+03  0.13924373360E+04  0.12699999809E+01 0.  1.
</event>
<event>
 5   0  0.1006893E-06  0.2900918E+04  0.7818609E-02  0.8272604E-01
       -2   -1    0    0    0  501  0.00000000000E+00  0.00000000000E+00  0.15352537662E+04  0.15352537662E+04  0.25500000920E-02 0. -1.
        2   -1    0    0  501    0  0.00000000000E+00  0.00000000000E+00 -0.13703476443E+04  0.13703476443E+04  0.25500000920E-02 0.  1.
    10030    2    1    2    0    0  0.00000000000E+00  0.00000000000E+00  0.16490612190E+03  0.29056014106E+04  0.29009180492E+04 0.  0.
        4    1    3    3  502    0  0.53704064704E+03 -0.75855412402E+03 -0.10329033129E+04  0.13894991480E+04  0.12699999809E+01 0.  1.
       -4    1    3    3    0  502 -0.53704064704E+03  0.75855412402E+03  0.11978094348E+04  0.15161022626E+04  0.12699999809E+01 0. -1.
</event>
<event>
 5   0  0.3378750E-07  0.2897079E+04  0.7818609E-02  0.8273747E-01
        3   -1    0    0  501    0  0.00000000000E+00  0.00000000000E+00  0.19607904806E+04  0.19607904832E+04  0.10100000352E+00 0. -1.
       -3   -1    0    0    0  501  0.00000000000E+00  0.00000000000E+00 -0.10701123742E+04  0.10701123790E+04  0.10100000352E+00 0.  1.
    10030    2    1    2    0    0  0.00000000000E+00  0.00000000000E+00  0.89067810636E+03  0.30309028621E+04  0.28970786441E+04 0.  0.
        2    1    3    3  502    0 -0.87649712205E+03 -0.28292577100E+03  0.16150050650E+04  0.18591760425E+04  0.25500000920E-02 0. -1.
       -2    1    3    3    0  502  0.87649712205E+03  0.28292577100E+03 -0.72432695864E+03  0.11717268196E+04  0.25500000920E-02 0.  1.
</event>
<event>
 5   0  0.9994311E-07  0.2898659E+04  0.7818609E-02  0.8273276E-01
       -2   -1    0    0    0  501  0.00000000000E+00  0.00000000000E+00  0.20347175647E+04  0.20347175647E+04  0.25500000920E-02 0. -1.
        2   -1    0    0  501    0  0.00000000000E+00  0.00000000000E+00 -0.10323578504E+04  0.10323578504E+04  0.25500000920E-02 0.  1.
    10030    2    1    2    0    0  0.00000000000E+00  0.00000000000E+00  0.10023597143E+04  0.30670754151E+04  0.28986594496E+04 0.  0.
        2    1    3    3  502    0  0.23467374388E+03  0.88519631880E+02  0.20115798143E+04  0.20271558501E+04  0.25500000920E-02 0. -1.
       -2    1    3    3    0  502 -0.23467374388E+03 -0.88519631880E+02 -0.10092201000E+04  0.10399195649E+04  0.25500000920E-02 0.  1.
</event>
<event>
 5   0  0.3885904E-07  0.2896254E+04  0.7818609E-02  0.8273993E-01
        1   -1    0    0  501    0  0.00000000000E+00  0.00000000000E+00  0.15070325738E+04  0.15070325738E+04  0.50400001928E-02 0. -1.
       -1   -1    0    0    0  501  0.00000000000E+00  0.00000000000E+00 -0.13915235628E+04  0.13915235628E+04  0.50400001928E-02 0.  1.
    10030    2    1    2    0    0  0.00000000000E+00  0.00000000000E+00  0.11550901103E+03  0.28985561366E+04  0.28962536743E+04 0.  0.
        2    1    3    3  502    0 -0.66632940350E+03  0.37586341308E+03  0.12882860239E+04  0.14983154069E+04  0.25500000920E-02 0. -1.
       -2    1    3    3    0  502  0.66632940350E+03 -0.37586341308E+03 -0.11727770129E+04  0.14002407297E+04  0.25500000920E-02 0.  1.
</event>
<event>
 5   0  0.3769563E-07  0.2902913E+04  0.7818609E-02  0.8272011E-01
        1   -1    0    0  501    0  0.00000000000E+00  0.00000000000E+00  0.11235937153E+04  0.11235937153E+04  0.50400001928E-02 0. -1.
       -1   -1    0    0    0  501  0.00000000000E+00  0.00000000000E+00 -0.18749888718E+04  0.18749888718E+04  0.50400001928E-02 0.  1.
    10030    2    1    2    0    0  0.00000000000E+00  0.00000000000E+00 -0.75139515653E+03  0.29985825872E+04  0.29029128218E+04 0.  0.
        3    1    3    3  502    0  0.79966672683E+03  0.81672022994E+03  0.54833778621E+03  0.12677433281E+04  0.10100000352E+00 0. -1.
       -3    1    3    3    0  502 -0.79966672683E+03 -0.81672022994E+03 -0.12997329427E+04  0.17308392590E+04  0.10100000352E+00 0.  1.
</event>
<event>
 5   0  0.1031339E-06  0.2900536E+04  0.7818609E-02  0.8272718E-01
        2   -1    0    0  501    0  0.00000000000E+00  0.00000000000E+00  0.23755505235E+04  0.23755505235E+04  0.25500000920E-02 0.  1.
       -2   -1    0    0    0  501  0.00000000000E+00  0.00000000000E+00 -0.88538489748E+03  0.88538489748E+03  0.25500000920E-02 0. -1.
    10030    2    1    2    0    0  0.00000000000E+00  0.00000000000E+00  0.14901656260E+04  0.32609354209E+04  0.29005355069E+04 0.  0.
        5    1    3    3  502    0  0.42628227370E+02 -0.73491551359E+03  0.21498755935E+04  0.22724227457E+04  0.46999998093E+01 0.  1.
       -5    1    3    3    0  502 -0.42628227370E+02  0.73491551359E+03 -0.65970996748E+03  0.98851267523E+03  0.46999998093E+01 0. -1.
</event>
<event>
 5   0  0.1063979E-06  0.2899430E+04  0.7818609E-02  0.8273047E-01
        2   -1    0    0  501    0  0.00000000000E+00  0.00000000000E+00  0.14016148040E+04  0.14016148040E+04  0.25500000920E-02 0. -1.
       -2   -1    0    0    0  501  0.00000000000E+00  0.00000000000E+00 -0.14994661929E+04  0.14994661929E+04  0.25500000920E-02 0.  1.
    10030    2    1    2    0    0  0.00000000000E+00  0.00000000000E+00 -0.97851388881E+02  0.29010809969E+04  0.28994302986E+04 0.  0.
        1    1    3    3  502    0  0.20089245522E+03 -0.10193279003E+04 -0.10605833498E+04  0.14846629882E+04  0.50400001928E-02 0.  1.
       -1    1    3    3    0  502 -0.20089245522E+03  0.10193279003E+04  0.96273196088E+03  0.14164180087E+04  0.50400001928E-02 0. -1.
</event>
<event>
 5   0  0.3638028E-07  0.2900194E+04  0.7818609E-02  0.8272820E-01
        1   -1    0    0  501    0  0.00000000000E+00  0.00000000000E+00  0.11396712585E+04  0.11396712585E+04  0.50400001928E-02 0.  1.
       -1   -1    0    0    0  501  0.00000000000E+00  0.00000000000E+00 -0.18450770003E+04  0.18450770003E+04  0.50400001928E-02 0. -1.
    10030    2    1    2    0    0  0.00000000000E+00  0.00000000000E+00 -0.70540574174E+03  0.29847482588E+04  0.29001939431E+04 0.  0.
        4    1    3    3  502    0 -0.81494002319E+03  0.19749757108E+03  0.86485591206E+03  0.12046202279E+04  0.12699999809E+01 0.  1.
       -4    1    3    3    0  502  0.81494002319E+03 -0.19749757108E+03 -0.15702616538E+04  0.17801280309E+04  0.12699999809E+01 0. -1.
</event>
<event>
 5   0  0.3638028E-07  0.2899097E+04  0.7818609E-02  0.8273146E-01
        1   -1    0    0  501    0  0.00000000000E+00  0.00000000000E+00  0.18687245445E+04  0.18687245445E+04  0.50400001928E-02 0.  1.
       -1   -1    0    0    0  501  0.00000000000E+00  0.00000000000E+00 -0.11243987099E+04  0.11243987099E+04  0.50400001928E-02 0. -1.
    10030    2    1    2    0    0  0.00000000000E+00  0.00000000000E+00  0.74432583462E+03  0.29931232545E+04  0.28990974230E+04 0.  0.
        4    1    3    3  502    0 -0.27415857977E+03 -0.11717665332E+03 -0.10923991566E+04  0.11323563155E+04  0.12699999809E+01 0. -1.
       -4    1    3    3    0  502  0.27415857977E+03  0.11717665332E+03  0.18367249912E+04  0.18607669390E+04  0.12699999809E+01 0.  1.
</event>
<event>
 5   0  0.3786210E-07  0.2898487E+04  0.7818609E-02  0.8273328E-01
        1   -1    0    0  501    0  0.00000000000E+00  0.00000000000E+00  0.13224251744E+04  0.13224251744E+04  0.50400001928E-02 0. -1.
       -1   -1    0    0    0  501  0.00000000000E+00  0.00000000000E+00 -0.15882234174E+04  0.15882234174E+04  0.50400001928E-02 0.  1.
    10030    2    1    2    0    0  0.00000000000E+00  0.00000000000E+00 -0.26579824293E+03  0.29106485918E+04  0.28984869362E+04 0.  0.
        5    1    3    3  502    0 -0.64131801042E+03  0.43906851125E+03 -0.13612300042E+04  0.15674945494E+04  0.46999998093E+01 0.  1.
       -5    1    3    3    0  502  0.64131801042E+03 -0.43906851125E+03  0.10954317613E+04  0.13431540424E+04  0.46999998093E+01 0. -1.
</event>
<event>
 5   0  0.1006893E-06  0.2899415E+04  0.7818609E-02  0.8273051E-01
       -2   -1    0    0    0  501  0.00000000000E+00  0.00000000000E+00  0.15664447973E+04  0.15664447973E+04  0.25500000920E-02 0. -1.
        2   -1    0    0  501    0  0.00000000000E+00  0.00000000000E+00 -0.13416703341E+04  0.13416703341E+04  0.25500000920E-02 0.  1.
    10030    2    1    2    0    0  0.00000000000E+00  0.00000000000E+00  0.22477446318E+03  0.29081151314E+04  0.28994154684E+04 0.  0.
        4    1    3    3  502    0 -0.90692245563E+03 -0.40882800477E+03  0.11700664528E+04  0.15358078639E+04  0.12699999809E+01 0. -1.
       -4    1    3    3    0  502  0.90692245563E+03  0.40882800477E+03 -0.94529198958E+03  0.13723072675E+04  0.12699999809E+01 0.  1.
</event>
<event>
 5   0  0.3786210E-07  0.2874268E+04  0.7818609E-02  0.8280575E-01
       -1   -1    0    0    0  501  0.00000000000E+00  0.00000000000E+00  0.74593654167E+03  0.74593654169E+03  0.50400001928E-02 0.  1.
        1   -1    0    0  501    0  0.00000000000E+00  0.00000000000E+00 -0.27688060042E+04  0.27688060042E+04  0.50400001928E-02 0. -1.
    10030    2    1    2    0    0  0.00000000000E+00  0.00000000000E+00 -0.20228694626E+04  0.35147425459E+04  0.28742676113E+04 0.  0.
        5    1    3    3  502    0 -0.11257019779E+03  0.80086604078E+03  0.44125155628E+03  0.92129446466E+03  0.46999998093E+01 0.  1.
       -5    1    3    3    0  502  0.11257019779E+03 -0.80086604078E+03 -0.24641210189E+04  0.25934480813E+04  0.46999998093E+01 0. -1.
</event>
<event>
 5   0  0.9950999E-07  0.2896490E+04  0.7818609E-02  0.8273923E-01
        2   -1    0    0  501    0  0.00000000000E+00  0.00000000000E+00  0.95942881232E+03  0.95942881232E+03  0.25500000920E-02 0.  1.
       -2   -1    0    0    0  501  0.00000000000E+00  0.00000000000E+00 -0.21861061796E+04  0.21861061796E+04  0.25500000920E-02 0. -1.
    10030    2    1    2    0    0  0.00000000000E+00  0.00000000000E+00 -0.12266773673E+04  0.31455349919E+04  0.28964897759E+04 0.  0.
        3    1    3    3  502    0 -0.10933988918E+04  0.22601258309E+03 -0.16150415610E+04  0.19634057345E+04  0.10100000352E+00 0. -1.
       -3    1    3    3    0  502  0.10933988918E+04 -0.22601258309E+03  0.38836419368E+03  0.11821292575E+04  0.10100000352E+00 0.  1.
</event>
<event>
 5   0  0.9950999E-07  0.2894754E+04  0.7818609E-02  0.8274440E-01
        2   -1    0    0  501    0  0.00000000000E+00  0.00000000000E+00  0.16148320309E+04  0.16148320309E+04  0.25500000920E-02 0.  1.
       -2   -1    0    0    0  501  0.00000000000E+00  0.00000000000E+00 -0.12972863781E+04  0.12972863781E+04  0.25500000920E-02 0. -1.
    10030    2    1    2    0    0  0.00000000000E+00  0.00000000000E+00  0.31754565282E+03  0.29121184091E+04  0.28947535969E+04 0.  0.
        3    1    3    3  502    0 -0.10800624827E+04  0.84056492539E+03  0.63257069715E+03  0.15077234685E+04  0.10100000352E+00 0.  1.
       -3    1    3    3    0  502  0.10800624827E+04 -0.84056492539E+03 -0.31502504433E+03  0.14043949406E+04  0.10100000352E+00 0. -1.
</event>
<event>
 5   0  0.3378750E-07  0.2910411E+04  0.7818609E-02  0.8269787E-01
        3   -1    0    0  501    0  0.00000000000E+00  0.00000000000E+00  0.13038726500E+04  0.13038726539E+04  0.10100000352E+00 0.  1.
       -3   -1    0    0    0  501  0.00000000000E+00  0.00000000000E+00 -0.16241027123E+04  0.16241027154E+04  0.10100000352E+00 0. -1.
    10030    2    1    2    0    0  0.00000000000E+00  0.00000000000E+00 -0.32023006232E+03  0.29279753693E+04  0.29104110484E+04 0.  0.
        1    1    3    3  502    0 -0.31919584331E+03 -0.57969130725E+02 -0.15872588143E+04  0.16200731311E+04  0.50400001928E-02 0. -1.
       -1    1    3    3    0  502  0.31919584331E+03  0.57969130725E+02  0.12670287519E+04  0.13079022382E+04  0.50400001928E-02 0.  1.
</event>
<event>
 5   0  0.3786210E-07  0.2896365E+04  0.7818609E-02  0.8273960E-01
        1   -1    0    0  501    0  0.00000000000E+00  0.00000000000E+00  0.95390737276E+03  0.95390737277E+03  0.50400001928E-02 0.  1.
       -1   -1    0    0    0  501  0.00000000000E+00  0.00000000000E+00 -0.21985705085E+04  0.21985705085E+04  0.50400001928E-02 0. -1.
    10030    2    1    2    0    0  0.00000000000E+00  0.00000000000E+00 -0.12446631357E+04  0.31524778813E+04  0.28963650444E+04 0.  0.
        5    1    3    3  502    0  0.80051901600E+03  0.44915669637E+03 -0.18414839334E+04  0.20575853809E+04  0.46999998093E+01 0. -1.
       -5    1    3    3    0  502 -0.80051901600E+03 -0.44915669637E+03  0.59682079763E+03  0.10948925004E+04  0.46999998093E+01 0.  1.
</event>
<event>
 5   0  0.9950999E-07  0.2900618E+04  0.7818609E-02  0.8272694E-01
       -2   -1    0    0    0  501  0.00000000000E+00  0.00000000000E+00  0.20609656191E+04  0.20609656191E+04  0.25500000920E-02 0.  1.
        2   -1    0    0  501    0  0.00000000000E+00  0.00000000000E+00 -0.10205876091E+04  0.10205876091E+04  0.25500000920E-02 0. -1.
    10030    2    1    2    0    0  0.00000000000E+00  0.00000000000E+00  0.10403780100E+04  0.30815532282E+04  0.29006178470E+04 0.  0.
        3    1    3    3  502    0  0.80142680166E+03 -0.11360887664E+04  0.95875098445E+03  0.16888416338E+04  0.10100000352E+00 0.  1.
       -3    1    3    3    0  502 -0.80142680166E+03  0.11360887664E+04  0.81627025540E+02  0.13927115944E+04  0.10100000352E+00 0. -1.
</event>
<event>
 5   0  0.3378750E-07  0.2895001E+04  0.7818609E-02  0.8274366E-01
       -3   -1    0    0    0  501  0.00000000000E+00  0.00000000000E+00  0.17696490138E+04  0.17696490167E+04  0.10100000352E+00 0.  1.
        3   -1    0    0  501    0  0.00000000000E+00  0.00000000000E+00 -0.11839963234E+04  0.11839963277E+04  0.10100000352E+00 0. -1.
    10030    2    1    2    0    0  0.00000000000E+00  0.00000000000E+00  0.58565269043E+03  0.29536453445E+04  0.28950011653E+04 0.  0.
        5    1    3    3  502    0 -0.29868318887E+02  0.14313977562E+04  0.75331581501E+02  0.14336975239E+04  0.46999998093E+01 0. -1.
       -5    1    3    3    0  502  0.29868318887E+02 -0.14313977562E+04  0.51032110893E+03  0.15199478205E+04  0.46999998093E+01 0.  1.
</event>
<event>
 5   0  0.9994311E-07  0.2894391E+04  0.7818609E-02  0.8274548E-01
       -2   -1    0    0    0  501  0.00000000000E+00  0.00000000000E+00  0.77193518194E+03  0.77193518195E+03  0.25500000920E-02 0.  1.
        2   -1    0    0  501    0  0.00000000000E+00  0.00000000000E+00 -0.27131478983E+04  0.27131478983E+04  0.25500000920E-02 0. -1.
    10030    2    1    2    0    0  0.00000000000E+00  0.00000000000E+00 -0.19412127164E+04  0.34850830802E+04  0.28943906554E+04 0.  0.
        2    1    3    3  502    0  0.10187919662E+04  0.98768277154E+03 -0.13131247496E+04  0.19333263914E+04  0.25500000920E-02 0.  1.
       -2    1    3    3    0  502 -0.10187919662E+04 -0.98768277154E+03 -0.62808796673E+03  0.15517566889E+04  0.25500000920E-02 0. -1.
</event>
<event>
 5   0  0.1063979E-06  0.2903178E+04  0.7818609E-02  0.8271933E-01
       -2   -1    0    0    0  501  0.00000000000E+00  0.00000000000E+00  0.11454192862E+04  0.11454192862E+04  0.25500000920E-02 0. -1.
        2   -1    0    0  501    0  0.00000000000E+00  0.00000000000E+00 -0.18395978383E+04  0.18395978383E+04  0.25500000920E-02 0.  1.
    10030    2    1    2    0    0  0.00000000000E+00  0.00000000000E+00 -0.69417855209E+03  0.29850171245E+04  0.29031781501E+04 0.  0.
        1    1    3    3  502    0 -0.24144444751E+03  0.97350828451E+03 -0.14260010642E+04  0.17434141322E+04  0.50400001928E-02 0.  1.
       -1    1    3    3    0  502  0.24144444751E+03 -0.97350828451E+03  0.73182251209E+03  0.12416029923E+04  0.50400001928E-02 0. -1.
</event>
<event>
 5   0  0.3770467E-07  0.2895510E+04  0.7818609E-02  0.8274215E-01
        1   -1    0    0  501    0  0.00000000000E+00  0.00000000000E+00  0.15122531121E+04  0.15122531121E+04  0.50400001928E-02 0.  1.
       -1   -1    0    0    0  501  0.00000000000E+00  0.00000000000E+00 -0.13860074052E+04  0.13860074052E+04  0.50400001928E-02 0. -1.
    10030    2    1    2    0    0  0.00000000000E+00  0.00000000000E+00  0.12624570691E+03  0.28982605173E+04  0.28955096352E+04 0.  0.
        1    1    3    3  502    0 -0.98839326155E+03  0.64900827564E+02 -0.99374989691E+03  0.14030938010E+04  0.50400001928E-02 0. -1.
       -1    1    3    3    0  502  0.98839326155E+03 -0.64900827564E+02  0.11199956038E+04  0.14951667163E+04  0.50400001928E-02 0.  1.
</event>
<event>
 5   0  0.1006893E-06  0.2899274E+04  0.7818609E-02  0.8273093E-01
        2   -1    0    0  501    0  0.00000000000E+00  0.00000000000E+00  0.14460038593E+04  0.14460038593E+04  0.25500000920E-02 0. -1.
       -2   -1    0    0    0  501  0.00000000000E+00  0.00000000000E+00 -0.14532795233E+04  0.14532795233E+04  0.25500000920E-02 0.  1.
    10030    2    1    2    0    0  0.00000000000E+00  0.00000000000E+00 -0.72756640091E+01  0.28992833826E+04  0.28992742535E+04 0.  0.
        4    1    3    3  502    0  0.15816979137E+03 -0.10326639638E+04  0.10013696316E+04  0.14471196554E+04  0.12699999809E+01 0. -1.
       -4    1    3    3    0  502 -0.15816979137E+03  0.10326639638E+04 -0.10086452956E+04  0.14521637271E+04  0.12699999809E+01 0.  1.
</event>
<event>
 5   0  0.1006893E-06  0.2902848E+04  0.7818609E-02  0.8272031E-01
       -2   -1    0    0    0  501  0.00000000000E+00  0.00000000000E+00  0.15415436536E+04  0.15415436536E+04  0.25500000920E-02 0. -1.
        2   -1    0    0  501    0  0.00000000000E+00  0.00000000000E+00 -0.13665725197E+04  0.13665725197E+04  0.25500000920E-02 0.  1.
    10030    2    1    2    0    0  0.00000000000E+00  0.00000000000E+00  0.17497113390E+03  0.29081161733E+04  0.29028477018E+04 0.  0.
        4    1    3    3  502    0 -0.53743526980E+03  0.99401551200E+03 -0.82506065154E+03  0.13991533865E+04  0.12699999809E+01 0.  1.
       -4    1    3    3    0  502  0.53743526980E+03 -0.99401551200E+03  0.10000317854E+04  0.15089627869E+04  0.12699999809E+01 0. -1.
</event>
<event>
 5   0  0.9950999E-07  0.2902268E+04  0.7818609E-02  0.8272203E-01
        2   -1    0    0  501    0  0.00000000000E+00  0.00000000000E+00  0.16708897244E+04  0.16708897244E+04  0.25500000920E-02 0.  1.
       -2   -1    0    0    0  501  0.00000000000E+00  0.00000000000E+00 -0.12602809737E+04  0.12602809737E+04  0.25500000920E-02 0. -1.
    10030    2    1    2    0    0  0.00000000000E+00  0.00000000000E+00  0.41060875076E+03  0.29311706981E+04  0.29022684430E+04 0.  0.
        3    1    3    3  502    0 -0.12434839857E+04 -0.40127335537E+03 -0.43226491086E+03  0.13762723901E+04  0.10100000352E+00 0. -1.
       -3    1    3    3    0  502  0.12434839857E+04  0.40127335537E+03  0.84287366162E+03  0.15548983080E+04  0.10100000352E+00 0.  1.
</event>
<event>
 5   0  0.3638028E-07  0.2907718E+04  0.7818609E-02  0.8270585E-01
       -1   -1    0    0    0  501  0.00000000000E+00  0.00000000000E+00  0.15946354170E+04  0.15946354170E+04  0.50400001928E-02 0. -1.
        1   -1    0    0  501    0  0.00000000000E+00  0.00000000000E+00 -0.13255104104E+04  0.13255104104E+04  0.50400001928E-02 0.  1.
    10030    2    1    2    0    0  0.00000000000E+00  0.00000000000E+00  0.26912500654E+03  0.29201458274E+04  0.29077178997E+04 0.  0.
        4    1    3    3  502    0  0.13090408107E+04  0.46515470475E+03 -0.29592740726E+03  0.14203983197E+04  0.12699999809E+01 0. -1.
       -4    1    3    3    0  502 -0.13090408107E+04 -0.46515470475E+03  0.56505241380E+03  0.14997475077E+04  0.12699999809E+01 0.  1.
</event>
<event>
 5   0  0.3885904E-07  0.2896056E+04  0.7818609E-02  0.8274052E-01
       -1   -1    0    0    0  501  0.00000000000E+00  0.00000000000E+00  0.11788797380E+04  0.11788797381E+04  0.50400001928E-02 0. -1.
        1   -1    0    0  501    0  0.00000000000E+00  0.00000000000E+00 -0.17786252544E+04  0.17786252544E+04  0.50400001928E-02 0.  1.
    10030    2    1    2    0    0  0.00000000000E+00  0.00000000000E+00 -0.59974551631E+03  0.29575049924E+04  0.28960561279E+04 0.  0.
        2    1    3    3  502    0 -0.56953186461E+03  0.53911790792E+03 -0.15429811555E+04  0.17308395390E+04  0.25500000920E-02 0.  1.
       -2    1    3    3    0  502  0.56953186461E+03 -0.53911790792E+03  0.94323563924E+03  0.12266654534E+04  0.25500000920E-02 0. -1.
</event>
<event>
 5   0  0.9950999E-07  0.2888162E+04  0.7818609E-02  0.8276408E-01
        2   -1    0    0  501    0  0.00000000000E+00  0.00000000000E+00  0.17969569362E+04  0.17969569362E+04  0.25500000920E-02 0.  1.
       -2   -1    0    0    0  501  0.00000000000E+00  0.00000000000E+00 -0.11605004366E+04  0.11605004366E+04  0.25500000920E-02 0. -1.
    10030    2    1    2    0    0  0.00000000000E+00  0.00000000000E+00  0.63645649961E+03  0.29574573728E+04  0.28881615668E+04 0.  0.
        3    1    3    3  502    0 -0.32759023163E+03  0.79333391838E+03  0.15074167486E+04  0.17346467450E+04  0.10100000352E+00 0.  1.
       -3    1    3    3    0  502  0.32759023163E+03 -0.79333391838E+03 -0.87096024896E+03  0.12228106278E+04  0.10100000352E+00 0. -1.
</event>
<event>
 5   0  0.1006893E-06  0.2901072E+04  0.7818609E-02  0.8272559E-01
       -2   -1    0    0    0  501  0.00000000000E+00  0.00000000000E+00  0.11894716369E+04  0.11894716369E+04  0.25500000920E-02 0. -1.
        2   -1    0    0  501    0  0.00000000000E+00  0.00000000000E+00 -0.17688988672E+04  0.17688988672E+04  0.25500000920E-02 0.  1.
    10030    2    1    2    0    0  0.00000000000E+00  0.00000000000E+00 -0.57942723031E+03  0.29583705042E+04  0.29010722371E+04 0.  0.
        4    1    3    3  502    0  0.15767271112E+03  0.74057982807E+03  0.97195099450E+03  0.12320752875E+04  0.12699999809E+01 0. -1.
       -4    1    3    3    0  502 -0.15767271112E+03 -0.74057982807E+03 -0.15513782248E+04  0.17262952166E+04  0.12699999809E+01 0.  1.
</event>
<event>
 5   0  0.1006893E-06  0.2886348E+04  0.7818609E-02  0.8276951E-01
        2   -1    0    0  501    0  0.00000000000E+00  0.00000000000E+00  0.24489598382E+04  0.24489598382E+04  0.25500000920E-02 0.  1.
       -2   -1    0    0    0  501  0.00000000000E+00  0.00000000000E+00 -0.85046370887E+03  0.85046370888E+03  0.25500000920E-02 0. -1.
    10030    2    1    2    0    0  0.00000000000E+00  0.00000000000E+00  0.15984961294E+04  0.32994235471E+04  0.28863481889E+04 0.  0.
        4    1    3    3  502    0  0.16437530293E+03  0.83397870774E+03 -0.53394286902E+03  0.10038109012E+04  0.12699999809E+01 0. -1.
       -4    1    3    3    0  502 -0.16437530293E+03 -0.83397870774E+03  0.21324389984E+04  0.22956126459E+04  0.12699999809E+01 0.  1.
</event>
<event>
 5   0  0.3769563E-07  0.2902451E+04  0.7818609E-02  0.8272149E-01
       -1   -1    0    0    0  501  0.00000000000E+00  0.00000000000E+00  0.10655751815E+04  0.10655751815E+04  0.50400001928E-02 0.  1.
        1   -1    0    0  501    0  0.00000000000E+00  0.00000000000E+00 -0.19764497495E+04  0.19764497496E+04  0.50400001928E-02 0. -1.
    10030    2    1    2    0    0  0.00000000000E+00  0.00000000000E+00 -0.91087456809E+03  0.30420249310E+04  0.29024512403E+04 0.  0.
        3    1    3    3  502    0 -0.11678848556E+04  0.62642936682E+02  0.44505081705E+03  0.12513790047E+04  0.10100000352E+00 0.  1.
       -3    1    3    3    0  502  0.11678848556E+04 -0.62642936682E+02 -0.13559253851E+04  0.17906459264E+04  0.10100000352E+00 0. -1.
</event>
<event>
 5   0  0.3770467E-07  0.2900463E+04  0.7818609E-02  0.8272740E-01
       -1   -1    0    0    0  501  0.00000000000E+00  0.00000000000E+00  0.13062146376E+04  0.13062146376E+04  0.50400001928E-02 0.  1.
        1   -1    0    0  501    0  0.00000000000E+00  0.00000000000E+00 -0.16101275032E+04  0.16101275032E+04  0.50400001928E-02 0. -1.
    10030    2    1    2    0    0  0.00000000000E+00  0.00000000000E+00 -0.30391286559E+03  0.29163421408E+04  0.29004634893E+04 0.  0.
        1    1    3    3  502    0  0.50125546850E+03 -0.81174465598E+03 -0.12501747577E+04  0.15726167226E+04  0.50400001928E-02 0. -1.
       -1    1    3    3    0  502 -0.50125546850E+03  0.81174465598E+03  0.94626189212E+03  0.13437254183E+04  0.50400001928E-02 0.  1.
</event>
<event>
 5   0  0.3638028E-07  0.2898234E+04  0.7818609E-02  0.8273403E-01
       -1   -1    0    0    0  501  0.00000000000E+00  0.00000000000E+00  0.12019705374E+04  0.12019705374E+04  0.50400001928E-02 0.  1.
        1   -1    0    0  501    0  0.00000000000E+00  0.00000000000E+00 -0.17470812954E+04  0.17470812954E+04  0.50400001928E-02 0. -1.
    10030    2    1    2    0    0  0.00000000000E+00  0.00000000000E+00 -0.54511075797E+03  0.29490518328E+04  0.28982341131E+04 0.  0.
        4    1    3    3  502    0 -0.67243202091E+03 -0.65936955448E+02 -0.15769951613E+04  0.17156421120E+04  0.12699999809E+01 0. -1.
       -4    1    3    3    0  502  0.67243202091E+03  0.65936955448E+02  0.10318844033E+04  0.12334097209E+04  0.12699999809E+01 0.  1.
</event>
<event>
 5   0  0.1063979E-06  0.2903903E+04  0.7818609E-02  0.8271717E-01
       -2   -1    0    0    0  501  0.00000000000E+00  0.00000000000E+00  0.18107123431E+04  0.18107123431E+04  0.25500000920E-02 0.  1.
        2   -1    0    0  501    0  0.00000000000E+00  0.00000000000E+00 -0.11642726718E+04  0.11642726718E+04  0.25500000920E-02 0. -1.
    10030    2    1    2    0    0  0.00000000000E+00  0.00000000000E+00  0.64643967131E+03  0.29749850150E+04  0.29039028204E+04 0.  0.
        1    1    3    3  502    0 -0.12348427815E+04 -0.68607588281E+03  0.66703276081E+03  0.15622002163E+04  0.50400001928E-02 0.  1.
       -1    1    3    3    0  502  0.12348427815E+04  0.68607588281E+03 -0.20593089505E+02  0.14127847986E+04  0.50400001928E-02 0. -1.
</event>
<event>
 5   0  0.1006893E-06  0.2904857E+04  0.7818609E-02  0.8271434E-01
       -2   -1    0    0    0  501  0.00000000000E+00  0.00000000000E+00  0.15679674341E+04  0.15679674341E+04  0.25500000920E-02 0.  1.
        2   -1    0    0  501    0  0.00000000000E+00  0.00000000000E+00 -0.13454034180E+04  0.13454034180E+04  0.25500000920E-02 0. -1.
    10030    2    1    2    0    0  0.00000000000E+00  0.00000000000E+00  0.22256401603E+03  0.29133708521E+04  0.29048571360E+04 0.  0.
        4    1    3    3  502    0 -0.95487391355E+03  0.53602973052E+03  0.10682457466E+04  0.15297917018E+04  0.12699999809E+01 0.  1.
       -4    1    3    3    0  502  0.95487391355E+03 -0.53602973052E+03 -0.84568173061E+03  0.13835791503E+04  0.12699999809E+01 0. -1.
</event>
<event>
 5   0  0.3786210E-07  0.2895695E+04  0.7818609E-02  0.8274160E-01
        1   -1    0    0  501    0  0.00000000000E+00  0.00000000000E+00  0.13491114545E+04  0.13491114545E+04  0.50400001928E-02 0.  1.
       -1   -1    0    0    0  501  0.00000000000E+00  0.00000000000E+00 -0.15538094785E+04  0.15538094785E+04  0.50400001928E-02 0. -1.
    10030    2    1    2    0    0  0.00000000000E+00  0.00000000000E+00 -0.20469802396E+03  0.29029209330E+04  0.28956948496E+04 0.  0.
        5    1    3    3  502    0  0.16441180209E+03  0.26828218974E+03 -0.15191107991E+04  0.15513627184E+04  0.46999998093E+01 0. -1.
       -5    1    3    3    0  502 -0.16441180209E+03 -0.26828218974E+03  0.13144127751E+04  0.13515582146E+04  0.46999998093E+01 0.  1.
</event>
<event>
 5   0  0.1063979E-06  0.2889732E+04  0.7818609E-02  0.8275939E-01
        2   -1    0    0  501    0  0.00000000000E+00  0.00000000000E+00  0.15757857548E+04  0.15757857548E+04  0.25500000920E-02 0. -1.
       -2   -1    0    0    0  501  0.00000000000E+00  0.00000000000E+00 -0.13248234141E+04  0.13248234141E+04  0.25500000920E-02 0.  1.
    10030    2    1    2    0    0  0.00000000000E+00  0.00000000000E+00  0.25096234073E+03  0.29006091689E+04  0.28897320731E+04 0.  0.
        1    1    3    3  502    0  0.11403542551E+04 -0.52229916919E+03 -0.59445883431E+03  0.13880149693E+04  0.50400001928E-02 0.  1.
       -1    1    3    3    0  502 -0.11403542551E+04  0.52229916919E+03  0.84542117504E+03  0.15125941996E+04  0.50400001928E-02 0. -1.
</event>
<event>
 5   0  0.3769563E-07  0.2920968E+04  0.7818609E-02  0.8266666E-01
       -1   -1    0    0    0  501  0.00000000000E+00  0.00000000000E+00  0.14652614754E+04  0.14652614754E+04  0.50400001928E-02 0.  1.
        1   -1    0    0  501    0  0.00000000000E+00  0.00000000000E+00 -0.14557224597E+04  0.14557224597E+04  0.50400001928E-02 0. -1.
    10030    2    1    2    0    0  0.00000000000E+00  0.00000000000E+00  0.95390157115E+01  0.29209839351E+04  0.29209683593E+04 0.  0.
        3    1    3    3  502    0  0.35053091316E+03  0.27998023092E+03 -0.13851131418E+04  0.14559530475E+04  0.10100000352E+00 0. -1.
       -3    1    3    3    0  502 -0.35053091316E+03 -0.27998023092E+03  0.13946521575E+04  0.14650308876E+04  0.10100000352E+00 0.  1.
</event>
<event>
 5   0  0.3786210E-07  0.2912645E+04  0.7818609E-02  0.8269125E-01
        1   -1    0    0  501    0  0.00000000000E+00  0.00000000000E+00  0.13343951773E+04  0.13343951773E+04  0.50400001928E-02 0. -1.
       -1   -1    0    0    0  501  0.00000000000E+00  0.00000000000E+00 -0.15893911449E+04  0.15893911449E+04  0.50400001928E-02 0.  1.
    10030    2    1    2    0    0  0.00000000000E+00  0.00000000000E+00 -0.25499596767E+03  0.29237863222E+04  0.29126454495E+04 0.  0.
        5    1    3    3  502    0 -0.85183676542E+03 -0.11692943650E+04 -0.29540583762E+03  0.14765371265E+04  0.46999998093E+01 0. -1.
       -5    1    3    3    0  502  0.85183676542E+03  0.11692943650E+04  0.40409869948E+02  0.14472491957E+04  0.46999998093E+01 0.  1.
</event>
<event>
 5   0  0.3786210E-07  0.2906229E+04  0.7818609E-02  0.8271026E-01
        1   -1    0    0  501    0  0.00000000000E+00  0.00000000000E+00  0.17898856937E+04  0.17898856937E+04  0.50400001928E-02 0. -1.
       -1   -1    0    0    0  501  0.00000000000E+00  0.00000000000E+00 -0.11797079114E+04  0.11797079114E+04  0.50400001928E-02 0.  1.
    10030    2    1    2    0    0  0.00000000000E+00  0.00000000000E+00  0.61017778237E+03  0.29695936051E+04  0.29062293876E+04 0.  0.
        5    1    3    3  502    0  0.15414423420E+03 -0.10518902195E+04  0.13172860070E+04  0.16927781877E+04  0.46999998093E+01 0. -1.
       -5    1    3    3    0  502 -0.15414423420E+03  0.10518902195E+04 -0.70710822459E+03  0.12768154174E+04  0.46999998093E+01 0.  1.
</event>
<event>
 5   0  0.1031339E-06  0.2913630E+04  0.7818609E-02  0.8268834E-01
        2   -1    0    0  501    0  0.00000000000E+00  0.00000000000E+00  0.15940923032E+04  0.15940923032E+04  0.25500000920E-02 0. -1.
       -2   -1    0    0    0  501  0.00000000000E+00  0.00000000000E+00 -0.13313596192E+04  0.13313596192E+04  0.25500000920E-02 0.  1.
    10030    2    1    2    0    0  0.00000000000E+00  0.00000000000E+00  0.26273268398E+03  0.29254519224E+04  0.29136301218E+04 0.  0.
        5    1    3    3  502    0  0.71257418691E+02 -0.77787963744E+03  0.13660359797E+04  0.15736107326E+04  0.46999998093E+01 0. -1.
       -5    1    3    3    0  502 -0.71257418691E+02  0.77787963744E+03 -0.11033032957E+04  0.13518411898E+04  0.46999998093E+01 0.  1.
</event>
<event>
 5   0  0.1031339E-06  0.2898491E+04  0.7818609E-02  0.8273327E-01
        2   -1    0    0  501    0  0.00000000000E+00  0.00000000000E+00  0.21974592772E+04  0.21974592772E+04  0.25500000920E-02 0.  1.
       -2   -1    0    0    0  501  0.00000000000E+00  0.00000000000E+00 -0.95579147487E+03  0.95579147487E+03  0.25500000920E-02 0. -1.
    10030    2    1    2    0    0  0.00000000000E+00  0.00000000000E+00  0.12416678024E+04  0.31532507521E+04  0.28984912238E+04 0.  0.
        5    1    3    3  502    0  0.53803739357E+03 -0.46442184423E+03  0.19948222318E+04  0.21176661004E+04  0.46999998093E+01 0.  1.
       -5    1    3    3    0  502 -0.53803739357E+03  0.46442184423E+03 -0.75315442944E+03  0.10355846517E+04  0.46999998093E+01 0. -1.
</event>
<event>
 5   0  0.9994311E-07  0.2901672E+04  0.7818609E-02  0.8272380E-01
        2   -1    0    0  501    0  0.00000000000E+00  0.00000000000E+00  0.16953280772E+04  0.16953280772E+04  0.25500000920E-02 0. -1.
       -2   -1    0    0    0  501  0.00000000000E+00  0.00000000000E+00 -0.12416030884E+04  0.12416030884E+04  0.25500000920E-02 0.  1.
    10030    2    1    2    0    0  0.00000000000E+00  0.00000000000E+00  0.45372498885E+03  0.29369311657E+04  0.29016716400E+04 0.  0.
        2    1    3    3  502    0  0.10238142017E+04 -0.42021855651E+03 -0.72269817921E+03  0.13217684416E+04  0.25500000920E-02 0.  1.
       -2    1    3    3    0  502 -0.10238142017E+04  0.42021855651E+03  0.11764231681E+04  0.16151627241E+04  0.25500000920E-02 0. -1.
</event>
<event>
 5   0  0.3770467E-07  0.2902509E+04  0.7818609E-02  0.8272131E-01
        1   -1    0    0  501    0  0.00000000000E+00  0.00000000000E+00  0.12525310086E+04  0.12525310086E+04  0.50400001928E-02 0.  1.
       -1   -1    0    0    0  501  0.00000000000E+00  0.00000000000E+00 -0.16815071041E+04  0.16815071041E+04  0.50400001928E-02 0. -1.
    10030    2    1    2    0    0  0.00000000000E+00  0.00000000000E+00 -0.42897609555E+03  0.29340381127E+04  0.29025091139E+04 0.  0.
        1    1    3    3  502    0  0.11370864659E+04  0.63251697328E+03 -0.86419555252E+03  0.15620106611E+04  0.50400001928E-02 0. -1.
       -1    1    3    3    0  502 -0.11370864659E+04 -0.63251697328E+03  0.43521945697E+03  0.13720274517E+04  0.50400001928E-02 0.  1.
</event>
<event>
 5   0  0.1031339E-06  0.2894919E+04  0.7818609E-02  0.8274391E-01
       -2   -1    0    0    0  501  0.00000000000E+00  0.00000000000E+00  0.11400248105E+04  0.11400248105E+04  0.25500000920E-02 0.  1.
        2   -1    0    0  501    0  0.00000000000E+00  0.00000000000E+00 -0.18378018195E+04  0.18378018196E+04  0.25500000920E-02 0. -1.
    10030    2    1    2    0    0  0.00000000000E+00  0.00000000000E+00 -0.69777700907E+03  0.29778266300E+04  0.28949194607E+04 0.  0.
        5    1    3    3  502    0  0.33819363440E+03 -0.13968789094E+04 -0.17229796747E+03  0.14475338688E+04  0.46999998093E+01 0.  1.
       -5    1    3    3    0  502 -0.33819363440E+03  0.13968789094E+04 -0.52547904160E+03  0.15302927612E+04  0.46999998093E+01 0. -1.
</event>
<event>
 5   0  0.3786210E-07  0.2894474E+04  0.7818609E-02  0.8274523E-01
        1   -1    0    0  501    0  0.00000000000E+00  0.00000000000E+00  0.16035526864E+04  0.16035526864E+04  0.50400001928E-02 0.  1.
       -1   -1    0    0    0  501  0.00000000000E+00  0.00000000000E+00 -0.13061592056E+04  0.13061592056E+04  0.50400001928E-02 0. -1.
    10030    2    1    2    0    0  0.00000000000E+00  0.00000000000E+00  0.29739348080E+03  0.29097118919E+04  0.28944741166E+04 0.  0.
        5    1    3    3  502    0 -0.11849059206E+04 -0.81272074780E+02  0.98001203038E+03  0.15398223471E+04  0.46999998093E+01 0.  1.
       -5    1    3    3    0  502  0.11849059206E+04  0.81272074780E+02 -0.68261854958E+03  0.13698895449E+04  0.46999998093E+01 0. -1.
</event>
<event>
 5   0  0.9950999E-07  0.2911967E+04  0.7818609E-02  0.8269326E-01
       -2   -1    0    0    0  501  0.00000000000E+00  0.00000000000E+00  0.10720723638E+04  0.10720723638E+04  0.25500000920E-02 0. -1.
        2   -1    0    0  501    0  0.00000000000E+00  0.00000000000E+00 -0.19773740343E+04  0.19773740343E+04  0.25500000920E-02 0.  1.
    10030    2    1    2    0    0  0.00000000000E+00  0.00000000000E+00 -0.90530167049E+03  0.30494463981E+04  0.29119670706E+04 0.  0.
        3    1    3    3  502    0 -0.13988332151E+04 -0.12588571537E+03 -0.50725435349E+02  0.14054019556E+04  0.10100000352E+00 0. -1.
       -3    1    3    3    0  502  0.13988332151E+04  0.12588571537E+03 -0.85457623514E+03  0.16440444425E+04  0.10100000352E+00 0.  1.
</event>
<event>
 5   0  0.1031339E-06  0.2897478E+04  0.7818609E-02  0.8273628E-01
       -2   -1    0    0    0  501  0.00000000000E+00  0.00000000000E+00  0.14256527145E+04  0.14256527145E+04  0.25500000920E-02 0.  1.
        2   -1    0    0  501    0  0.00000000000E+00  0.00000000000E+00 -0.14721993442E+04  0.14721993442E+04  0.25500000920E-02 0. -1.
    10030    2    1    2    0    0  0.00000000000E+00  0.00000000000E+00 -0.46546629653E+02  0.28978520587E+04  0.28974782080E+04 0.  0.
        5    1    3    3  502    0 -0.18457426265E+03 -0.48007264941E+03  0.13312593968E+04  0.14271689033E+04  0.46999998093E+01 0.  1.
       -5    1    3    3    0  502  0.18457426265E+03  0.48007264941E+03 -0.13778060264E+04  0.14706831554E+04  0.46999998093E+01 0. -1.
</event>
<event>
 5   0  0.3638028E-07  0.2893142E+04  0.7818609E-02  0.8274921E-01
       -1   -1    0    0    0  501  0.00000000000E+00  0.00000000000E+00  0.14307064798E+04  0.14307064798E+04  0.50400001928E-02 0.  1.
        1   -1    0    0  501    0  0.00000000000E+00  0.00000000000E+00 -0.14626115664E+04  0.14626115664E+04  0.50400001928E-02 0. -1.
    10030    2    1    2    0    0  0.00000000000E+00  0.00000000000E+00 -0.31905086557E+02  0.28933180462E+04  0.28931421296E+04 0.  0.
        4    1    3    3  502    0 -0.29740214330E+03  0.27516987150E+03 -0.14047053140E+04  0.14619730248E+04  0.12699999809E+01 0. -1.
       -4    1    3    3    0  502  0.29740214330E+03 -0.27516987150E+03  0.13728002275E+04  0.14313450215E+04  0.12699999809E+01 0.  1.
</event>
<event>
 5   0  0.9950999E-07  0.2918060E+04  0.7818609E-02  0.8267524E-01
        2   -1    0    0  501    0  0.00000000000E+00  0.00000000000E+00  0.14000394153E+04  0.14000394153E+04  0.25500000920E-02 0.  1.
       -2   -1    0    0    0  501  0.00000000000E+00  0.00000000000E+00 -0.15205061652E+04  0.15205061652E+04  0.25500000920E-02 0. -1.
    10030    2    1    2    0    0  0.00000000000E+00  0.00000000000E+00 -0.12046674992E+03  0.29205455805E+04  0.29180600148E+04 0.  0.
        3    1    3    3  502    0 -0.90193610506E+03 -0.25556402855E+03 -0.11792048491E+04  0.15064281585E+04  0.10100000352E+00 0. -1.
       -3    1    3    3    0  502  0.90193610506E+03  0.25556402855E+03  0.10587380992E+04  0.14141174220E+04  0.10100000352E+00 0.  1.
</event>
<event>
 5   0  0.9994311E-07  0.2893244E+04  0.7818609E-02  0.8274890E-01
        2   -1    0    0  501    0  0.00000000000E+00  0.00000000000E+00  0.19519933020E+04  0.19519933020E+04  0.25500000920E-02 0.  1.
       -2   -1    0    0    0  501  0.00000000000E+00  0.00000000000E+00 -0.10720915822E+04  0.10720915822E+04  0.25500000920E-02 0. -1.
    10030    2    1    2    0    0  0.00000000000E+00  0.00000000000E+00  0.87990171976E+03  0.30240848842E+04  0.28932442605E+04 0.  0.
        2    1    3    3  502    0  0.11734901227E+04 -0.26250372133E+03  0.12805129811E+04  0.17566162833E+04  0.25500000920E-02 0.  1.
       -2    1    3    3    0  502 -0.11734901227E+04  0.26250372133E+03 -0.40061126138E+03  0.12674686010E+04  0.25500000920E-02 0. -1.
</event>
<event>
 5   0  0.1006893E-06  0.2898273E+04  0.7818609E-02  0.8273392E-01
        2   -1    0    0  501    0  0.00000000000E+00  0.00000000000E+00  0.24108270091E+04  0.24108270091E+04  0.25500000920E-02 0. -1.
       -2   -1    0    0    0  501  0.00000000000E+00  0.00000000000E+00 -0.87106867111E+03  0.87106867112E+03  0.25500000920E-02 0.  1.
    10030    2    1    2    0    0  0.00000000000E+00  0.00000000000E+00  0.15397583380E+04  0.32818956802E+04  0.28982725056E+04 0.  0.
        4    1    3    3  502    0  0.52950026213E+03  0.12763421996E+04  0.12642100638E+04  0.18728717619E+04  0.12699999809E+01 0. -1.
       -4    1    3    3    0  502 -0.52950026213E+03 -0.12763421996E+04  0.27554827425E+03  0.14090239184E+04  0.12699999809E+01 0.  1.
</event>
<event>
 5   0  0.9950999E-07  0.2900183E+04  0.7818609E-02  0.8272823E-01
       -2   -1    0    0    0  501  0.00000000000E+00  0.00000000000E+00  0.11371073246E+04  0.11371073246E+04  0.25500000920E-02 0. -1.
        2   -1    0    0  501    0  0.00000000000E+00  0.00000000000E+00 -0.18492232856E+04  0.18492232856E+04  0.25500000920E-02 0.  1.
    10030    2    1    2    0    0  0.00000000000E+00  0.00000000000E+00 -0.71211596100E+03  0.29863306102E+04  0.29001829894E+04 0.  0.
        3    1    3    3  502    0 -0.78208752735E+02 -0.31338038614E+03 -0.18117121215E+04  0.18402784291E+04  0.10100000352E+00 0.  1.
       -3    1    3    3    0  502  0.78208752735E+02  0.31338038614E+03  0.10995961605E+04  0.11460521811E+04  0.10100000352E+00 0. -1.
</event>
<event>
 5   0  0.1063979E-06  0.2905234E+04  0.7818609E-02  0.8271322E-01
       -2   -1    0    0    0  501  0.00000000000E+00  0.00000000000E+00  0.13764790629E+04  0.13764790629E+04  0.25500000920E-02 0.  1.
        2   -1    0    0  501    0  0.00000000000E+00  0.00000000000E+00 -0.15329665139E+04  0.15329665139E+04  0.25500000920E-02 0. -1.
    10030    2    1    2    0    0  0.00000000000E+00  0.00000000000E+00 -0.15648745106E+03  0.29094455768E+04  0.29052341114E+04 0.  0.
        1    1    3    3  502    0  0.11226686023E+03 -0.12862537697E+04  0.58833644019E+03  0.14188701050E+04  0.50400001928E-02 0.  1.
       -1    1    3    3    0  502 -0.11226686023E+03  0.12862537697E+04 -0.74482389125E+03  0.14905754718E+04  0.50400001928E-02 0. -1.
</event>
<event>
 5   0  0.1063979E-06  0.2902232E+04  0.7818609E-02  0.8272214E-01
        2   -1    0    0  501    0  0.00000000000E+00  0.00000000000E+00  0.18993766155E+04  0.18993766155E+04  0.25500000920E-02 0. -1.
       -2   -1    0    0    0  501  0.00000000000E+00  0.00000000000E+00 -0.11086467555E+04  0.11086467555E+04  0.25500000920E-02 0.  1.
    10030    2    1    2    0    0  0.00000000000E+00  0.00000000000E+00  0.79072985994E+03  0.30080233710E+04  0.29022320529E+04 0.  0.
        1    1    3    3  502    0 -0.46851135193E+03 -0.46660327960E+03  0.17341605650E+04  0.18559456815E+04  0.50400001928E-02 0. -1.
       -1    1    3    3    0  502  0.46851135193E+03  0.46660327960E+03 -0.94343070504E+03  0.11520776895E+04  0.50400001928E-02 0.  1.
</event>
<event>
 5   0  0.3770467E-07  0.2899419E+04  0.7818609E-02  0.8273050E-01
       -1   -1    0    0    0  501  0.00000000000E+00  0.00000000000E+00  0.12869164965E+04  0.12869164965E+04  0.50400001928E-02 0. -1.
        1   -1    0    0  501    0  0.00000000000E+00  0.00000000000E+00 -0.16330960315E+04  0.16330960315E+04  0.50400001928E-02 0.  1.
    10030    2    1    2    0    0  0.00000000000E+00  0.00000000000E+00 -0.34617953497E+03  0.29200125280E+04  0.28994194063E+04 0.  0.
        1    1    3    3  502    0  0.79837256814E+03  0.10410329897E+04 -0.79432572543E+03  0.15336563504E+04  0.50400001928E-02 0.  1.
       -1    1    3    3    0  502 -0.79837256814E+03 -0.10410329897E+04  0.44814619046E+03  0.13863561776E+04  0.50400001928E-02 0. -1.
</event>
<event>
 5   0  0.3885904E-07  0.2901051E+04  0.7818609E-02  0.8272565E-01
        1   -1    0    0  501    0  0.00000000000E+00  0.00000000000E+00  0.14535746889E+04  0.14535746889E+04  0.50400001928E-02 0.  1.
       -1   -1    0    0    0  501  0.00000000000E+00  0.00000000000E+00 -0.14474825187E+04  0.14474825187E+04  0.50400001928E-02 0. -1.
    10030    2    1    2    0    0  0.00000000000E+00  0.00000000000E+00  0.60921701399E+01  0.29010572076E+04  0.29010508108E+04 0.  0.
        2    1    3    3  502    0  0.35242811844E+03  0.14011562298E+04 -0.12571596632E+03  0.14502582057E+04  0.25500000920E-02 0. -1.
       -2    1    3    3    0  502 -0.35242811844E+03 -0.14011562298E+04  0.13180813646E+03  0.14507990019E+04  0.25500000920E-02 0.  1.
</event>
<event>
 5   0  0.1063979E-06  0.2887638E+04  0.7818609E-02  0.8276565E-01
        2   -1    0    0  501    0  0.00000000000E+00  0.00000000000E+00  0.14722691552E+04  0.14722691552E+04  0.25500000920E-02 0.  1.
       -2   -1    0    0    0  501  0.00000000000E+00  0.00000000000E+00 -0.14159189777E+04  0.14159189777E+04  0.25500000920E-02 0. -1.
    10030    2    1    2    0    0  0.00000000000E+00  0.00000000000E+00  0.56350177531E+02  0.28881881329E+04  0.28876383687E+04 0.  0.
        1    1    3    3  502    0 -0.46548501584E+02  0.84933302466E+03  0.11950507446E+04  0.14668604678E+04  0.50400001928E-02 0.  1.
       -1    1    3    3    0  502  0.46548501584E+02 -0.84933302466E+03 -0.11387005671E+04  0.14213276650E+04  0.50400001928E-02 0. -1.
</event>
<event>
 5   0  0.3786210E-07  0.2882297E+04  0.7818609E-02  0.8278164E-01
        1   -1    0    0  501    0  0.00000000000E+00  0.00000000000E+00  0.24906165300E+04  0.24906165300E+04  0.50400001928E-02 0.  1.
       -1   -1    0    0    0  501  0.00000000000E+00  0.00000000000E+00 -0.83389361213E+03  0.83389361214E+03  0.50400001928E-02 0. -1.
    10030    2    1    2    0    0  0.00000000000E+00  0.00000000000E+00  0.16567229179E+04  0.33245101421E+04  0.28822971496E+04 0.  0.
        5    1    3    3  502    0  0.14242168291E+04 -0.21296013364E+03  0.89301011441E+03  0.16944718202E+04  0.46999998093E+01 0. -1.
       -5    1    3    3    0  502 -0.14242168291E+04  0.21296013364E+03  0.76371280346E+03  0.16300383220E+04  0.46999998093E+01 0.  1.
</event>
<event>
 5   0  0.1031339E-06  0.2902564E+04  0.7818609E-02  0.8272115E-01
       -2   -1    0    0    0  501  0.00000000000E+00  0.00000000000E+00  0.86645357361E+03  0.86645357362E+03  0.25500000920E-02 0. -1.
        2   -1    0    0  501    0  0.00000000000E+00  0.00000000000E+00 -0.24308502871E+04  0.24308502871E+04  0.25500000920E-02 0.  1.
    10030    2    1    2    0    0  0.00000000000E+00  0.00000000000E+00 -0.15643967135E+04  0.32973038607E+04  0.29025636380E+04 0.  0.
        5    1    3    3  502    0 -0.12631042687E+04 -0.42190915384E+03 -0.14374994408E+04  0.19595577205E+04  0.46999998093E+01 0.  1.
       -5    1    3    3    0  502  0.12631042687E+04  0.42190915384E+03 -0.12689727269E+03  0.13377461402E+04  0.46999998093E+01 0. -1.
</event>
<event>
 5   0  0.3769563E-07  0.2903780E+04  0.7818609E-02  0.8271754E-01
        1   -1    0    0  501    0  0.00000000000E+00  0.00000000000E+00  0.15960769484E+04  0.15960769484E+04  0.50400001928E-02 0.  1.
       -1   -1    0    0    0  501  0.00000000000E+00  0.00000000000E+00 -0.13207282676E+04  0.13207282676E+04  0.50400001928E-02 0. -1.
    10030    2    1    2    0    0  0.00000000000E+00  0.00000000000E+00  0.27534868085E+03  0.29168052160E+04  0.29037795667E+04 0.  0.
        3    1    3    3  502    0 -0.73736052287E+03 -0.28356194711E+03  0.13612831370E+04  0.15739122300E+04  0.10100000352E+00 0.  1.
       -3    1    3    3    0  502  0.73736052287E+03  0.28356194711E+03 -0.10859344562E+04  0.13428929860E+04  0.10100000352E+00 0. -1.
</event>
<event>
 5   0  0.9994311E-07  0.2900805E+04  0.7818609E-02  0.8272638E-01
       -2   -1    0    0    0  501  0.00000000000E+00  0.00000000000E+00  0.95509118206E+03  0.95509118206E+03  0.25500000920E-02 0. -1.
        2   -1    0    0  501    0  0.00000000000E+00  0.00000000000E+00 -0.22025823677E+04  0.22025823677E+04  0.25500000920E-02 0.  1.
    10030    2    1    2    0    0  0.00000000000E+00  0.00000000000E+00 -0.12474911856E+04  0.31576735497E+04  0.29008047139E+04 0.  0.
        2    1    3    3  502    0 -0.66991121146E+03 -0.14143191302E+03  0.76810325109E+03  0.10289638583E+04  0.25500000920E-02 0. -1.
       -2    1    3    3    0  502  0.66991121146E+03  0.14143191302E+03 -0.20155944367E+04  0.21287096915E+04  0.25500000920E-02 0.  1.
</event>
<event>
 5   0  0.3638028E-07  0.2903689E+04  0.7818609E-02  0.8271781E-01
        1   -1    0    0  501    0  0.00000000000E+00  0.00000000000E+00  0.11707371449E+04  0.11707371450E+04  0.50400001928E-02 0. -1.
       -1   -1    0    0    0  501  0.00000000000E+00  0.00000000000E+00 -0.18004484949E+04  0.18004484949E+04  0.50400001928E-02 0.  1.
    10030    2    1    2    0    0  0.00000000000E+00  0.00000000000E+00 -0.62971134992E+03  0.29711856398E+04  0.29036886407E+04 0.  0.
        4    1    3    3  502    0  0.11730657713E+04 -0.69593357846E+03 -0.82385562391E+03  0.15934699719E+04  0.12699999809E+01 0.  1.
       -4    1    3    3    0  502 -0.11730657713E+04  0.69593357846E+03  0.19414427399E+03  0.13777156679E+04  0.12699999809E+01 0. -1.
</event>
<event>
 5   0  0.3786210E-07  0.2904869E+04  0.7818609E-02  0.8271430E-01
        1   -1    0    0  501    0  0.00000000000E+00  0.00000000000E+00  0.17819713020E+04  0.17819713020E+04  0.50400001928E-02 0. -1.
       -1   -1    0    0    0  501  0.00000000000E+00  0.00000000000E+00 -0.11838384838E+04  0.11838384838E+04  0.50400001928E-02 0.  1.
    10030    2    1    2    0    0  0.00000000000E+00  0.00000000000E+00  0.59813281820E+03  0.29658097858E+04  0.29048691567E+04 0.  0.
        5    1    3    3  502    0 -0.75651857564E+03  0.55397627534E+03 -0.83340758929E+03  0.12545120043E+04  0.46999998093E+01 0.  1.
       -5    1    3    3    0  502  0.75651857564E+03 -0.55397627534E+03  0.14315404075E+04  0.17112977816E+04  0.46999998093E+01 0. -1.
</event>
<event>
 5   0  0.3770467E-07  0.2899149E+04  0.7818609E-02  0.8273131E-01
        1   -1    0    0  501    0  0.00000000000E+00  0.00000000000E+00  0.13912583932E+04  0.13912583932E+04  0.50400001928E-02 0. -1.
       -1   -1    0    0    0  501  0.00000000000E+00  0.00000000000E+00 -0.15103347189E+04  0.15103347189E+04  0.50400001928E-02 0.  1.
    10030    2    1    2    0    0  0.00000000000E+00  0.00000000000E+00 -0.11907632575E+03  0.29015931121E+04  0.28991487401E+04 0.  0.
        1    1    3    3  502    0 -0.69495990402E+02  0.12674393784E+04 -0.76015236517E+03  0.14795485422E+04  0.50400001928E-02 0.  1.
       -1    1    3    3    0  502  0.69495990402E+02 -0.12674393784E+04  0.64107603941E+03  0.14220445699E+04  0.50400001928E-02 0. -1.
</event>
<event>
 5   0  0.3885904E-07  0.2898898E+04  0.7818609E-02  0.8273205E-01
        1   -1    0    0  501    0  0.00000000000E+00  0.00000000000E+00  0.19415623787E+04  0.19415623787E+04  0.50400001928E-02 0.  1.
       -1   -1    0    0    0  501  0.00000000000E+00  0.00000000000E+00 -0.10820678218E+04  0.10820678218E+04  0.50400001928E-02 0. -1.
    10030    2    1    2    0    0  0.00000000000E+00  0.00000000000E+00  0.85949455691E+03  0.30236302005E+04  0.28988978416E+04 0.  0.
        2    1    3    3  502    0  0.11033972649E+03 -0.75569314870E+03  0.17146857090E+04  0.18770706089E+04  0.25500000920E-02 0.  1.
       -2    1    3    3    0  502 -0.11033972649E+03  0.75569314870E+03 -0.85519115212E+03  0.11465595915E+04  0.25500000920E-02 0. -1.
</event>
<event>
 5   0  0.9950999E-07  0.2901317E+04  0.7818609E-02  0.8272486E-01
       -2   -1    0    0    0  501  0.00000000000E+00  0.00000000000E+00  0.27421242063E+04  0.27421242063E+04  0.25500000920E-02 0. -1.
        2   -1    0    0  501    0  0.00000000000E+00  0.00000000000E+00 -0.76743795323E+03  0.76743795323E+03  0.25500000920E-02 0.  1.
    10030    2    1    2    0    0  0.00000000000E+00  0.00000000000E+00  0.19746862530E+04  0.35095621595E+04  0.29013170722E+04 0.  0.
        3    1    3    3  502    0 -0.34412186234E+03  0.13751486185E+03 -0.70921504375E+03  0.80019758926E+03  0.10100000352E+00 0.  1.
       -3    1    3    3    0  502  0.34412186234E+03 -0.13751486185E+03  0.26839012968E+04  0.27093645702E+04  0.10100000352E+00 0. -1.
</event>
<event>
 5   0  0.1063979E-06  0.2888248E+04  0.7818609E-02  0.8276383E-01
       -2   -1    0    0    0  501  0.00000000000E+00  0.00000000000E+00  0.13323481432E+04  0.13323481432E+04  0.25500000920E-02 0. -1.
        2   -1    0    0  501    0  0.00000000000E+00  0.00000000000E+00 -0.15652768813E+04  0.15652768813E+04  0.25500000920E-02 0.  1.
    10030    2    1    2    0    0  0.00000000000E+00  0.00000000000E+00 -0.23292873814E+03  0.28976250245E+04  0.28882477361E+04 0.  0.
        1    1    3    3  502    0 -0.22182038238E+03 -0.36393523370E+03 -0.15007414714E+04  0.15600891322E+04  0.50400001928E-02 0.  1.
       -1    1    3    3    0  502  0.22182038238E+03  0.36393523370E+03  0.12678127333E+04  0.13375358922E+04  0.50400001928E-02 0. -1.
</event>
<event>
 5   0  0.3885904E-07  0.2902113E+04  0.7818609E-02  0.8272249E-01
       -1   -1    0    0    0  501  0.00000000000E+00  0.00000000000E+00  0.12724796719E+04  0.12724796719E+04  0.50400001928E-02 0. -1.
        1   -1    0    0  501    0  0.00000000000E+00  0.00000000000E+00 -0.16546947219E+04  0.16546947219E+04  0.50400001928E-02 0.  1.
    10030    2    1    2    0    0  0.00000000000E+00  0.00000000000E+00 -0.38221504995E+03  0.29271743938E+04  0.29021132967E+04 0.  0.
        2    1    3    3  502    0  0.12945455823E+04  0.48520851516E+03 -0.63569709231E+03  0.15216393663E+04  0.25500000920E-02 0. -1.
       -2    1    3    3    0  502 -0.12945455823E+04 -0.48520851516E+03  0.25348204236E+03  0.14055350275E+04  0.25500000920E-02 0.  1.
</event>
<event>
 5   0  0.3638028E-07  0.2899155E+04  0.7818609E-02  0.8273129E-01
        1   -1    0    0  501    0  0.00000000000E+00  0.00000000000E+00  0.11927878595E+04  0.11927878595E+04  0.50400001928E-02 0. -1.
       -1   -1    0    0    0  501  0.00000000000E+00  0.00000000000E+00 -0.17616498693E+04  0.17616498693E+04  0.50400001928E-02 0.  1.
    10030    2    1    2    0    0  0.00000000000E+00  0.00000000000E+00 -0.56886200986E+03  0.29544377288E+04  0.28991547574E+04 0.  0.
        4    1    3    3  502    0 -0.22553037992E+03 -0.16631638161E+03  0.11649224783E+04  0.11981531974E+04  0.12699999809E+01 0. -1.
       -4    1    3    3    0  502  0.22553037992E+03  0.16631638161E+03 -0.17337844881E+04  0.17562845314E+04  0.12699999809E+01 0.  1.
</event>
<event>
 5   0  0.3769563E-07  0.2929145E+04  0.7818609E-02  0.8264258E-01
        1   -1    0    0  501    0  0.00000000000E+00  0.00000000000E+00  0.20902472558E+04  0.20902472558E+04  0.50400001928E-02 0. -1.
       -1   -1    0    0    0  501  0.00000000000E+00  0.00000000000E+00 -0.10261812652E+04  0.10261812652E+04  0.50400001928E-02 0.  1.
    10030    2    1    2    0    0  0.00000000000E+00  0.00000000000E+00  0.10640659906E+04  0.31164285210E+04  0.29291449766E+04 0.  0.
        3    1    3    3  502    0 -0.94368187685E+03 -0.20840882444E+03  0.17028496290E+04  0.19579751254E+04  0.10100000352E+00 0. -1.
       -3    1    3    3    0  502  0.94368187685E+03  0.20840882444E+03 -0.63878363836E+03  0.11584533955E+04  0.10100000352E+00 0.  1.
</event>
<event>
 5   0  0.3638028E-07  0.2921940E+04  0.7818609E-02  0.8266379E-01
        1   -1    0    0  501    0  0.00000000000E+00  0.00000000000E+00  0.14941354263E+04  0.14941354263E+04  0.50400001928E-02 0. -1.
       -1   -1    0    0    0  501  0.00000000000E+00  0.00000000000E+00 -0.14285410799E+04  0.14285410799E+04  0.50400001928E-02 0.  1.
    10030    2    1    2    0    0  0.00000000000E+00  0.00000000000E+00  0.65594346393E+02  0.29226765062E+04  0.29219403385E+04 0.  0.
        4    1    3    3  502    0 -0.70956197543E+03  0.12458017708E+04  0.31381630326E+03  0.14676452344E+04  0.12699999809E+01 0. -1.
       -4    1    3    3    0  502  0.70956197543E+03 -0.12458017708E+04 -0.24822195687E+03  0.14550312718E+04  0.12699999809E+01 0.  1.
</event>
<event>
 5   0  0.9994311E-07  0.2889828E+04  0.7818609E-02  0.8275910E-01
       -2   -1    0    0    0  501  0.00000000000E+00  0.00000000000E+00  0.10779563735E+04  0.10779563735E+04  0.25500000920E-02 0. -1.
        2   -1    0    0  501    0  0.00000000000E+00  0.00000000000E+00 -0.19367909465E+04  0.19367909465E+04  0.25500000920E-02 0.  1.
    10030    2    1    2    0    0  0.00000000000E+00  0.00000000000E+00 -0.85883457299E+03  0.30147473200E+04  0.28898277769E+04 0.  0.
        2    1    3    3  502    0  0.67643996236E+03  0.12727940753E+04 -0.53477996378E+03  0.15373891473E+04  0.25500000920E-02 0. -1.
       -2    1    3    3    0  502 -0.67643996236E+03 -0.12727940753E+04 -0.32405460921E+03  0.14773581727E+04  0.25500000920E-02 0.  1.
</event>
<event>
 5   0  0.1063979E-06  0.2905318E+04  0.7818609E-02  0.8271297E-01
       -2   -1    0    0    0  501  0.00000000000E+00  0.00000000000E+00  0.99931997760E+03  0.99931997760E+03  0.25500000920E-02 0.  1.
        2   -1    0    0  501    0  0.00000000000E+00  0.00000000000E+00 -0.21116535202E+04  0.21116535202E+04  0.25500000920E-02 0. -1.
    10030    2    1    2    0    0  0.00000000000E+00  0.00000000000E+00 -0.11123335426E+04  0.31109734978E+04  0.29053175720E+04 0.  0.
        1    1    3    3  502    0  0.42103886265E+03  0.12345561877E+04  0.12847915577E+03  0.13106905042E+04  0.50400001928E-02 0.  1.
       -1    1    3    3    0  502 -0.42103886265E+03 -0.12345561877E+04 -0.12408126984E+04  0.18002829936E+04  0.50400001928E-02 0. -1.
</event>
<event>
 5   0  0.3770467E-07  0.2901747E+04  0.7818609E-02  0.8272358E-01
       -1   -1    0    0    0  501  0.00000000000E+00  0.00000000000E+00  0.10962086478E+04  0.10962086478E+04  0.50400001928E-02 0. -1.
        1   -1    0    0  501    0  0.00000000000E+00  0.00000000000E+00 -0.19202858463E+04  0.19202858463E+04  0.50400001928E-02 0.  1.
    10030    2    1    2    0    0  0.00000000000E+00  0.00000000000E+00 -0.82407719857E+03  0.30164944941E+04  0.29017470262E+04 0.  0.
        1    1    3    3  502    0  0.65536666350E+03 -0.73745481682E+03  0.69383760513E+03  0.12061325353E+04  0.50400001928E-02 0. -1.
       -1    1    3    3    0  502 -0.65536666350E+03  0.73745481682E+03 -0.15179148037E+04  0.18103619588E+04  0.50400001928E-02 0.  1.
</event>
<event>
 5   0  0.9994311E-07  0.2909674E+04  0.7818609E-02  0.8270005E-01
        2   -1    0    0  501    0  0.00000000000E+00  0.00000000000E+00  0.14239608452E+04  0.14239608452E+04  0.25500000920E-02 0. -1.
       -2   -1    0    0    0  501  0.00000000000E+00  0.00000000000E+00 -0.14863826531E+04  0.14863826531E+04  0.25500000920E-02 0.  1.
    10030    2    1    2    0    0  0.00000000000E+00  0.00000000000E+00 -0.62421807937E+02  0.29103434983E+04  0.29096740016E+04 0.  0.
        2    1    3    3  502    0 -0.11200153942E+04 -0.87597845678E+03  0.27672022414E+03  0.14485671618E+04  0.25500000920E-02 0. -1.
       -2    1    3    3    0  502  0.11200153942E+04  0.87597845678E+03 -0.33914203208E+03  0.14617763364E+04  0.25500000920E-02 0.  1.
</event>
<event>
 5   0  0.3769563E-07  0.2899175E+04  0.7818609E-02  0.8273123E-01
       -1   -1    0    0    0  501  0.00000000000E+00  0.00000000000E+00  0.13195790744E+04  0.13195790744E+04  0.50400001928E-02 0. -1.
        1   -1    0    0  501    0  0.00000000000E+00  0.00000000000E+00 -0.15924051717E+04  0.15924051717E+04  0.50400001928E-02 0.  1.
    10030    2    1    2    0    0  0.00000000000E+00  0.00000000000E+00 -0.27282609733E+03  0.29119842461E+04  0.28991754293E+04 0.  0.
        3    1    3    3  502    0  0.12521904836E+04 -0.53208410574E+03 -0.63883300665E+03  0.15030642446E+04  0.10100000352E+00 0.  1.
       -3    1    3    3    0  502 -0.12521904836E+04  0.53208410574E+03  0.36600690933E+03  0.14089200015E+04  0.10100000352E+00 0. -1.
</event>
<event>
 5   0  0.1063979E-06  0.2893491E+04  0.7818609E-02  0.8274817E-01
       -2   -1    0    0    0  501  0.00000000000E+00  0.00000000000E+00  0.12021329593E+04  0.12021329593E+04  0.25500000920E-02 0. -1.
        2   -1    0    0  501    0  0.00000000000E+00  0.00000000000E+00 -0.17411321904E+04  0.17411321904E+04  0.25500000920E-02 0.  1.
    10030    2    1    2    0    0  0.00000000000E+00  0.00000000000E+00 -0.53899923108E+03  0.29432651497E+04  0.28934908969E+04 0.  0.
        1    1    3    3  502    0 -0.27752842796E+03  0.10485064612E+04  0.70440680098E+03  0.12932813958E+04  0.50400001928E-02 0.  1.
       -1    1    3    3    0  502  0.27752842796E+03 -0.10485064612E+04 -0.12434060321E+04  0.16499837539E+04  0.50400001928E-02 0. -1.
</event>
<event>
 5   0  0.3769563E-07  0.2901231E+04  0.7818609E-02  0.8272511E-01
        1   -1    0    0  501    0  0.00000000000E+00  0.00000000000E+00  0.22540839649E+04  0.22540839649E+04  0.50400001928E-02 0. -1.
       -1   -1    0    0    0  501  0.00000000000E+00  0.00000000000E+00 -0.93354316699E+03  0.93354316700E+03  0.50400001928E-02 0.  1.
    10030    2    1    2    0    0  0.00000000000E+00  0.00000000000E+00  0.13205407979E+04  0.31876271319E+04  0.29012305550E+04 0.  0.
        3    1    3    3  502    0  0.50786692473E+02  0.13305973700E+03 -0.92584280509E+03  0.93673320197E+03  0.10100000352E+00 0.  1.
       -3    1    3    3    0  502 -0.50786692473E+02 -0.13305973700E+03  0.22463836030E+04  0.22508939299E+04  0.10100000352E+00 0. -1.
</event>
<event>
 5   0  0.1031339E-06  0.2901720E+04  0.7818609E-02  0.8272366E-01
        2   -1    0    0  501    0  0.00000000000E+00  0.00000000000E+00  0.15779790158E+04  0.15779790158E+04  0.25500000920E-02 0.  1.
       -2   -1    0    0    0  501  0.00000000000E+00  0.00000000000E+00 -0.13339817772E+04  0.13339817772E+04  0.25500000920E-02 0. -1.
    10030    2    1    2    0    0  0.00000000000E+00  0.00000000000E+00  0.24399723861E+03  0.29119607930E+04  0.29017203531E+04 0.  0.
        5    1    3    3  502    0 -0.11574981584E+04  0.41633820582E+03  0.89402084453E+03  0.15206692109E+04  0.46999998093E+01 0.  1.
       -5    1    3    3    0  502  0.11574981584E+04 -0.41633820582E+03 -0.65002360592E+03  0.13912915822E+04  0.46999998093E+01 0. -1.
</event>
<event>
 5   0  0.1063979E-06  0.2900820E+04  0.7818609E-02  0.8272634E-01
        2   -1    0    0  501    0  0.00000000000E+00  0.00000000000E+00  0.17893045884E+04  0.17893045884E+04  0.25500000920E-02 0.  1.
       -2   -1    0    0    0  501  0.00000000000E+00  0.00000000000E+00 -0.11757019449E+04  0.11757019449E+04  0.25500000920E-02 0. -1.
    10030    2    1    2    0    0  0.00000000000E+00  0.00000000000E+00  0.61360264354E+03  0.29650065333E+04  0.29008198045E+04 0.  0.
        1    1    3    3  502    0 -0.11634651313E+04 -0.20456404092E+03 -0.55336058310E+03  0.13044943440E+04  0.50400001928E-02 0. -1.
       -1    1    3    3    0  502  0.11634651313E+04  0.20456404092E+03  0.11669632266E+04  0.16605121893E+04  0.50400001928E-02 0.  1.
</event>
<event>
 5   0  0.3885904E-07  0.2899066E+04  0.7818609E-02  0.8273156E-01
        1   -1    0    0  501    0  0.00000000000E+00  0.00000000000E+00  0.10196535647E+04  0.10196535647E+04  0.50400001928E-02 0. -1.
       -1   -1    0    0    0  501  0.00000000000E+00  0.00000000000E+00 -0.20606462980E+04  0.20606462980E+04  0.50400001928E-02 0.  1.
    10030    2    1    2    0    0  0.00000000000E+00  0.00000000000E+00 -0.10409927333E+04  0.30802998627E+04  0.28990656035E+04 0.  0.
        2    1    3    3  502    0  0.52884812146E+02  0.14485158737E+04 -0.50747010426E+03  0.15357476832E+04  0.25500000920E-02 0. -1.
       -2    1    3    3    0  502 -0.52884812146E+02 -0.14485158737E+04 -0.53352262904E+03  0.15445521796E+04  0.25500000920E-02 0.  1.
</event>
<event>
 5   0  0.9994311E-07  0.2896986E+04  0.7818609E-02  0.8273775E-01
        2   -1    0    0  501    0  0.00000000000E+00  0.00000000000E+00  0.22467052854E+04  0.22467052854E+04  0.25500000920E-02 0. -1.
       -2   -1    0    0    0  501  0.00000000000E+00  0.00000000000E+00 -0.93387054654E+03  0.93387054655E+03  0.25500000920E-02 0.  1.
    10030    2    1    2    0    0  0.00000000000E+00  0.00000000000E+00  0.13128347389E+04  0.31805758320E+04  0.28969859460E+04 0.  0.
        2    1    3    3  502    0  0.93270262383E+03 -0.55772557360E+03 -0.39500486892E+03  0.11562961759E+04  0.25500000920E-02 0.  1.
       -2    1    3    3    0  502 -0.93270262383E+03  0.55772557360E+03  0.17078396078E+04  0.20242796561E+04  0.25500000920E-02 0. -1.
</event>
<event>
 5   0  0.1063979E-06  0.2912290E+04  0.7818609E-02  0.8269230E-01
        2   -1    0    0  501    0  0.00000000000E+00  0.00000000000E+00  0.16930072224E+04  0.16930072224E+04  0.25500000920E-02 0. -1.
       -2   -1    0    0    0  501  0.00000000000E+00  0.00000000000E+00 -0.12524211002E+04  0.12524211002E+04  0.25500000920E-02 0.  1.
    10030    2    1    2    0    0  0.00000000000E+00  0.00000000000E+00  0.44058612223E+03  0.29454283226E+04  0.29122897988E+04 0.  0.
        1    1    3    3  502    0 -0.60279377933E+03  0.20257070235E+03 -0.11045602519E+04  0.12745385753E+04  0.50400001928E-02 0.  1.
       -1    1    3    3    0  502  0.60279377933E+03 -0.20257070235E+03  0.15451463742E+04  0.16708897473E+04  0.50400001928E-02 0. -1.
</event>
<event>
 5   0  0.3885904E-07  0.2900712E+04  0.7818609E-02  0.8272666E-01
        1   -1    0    0  501    0  0.00000000000E+00  0.00000000000E+00  0.20683939173E+04  0.20683939173E+04  0.50400001928E-02 0. -1.
       -1   -1    0    0    0  501  0.00000000000E+00  0.00000000000E+00 -0.10169884829E+04  0.10169884829E+04  0.50400001928E-02 0.  1.
    10030    2    1    2    0    0  0.00000000000E+00  0.00000000000E+00  0.10514054344E+04  0.30853824002E+04  0.29007121829E+04 0.  0.
        2    1    3    3  502    0 -0.84884300098E+03  0.87147636823E+03  0.13656114415E+04  0.18289068073E+04  0.25500000920E-02 0. -1.
       -2    1    3    3    0  502  0.84884300098E+03 -0.87147636823E+03 -0.31420600709E+03  0.12564755929E+04  0.25500000920E-02 0.  1.
</event>
<event>
 5   0  0.3638028E-07  0.2897480E+04  0.7818609E-02  0.8273628E-01
       -1   -1    0    0    0  501  0.00000000000E+00  0.00000000000E+00  0.13777137609E+04  0.13777137609E+04  0.50400001928E-02 0. -1.
        1   -1    0    0  501    0  0.00000000000E+00  0.00000000000E+00 -0.15234275371E+04  0.15234275371E+04  0.50400001928E-02 0.  1.
    10030    2    1    2    0    0  0.00000000000E+00  0.00000000000E+00 -0.14571377624E+03  0.29011412981E+04  0.28974796508E+04 0.  0.
        4    1    3    3  502    0 -0.27404883790E+03 -0.24686335365E+03 -0.14756274484E+04  0.15210267125E+04  0.12699999809E+01 0.  1.
       -4    1    3    3    0  502  0.27404883790E+03  0.24686335365E+03  0.13299136721E+04  0.13801145855E+04  0.12699999809E+01 0. -1.
</event>
<event>
 5   0  0.1031339E-06  0.2902441E+04  0.7818609E-02  0.8272151E-01
       -2   -1    0    0    0  501  0.00000000000E+00  0.00000000000E+00  0.30168319622E+04  0.30168319622E+04  0.25500000920E-02 0. -1.
        2   -1    0    0  501    0  0.00000000000E+00  0.00000000000E+00 -0.69809703071E+03  0.69809703072E+03  0.25500000920E-02 0.  1.
    10030    2    1    2    0    0  0.00000000000E+00  0.00000000000E+00  0.23187349314E+04  0.37149289929E+04  0.29024413413E+04 0.  0.
        5    1    3    3  502    0 -0.11423231826E+04 -0.45966730023E+03  0.17638008767E+03  0.12439165188E+04  0.46999998093E+01 0.  1.
       -5    1    3    3    0  502  0.11423231826E+04  0.45966730023E+03  0.21423548438E+04  0.24710124741E+04  0.46999998093E+01 0. -1.
</event>
<event>
 5   0  0.3769563E-07  0.2897533E+04  0.7818609E-02  0.8273612E-01
        1   -1    0    0  501    0  0.00000000000E+00  0.00000000000E+00  0.28123086074E+04  0.28123086074E+04  0.50400001928E-02 0.  1.
       -1   -1    0    0    0  501  0.00000000000E+00  0.00000000000E+00 -0.74633481202E+03  0.74633481204E+03  0.50400001928E-02 0. -1.
    10030    2    1    2    0    0  0.00000000000E+00  0.00000000000E+00  0.20659737953E+04  0.35586434194E+04  0.28975326165E+04 0.  0.
        3    1    3    3  502    0  0.13070229404E+04  0.56181027937E+03  0.13692975194E+04  0.19745671585E+04  0.10100000352E+00 0.  1.
       -3    1    3    3    0  502 -0.13070229404E+04 -0.56181027937E+03  0.69667627589E+03  0.15840762609E+04  0.10100000352E+00 0. -1.
</event>
<event>
 5   0  0.3769563E-07  0.2904261E+04  0.7818609E-02  0.8271611E-01
       -1   -1    0    0    0  501  0.00000000000E+00  0.00000000000E+00  0.10563171886E+04  0.10563171886E+04  0.50400001928E-02 0.  1.
        1   -1    0    0  501    0  0.00000000000E+00  0.00000000000E+00 -0.19962599099E+04  0.19962599099E+04  0.50400001928E-02 0. -1.
    10030    2    1    2    0    0  0.00000000000E+00  0.00000000000E+00 -0.93994272131E+03  0.30525770985E+04  0.29042614591E+04 0.  0.
        3    1    3    3  502    0  0.14427004779E+02 -0.34816995178E+03  0.10117192597E+04  0.10700496832E+04  0.10100000352E+00 0.  1.
       -3    1    3    3    0  502 -0.14427004779E+02  0.34816995178E+03 -0.19516619811E+04  0.19825274153E+04  0.10100000352E+00 0. -1.
</event>
<event>
 5   0  0.9950999E-07  0.2898373E+04  0.7818609E-02  0.8273362E-01
        2   -1    0    0  501    0  0.00000000000E+00  0.00000000000E+00  0.14927955480E+04  0.14927955480E+04  0.25500000920E-02 0. -1.
       -2   -1    0    0    0  501  0.00000000000E+00  0.00000000000E+00 -0.14068514468E+04  0.14068514468E+04  0.25500000920E-02 0.  1.
    10030    2    1    2    0    0  0.00000000000E+00  0.00000000000E+00  0.85944101232E+02  0.28996469948E+04  0.28983730447E+04 0.  0.
        3    1    3    3  502    0  0.10893571485E+03 -0.89990399114E+02  0.14858876222E+04  0.14925908005E+04  0.10100000352E+00 0. -1.
       -3    1    3    3    0  502 -0.10893571485E+03  0.89990399114E+02 -0.13999435209E+04  0.14070561943E+04  0.10100000352E+00 0.  1.
</event>
<event>
 5   0  0.1031339E-06  0.2902133E+04  0.7818609E-02  0.8272243E-01
        2   -1    0    0  501    0  0.00000000000E+00  0.00000000000E+00  0.19838688749E+04  0.19838688749E+04  0.25500000920E-02 0.  1.
       -2   -1    0    0    0  501  0.00000000000E+00  0.00000000000E+00 -0.10613575203E+04  0.10613575203E+04  0.25500000920E-02 0. -1.
    10030    2    1    2    0    0  0.00000000000E+00  0.00000000000E+00  0.92251135456E+03  0.30452263952E+04  0.29021331118E+04 0.  0.
        5    1    3    3  502    0  0.19271023159E+03 -0.13538037636E+04 -0.48117603103E+02  0.13683052501E+04  0.46999998093E+01 0. -1.
       -5    1    3    3    0  502 -0.19271023159E+03  0.13538037636E+04  0.97062895766E+03  0.16769211451E+04  0.46999998093E+01 0.  1.
</event>
<event>
 5   0  0.3786210E-07  0.2899640E+04  0.7818609E-02  0.8272985E-01
        1   -1    0    0  501    0  0.00000000000E+00  0.00000000000E+00  0.20291739610E+04  0.20291739610E+04  0.50400001928E-02 0.  1.
       -1   -1    0    0    0  501  0.00000000000E+00  0.00000000000E+00 -0.10358785154E+04  0.10358785154E+04  0.50400001928E-02 0. -1.
    10030    2    1    2    0    0  0.00000000000E+00  0.00000000000E+00  0.99329544563E+03  0.30650524765E+04  0.28996397778E+04 0.  0.
        5    1    3    3  502    0 -0.64769060999E+03  0.12855087826E+04  0.31380729860E+03  0.14732729099E+04  0.46999998093E+01 0. -1.
       -5    1    3    3    0  502  0.64769060999E+03 -0.12855087826E+04  0.67948814702E+03  0.15917795665E+04  0.46999998093E+01 0.  1.
</event>
<event>
 5   0  0.3885904E-07  0.2894603E+04  0.7818609E-02  0.8274485E-01
        1   -1    0    0  501    0  0.00000000000E+00  0.00000000000E+00  0.23513311422E+04  0.23513311422E+04  0.50400001928E-02 0. -1.
       -1   -1    0    0    0  501  0.00000000000E+00  0.00000000000E+00 -0.89084943568E+03  0.89084943569E+03  0.50400001928E-02 0.  1.
    10030    2    1    2    0    0  0.00000000000E+00  0.00000000000E+00  0.14604817065E+04  0.32421805779E+04  0.28946032689E+04 0.  0.
        2    1    3    3  502    0 -0.76825828132E+03  0.12190163579E+04  0.57805714655E+03  0.15525371919E+04  0.25500000920E-02 0.  1.
       -2    1    3    3    0  502  0.76825828132E+03 -0.12190163579E+04  0.88242455994E+03  0.16896433859E+04  0.25500000920E-02 0. -1.
</event>
<event>
 5   0  0.1006893E-06  0.2899116E+04  0.7818609E-02  0.8273141E-01
        2   -1    0    0  501    0  0.00000000000E+00  0.00000000000E+00  0.23494299210E+04  0.23494299210E+04  0.25500000920E-02 0. -1.
       -2   -1    0    0    0  501  0.00000000000E+00  0.00000000000E+00 -0.89435228903E+03  0.89435228903E+03  0.25500000920E-02 0.  1.
    10030    2    1    2    0    0  0.00000000000E+00  0.00000000000E+00  0.14550776320E+04  0.32437822100E+04  0.28991157464E+04 0.  0.
        4    1    3    3  502    0 -0.12501644291E+04  0.61612457232E+03  0.28181187441E+03  0.14219494133E+04  0.12699999809E+01 0. -1.
       -4    1    3    3    0  502  0.12501644291E+04 -0.61612457232E+03  0.11732657576E+04  0.18218327967E+04  0.12699999809E+01 0.  1.
</event>
<event>
 5   0  0.1031339E-06  0.2898897E+04  0.7818609E-02  0.8273206E-01
        2   -1    0    0  501    0  0.00000000000E+00  0.00000000000E+00  0.19645660899E+04  0.19645660899E+04  0.25500000920E-02 0.  1.
       -2   -1    0    0    0  501  0.00000000000E+00  0.00000000000E+00 -0.10693971130E+04  0.10693971130E+04  0.25500000920E-02 0. -1.
    10030    2    1    2    0    0  0.00000000000E+00  0.00000000000E+00  0.89516897680E+03  0.30339632029E+04  0.28988972420E+04 0.  0.
        5    1    3    3  502    0 -0.45438968351E+03  0.84942608261E+03  0.15810416813E+04  0.18514074490E+04  0.46999998093E+01 0.  1.
       -5    1    3    3    0  502  0.45438968351E+03 -0.84942608261E+03 -0.68587270449E+03  0.11825557539E+04  0.46999998093E+01 0. -1.
</event>
<event>
 5   0  0.3770467E-07  0.2846005E+04  0.7818609E-02  0.8289126E-01
        1   -1    0    0  501    0  0.00000000000E+00  0.00000000000E+00  0.15473950085E+04  0.15473950085E+04  0.50400001928E-02 0. -1.
       -1   -1    0    0    0  501  0.00000000000E+00  0.00000000000E+00 -0.13086098518E+04  0.13086098518E+04  0.50400001928E-02 0.  1.
    10030    2    1    2    0    0  0.00000000000E+00  0.00000000000E+00  0.23878515668E+03  0.28560048603E+04  0.28460051671E+04 0.  0.
        1    1    3    3  502    0  0.28516155197E+03  0.10284385544E+04 -0.82515489590E+03  0.13490306050E+04  0.50400001928E-02 0.  1.
       -1    1    3    3    0  502 -0.28516155197E+03 -0.10284385544E+04  0.10639400526E+04  0.15069742554E+04  0.50400001928E-02 0. -1.
</event>
<event>
 5   0  0.9994311E-07  0.2905238E+04  0.7818609E-02  0.8271321E-01
       -2   -1    0    0    0  501  0.00000000000E+00  0.00000000000E+00  0.11120384606E+04  0.11120384606E+04  0.25500000920E-02 0. -1.
        2   -1    0    0  501    0  0.00000000000E+00  0.00000000000E+00 -0.18975077658E+04  0.18975077658E+04  0.25500000920E-02 0.  1.
    10030    2    1    2    0    0  0.00000000000E+00  0.00000000000E+00 -0.78546930518E+03  0.30095462264E+04  0.29052377630E+04 0.  0.
        2    1    3    3  502    0  0.51138860284E+03 -0.13467740558E+04 -0.19953667655E+03  0.14543498704E+04  0.25500000920E-02 0.  1.
       -2    1    3    3    0  502 -0.51138860284E+03  0.13467740558E+04 -0.58593262862E+03  0.15551963560E+04  0.25500000920E-02 0. -1.
</event>
<event>
 5   0  0.3885904E-07  0.2903437E+04  0.7818609E-02  0.8271856E-01
        1   -1    0    0  501    0  0.00000000000E+00  0.00000000000E+00  0.11717140434E+04  0.11717140434E+04  0.50400001928E-02 0. -1.
       -1   -1    0    0    0  501  0.00000000000E+00  0.00000000000E+00 -0.17986352866E+04  0.17986352866E+04  0.50400001928E-02 0.  1.
    10030    2    1    2    0    0  0.00000000000E+00  0.00000000000E+00 -0.62692124318E+03  0.29703493301E+04  0.29034367390E+04 0.  0.
        2    1    3    3  502    0  0.22140678326E+03 -0.10658654974E+04  0.66908758180E+03  0.12777982683E+04  0.25500000920E-02 0. -1.
       -2    1    3    3    0  502 -0.22140678326E+03  0.10658654974E+04 -0.12960088250E+04  0.16925510618E+04  0.25500000920E-02 0.  1.
</event>
<event>
 5   0  0.1063979E-06  0.2891832E+04  0.7818609E-02  0.8275312E-01
       -2   -1    0    0    0  501  0.00000000000E+00  0.00000000000E+00  0.82242106030E+03  0.82242106030E+03  0.25500000920E-02 0.  1.
        2   -1    0    0  501    0  0.00000000000E+00  0.00000000000E+00 -0.25420966098E+04  0.25420966098E+04  0.25500000920E-02 0. -1.
    10030    2    1    2    0    0  0.00000000000E+00  0.00000000000E+00 -0.17196755495E+04  0.33645176701E+04  0.28918324912E+04 0.  0.
        1    1    3    3  502    0 -0.91209370061E+03  0.11089328302E+04 -0.66161679195E+03  0.15809439332E+04  0.50400001928E-02 0. -1.
       -1    1    3    3    0  502  0.91209370061E+03 -0.11089328302E+04 -0.10580587576E+04  0.17835737369E+04  0.50400001928E-02 0.  1.
</event>
<event>
 5   0  0.3769563E-07  0.2904890E+04  0.7818609E-02  0.8271424E-01
       -1   -1    0    0    0  501  0.00000000000E+00  0.00000000000E+00  0.76611006489E+03  0.76611006491E+03  0.50400001928E-02 0. -1.
        1   -1    0    0  501    0  0.00000000000E+00  0.00000000000E+00 -0.27536466633E+04  0.27536466633E+04  0.50400001928E-02 0.  1.
    10030    2    1    2    0    0  0.00000000000E+00  0.00000000000E+00 -0.19875365984E+04  0.35197567283E+04  0.29048899628E+04 0.  0.
        3    1    3    3  502    0  0.96585337580E+03 -0.41342310259E+02 -0.23071911619E+04  0.25015421240E+04  0.10100000352E+00 0.  1.
       -3    1    3    3    0  502 -0.96585337580E+03  0.41342310259E+02  0.31965456349E+03  0.10182146043E+04  0.10100000352E+00 0. -1.
</event>
<event>
 5   0  0.3769563E-07  0.2900672E+04  0.7818609E-02  0.8272678E-01
       -1   -1    0    0    0  501  0.00000000000E+00  0.00000000000E+00  0.15207666681E+04  0.15207666681E+04  0.50400001928E-02 0. -1.
        1   -1    0    0  501    0  0.00000000000E+00  0.00000000000E+00 -0.13831671040E+04  0.13831671040E+04  0.50400001928E-02 0.  1.
    10030    2    1    2    0    0  0.00000000000E+00  0.00000000000E+00  0.13759956406E+03  0.29039337721E+04  0.29006719416E+04 0.  0.
        3    1    3    3  502    0 -0.77472999774E+03 -0.19891935864E+03  0.12799945113E+04  0.15093579562E+04  0.10100000352E+00 0. -1.
       -3    1    3    3    0  502  0.77472999774E+03  0.19891935864E+03 -0.11423949473E+04  0.13945758159E+04  0.10100000352E+00 0.  1.
</event>
<event>
 5   0  0.1006893E-06  0.2898716E+04  0.7818609E-02  0.8273260E-01
        2   -1    0    0  501    0  0.00000000000E+00  0.00000000000E+00  0.17558576303E+04  0.17558576303E+04  0.25500000920E-02 0.  1.
       -2   -1    0    0    0  501  0.00000000000E+00  0.00000000000E+00 -0.11963607160E+04  0.11963607160E+04  0.25500000920E-02 0. -1.
    10030    2    1    2    0    0  0.00000000000E+00  0.00000000000E+00  0.55949691430E+03  0.29522183462E+04  0.28987163308E+04 0.  0.
        4    1    3    3  502    0  0.97428485330E+03  0.10139289989E+03 -0.80820309138E+03  0.12699233620E+04  0.12699999809E+01 0. -1.
       -4    1    3    3    0  502 -0.97428485330E+03 -0.10139289989E+03  0.13677000057E+04  0.16822949842E+04  0.12699999809E+01 0.  1.
</event>
<event>
 5   0  0.1063979E-06  0.2853444E+04  0.7818609E-02  0.8286866E-01
        2   -1    0    0  501    0  0.00000000000E+00  0.00000000000E+00  0.18676690422E+04  0.18676690422E+04  0.25500000920E-02 0. -1.
       -2   -1    0    0    0  501  0.00000000000E+00  0.00000000000E+00 -0.10898803825E+04  0.10898803825E+04  0.25500000920E-02 0.  1.
    10030    2    1    2    0    0  0.00000000000E+00  0.00000000000E+00  0.77778865972E+03  0.29575494248E+04  0.28534441296E+04 0.  0.
        1    1    3    3  502    0 -0.10945096569E+04 -0.22421432805E+03 -0.53078448455E+03  0.12369137492E+04  0.50400001928E-02 0.  1.
       -1    1    3    3    0  502  0.10945096569E+04  0.22421432805E+03  0.13085731443E+04  0.17206356755E+04  0.50400001928E-02 0. -1.
</event>
<event>
 5   0  0.3378750E-07  0.2881128E+04  0.7818609E-02  0.8278515E-01
        4   -1    0    0  501    0  0.00000000000E+00  0.00000000000E+00  0.12383572712E+04  0.12383579224E+04  0.12699999809E+01 0. -1.
       -4   -1    0    0    0  501  0.00000000000E+00  0.00000000000E+00 -0.16757867991E+04  0.16757872803E+04  0.12699999809E+01 0.  1.
    10030    2    1    2    0    0  0.00000000000E+00  0.00000000000E+00 -0.43742952790E+03  0.29141452027E+04  0.28811278470E+04 0.  0.
        3    1    3    3  502    0 -0.58659502272E+02  0.69756574979E+03 -0.14921847166E+04  0.16482275787E+04  0.10100000352E+00 0.  1.
       -3    1    3    3    0  502  0.58659502272E+02 -0.69756574979E+03  0.10547551887E+04  0.12659176240E+04  0.10100000352E+00 0. -1.
</event>
<event>
 5   0  0.3638028E-07  0.2917613E+04  0.7818609E-02  0.8267656E-01
       -1   -1    0    0    0  501  0.00000000000E+00  0.00000000000E+00  0.12306700804E+04  0.12306700804E+04  0.50400001928E-02 0.  1.
        1   -1    0    0  501    0  0.00000000000E+00  0.00000000000E+00 -0.17292333350E+04  0.17292333350E+04  0.50400001928E-02 0. -1.
    10030    2    1    2    0    0  0.00000000000E+00  0.00000000000E+00 -0.49856325461E+03  0.29599034154E+04  0.29176125360E+04 0.  0.
        4    1    3    3  502    0 -0.70881178139E+03  0.10214878093E+04  0.52484032257E+03  0.13495593588E+04  0.12699999809E+01 0.  1.
       -4    1    3    3    0  502  0.70881178139E+03 -0.10214878093E+04 -0.10234035772E+04  0.16103440566E+04  0.12699999809E+01 0. -1.
</event>
<event>
 5   0  0.3786210E-07  0.2899299E+04  0.7818609E-02  0.8273086E-01
        1   -1    0    0  501    0  0.00000000000E+00  0.00000000000E+00  0.10590357257E+04  0.10590357258E+04  0.50400001928E-02 0. -1.
       -1   -1    0    0    0  501  0.00000000000E+00  0.00000000000E+00 -0.19843369495E+04  0.19843369495E+04  0.50400001928E-02 0.  1.
    10030    2    1    2    0    0  0.00000000000E+00  0.00000000000E+00 -0.92530122378E+03  0.30433726753E+04  0.28992990335E+04 0.  0.
        5    1    3    3  502    0  0.65754892792E+03 -0.93313686268E+03 -0.14005535052E+04  0.18068445445E+04  0.46999998093E+01 0.  1.
       -5    1    3    3    0  502 -0.65754892792E+03  0.93313686268E+03  0.47525228146E+03  0.12365281307E+04  0.46999998093E+01 0. -1.
</event>
<event>
 5   0  0.9994311E-07  0.2901725E+04  0.7818609E-02  0.8272364E-01
        2   -1    0    0  501    0  0.00000000000E+00  0.00000000000E+00  0.20038641396E+04  0.20038641396E+04  0.25500000920E-02 0. -1.
       -2   -1    0    0    0  501  0.00000000000E+00  0.00000000000E+00 -0.10504716874E+04  0.10504716874E+04  0.25500000920E-02 0.  1.
    10030    2    1    2    0    0  0.00000000000E+00  0.00000000000E+00  0.95339245217E+03  0.30543358271E+04  0.29017253793E+04 0.  0.
        2    1    3    3  502    0  0.10837743240E+03 -0.67182628412E+02 -0.10445622832E+04  0.10523162722E+04  0.25500000920E-02 0.  1.
       -2    1    3    3    0  502 -0.10837743240E+03  0.67182628412E+02  0.19979547353E+04  0.20020195548E+04  0.25500000920E-02 0. -1.
</event>
<event>
 5   0  0.3638028E-07  0.2903876E+04  0.7818609E-02  0.8271725E-01
       -1   -1    0    0    0  501  0.00000000000E+00  0.00000000000E+00  0.14121133818E+04  0.14121133818E+04  0.50400001928E-02 0. -1.
        1   -1    0    0  501    0  0.00000000000E+00  0.00000000000E+00 -0.14928855060E+04  0.14928855060E+04  0.50400001928E-02 0.  1.
    10030    2    1    2    0    0  0.00000000000E+00  0.00000000000E+00 -0.80772124154E+02  0.29049988878E+04  0.29038757553E+04 0.  0.
        4    1    3    3  502    0 -0.10148720689E+04  0.37081123682E+03  0.92986311928E+03  0.14255221230E+04  0.12699999809E+01 0. -1.
       -4    1    3    3    0  502  0.10148720689E+04 -0.37081123682E+03 -0.10106352434E+04  0.14794767649E+04  0.12699999809E+01 0.  1.
</event>
<event>
 5   0  0.1031339E-06  0.2903940E+04  0.7818609E-02  0.8271706E-01
       -2   -1    0    0    0  501  0.00000000000E+00  0.00000000000E+00  0.15176578082E+04  0.15176578082E+04  0.25500000920E-02 0.  1.
        2   -1    0    0  501    0  0.00000000000E+00  0.00000000000E+00 -0.13891256245E+04  0.13891256245E+04  0.25500000920E-02 0. -1.
    10030    2    1    2    0    0  0.00000000000E+00  0.00000000000E+00  0.12853218368E+03  0.29067834328E+04  0.29039403235E+04 0.  0.
        5    1    3    3  502    0  0.18535749814E+03  0.31727112858E+03 -0.13418073299E+04  0.13912179454E+04  0.46999998093E+01 0. -1.
       -5    1    3    3    0  502 -0.18535749814E+03 -0.31727112858E+03  0.14703395136E+04  0.15155654873E+04  0.46999998093E+01 0.  1.
</event>
<event>
 5   0  0.3786210E-07  0.2903169E+04  0.7818609E-02  0.8271935E-01
       -1   -1    0    0    0  501  0.00000000000E+00  0.00000000000E+00  0.10655855586E+04  0.10655855586E+04  0.50400001928E-02 0. -1.
        1   -1    0    0  501    0  0.00000000000E+00  0.00000000000E+00 -0.19774076357E+04  0.19774076357E+04  0.50400001928E-02 0.  1.
    10030    2    1    2    0    0  0.00000000000E+00  0.00000000000E+00 -0.91182207715E+03  0.30429931943E+04  0.29031686276E+04 0.  0.
        5    1    3    3  502    0 -0.75389146497E+03 -0.87399814654E+03  0.46674003132E+03  0.12450274888E+04  0.46999998093E+01 0. -1.
       -5    1    3    3    0  502  0.75389146497E+03  0.87399814654E+03 -0.13785621085E+04  0.17979657055E+04  0.46999998093E+01 0.  1.
</event>
<event>
 5   0  0.3770467E-07  0.2899881E+04  0.7818609E-02  0.8272913E-01
       -1   -1    0    0    0  501  0.00000000000E+00  0.00000000000E+00  0.16703411453E+04  0.16703411453E+04  0.50400001928E-02 0.  1.
        1   -1    0    0  501    0  0.00000000000E+00  0.00000000000E+00 -0.12586213653E+04  0.12586213653E+04  0.50400001928E-02 0. -1.
    10030    2    1    2    0    0  0.00000000000E+00  0.00000000000E+00  0.41171978003E+03  0.29289625106E+04  0.28998807236E+04 0.  0.
        1    1    3    3  502    0 -0.67472489129E+02 -0.13742899606E+04  0.66772204397E+03  0.15294045118E+04  0.50400001928E-02 0.  1.
       -1    1    3    3    0  502  0.67472489129E+02  0.13742899606E+04 -0.25600226394E+03  0.13995579988E+04  0.50400001928E-02 0. -1.
</event>
<event>
 5   0  0.9994311E-07  0.2898135E+04  0.7818609E-02  0.8273433E-01
        2   -1    0    0  501    0  0.00000000000E+00  0.00000000000E+00  0.13945577929E+04  0.13945577929E+04  0.25500000920E-02 0.  1.
       -2   -1    0    0    0  501  0.00000000000E+00  0.00000000000E+00 -0.15057077912E+04  0.15057077912E+04  0.25500000920E-02 0. -1.
    10030    2    1    2    0    0  0.00000000000E+00  0.00000000000E+00 -0.11114999834E+03  0.29002655841E+04  0.28981349410E+04 0.  0.
        2    1    3    3  502    0  0.12413049245E+04  0.24552280179E+03 -0.76226494120E+03  0.14772160310E+04  0.25500000920E-02 0.  1.
       -2    1    3    3    0  502 -0.12413049245E+04 -0.24552280179E+03  0.65111494286E+03  0.14230495531E+04  0.25500000920E-02 0. -1.
</event>
<event>
 5   0  0.3786210E-07  0.2914519E+04  0.7818609E-02  0.8268571E-01
        1   -1    0    0  501    0  0.00000000000E+00  0.00000000000E+00  0.13218883074E+04  0.13218883074E+04  0.50400001928E-02 0. -1.
       -1   -1    0    0    0  501  0.00000000000E+00  0.00000000000E+00 -0.16064933616E+04  0.16064933617E+04  0.50400001928E-02 0.  1.
    10030    2    1    2    0    0  0.00000000000E+00  0.00000000000E+00 -0.28460505429E+03  0.29283816690E+04  0.29145186845E+04 0.  0.
        5    1    3    3  502    0 -0.38762839700E+03  0.31899960257E+03  0.12322566133E+04  0.13305994783E+04  0.46999998093E+01 0. -1.
       -5    1    3    3    0  502  0.38762839700E+03 -0.31899960257E+03 -0.15168616676E+04  0.15977821908E+04  0.46999998093E+01 0.  1.
</event>
<event>
 5   0  0.1063979E-06  0.2905438E+04  0.7818609E-02  0.8271261E-01
        2   -1    0    0  501    0  0.00000000000E+00  0.00000000000E+00  0.17445398940E+04  0.17445398940E+04  0.25500000920E-02 0.  1.
       -2   -1    0    0    0  501  0.00000000000E+00  0.00000000000E+00 -0.12097128483E+04  0.12097128483E+04  0.25500000920E-02 0. -1.
    10030    2    1    2    0    0  0.00000000000E+00  0.00000000000E+00  0.53482704569E+03  0.29542527423E+04  0.29054378838E+04 0.  0.
        1    1    3    3  502    0  0.56348196554E+02  0.73465785700E+03  0.15404449927E+04  0.17075913041E+04  0.50400001928E-02 0.  1.
       -1    1    3    3    0  502 -0.56348196554E+02 -0.73465785700E+03 -0.10056179470E+04  0.12466614382E+04  0.50400001928E-02 0. -1.
</event>
<event>
 5   0  0.3770467E-07  0.2890258E+04  0.7818609E-02  0.8275782E-01
       -1   -1    0    0    0  501  0.00000000000E+00  0.00000000000E+00  0.81996176038E+03  0.81996176040E+03  0.50400001928E-02 0.  1.
        1   -1    0    0  501    0  0.00000000000E+00  0.00000000000E+00 -0.25469448165E+04  0.25469448165E+04  0.50400001928E-02 0. -1.
    10030    2    1    2    0    0  0.00000000000E+00  0.00000000000E+00 -0.17269830562E+04  0.33669065769E+04  0.28902576739E+04 0.  0.
        1    1    3    3  502    0 -0.48349541918E+03 -0.53998594721E+03  0.59290690753E+03  0.93642471377E+03  0.50400001928E-02 0.  1.
       -1    1    3    3    0  502  0.48349541918E+03  0.53998594721E+03 -0.23198899637E+04  0.24304818632E+04  0.50400001928E-02 0. -1.
</event>
<event>
 5   0  0.3885904E-07  0.2902898E+04  0.7818609E-02  0.8272016E-01
       -1   -1    0    0    0  501  0.00000000000E+00  0.00000000000E+00  0.13106754434E+04  0.13106754434E+04  0.50400001928E-02 0. -1.
        1   -1    0    0  501    0  0.00000000000E+00  0.00000000000E+00 -0.16073425539E+04  0.16073425539E+04  0.50400001928E-02 0.  1.
    10030    2    1    2    0    0  0.00000000000E+00  0.00000000000E+00 -0.29666711049E+03  0.29180179973E+04  0.29028981481E+04 0.  0.
        2    1    3    3  502    0 -0.13512757154E+04  0.40915192433E+03 -0.48676662173E+03  0.14934165863E+04  0.25500000920E-02 0.  1.
       -2    1    3    3    0  502  0.13512757154E+04 -0.40915192433E+03  0.19009951124E+03  0.14246014110E+04  0.25500000920E-02 0. -1.
</event>
<event>
 5   0  0.1006893E-06  0.2905800E+04  0.7818609E-02  0.8271154E-01
       -2   -1    0    0    0  501  0.00000000000E+00  0.00000000000E+00  0.12076036312E+04  0.12076036312E+04  0.25500000920E-02 0.  1.
        2   -1    0    0  501    0  0.00000000000E+00  0.00000000000E+00 -0.17480225491E+04  0.17480225491E+04  0.25500000920E-02 0. -1.
    10030    2    1    2    0    0  0.00000000000E+00  0.00000000000E+00 -0.54041891794E+03  0.29556261803E+04  0.29057999778E+04 0.  0.
        4    1    3    3  502    0 -0.10104372766E+04 -0.34274908915E+03  0.73283190718E+03  0.12944128573E+04  0.12699999809E+01 0.  1.
       -4    1    3    3    0  502  0.10104372766E+04  0.34274908915E+03 -0.12732508251E+04  0.16612133230E+04  0.12699999809E+01 0. -1.
</event>
<event>
 5   0  0.9994311E-07  0.2906528E+04  0.7818609E-02  0.8270938E-01
       -2   -1    0    0    0  501  0.00000000000E+00  0.00000000000E+00  0.26519106943E+04  0.26519106943E+04  0.25500000920E-02 0.  1.
        2   -1    0    0  501    0  0.00000000000E+00  0.00000000000E+00 -0.79639806606E+03  0.79639806607E+03  0.25500000920E-02 0. -1.
    10030    2    1    2    0    0  0.00000000000E+00  0.00000000000E+00  0.18555126282E+04  0.34483087604E+04  0.29065282027E+04 0.  0.
        2    1    3    3  502    0  0.57085975142E+03 -0.10855847370E+04  0.18525418159E+04  0.22217754740E+04  0.25500000920E-02 0.  1.
       -2    1    3    3    0  502 -0.57085975142E+03  0.10855847370E+04  0.29708122877E+01  0.12265332864E+04  0.25500000920E-02 0. -1.
</event>
<event>
 5   0  0.1006893E-06  0.2890239E+04  0.7818609E-02  0.8275788E-01
        2   -1    0    0  501    0  0.00000000000E+00  0.00000000000E+00  0.25509808580E+04  0.25509808580E+04  0.25500000920E-02 0.  1.
       -2   -1    0    0    0  501  0.00000000000E+00  0.00000000000E+00 -0.81865376992E+03  0.81865376992E+03  0.25500000920E-02 0. -1.
    10030    2    1    2    0    0  0.00000000000E+00  0.00000000000E+00  0.17323270881E+04  0.33696346279E+04  0.28902388112E+04 0.  0.
        4    1    3    3  502    0 -0.38569016026E+03  0.88691037964E+03  0.21180473796E+04  0.23284100233E+04  0.12699999809E+01 0.  1.
       -4    1    3    3    0  502  0.38569016026E+03 -0.88691037964E+03 -0.38572029150E+03  0.10412246047E+04  0.12699999809E+01 0. -1.
</event>
<event>
 5   0  0.3885904E-07  0.2899611E+04  0.7818609E-02  0.8272993E-01
       -1   -1    0    0    0  501  0.00000000000E+00  0.00000000000E+00  0.15859673692E+04  0.15859673692E+04  0.50400001928E-02 0.  1.
        1   -1    0    0  501    0  0.00000000000E+00  0.00000000000E+00 -0.13253332932E+04  0.13253332932E+04  0.50400001928E-02 0. -1.
    10030    2    1    2    0    0  0.00000000000E+00  0.00000000000E+00  0.26063407606E+03  0.29113006624E+04  0.28996105644E+04 0.  0.
        2    1    3    3  502    0 -0.82174481627E+03 -0.40306555767E+03 -0.99858646183E+03  0.13545852903E+04  0.25500000920E-02 0. -1.
       -2    1    3    3    0  502  0.82174481627E+03  0.40306555767E+03  0.12592205379E+04  0.15567153721E+04  0.25500000920E-02 0.  1.
</event>
<event>
 5   0  0.1063979E-06  0.2889086E+04  0.7818609E-02  0.8276132E-01
        2   -1    0    0  501    0  0.00000000000E+00  0.00000000000E+00  0.14820661665E+04  0.14820661665E+04  0.25500000920E-02 0. -1.
       -2   -1    0    0    0  501  0.00000000000E+00  0.00000000000E+00 -0.14079693868E+04  0.14079693868E+04  0.25500000920E-02 0.  1.
    10030    2    1    2    0    0  0.00000000000E+00  0.00000000000E+00  0.74096779670E+02  0.28900355533E+04  0.28890855243E+04 0.  0.
        1    1    3    3  502    0  0.13348702100E+04  0.52668755026E+03 -0.12861264463E+03  0.14407704417E+04  0.50400001928E-02 0. -1.
       -1    1    3    3    0  502 -0.13348702100E+04 -0.52668755026E+03  0.20270942430E+03  0.14492651117E+04  0.50400001928E-02 0.  1.
</event>
<event>
 5   0  0.3638028E-07  0.2900882E+04  0.7818609E-02  0.8272615E-01
       -1   -1    0    0    0  501  0.00000000000E+00  0.00000000000E+00  0.10954950589E+04  0.10954950589E+04  0.50400001928E-02 0. -1.
        1   -1    0    0  501    0  0.00000000000E+00  0.00000000000E+00 -0.19203918714E+04  0.19203918714E+04  0.50400001928E-02 0.  1.
    10030    2    1    2    0    0  0.00000000000E+00  0.00000000000E+00 -0.82489681253E+03  0.30158869303E+04  0.29008824908E+04 0.  0.
        4    1    3    3  502    0  0.20568373681E+03  0.94762539115E+03  0.70896076060E+03  0.12012188204E+04  0.12699999809E+01 0. -1.
       -4    1    3    3    0  502 -0.20568373681E+03 -0.94762539115E+03 -0.15338575731E+04  0.18146681099E+04  0.12699999809E+01 0.  1.
</event>
<event>
 5   0  0.3885904E-07  0.2896302E+04  0.7818609E-02  0.8273979E-01
       -1   -1    0    0    0  501  0.00000000000E+00  0.00000000000E+00  0.99374722890E+03  0.99374722891E+03  0.50400001928E-02 0. -1.
        1   -1    0    0  501    0  0.00000000000E+00  0.00000000000E+00 -0.21103362263E+04  0.21103362263E+04  0.50400001928E-02 0.  1.
    10030    2    1    2    0    0  0.00000000000E+00  0.00000000000E+00 -0.11165889974E+04  0.31040834552E+04  0.28963016258E+04 0.  0.
        2    1    3    3  502    0 -0.33111551320E+03 -0.88643070440E+03 -0.17331800534E+04  0.19746670540E+04  0.25500000920E-02 0.  1.
       -2    1    3    3    0  502  0.33111551320E+03  0.88643070440E+03  0.61659105604E+03  0.11294164011E+04  0.25500000920E-02 0. -1.
</event>
<event>
 5   0  0.3770467E-07  0.2899715E+04  0.7818609E-02  0.8272962E-01
       -1   -1    0    0    0  501  0.00000000000E+00  0.00000000000E+00  0.10861707084E+04  0.10861707084E+04  0.50400001928E-02 0.  1.
        1   -1    0    0  501    0  0.00000000000E+00  0.00000000000E+00 -0.19353190660E+04  0.19353190660E+04  0.50400001928E-02 0. -1.
    10030    2    1    2    0    0  0.00000000000E+00  0.00000000000E+00 -0.84914835765E+03  0.30214897744E+04  0.28997150763E+04 0.  0.
        1    1    3    3  502    0 -0.21347184942E+03  0.13130855503E+04 -0.10252580821E+04  0.16795588790E+04  0.50400001928E-02 0. -1.
       -1    1    3    3    0  502  0.21347184942E+03 -0.13130855503E+04  0.17610972443E+03  0.13419308954E+04  0.50400001928E-02 0.  1.
</event>
<event>
 5   0  0.1063979E-06  0.2898319E+04  0.7818609E-02  0.8273378E-01
        2   -1    0    0  501    0  0.00000000000E+00  0.00000000000E+00  0.12313447916E+04  0.12313447916E+04  0.25500000920E-02 0. -1.
       -2   -1    0    0    0  501  0.00000000000E+00  0.00000000000E+00 -0.17055039554E+04  0.17055039554E+04  0.25500000920E-02 0.  1.
    10030    2    1    2    0    0  0.00000000000E+00  0.00000000000E+00 -0.47415916380E+03  0.29368487471E+04  0.28983191078E+04 0.  0.
        1    1    3    3  502    0  0.12669418745E+04  0.60932997840E+03 -0.59337690069E+03  0.15259491742E+04  0.50400001928E-02 0. -1.
       -1    1    3    3    0  502 -0.12669418745E+04 -0.60932997840E+03  0.11921773689E+03  0.14108995729E+04  0.50400001928E-02 0.  1.
</event>
<event>
 5   0  0.3769563E-07  0.2893355E+04  0.7818609E-02  0.8274857E-01
       -1   -1    0    0    0  501  0.00000000000E+00  0.00000000000E+00  0.10541226425E+04  0.10541226425E+04  0.50400001928E-02 0. -1.
        1   -1    0    0  501    0  0.00000000000E+00  0.00000000000E+00 -0.19854191887E+04  0.19854191887E+04  0.50400001928E-02 0.  1.
    10030    2    1    2    0    0  0.00000000000E+00  0.00000000000E+00 -0.93129654615E+03  0.30395418312E+04  0.28933546770E+04 0.  0.
        3    1    3    3  502    0 -0.12266969844E+04 -0.18863377351E+03  0.31521570660E+03  0.12805190916E+04  0.10100000352E+00 0. -1.
       -3    1    3    3    0  502  0.12266969844E+04  0.18863377351E+03 -0.12465122527E+04  0.17590227396E+04  0.10100000352E+00 0.  1.
</event>
<event>
 5   0  0.3786210E-07  0.2898510E+04  0.7818609E-02  0.8273321E-01
       -1   -1    0    0    0  501  0.00000000000E+00  0.00000000000E+00  0.23149951638E+04  0.23149951638E+04  0.50400001928E-02 0. -1.
        1   -1    0    0  501    0  0.00000000000E+00  0.00000000000E+00 -0.90727648009E+03  0.90727648010E+03  0.50400001928E-02 0.  1.
    10030    2    1    2    0    0  0.00000000000E+00  0.00000000000E+00  0.14077186837E+04  0.32222716439E+04  0.28985104199E+04 0.  0.
        5    1    3    3  502    0 -0.45666509823E+03 -0.64987595447E+03 -0.64374605118E+03  0.10224054169E+04  0.46999998093E+01 0.  1.
       -5    1    3    3    0  502  0.45666509823E+03  0.64987595447E+03  0.20514647348E+04  0.21998662269E+04  0.46999998093E+01 0. -1.
</event>
<event>
 5   0  0.3769563E-07  0.2891112E+04  0.7818609E-02  0.8275527E-01
       -1   -1    0    0    0  501  0.00000000000E+00  0.00000000000E+00  0.94171340903E+03  0.94171340905E+03  0.50400001928E-02 0.  1.
        1   -1    0    0  501    0  0.00000000000E+00  0.00000000000E+00 -0.22189686700E+04  0.22189686700E+04  0.50400001928E-02 0. -1.
    10030    2    1    2    0    0  0.00000000000E+00  0.00000000000E+00 -0.12772552610E+04  0.31606820791E+04  0.28911122779E+04 0.  0.
        3    1    3    3  502    0 -0.10417492218E+04  0.86863665107E+03 -0.92158669316E+02  0.13595088463E+04  0.10100000352E+00 0. -1.
       -3    1    3    3    0  502  0.10417492218E+04 -0.86863665107E+03 -0.11850965917E+04  0.18011732328E+04  0.10100000352E+00 0.  1.
</event>
<event>
 5   0  0.9994311E-07  0.2898579E+04  0.7818609E-02  0.8273300E-01
       -2   -1    0    0    0  501  0.00000000000E+00  0.00000000000E+00  0.14770365229E+04  0.14770365229E+04  0.25500000920E-02 0. -1.
        2   -1    0    0  501    0  0.00000000000E+00  0.00000000000E+00 -0.14220639881E+04  0.14220639881E+04  0.25500000920E-02 0.  1.
    10030    2    1    2    0    0  0.00000000000E+00  0.00000000000E+00  0.54972534845E+02  0.28991005110E+04  0.28985792716E+04 0.  0.
        2    1    3    3  502    0  0.14035254583E+04 -0.34391069047E+03 -0.83358628216E+02  0.14474484226E+04  0.25500000920E-02 0. -1.
       -2    1    3    3    0  502 -0.14035254583E+04  0.34391069047E+03  0.13833116306E+03  0.14516520884E+04  0.25500000920E-02 0.  1.
</event>
<event>
 5   0  0.9994311E-07  0.2895604E+04  0.7818609E-02  0.8274187E-01
       -2   -1    0    0    0  501  0.00000000000E+00  0.00000000000E+00  0.99523491646E+03  0.99523491646E+03  0.25500000920E-02 0. -1.
        2   -1    0    0  501    0  0.00000000000E+00  0.00000000000E+00 -0.21061659667E+04  0.21061659667E+04  0.25500000920E-02 0.  1.
    10030    2    1    2    0    0  0.00000000000E+00  0.00000000000E+00 -0.11109310502E+04  0.31014008831E+04  0.28956035018E+04 0.  0.
        2    1    3    3  502    0 -0.51690496532E+03  0.13415128205E+04 -0.37218216826E+03  0.14850477963E+04  0.25500000920E-02 0.  1.
       -2    1    3    3    0  502  0.51690496532E+03 -0.13415128205E+04 -0.73874888195E+03  0.16163530869E+04  0.25500000920E-02 0. -1.
</event>
<event>
 5   0  0.1006893E-06  0.2896196E+04  0.7818609E-02  0.8274010E-01
        2   -1    0    0  501    0  0.00000000000E+00  0.00000000000E+00  0.10670204416E+04  0.10670204416E+04  0.25500000920E-02 0. -1.
       -2   -1    0    0    0  501  0.00000000000E+00  0.00000000000E+00 -0.19652746796E+04  0.19652746796E+04  0.25500000920E-02 0.  1.
    10030    2    1    2    0    0  0.00000000000E+00  0.00000000000E+00 -0.89825423806E+03  0.30322951212E+04  0.28961963030E+04 0.  0.
        4    1    3    3  502    0  0.82353424762E+03  0.59629929764E+02  0.79640748413E+03  0.11471838908E+04  0.12699999809E+01 0. -1.
       -4    1    3    3    0  502 -0.82353424762E+03 -0.59629929764E+02 -0.16946617222E+04  0.18851112304E+04  0.12699999809E+01 0.  1.
</event>
<event>
 5   0  0.3378750E-07  0.2899006E+04  0.7818609E-02  0.8273173E-01
       -3   -1    0    0    0  501  0.00000000000E+00  0.00000000000E+00  0.18142146687E+04  0.18142146715E+04  0.10100000352E+00 0. -1.
        3   -1    0    0  501    0  0.00000000000E+00  0.00000000000E+00 -0.11581091843E+04  0.11581091887E+04  0.10100000352E+00 0.  1.
    10030    2    1    2    0    0  0.00000000000E+00  0.00000000000E+00  0.65610548436E+03  0.29723238602E+04  0.28990058164E+04 0.  0.
        1    1    3    3  502    0  0.56342470981E+03 -0.12592509621E+04 -0.12805565061E+03  0.13854813744E+04  0.50400001928E-02 0.  1.
       -1    1    3    3    0  502 -0.56342470981E+03  0.12592509621E+04  0.78416113497E+03  0.15868424858E+04  0.50400001928E-02 0. -1.
</event>
<event>
 5   0  0.3769563E-07  0.2900662E+04  0.7818609E-02  0.8272681E-01
        1   -1    0    0  501    0  0.00000000000E+00  0.00000000000E+00  0.21731919735E+04  0.21731919735E+04  0.50400001928E-02 0. -1.
       -1   -1    0    0    0  501  0.00000000000E+00  0.00000000000E+00 -0.96791246939E+03  0.96791246941E+03  0.50400001928E-02 0.  1.
    10030    2    1    2    0    0  0.00000000000E+00  0.00000000000E+00  0.12052795041E+04  0.31411044429E+04  0.29006617242E+04 0.  0.
        3    1    3    3  502    0  0.62190232035E+03  0.50755718215E+03  0.19106925176E+04  0.20724677793E+04  0.10100000352E+00 0. -1.
       -3    1    3    3    0  502 -0.62190232035E+03 -0.50755718215E+03 -0.70541301344E+03  0.10686366637E+04  0.10100000352E+00 0.  1.
</event>
<event>
 5   0  0.3638028E-07  0.2886306E+04  0.7818609E-02  0.8276964E-01
       -1   -1    0    0    0  501  0.00000000000E+00  0.00000000000E+00  0.20559593331E+04  0.20559593331E+04  0.50400001928E-02 0. -1.
        1   -1    0    0  501    0  0.00000000000E+00  0.00000000000E+00 -0.10130017019E+04  0.10130017019E+04  0.50400001928E-02 0.  1.
    10030    2    1    2    0    0  0.00000000000E+00  0.00000000000E+00  0.10429576312E+04  0.30689610350E+04  0.28863058074E+04 0.  0.
        4    1    3    3  502    0 -0.14313899355E+04  0.14277644064E+03  0.64468409718E+03  0.15763506772E+04  0.12699999809E+01 0.  1.
       -4    1    3    3    0  502  0.14313899355E+04 -0.14277644064E+03  0.39827353406E+03  0.14926103578E+04  0.12699999809E+01 0. -1.
</event>
<event>
 5   0  0.1031339E-06  0.2910107E+04  0.7818609E-02  0.8269877E-01
       -2   -1    0    0    0  501  0.00000000000E+00  0.00000000000E+00  0.10947746480E+04  0.10947746480E+04  0.25500000920E-02 0.  1.
        2   -1    0    0  501    0  0.00000000000E+00  0.00000000000E+00 -0.19338957050E+04  0.19338957050E+04  0.25500000920E-02 0. -1.
    10030    2    1    2    0    0  0.00000000000E+00  0.00000000000E+00 -0.83912105709E+03  0.30286703530E+04  0.29101065202E+04 0.  0.
        5    1    3    3  502    0 -0.10323870614E+04  0.74480144516E+03 -0.11529741200E+04  0.17175341769E+04  0.46999998093E+01 0. -1.
       -5    1    3    3    0  502  0.10323870614E+04 -0.74480144516E+03  0.31385306287E+03  0.13111361762E+04  0.46999998093E+01 0.  1.
</event>
<event>
 5   0  0.3786210E-07  0.2948301E+04  0.7818609E-02  0.8258650E-01
        1   -1    0    0  501    0  0.00000000000E+00  0.00000000000E+00  0.11510283136E+04  0.11510283136E+04  0.50400001928E-02 0. -1.
       -1   -1    0    0    0  501  0.00000000000E+00  0.00000000000E+00 -0.18879810128E+04  0.18879810128E+04  0.50400001928E-02 0.  1.
    10030    2    1    2    0    0  0.00000000000E+00  0.00000000000E+00 -0.73695269912E+03  0.30390093264E+04  0.29483009353E+04 0.  0.
        5    1    3    3  502    0  0.11053424524E+04  0.96637299885E+03 -0.50459528335E+03  0.15525131883E+04  0.46999998093E+01 0.  1.
       -5    1    3    3    0  502 -0.11053424524E+04 -0.96637299885E+03 -0.23235741577E+03  0.14864961381E+04  0.46999998093E+01 0. -1.
</event>
<event>
 5   0  0.3885904E-07  0.2909850E+04  0.7818609E-02  0.8269953E-01
       -1   -1    0    0    0  501  0.00000000000E+00  0.00000000000E+00  0.10728620272E+04  0.10728620272E+04  0.50400001928E-02 0. -1.
        1   -1    0    0  501    0  0.00000000000E+00  0.00000000000E+00 -0.19730462941E+04  0.19730462941E+04  0.50400001928E-02 0.  1.
    10030    2    1    2    0    0  0.00000000000E+00  0.00000000000E+00 -0.90018426690E+03  0.30459083214E+04  0.29098497879E+04 0.  0.
        2    1    3    3  502    0  0.72274993982E+03  0.11290177182E+04  0.14181958983E+03  0.13480212459E+04  0.25500000920E-02 0. -1.
       -2    1    3    3    0  502 -0.72274993982E+03 -0.11290177182E+04 -0.10420038567E+04  0.16978870754E+04  0.25500000920E-02 0.  1.
</event>
<event>
 5   0  0.9950999E-07  0.2899122E+04  0.7818609E-02  0.8273139E-01
        2   -1    0    0  501    0  0.00000000000E+00  0.00000000000E+00  0.22749567731E+04  0.22749567731E+04  0.25500000920E-02 0.  1.
       -2   -1    0    0    0  501  0.00000000000E+00  0.00000000000E+00 -0.92363378969E+03  0.92363378970E+03  0.25500000920E-02 0. -1.
    10030    2    1    2    0    0  0.00000000000E+00  0.00000000000E+00  0.13513229834E+04  0.31985905627E+04  0.28991218986E+04 0.  0.
        3    1    3    3  502    0  0.38333727476E+03 -0.13971162293E+04  0.62222604608E+03  0.15767201676E+04  0.10100000352E+00 0.  1.
       -3    1    3    3    0  502 -0.38333727476E+03  0.13971162293E+04  0.72909693728E+03  0.16218703951E+04  0.10100000352E+00 0. -1.
</event>
<event>
 5   0  0.3769563E-07  0.2902354E+04  0.7818609E-02  0.8272177E-01
       -1   -1    0    0    0  501  0.00000000000E+00  0.00000000000E+00  0.11739000692E+04  0.11739000692E+04  0.50400001928E-02 0. -1.
        1   -1    0    0  501    0  0.00000000000E+00  0.00000000000E+00 -0.17939477246E+04  0.17939477246E+04  0.50400001928E-02 0.  1.
    10030    2    1    2    0    0  0.00000000000E+00  0.00000000000E+00 -0.62004765544E+03  0.29678477938E+04  0.29023544636E+04 0.  0.
        3    1    3    3  502    0  0.63917823737E+03  0.46250509233E+03  0.93543233039E+03  0.12237211425E+04  0.10100000352E+00 0. -1.
       -3    1    3    3    0  502 -0.63917823737E+03 -0.46250509233E+03 -0.15554799858E+04  0.17441266514E+04  0.10100000352E+00 0.  1.
</event>
<event>
 5   0  0.3769563E-07  0.2893524E+04  0.7818609E-02  0.8274807E-01
        1   -1    0    0  501    0  0.00000000000E+00  0.00000000000E+00  0.17080906436E+04  0.17080906436E+04  0.50400001928E-02 0.  1.
       -1   -1    0    0    0  501  0.00000000000E+00  0.00000000000E+00 -0.12254150644E+04  0.12254150644E+04  0.50400001928E-02 0. -1.
    10030    2    1    2    0    0  0.00000000000E+00  0.00000000000E+00  0.48267557917E+03  0.29335057080E+04  0.28935238074E+04 0.  0.
        3    1    3    3  502    0  0.10691419060E+04  0.88738954210E+03  0.65014070066E+03  0.15340168042E+04  0.10100000352E+00 0.  1.
       -3    1    3    3    0  502 -0.10691419060E+04 -0.88738954210E+03 -0.16746512149E+03  0.13994889038E+04  0.10100000352E+00 0. -1.
</event>
<event>
 5   0  0.3769563E-07  0.2894391E+04  0.7818609E-02  0.8274548E-01
       -1   -1    0    0    0  501  0.00000000000E+00  0.00000000000E+00  0.14683807301E+04  0.14683807301E+04  0.50400001928E-02 0.  1.
        1   -1    0    0  501    0  0.00000000000E+00  0.00000000000E+00 -0.14263157645E+04  0.14263157645E+04  0.50400001928E-02 0. -1.
    10030    2    1    2    0    0  0.00000000000E+00  0.00000000000E+00  0.42064965595E+02  0.28946964946E+04  0.28943908400E+04 0.  0.
        3    1    3    3  502    0 -0.56735922612E+03 -0.95813562147E+03  0.94549702363E+03  0.14607823221E+04  0.10100000352E+00 0.  1.
       -3    1    3    3    0  502  0.56735922612E+03  0.95813562147E+03 -0.90343205803E+03  0.14339141726E+04  0.10100000352E+00 0. -1.
</event>
<event>
 5   0  0.3378750E-07  0.2901732E+04  0.7818609E-02  0.8272362E-01
        4   -1    0    0  501    0  0.00000000000E+00  0.00000000000E+00  0.19645479625E+04  0.19645483730E+04  0.12699999809E+01 0. -1.
       -4   -1    0    0    0  501  0.00000000000E+00  0.00000000000E+00 -0.10714983251E+04  0.10714990777E+04  0.12699999809E+01 0.  1.
    10030    2    1    2    0    0  0.00000000000E+00  0.00000000000E+00  0.89304963745E+03  0.30360474508E+04  0.29017316327E+04 0.  0.
        5    1    3    3  502    0  0.57610176212E+03  0.84020219504E+03 -0.63432506362E+03  0.12000930569E+04  0.46999998093E+01 0.  1.
       -5    1    3    3    0  502 -0.57610176212E+03 -0.84020219504E+03  0.15273747011E+04  0.18359543939E+04  0.46999998093E+01 0. -1.
</event>
<event>
 5   0  0.3638028E-07  0.2904520E+04  0.7818609E-02  0.8271534E-01
       -1   -1    0    0    0  501  0.00000000000E+00  0.00000000000E+00  0.20039218670E+04  0.20039218670E+04  0.50400001928E-02 0.  1.
        1   -1    0    0  501    0  0.00000000000E+00  0.00000000000E+00 -0.10524657528E+04  0.10524657529E+04  0.50400001928E-02 0. -1.
    10030    2    1    2    0    0  0.00000000000E+00  0.00000000000E+00  0.95145611412E+03  0.30563876198E+04  0.29045200198E+04 0.  0.
        4    1    3    3  502    0 -0.95793949432E+03  0.10865841954E+04  0.36665391446E+03  0.14942389348E+04  0.12699999809E+01 0. -1.
       -4    1    3    3    0  502  0.95793949432E+03 -0.10865841954E+04  0.58480219966E+03  0.15621486850E+04  0.12699999809E+01 0.  1.
</event>
<event>
 5   0  0.3638028E-07  0.2899197E+04  0.7818609E-02  0.8273116E-01
        1   -1    0    0  501    0  0.00000000000E+00  0.00000000000E+00  0.19962447611E+04  0.19962447611E+04  0.50400001928E-02 0. -1.
       -1   -1    0    0    0  501  0.00000000000E+00  0.00000000000E+00 -0.10526443565E+04  0.10526443565E+04  0.50400001928E-02 0.  1.
    10030    2    1    2    0    0  0.00000000000E+00  0.00000000000E+00  0.94360040460E+03  0.30488891177E+04  0.28991969799E+04 0.  0.
        4    1    3    3  502    0 -0.56882742730E+03  0.81692177802E+03  0.15799673300E+04  0.18674110984E+04  0.12699999809E+01 0. -1.
       -4    1    3    3    0  502  0.56882742730E+03 -0.81692177802E+03 -0.63636692542E+03  0.11814780193E+04  0.12699999809E+01 0.  1.
</event>
<event>
 5   0  0.9950999E-07  0.2909734E+04  0.7818609E-02  0.8269987E-01
       -2   -1    0    0    0  501  0.00000000000E+00  0.00000000000E+00  0.11019481493E+04  0.11019481493E+04  0.25500000920E-02 0. -1.
        2   -1    0    0  501    0  0.00000000000E+00  0.00000000000E+00 -0.19208142034E+04  0.19208142034E+04  0.25500000920E-02 0.  1.
    10030    2    1    2    0    0  0.00000000000E+00  0.00000000000E+00 -0.81886605407E+03  0.30227623527E+04  0.29097337725E+04 0.  0.
        3    1    3    3  502    0 -0.80820235059E+03 -0.63937062963E+03  0.65742173462E+03  0.12223703158E+04  0.10100000352E+00 0. -1.
       -3    1    3    3    0  502  0.80820235059E+03  0.63937062963E+03 -0.14762877887E+04  0.18003920370E+04  0.10100000352E+00 0.  1.
</event>
<event>
 5   0  0.1006893E-06  0.2897793E+04  0.7818609E-02  0.8273534E-01
        2   -1    0    0  501    0  0.00000000000E+00  0.00000000000E+00  0.15153460041E+04  0.15153460041E+04  0.25500000920E-02 0.  1.
       -2   -1    0    0    0  501  0.00000000000E+00  0.00000000000E+00 -0.13853606282E+04  0.13853606282E+04  0.25500000920E-02 0. -1.
    10030    2    1    2    0    0  0.00000000000E+00  0.00000000000E+00  0.12998537588E+03  0.29007066322E+04  0.28977927408E+04 0.  0.
        4    1    3    3  502    0  0.65216074696E+03  0.40068309086E+03 -0.11664632484E+04  0.13951697753E+04  0.12699999809E+01 0. -1.
       -4    1    3    3    0  502 -0.65216074696E+03 -0.40068309086E+03  0.12964486243E+04  0.15055368569E+04  0.12699999809E+01 0.  1.
</event>
<event>
 5   0  0.1006893E-06  0.2893364E+04  0.7818609E-02  0.8274855E-01
       -2   -1    0    0    0  501  0.00000000000E+00  0.00000000000E+00  0.69438790934E+03  0.69438790934E+03  0.25500000920E-02 0.  1.
        2   -1    0    0  501    0  0.00000000000E+00  0.00000000000E+00 -0.30140054651E+04  0.30140054651E+04  0.25500000920E-02 0. -1.
    10030    2    1    2    0    0  0.00000000000E+00  0.00000000000E+00 -0.23196175558E+04  0.37083933745E+04  0.28933640999E+04 0.  0.
        4    1    3    3  502    0  0.32822529578E+03 -0.12695589641E+04 -0.37663951295E+03  0.13643206162E+04  0.12699999809E+01 0.  1.
       -4    1    3    3    0  502 -0.32822529578E+03  0.12695589641E+04 -0.19429780429E+04  0.23440727583E+04  0.12699999809E+01 0. -1.
</event>
<event>
 5   0  0.3786210E-07  0.2898819E+04  0.7818609E-02  0.8273229E-01
        1   -1    0    0  501    0  0.00000000000E+00  0.00000000000E+00  0.20372735611E+04  0.20372735611E+04  0.50400001928E-02 0.  1.
       -1   -1    0    0    0  501  0.00000000000E+00  0.00000000000E+00 -0.10311759281E+04  0.10311759281E+04  0.50400001928E-02 0. -1.
    10030    2    1    2    0    0  0.00000000000E+00  0.00000000000E+00  0.10060976330E+04  0.30684494892E+04  0.28988186940E+04 0.  0.
        5    1    3    3  502    0  0.44942978322E+03  0.79194106655E+03 -0.69059424991E+03  0.11428474487E+04  0.46999998093E+01 0. -1.
       -5    1    3    3    0  502 -0.44942978322E+03 -0.79194106655E+03  0.16966918830E+04  0.19256020406E+04  0.46999998093E+01 0.  1.
</event>
<event>
 5   0  0.3769563E-07  0.2896410E+04  0.7818609E-02  0.8273946E-01
       -1   -1    0    0    0  501  0.00000000000E+00  0.00000000000E+00  0.19181567856E+04  0.19181567856E+04  0.50400001928E-02 0. -1.
        1   -1    0    0  501    0  0.00000000000E+00  0.00000000000E+00 -0.10933923473E+04  0.10933923474E+04  0.50400001928E-02 0.  1.
    10030    2    1    2    0    0  0.00000000000E+00  0.00000000000E+00  0.82476443822E+03  0.30115491329E+04  0.28964101577E+04 0.  0.
        3    1    3    3  502    0  0.56141220236E+03  0.93557332599E+03 -0.57774198509E+03  0.12346120528E+04  0.10100000352E+00 0.  1.
       -3    1    3    3    0  502 -0.56141220236E+03 -0.93557332599E+03  0.14025064233E+04  0.17769370802E+04  0.10100000352E+00 0. -1.
</event>
<event>
 5   0  0.1006893E-06  0.2901412E+04  0.7818609E-02  0.8272457E-01
        2   -1    0    0  501    0  0.00000000000E+00  0.00000000000E+00  0.11150036490E+04  0.11150036490E+04  0.25500000920E-02 0. -1.
       -2   -1    0    0    0  501  0.00000000000E+00  0.00000000000E+00 -0.18874811995E+04  0.18874811995E+04  0.25500000920E-02 0.  1.
    10030    2    1    2    0    0  0.00000000000E+00  0.00000000000E+00 -0.77247755051E+03  0.30024848485E+04  0.29014123628E+04 0.  0.
        4    1    3    3  502    0  0.89774758582E+03  0.94402045546E+03 -0.10467699500E+04  0.16711834996E+04  0.12699999809E+01 0.  1.
       -4    1    3    3    0  502 -0.89774758582E+03 -0.94402045546E+03  0.27429239950E+03  0.13313013489E+04  0.12699999809E+01 0. -1.
</event>
<event>
 5   0  0.1031339E-06  0.2902969E+04  0.7818609E-02  0.8271995E-01
        2   -1    0    0  501    0  0.00000000000E+00  0.00000000000E+00  0.10588966496E+04  0.10588966496E+04  0.25500000920E-02 0. -1.
       -2   -1    0    0    0  501  0.00000000000E+00  0.00000000000E+00 -0.19896250222E+04  0.19896250222E+04  0.25500000920E-02 0.  1.
    10030    2    1    2    0    0  0.00000000000E+00  0.00000000000E+00 -0.93072837258E+03  0.30485216719E+04  0.29029690113E+04 0.  0.
        5    1    3    3  502    0 -0.96322120745E+03 -0.93470163454E+03  0.11490111945E+03  0.13471030389E+04  0.46999998093E+01 0. -1.
       -5    1    3    3    0  502  0.96322120745E+03  0.93470163454E+03 -0.10456294920E+04  0.17014186330E+04  0.46999998093E+01 0.  1.
</event>
<event>
 5   0  0.3786210E-07  0.2917577E+04  0.7818609E-02  0.8267667E-01
        1   -1    0    0  501    0  0.00000000000E+00  0.00000000000E+00  0.19380341884E+04  0.19380341884E+04  0.50400001928E-02 0.  1.
       -1   -1    0    0    0  501  0.00000000000E+00  0.00000000000E+00 -0.10980528726E+04  0.10980528726E+04  0.50400001928E-02 0. -1.
    10030    2    1    2    0    0  0.00000000000E+00  0.00000000000E+00  0.83998131583E+03  0.30360870610E+04  0.29175770823E+04 0.  0.
        5    1    3    3  502    0  0.11055839187E+04  0.93729210242E+03  0.24833694195E+03  0.14705528257E+04  0.46999998093E+01 0. -1.
       -5    1    3    3    0  502 -0.11055839187E+04 -0.93729210242E+03  0.59164437389E+03  0.15655342352E+04  0.46999998093E+01 0.  1.
</event>
<event>
 5   0  0.3769563E-07  0.2904619E+04  0.7818609E-02  0.8271505E-01
       -1   -1    0    0    0  501  0.00000000000E+00  0.00000000000E+00  0.11556913497E+04  0.11556913497E+04  0.50400001928E-02 0. -1.
        1   -1    0    0  501    0  0.00000000000E+00  0.00000000000E+00 -0.18250569772E+04  0.18250569773E+04  0.50400001928E-02 0.  1.
    10030    2    1    2    0    0  0.00000000000E+00  0.00000000000E+00 -0.66936562756E+03  0.29807483270E+04  0.29046187780E+04 0.  0.
        3    1    3    3  502    0  0.14482341599E+04 -0.31936005651E+02 -0.22803368498E+03  0.14664247209E+04  0.10100000352E+00 0. -1.
       -3    1    3    3    0  502 -0.14482341599E+04  0.31936005651E+02 -0.44133194258E+03  0.15143236061E+04  0.10100000352E+00 0.  1.
</event>
<event>
 5   0  0.9994311E-07  0.2902379E+04  0.7818609E-02  0.8272170E-01
        2   -1    0    0  501    0  0.00000000000E+00  0.00000000000E+00  0.18939497190E+04  0.18939497190E+04  0.25500000920E-02 0.  1.
       -2   -1    0    0    0  501  0.00000000000E+00  0.00000000000E+00 -0.11119356988E+04  0.11119356988E+04  0.25500000920E-02 0. -1.
    10030    2    1    2    0    0  0.00000000000E+00  0.00000000000E+00  0.78201402024E+03  0.30058854178E+04  0.29023785448E+04 0.  0.
        2    1    3    3  502    0  0.99443391145E+03 -0.10110661263E+04  0.72135896369E+02  0.14199848955E+04  0.25500000920E-02 0.  1.
       -2    1    3    3    0  502 -0.99443391145E+03  0.10110661263E+04  0.70987812388E+03  0.15859005223E+04  0.25500000920E-02 0. -1.
</event>
<event>
 5   0  0.1031339E-06  0.2898806E+04  0.7818609E-02  0.8273233E-01
        2   -1    0    0  501    0  0.00000000000E+00  0.00000000000E+00  0.18997278873E+04  0.18997278873E+04  0.25500000920E-02 0. -1.
       -2   -1    0    0    0  501  0.00000000000E+00  0.00000000000E+00 -0.11058266327E+04  0.11058266327E+04  0.25500000920E-02 0.  1.
    10030    2    1    2    0    0  0.00000000000E+00  0.00000000000E+00  0.79390125456E+03  0.30055545200E+04  0.28988064390E+04 0.  0.
        5    1    3    3  502    0  0.13661185287E+04  0.47716130381E+03  0.31154710423E+03  0.14802183732E+04  0.46999998093E+01 0.  1.
       -5    1    3    3    0  502 -0.13661185287E+04 -0.47716130381E+03  0.48235415033E+03  0.15253361468E+04  0.46999998093E+01 0. -1.
</event>
<event>
 5   0  0.1063979E-06  0.2925929E+04  0.7818609E-02  0.8265204E-01
       -2   -1    0    0    0  501  0.00000000000E+00  0.00000000000E+00  0.12682547754E+04  0.12682547754E+04  0.25500000920E-02 0.  1.
        2   -1    0    0  501    0  0.00000000000E+00  0.00000000000E+00 -0.16875675955E+04  0.16875675955E+04  0.25500000920E-02 0. -1.
    10030    2    1    2    0    0  0.00000000000E+00  0.00000000000E+00 -0.41931282017E+03  0.29558223709E+04  0.29259293647E+04 0.  0.
        1    1    3    3  502    0  0.99255532885E+02 -0.10584851086E+04 -0.12249232115E+04  0.16219368853E+04  0.50400001928E-02 0. -1.
       -1    1    3    3    0  502 -0.99255532885E+02  0.10584851086E+04  0.80561039129E+03  0.13338854856E+04  0.50400001928E-02 0.  1.
</event>
<event>
 5   0  0.1006893E-06  0.2903377E+04  0.7818609E-02  0.8271873E-01
        2   -1    0    0  501    0  0.00000000000E+00  0.00000000000E+00  0.34086807134E+04  0.34086807134E+04  0.25500000920E-02 0.  1.
       -2   -1    0    0    0  501  0.00000000000E+00  0.00000000000E+00 -0.61824492426E+03  0.61824492426E+03  0.25500000920E-02 0. -1.
    10030    2    1    2    0    0  0.00000000000E+00  0.00000000000E+00  0.27904357891E+04  0.40269256376E+04  0.29033770334E+04 0.  0.
        4    1    3    3  502    0 -0.13963644957E+04  0.33978896099E+03  0.16798280445E+04  0.22106818439E+04  0.12699999809E+01 0.  1.
       -4    1    3    3    0  502  0.13963644957E+04 -0.33978896099E+03  0.11106077446E+04  0.18162437937E+04  0.12699999809E+01 0. -1.
</event>
<event>
 5   0  0.1031339E-06  0.2899952E+04  0.7818609E-02  0.8272892E-01
       -2   -1    0    0    0  501  0.00000000000E+00  0.00000000000E+00  0.19774960678E+04  0.19774960678E+04  0.25500000920E-02 0.  1.
        2   -1    0    0  501    0  0.00000000000E+00  0.00000000000E+00 -0.10631777241E+04  0.10631777241E+04  0.25500000920E-02 0. -1.
    10030    2    1    2    0    0  0.00000000000E+00  0.00000000000E+00  0.91431834372E+03  0.30406737920E+04  0.28999515643E+04 0.  0.
        5    1    3    3  502    0  0.76319123580E+03  0.38471693427E+03  0.16852955564E+04  0.18896325527E+04  0.46999998093E+01 0.  1.
       -5    1    3    3    0  502 -0.76319123580E+03 -0.38471693427E+03 -0.77097721269E+03  0.11510412392E+04  0.46999998093E+01 0. -1.
</event>
<event>
 5   0  0.9950999E-07  0.2900478E+04  0.7818609E-02  0.8272735E-01
        2   -1    0    0  501    0  0.00000000000E+00  0.00000000000E+00  0.14319236818E+04  0.14319236818E+04  0.25500000920E-02 0. -1.
       -2   -1    0    0    0  501  0.00000000000E+00  0.00000000000E+00 -0.14687889490E+04  0.14687889490E+04  0.25500000920E-02 0.  1.
    10030    2    1    2    0    0  0.00000000000E+00  0.00000000000E+00 -0.36865267167E+02  0.29007126308E+04  0.29004783603E+04 0.  0.
        3    1    3    3  502    0 -0.52862132387E+03 -0.11489249156E+04  0.69136034911E+03  0.14413355294E+04  0.10100000352E+00 0. -1.
       -3    1    3    3    0  502  0.52862132387E+03  0.11489249156E+04 -0.72822561628E+03  0.14593771014E+04  0.10100000352E+00 0.  1.
</event>
<event>
 5   0  0.3638028E-07  0.2881232E+04  0.7818609E-02  0.8278484E-01
        1   -1    0    0  501    0  0.00000000000E+00  0.00000000000E+00  0.22377102640E+04  0.22377102640E+04  0.50400001928E-02 0.  1.
       -1   -1    0    0    0  501  0.00000000000E+00  0.00000000000E+00 -0.92745435632E+03  0.92745435634E+03  0.50400001928E-02 0. -1.
    10030    2    1    2    0    0  0.00000000000E+00  0.00000000000E+00  0.13102559077E+04  0.31651646204E+04  0.28812317731E+04 0.  0.
        4    1    3    3  502    0 -0.47680798317E+02  0.13681726380E+04  0.16236845748E+03  0.13785989101E+04  0.12699999809E+01 0. -1.
       -4    1    3    3    0  502  0.47680798317E+02 -0.13681726380E+04  0.11478874502E+04  0.17865657103E+04  0.12699999809E+01 0.  1.
</event>
<event>
 5   0  0.1031339E-06  0.2901008E+04  0.7818609E-02  0.8272578E-01
       -2   -1    0    0    0  501  0.00000000000E+00  0.00000000000E+00  0.11047209685E+04  0.11047209685E+04  0.25500000920E-02 0. -1.
        2   -1    0    0  501    0  0.00000000000E+00  0.00000000000E+00 -0.19045182024E+04  0.19045182024E+04  0.25500000920E-02 0.  1.
    10030    2    1    2    0    0  0.00000000000E+00  0.00000000000E+00 -0.79979723382E+03  0.30092391709E+04  0.29010075444E+04 0.  0.
        5    1    3    3  502    0 -0.38355532779E+02  0.81745830922E+03 -0.16421721412E+04  0.18347917226E+04  0.46999998093E+01 0.  1.
       -5    1    3    3    0  502  0.38355532779E+02 -0.81745830922E+03  0.84237490736E+03  0.11744474483E+04  0.46999998093E+01 0. -1.
</event>
<event>
 5   0  0.3786210E-07  0.2906086E+04  0.7818609E-02  0.8271069E-01
       -1   -1    0    0    0  501  0.00000000000E+00  0.00000000000E+00  0.12250254906E+04  0.12250254906E+04  0.50400001928E-02 0. -1.
        1   -1    0    0  501    0  0.00000000000E+00  0.00000000000E+00 -0.17235019839E+04  0.17235019839E+04  0.50400001928E-02 0.  1.
    10030    2    1    2    0    0  0.00000000000E+00  0.00000000000E+00 -0.49847649333E+03  0.29485274746E+04  0.29060859337E+04 0.  0.
        5    1    3    3  502    0 -0.79306928490E+03  0.24996456395E+03 -0.14582237959E+04  0.16786541940E+04  0.46999998093E+01 0.  1.
       -5    1    3    3    0  502  0.79306928490E+03 -0.24996456395E+03  0.95974730261E+03  0.12698732806E+04  0.46999998093E+01 0. -1.
</event>
<event>
 5   0  0.3786210E-07  0.2899932E+04  0.7818609E-02  0.8272898E-01
        1   -1    0    0  501    0  0.00000000000E+00  0.00000000000E+00  0.18847400743E+04  0.18847400743E+04  0.50400001928E-02 0.  1.
       -1   -1    0    0    0  501  0.00000000000E+00  0.00000000000E+00 -0.11154863495E+04  0.11154863496E+04  0.50400001928E-02 0. -1.
    10030    2    1    2    0    0  0.00000000000E+00  0.00000000000E+00  0.76925372471E+03  0.30002264238E+04  0.28999322925E+04 0.  0.
        5    1    3    3  502    0 -0.51494687821E+03  0.23399086682E+03  0.17658879983E+04  0.18542665735E+04  0.46999998093E+01 0.  1.
       -5    1    3    3    0  502  0.51494687821E+03 -0.23399086682E+03 -0.99663427360E+03  0.11459598503E+04  0.46999998093E+01 0. -1.
</event>
<event>
 5   0  0.3786210E-07  0.2898051E+04  0.7818609E-02  0.8273457E-01
        1   -1    0    0  501    0  0.00000000000E+00  0.00000000000E+00  0.19322637780E+04  0.19322637780E+04  0.50400001928E-02 0. -1.
       -1   -1    0    0    0  501  0.00000000000E+00  0.00000000000E+00 -0.10866401853E+04  0.10866401853E+04  0.50400001928E-02 0.  1.
    10030    2    1    2    0    0  0.00000000000E+00  0.00000000000E+00  0.84562359271E+03  0.30189039633E+04  0.28980513935E+04 0.  0.
        5    1    3    3  502    0 -0.21977080788E+03 -0.33101511076E+03 -0.10287769105E+04  0.11028482366E+04  0.46999998093E+01 0.  1.
       -5    1    3    3    0  502  0.21977080788E+03  0.33101511076E+03  0.18744005032E+04  0.19160557267E+04  0.46999998093E+01 0. -1.
</event>
<event>
 5   0  0.3770467E-07  0.2897246E+04  0.7818609E-02  0.8273697E-01
        1   -1    0    0  501    0  0.00000000000E+00  0.00000000000E+00  0.16915601793E+04  0.16915601793E+04  0.50400001928E-02 0.  1.
       -1   -1    0    0    0  501  0.00000000000E+00  0.00000000000E+00 -0.12405757711E+04  0.12405757711E+04  0.50400001928E-02 0. -1.
    10030    2    1    2    0    0  0.00000000000E+00  0.00000000000E+00  0.45098440827E+03  0.29321359504E+04  0.28972459846E+04 0.  0.
        1    1    3    3  502    0  0.37983524232E+03  0.11174594826E+04 -0.62457410307E+03  0.13353214283E+04  0.50400001928E-02 0. -1.
       -1    1    3    3    0  502 -0.37983524232E+03 -0.11174594826E+04  0.10755585113E+04  0.15968145221E+04  0.50400001928E-02 0.  1.
</event>
<event>
 5   0  0.9950999E-07  0.2899721E+04  0.7818609E-02  0.8272961E-01
        2   -1    0    0  501    0  0.00000000000E+00  0.00000000000E+00  0.22043651340E+04  0.22043651340E+04  0.25500000920E-02 0.  1.
       -2   -1    0    0    0  501  0.00000000000E+00  0.00000000000E+00 -0.95360578867E+03  0.95360578868E+03  0.25500000920E-02 0. -1.
    10030    2    1    2    0    0  0.00000000000E+00  0.00000000000E+00  0.12507593453E+04  0.31579709227E+04  0.28997209191E+04 0.  0.
        3    1    3    3  502    0 -0.59992899110E+03  0.13155660765E+04  0.50876147088E+03  0.15327971622E+04  0.10100000352E+00 0. -1.
       -3    1    3    3    0  502  0.59992899110E+03 -0.13155660765E+04  0.74199787443E+03  0.16251737605E+04  0.10100000352E+00 0.  1.
</event>
<event>
 5   0  0.3378750E-07  0.2895570E+04  0.7818609E-02  0.8274197E-01
       -4   -1    0    0    0  501  0.00000000000E+00  0.00000000000E+00  0.13578132850E+04  0.13578138790E+04  0.12699999809E+01 0. -1.
        4   -1    0    0  501    0  0.00000000000E+00  0.00000000000E+00 -0.15437171900E+04  0.15437177124E+04  0.12699999809E+01 0.  1.
    10030    2    1    2    0    0  0.00000000000E+00  0.00000000000E+00 -0.18590390494E+03  0.29015315913E+04  0.28955699463E+04 0.  0.
        2    1    3    3  502    0 -0.13376367602E+04  0.52974581858E+03 -0.25508307914E+03  0.14611536921E+04  0.25500000920E-02 0.  1.
       -2    1    3    3    0  502  0.13376367602E+04 -0.52974581858E+03  0.69179174205E+02  0.14403778993E+04  0.25500000920E-02 0. -1.
</event>
<event>
 5   0  0.3638028E-07  0.2901053E+04  0.7818609E-02  0.8272564E-01
       -1   -1    0    0    0  501  0.00000000000E+00  0.00000000000E+00  0.97264667149E+03  0.97264667150E+03  0.50400001928E-02 0. -1.
        1   -1    0    0  501    0  0.00000000000E+00  0.00000000000E+00 -0.21631972776E+04  0.21631972776E+04  0.50400001928E-02 0.  1.
    10030    2    1    2    0    0  0.00000000000E+00  0.00000000000E+00 -0.11905506061E+04  0.31358439491E+04  0.29010526585E+04 0.  0.
        4    1    3    3  502    0  0.88715313118E+03  0.10373370350E+04 -0.64718548781E+02  0.13664914584E+04  0.12699999809E+01 0. -1.
       -4    1    3    3    0  502 -0.88715313118E+03 -0.10373370350E+04 -0.11258320573E+04  0.17693524907E+04  0.12699999809E+01 0.  1.
</event>
<event>
 5   0  0.9994311E-07  0.2879822E+04  0.7818609E-02  0.8278906E-01
        2   -1    0    0  501    0  0.00000000000E+00  0.00000000000E+00  0.15202274541E+04  0.15202274541E+04  0.25500000920E-02 0.  1.
       -2   -1    0    0    0  501  0.00000000000E+00  0.00000000000E+00 -0.13638379767E+04  0.13638379767E+04  0.25500000920E-02 0. -1.
    10030    2    1    2    0    0  0.00000000000E+00  0.00000000000E+00  0.15638947734E+03  0.28840654308E+04  0.28798221717E+04 0.  0.
        2    1    3    3  502    0 -0.11122345662E+04  0.64607818169E+03  0.72634320545E+03  0.14771787973E+04  0.25500000920E-02 0.  1.
       -2    1    3    3    0  502  0.11122345662E+04 -0.64607818169E+03 -0.56995372811E+03  0.14068866334E+04  0.25500000920E-02 0. -1.
</event>
<event>
 5   0  0.9994311E-07  0.2897276E+04  0.7818609E-02  0.8273689E-01
        2   -1    0    0  501    0  0.00000000000E+00  0.00000000000E+00  0.22313365268E+04  0.22313365268E+04  0.25500000920E-02 0.  1.
       -2   -1    0    0    0  501  0.00000000000E+00  0.00000000000E+00 -0.94049075869E+03  0.94049075870E+03  0.25500000920E-02 0. -1.
    10030    2    1    2    0    0  0.00000000000E+00  0.00000000000E+00  0.12908457681E+04  0.31718272855E+04  0.28972755361E+04 0.  0.
        2    1    3    3  502    0 -0.47534817103E+02 -0.13554002365E+04  0.12027653940E+04  0.18127365923E+04  0.25500000920E-02 0. -1.
       -2    1    3    3    0  502  0.47534817103E+02  0.13554002365E+04  0.88080374117E+02  0.13590906932E+04  0.25500000920E-02 0.  1.
</event>
<event>
 5   0  0.3770467E-07  0.2903835E+04  0.7818609E-02  0.8271737E-01
       -1   -1    0    0    0  501  0.00000000000E+00  0.00000000000E+00  0.92167818605E+03  0.92167818606E+03  0.50400001928E-02 0.  1.
        1   -1    0    0  501    0  0.00000000000E+00  0.00000000000E+00 -0.22872027736E+04  0.22872027736E+04  0.50400001928E-02 0. -1.
    10030    2    1    2    0    0  0.00000000000E+00  0.00000000000E+00 -0.13655245875E+04  0.32088809596E+04  0.29038353283E+04 0.  0.
        1    1    3    3  502    0 -0.38171943079E+01  0.10119494359E+04 -0.18332924330E+04  0.20940433082E+04  0.50400001928E-02 0. -1.
       -1    1    3    3    0  502  0.38171943079E+01 -0.10119494359E+04  0.46776784547E+03  0.11148376514E+04  0.50400001928E-02 0.  1.
</event>
<event>
 5   0  0.1031339E-06  0.2904369E+04  0.7818609E-02  0.8271579E-01
       -2   -1    0    0    0  501  0.00000000000E+00  0.00000000000E+00  0.11623157438E+04  0.11623157438E+04  0.25500000920E-02 0.  1.
        2   -1    0    0  501    0  0.00000000000E+00  0.00000000000E+00 -0.18143435767E+04  0.18143435767E+04  0.25500000920E-02 0. -1.
    10030    2    1    2    0    0  0.00000000000E+00  0.00000000000E+00 -0.65202783293E+03  0.29766593205E+04  0.29043691941E+04 0.  0.
        5    1    3    3  502    0 -0.14059629720E+04  0.30549499826E+03 -0.52778701467E+03  0.15325274208E+04  0.46999998093E+01 0.  1.
       -5    1    3    3    0  502  0.14059629720E+04 -0.30549499826E+03 -0.12424081825E+03  0.14441318997E+04  0.46999998093E+01 0. -1.
</event>
<event>
 5   0  0.3769563E-07  0.2901432E+04  0.7818609E-02  0.8272451E-01
       -1   -1    0    0    0  501  0.00000000000E+00  0.00000000000E+00  0.10653009910E+04  0.10653009910E+04  0.50400001928E-02 0. -1.
        1   -1    0    0  501    0  0.00000000000E+00  0.00000000000E+00 -0.19755706768E+04  0.19755706768E+04  0.50400001928E-02 0.  1.
    10030    2    1    2    0    0  0.00000000000E+00  0.00000000000E+00 -0.91026968582E+03  0.30408716678E+04  0.29014323358E+04 0.  0.
        3    1    3    3  502    0  0.55648300249E+03  0.37991425357E+02 -0.18586967689E+04  0.19405850585E+04  0.10100000352E+00 0.  1.
       -3    1    3    3    0  502 -0.55648300249E+03 -0.37991425357E+02  0.94842708310E+03  0.11002866093E+04  0.10100000352E+00 0. -1.
</event>
<event>
 5   0  0.1006893E-06  0.2897376E+04  0.7818609E-02  0.8273659E-01
       -2   -1    0    0    0  501  0.00000000000E+00  0.00000000000E+00  0.10795920619E+04  0.10795920619E+04  0.25500000920E-02 0.  1.
        2   -1    0    0  501    0  0.00000000000E+00  0.00000000000E+00 -0.19439716139E+04  0.19439716139E+04  0.25500000920E-02 0. -1.
    10030    2    1    2    0    0  0.00000000000E+00  0.00000000000E+00 -0.86437955201E+03  0.30235636758E+04  0.28973755870E+04 0.  0.
        4    1    3    3  502    0 -0.15438001075E+03  0.81198399403E+03  0.80939373175E+03  0.11568366437E+04  0.12699999809E+01 0.  1.
       -4    1    3    3    0  502  0.15438001075E+03 -0.81198399403E+03 -0.16737732838E+04  0.18667270322E+04  0.12699999809E+01 0. -1.
</event>
<event>
 5   0  0.3378750E-07  0.2968587E+04  0.7818609E-02  0.8252758E-01
       -4   -1    0    0    0  501  0.00000000000E+00  0.00000000000E+00  0.11771761812E+04  0.11771768663E+04  0.12699999809E+01 0.  1.
        4   -1    0    0  501    0  0.00000000000E+00  0.00000000000E+00 -0.18715346960E+04  0.18715351269E+04  0.12699999809E+01 0. -1.
    10030    2    1    2    0    0  0.00000000000E+00  0.00000000000E+00 -0.69435851481E+03  0.30487119932E+04  0.29685873864E+04 0.  0.
        2    1    3    3  502    0  0.15086014690E+03 -0.25718318038E+03  0.11461041693E+04  0.11842536633E+04  0.25500000920E-02 0.  1.
       -2    1    3    3    0  502 -0.15086014690E+03  0.25718318038E+03 -0.18404626841E+04  0.18644583299E+04  0.25500000920E-02 0. -1.
</event>
<event>
 5   0  0.3770467E-07  0.2899730E+04  0.7818609E-02  0.8272958E-01
       -1   -1    0    0    0  501  0.00000000000E+00  0.00000000000E+00  0.89599839301E+03  0.89599839303E+03  0.50400001928E-02 0. -1.
        1   -1    0    0  501    0  0.00000000000E+00  0.00000000000E+00 -0.23461077335E+04  0.23461077335E+04  0.50400001928E-02 0.  1.
    10030    2    1    2    0    0  0.00000000000E+00  0.00000000000E+00 -0.14501093405E+04  0.32421061265E+04  0.28997301661E+04 0.  0.
        1    1    3    3  502    0  0.11296272101E+04 -0.44062970698E+03  0.16372199758E+03  0.12235264872E+04  0.50400001928E-02 0. -1.
       -1    1    3    3    0  502 -0.11296272101E+04  0.44062970698E+03 -0.16138313381E+04  0.20185796393E+04  0.50400001928E-02 0.  1.
</event>
<event>
 5   0  0.3770467E-07  0.2918907E+04  0.7818609E-02  0.8267274E-01
       -1   -1    0    0    0  501  0.00000000000E+00  0.00000000000E+00  0.13969930298E+04  0.13969930298E+04  0.50400001928E-02 0.  1.
        1   -1    0    0  501    0  0.00000000000E+00  0.00000000000E+00 -0.15247063849E+04  0.15247063849E+04  0.50400001928E-02 0. -1.
    10030    2    1    2    0    0  0.00000000000E+00  0.00000000000E+00 -0.12771335514E+03  0.29216994147E+04  0.29189067763E+04 0.  0.
        1    1    3    3  502    0 -0.10387034846E+04  0.34841571301E+03 -0.10289916841E+04  0.15030376988E+04  0.50400001928E-02 0. -1.
       -1    1    3    3    0  502  0.10387034846E+04 -0.34841571301E+03  0.90127832894E+03  0.14186617159E+04  0.50400001928E-02 0.  1.
</event>
<event>
 5   0  0.3769563E-07  0.2895801E+04  0.7818609E-02  0.8274128E-01
       -1   -1    0    0    0  501  0.00000000000E+00  0.00000000000E+00  0.18406466560E+04  0.18406466560E+04  0.50400001928E-02 0. -1.
        1   -1    0    0  501    0  0.00000000000E+00  0.00000000000E+00 -0.11389558278E+04  0.11389558278E+04  0.50400001928E-02 0.  1.
    10030    2    1    2    0    0  0.00000000000E+00  0.00000000000E+00  0.70169082819E+03  0.29796024838E+04  0.28958005704E+04 0.  0.
        3    1    3    3  502    0 -0.48777202641E+03 -0.13139934461E+04  0.72455703584E+03  0.15778096319E+04  0.10100000352E+00 0.  1.
       -3    1    3    3    0  502  0.48777202641E+03  0.13139934461E+04 -0.22866207650E+02  0.14017928519E+04  0.10100000352E+00 0. -1.
</event>
<event>
 5   0  0.1006893E-06  0.2899439E+04  0.7818609E-02  0.8273044E-01
       -2   -1    0    0    0  501  0.00000000000E+00  0.00000000000E+00  0.13349815573E+04  0.13349815573E+04  0.25500000920E-02 0. -1.
        2   -1    0    0  501    0  0.00000000000E+00  0.00000000000E+00 -0.15743189285E+04  0.15743189285E+04  0.25500000920E-02 0.  1.
    10030    2    1    2    0    0  0.00000000000E+00  0.00000000000E+00 -0.23933737118E+03  0.29093004858E+04  0.28994390733E+04 0.  0.
        4    1    3    3  502    0  0.78568267971E+03 -0.10289568902E+04 -0.77429513412E+03  0.15085039353E+04  0.12699999809E+01 0. -1.
       -4    1    3    3    0  502 -0.78568267971E+03  0.10289568902E+04  0.53495776294E+03  0.14007965506E+04  0.12699999809E+01 0.  1.
</event>
<event>
 5   0  0.1063979E-06  0.2888828E+04  0.7818609E-02  0.8276209E-01
        2   -1    0    0  501    0  0.00000000000E+00  0.00000000000E+00  0.13078092139E+04  0.13078092139E+04  0.25500000920E-02 0. -1.
       -2   -1    0    0    0  501  0.00000000000E+00  0.00000000000E+00 -0.15952877693E+04  0.15952877693E+04  0.25500000920E-02 0.  1.
    10030    2    1    2    0    0  0.00000000000E+00  0.00000000000E+00 -0.28747855540E+03  0.29030969832E+04  0.28888281663E+04 0.  0.
        1    1    3    3  502    0  0.34841071049E+03 -0.72540283823E+03 -0.13491357006E+04  0.15709126136E+04  0.50400001928E-02 0.  1.
       -1    1    3    3    0  502 -0.34841071049E+03  0.72540283823E+03  0.10616571452E+04  0.13321843697E+04  0.50400001928E-02 0. -1.
</event>
<event>
 5   0  0.3378750E-07  0.2899520E+04  0.7818609E-02  0.8273020E-01
        4   -1    0    0  501    0  0.00000000000E+00  0.00000000000E+00  0.14143443649E+04  0.14143449351E+04  0.12699999809E+01 0.  1.
       -4   -1    0    0    0  501  0.00000000000E+00  0.00000000000E+00 -0.14860613152E+04  0.14860618578E+04  0.12699999809E+01 0. -1.
    10030    2    1    2    0    0  0.00000000000E+00  0.00000000000E+00 -0.71716950294E+02  0.29004067929E+04  0.28995200022E+04 0.  0.
        4    1    3    3  502    0  0.77581966791E+03 -0.88521164149E+03 -0.88246632934E+03  0.14711370577E+04  0.12699999809E+01 0. -1.
       -4    1    3    3    0  502 -0.77581966791E+03  0.88521164149E+03  0.81074937904E+03  0.14292697352E+04  0.12699999809E+01 0.  1.
</event>
<event>
 5   0  0.3885904E-07  0.2924274E+04  0.7818609E-02  0.8265692E-01
       -1   -1    0    0    0  501  0.00000000000E+00  0.00000000000E+00  0.13558515649E+04  0.13558515649E+04  0.50400001928E-02 0.  1.
        1   -1    0    0  501    0  0.00000000000E+00  0.00000000000E+00 -0.15767537370E+04  0.15767537370E+04  0.50400001928E-02 0. -1.
    10030    2    1    2    0    0  0.00000000000E+00  0.00000000000E+00 -0.22090217209E+03  0.29326053018E+04  0.29242735998E+04 0.  0.
        2    1    3    3  502    0  0.13032865264E+04  0.61040190583E+03 -0.36944601054E+03  0.14858117684E+04  0.25500000920E-02 0. -1.
       -2    1    3    3    0  502 -0.13032865264E+04 -0.61040190583E+03  0.14854383845E+03  0.14467935334E+04  0.25500000920E-02 0.  1.
</event>
<event>
 5   0  0.3786210E-07  0.2893564E+04  0.7818609E-02  0.8274795E-01
       -1   -1    0    0    0  501  0.00000000000E+00  0.00000000000E+00  0.79043012248E+03  0.79043012250E+03  0.50400001928E-02 0. -1.
        1   -1    0    0  501    0  0.00000000000E+00  0.00000000000E+00 -0.26481514915E+04  0.26481514915E+04  0.50400001928E-02 0.  1.
    10030    2    1    2    0    0  0.00000000000E+00  0.00000000000E+00 -0.18577213690E+04  0.34385816140E+04  0.28935643817E+04 0.  0.
        5    1    3    3  502    0 -0.69168134388E+03 -0.80528622975E+03  0.23926724117E+03  0.10882003014E+04  0.46999998093E+01 0. -1.
       -5    1    3    3    0  502  0.69168134388E+03  0.80528622975E+03 -0.20969886102E+04  0.23503813126E+04  0.46999998093E+01 0.  1.
</event>
<event>
 5   0  0.1006893E-06  0.2894014E+04  0.7818609E-02  0.8274661E-01
        2   -1    0    0  501    0  0.00000000000E+00  0.00000000000E+00  0.17778640825E+04  0.17778640825E+04  0.25500000920E-02 0.  1.
       -2   -1    0    0    0  501  0.00000000000E+00  0.00000000000E+00 -0.11777220269E+04  0.11777220269E+04  0.25500000920E-02 0. -1.
    10030    2    1    2    0    0  0.00000000000E+00  0.00000000000E+00  0.60014205557E+03  0.29555861094E+04  0.28940142991E+04 0.  0.
        4    1    3    3  502    0  0.64515824793E+02  0.39959708847E+03 -0.11187259127E+04  0.11897013934E+04  0.12699999809E+01 0. -1.
       -4    1    3    3    0  502 -0.64515824793E+02 -0.39959708847E+03  0.17188679683E+04  0.17658847160E+04  0.12699999809E+01 0.  1.
</event>
<event>
 5   0  0.3769563E-07  0.2894865E+04  0.7818609E-02  0.8274407E-01
       -1   -1    0    0    0  501  0.00000000000E+00  0.00000000000E+00  0.18811170973E+04  0.18811170973E+04  0.50400001928E-02 0. -1.
        1   -1    0    0  501    0  0.00000000000E+00  0.00000000000E+00 -0.11137326662E+04  0.11137326662E+04  0.50400001928E-02 0.  1.
    10030    2    1    2    0    0  0.00000000000E+00  0.00000000000E+00  0.76738443108E+03  0.29948497635E+04  0.28948654961E+04 0.  0.
        3    1    3    3  502    0 -0.10572183120E+04  0.97858496670E+03  0.52897933819E+03  0.15346524840E+04  0.10100000352E+00 0. -1.
       -3    1    3    3    0  502  0.10572183120E+04 -0.97858496670E+03  0.23840509289E+03  0.14601972794E+04  0.10100000352E+00 0.  1.
</event>
<event>
 5   0  0.1006893E-06  0.2898626E+04  0.7818609E-02  0.8273286E-01
       -2   -1    0    0    0  501  0.00000000000E+00  0.00000000000E+00  0.12401885032E+04  0.12401885032E+04  0.25500000920E-02 0.  1.
        2   -1    0    0  501    0  0.00000000000E+00  0.00000000000E+00 -0.16937004984E+04  0.16937004984E+04  0.25500000920E-02 0. -1.
    10030    2    1    2    0    0  0.00000000000E+00  0.00000000000E+00 -0.45351199520E+03  0.29338890016E+04  0.28986258027E+04 0.  0.
        4    1    3    3  502    0  0.11013151799E+04  0.44418150671E+03 -0.10677150425E+04  0.15969374945E+04  0.12699999809E+01 0. -1.
       -4    1    3    3    0  502 -0.11013151799E+04 -0.44418150671E+03  0.61420304731E+03  0.13369515072E+04  0.12699999809E+01 0.  1.
</event>
<event>
 5   0  0.3769563E-07  0.2898670E+04  0.7818609E-02  0.8273273E-01
       -1   -1    0    0    0  501  0.00000000000E+00  0.00000000000E+00  0.17399722078E+04  0.17399722078E+04  0.50400001928E-02 0. -1.
        1   -1    0    0  501    0  0.00000000000E+00  0.00000000000E+00 -0.12072448042E+04  0.12072448042E+04  0.50400001928E-02 0.  1.
    10030    2    1    2    0    0  0.00000000000E+00  0.00000000000E+00  0.53272740365E+03  0.29472170120E+04  0.28986703209E+04 0.  0.
        3    1    3    3  502    0  0.16642972551E+03 -0.13251738277E+04  0.83862920048E+03  0.15770489761E+04  0.10100000352E+00 0.  1.
       -3    1    3    3    0  502 -0.16642972551E+03  0.13251738277E+04 -0.30590179683E+03  0.13701680359E+04  0.10100000352E+00 0. -1.
</event>
<event>
 5   0  0.3769563E-07  0.2900880E+04  0.7818609E-02  0.8272616E-01
       -1   -1    0    0    0  501  0.00000000000E+00  0.00000000000E+00  0.86618051218E+03  0.86618051219E+03  0.50400001928E-02 0. -1.
        1   -1    0    0  501    0  0.00000000000E+00  0.00000000000E+00 -0.24287957360E+04  0.24287957360E+04  0.50400001928E-02 0.  1.
    10030    2    1    2    0    0  0.00000000000E+00  0.00000000000E+00 -0.15626152238E+04  0.32949762482E+04  0.29008795457E+04 0.  0.
        3    1    3    3  502    0 -0.52970942447E+03  0.13471749497E+04 -0.67780701437E+03  0.15984038221E+04  0.10100000352E+00 0. -1.
       -3    1    3    3    0  502  0.52970942447E+03 -0.13471749497E+04 -0.88480820945E+03  0.16965724261E+04  0.10100000352E+00 0.  1.
</event>
<event>
 5   0  0.1006893E-06  0.2894517E+04  0.7818609E-02  0.8274511E-01
       -2   -1    0    0    0  501  0.00000000000E+00  0.00000000000E+00  0.13513383873E+04  0.13513383873E+04  0.25500000920E-02 0. -1.
        2   -1    0    0  501    0  0.00000000000E+00  0.00000000000E+00 -0.15499875876E+04  0.15499875876E+04  0.25500000920E-02 0.  1.
    10030    2    1    2    0    0  0.00000000000E+00  0.00000000000E+00 -0.19864920033E+03  0.29013259749E+04  0.28945173877E+04 0.  0.
        4    1    3    3  502    0  0.75438589119E+03  0.63297296484E+03 -0.11623867317E+04  0.15234491701E+04  0.12699999809E+01 0.  1.
       -4    1    3    3    0  502 -0.75438589119E+03 -0.63297296484E+03  0.96373753133E+03  0.13778768048E+04  0.12699999809E+01 0. -1.
</event>
<event>
 5   0  0.1063979E-06  0.2909211E+04  0.7818609E-02  0.8270142E-01
       -2   -1    0    0    0  501  0.00000000000E+00  0.00000000000E+00  0.85204437268E+03  0.85204437268E+03  0.25500000920E-02 0.  1.
        2   -1    0    0  501    0  0.00000000000E+00  0.00000000000E+00 -0.24832939629E+04  0.24832939629E+04  0.25500000920E-02 0. -1.
    10030    2    1    2    0    0  0.00000000000E+00  0.00000000000E+00 -0.16312495903E+04  0.33353383356E+04  0.29092106468E+04 0.  0.
        1    1    3    3  502    0 -0.97911606656E+03 -0.15353941481E+03 -0.20363029224E+04  0.22646792743E+04  0.50400001928E-02 0. -1.
       -1    1    3    3    0  502  0.97911606656E+03  0.15353941481E+03  0.40505333212E+03  0.10706590613E+04  0.50400001928E-02 0.  1.
</event>
<event>
 5   0  0.9994311E-07  0.2913626E+04  0.7818609E-02  0.8268835E-01
       -2   -1    0    0    0  501  0.00000000000E+00  0.00000000000E+00  0.17153804280E+04  0.17153804280E+04  0.25500000920E-02 0. -1.
        2   -1    0    0  501    0  0.00000000000E+00  0.00000000000E+00 -0.12372209675E+04  0.12372209675E+04  0.25500000920E-02 0.  1.
    10030    2    1    2    0    0  0.00000000000E+00  0.00000000000E+00  0.47815946050E+03  0.29526013956E+04  0.29136263541E+04 0.  0.
        2    1    3    3  502    0  0.41038077784E+03  0.12307316171E+04 -0.43250087113E+03  0.13675414801E+04  0.25500000920E-02 0.  1.
       -2    1    3    3    0  502 -0.41038077784E+03 -0.12307316171E+04  0.91066033163E+03  0.15850599155E+04  0.25500000920E-02 0. -1.
</event>
<event>
 5   0  0.1006893E-06  0.2903975E+04  0.7818609E-02  0.8271696E-01
       -2   -1    0    0    0  501  0.00000000000E+00  0.00000000000E+00  0.14221005606E+04  0.14221005606E+04  0.25500000920E-02 0.  1.
        2   -1    0    0  501    0  0.00000000000E+00  0.00000000000E+00 -0.14825030357E+04  0.14825030357E+04  0.25500000920E-02 0. -1.
    10030    2    1    2    0    0  0.00000000000E+00  0.00000000000E+00 -0.60402475063E+02  0.29046035964E+04  0.29039754808E+04 0.  0.
        4    1    3    3  502    0  0.73870567381E+03 -0.10906550412E+03 -0.12757357864E+04  0.14782032223E+04  0.12699999809E+01 0. -1.
       -4    1    3    3    0  502 -0.73870567381E+03  0.10906550412E+03  0.12153333113E+04  0.14264003741E+04  0.12699999809E+01 0.  1.
</event>
<event>
 5   0  0.3770467E-07  0.2880612E+04  0.7818609E-02  0.8278669E-01
       -1   -1    0    0    0  501  0.00000000000E+00  0.00000000000E+00  0.97544307374E+03  0.97544307376E+03  0.50400001928E-02 0.  1.
        1   -1    0    0  501    0  0.00000000000E+00  0.00000000000E+00 -0.21267073422E+04  0.21267073422E+04  0.50400001928E-02 0. -1.
    10030    2    1    2    0    0  0.00000000000E+00  0.00000000000E+00 -0.11512642684E+04  0.31021504159E+04  0.28806123980E+04 0.  0.
        1    1    3    3  502    0 -0.77796886224E+03  0.29653825989E+03 -0.18413118888E+04  0.20207919145E+04  0.50400001928E-02 0. -1.
       -1    1    3    3    0  502  0.77796886224E+03 -0.29653825989E+03  0.69004762032E+03  0.10813585014E+04  0.50400001928E-02 0.  1.
</event>
<event>
 5   0  0.3769563E-07  0.2901709E+04  0.7818609E-02  0.8272369E-01
       -1   -1    0    0    0  501  0.00000000000E+00  0.00000000000E+00  0.93624757367E+03  0.93624757368E+03  0.50400001928E-02 0.  1.
        1   -1    0    0  501    0  0.00000000000E+00  0.00000000000E+00 -0.22483141627E+04  0.22483141627E+04  0.50400001928E-02 0. -1.
    10030    2    1    2    0    0  0.00000000000E+00  0.00000000000E+00 -0.13120665890E+04  0.31845617364E+04  0.29017089307E+04 0.  0.
        3    1    3    3  502    0  0.14028250166E+04  0.14906682847E+03 -0.28411983608E+03  0.14390493521E+04  0.10100000352E+00 0.  1.
       -3    1    3    3    0  502 -0.14028250166E+04 -0.14906682847E+03 -0.10279467529E+04  0.17455123842E+04  0.10100000352E+00 0. -1.
</event>
<event>
 5   0  0.9994311E-07  0.2897941E+04  0.7818609E-02  0.8273490E-01
        2   -1    0    0  501    0  0.00000000000E+00  0.00000000000E+00  0.17758208971E+04  0.17758208971E+04  0.25500000920E-02 0.  1.
       -2   -1    0    0    0  501  0.00000000000E+00  0.00000000000E+00 -0.11822789789E+04  0.11822789789E+04  0.25500000920E-02 0. -1.
    10030    2    1    2    0    0  0.00000000000E+00  0.00000000000E+00  0.59354191819E+03  0.29580998759E+04  0.28979411428E+04 0.  0.
        2    1    3    3  502    0  0.56796886621E+03  0.13301146237E+04  0.38647107429E+03  0.14970482412E+04  0.25500000920E-02 0.  1.
       -2    1    3    3    0  502 -0.56796886621E+03 -0.13301146237E+04  0.20707084390E+03  0.14610516348E+04  0.25500000920E-02 0. -1.
</event>
<event>
 5   0  0.3885904E-07  0.2905290E+04  0.7818609E-02  0.8271305E-01
        1   -1    0    0  501    0  0.00000000000E+00  0.00000000000E+00  0.22240350319E+04  0.22240350319E+04  0.50400001928E-02 0. -1.
       -1   -1    0    0    0  501  0.00000000000E+00  0.00000000000E+00 -0.94880557123E+03  0.94880557124E+03  0.50400001928E-02 0.  1.
    10030    2    1    2    0    0  0.00000000000E+00  0.00000000000E+00  0.12752294606E+04  0.31728406031E+04  0.29052895407E+04 0.  0.
        2    1    3    3  502    0  0.87581126470E+03 -0.69166852661E+03  0.16531572684E+04  0.19945875955E+04  0.25500000920E-02 0. -1.
       -2    1    3    3    0  502 -0.87581126470E+03  0.69166852661E+03 -0.37792780775E+03  0.11782530076E+04  0.25500000920E-02 0.  1.
</event>
<event>
 5   0  0.3638028E-07  0.2896727E+04  0.7818609E-02  0.8273852E-01
        1   -1    0    0  501    0  0.00000000000E+00  0.00000000000E+00  0.20916975599E+04  0.20916975599E+04  0.50400001928E-02 0.  1.
       -1   -1    0    0    0  501  0.00000000000E+00  0.00000000000E+00 -0.10028967124E+04  0.10028967124E+04  0.50400001928E-02 0. -1.
    10030    2    1    2    0    0  0.00000000000E+00  0.00000000000E+00  0.10888008475E+04  0.30945942724E+04  0.28967268468E+04 0.  0.
        4    1    3    3  502    0  0.73943035259E+03  0.12257085875E+04  0.30880002774E+03  0.14644035843E+04  0.12699999809E+01 0.  1.
       -4    1    3    3    0  502 -0.73943035259E+03 -0.12257085875E+04  0.78000081973E+03  0.16301906880E+04  0.12699999809E+01 0. -1.
</event>
<event>
 5   0  0.3638028E-07  0.2900120E+04  0.7818609E-02  0.8272842E-01
        1   -1    0    0  501    0  0.00000000000E+00  0.00000000000E+00  0.13991986903E+04  0.13991986904E+04  0.50400001928E-02 0.  1.
       -1   -1    0    0    0  501  0.00000000000E+00  0.00000000000E+00 -0.15027698553E+04  0.15027698554E+04  0.50400001928E-02 0. -1.
    10030    2    1    2    0    0  0.00000000000E+00  0.00000000000E+00 -0.10357116500E+03  0.29019685457E+04  0.29001197310E+04 0.  0.
        4    1    3    3  502    0  0.71429015894E+03 -0.18830182480E+03 -0.13003807101E+04  0.14955465932E+04  0.12699999809E+01 0. -1.
       -4    1    3    3    0  502 -0.71429015894E+03  0.18830182480E+03  0.11968095451E+04  0.14064219525E+04  0.12699999809E+01 0.  1.
</event>
<event>
 5   0  0.9994311E-07  0.2900437E+04  0.7818609E-02  0.8272747E-01
       -2   -1    0    0    0  501  0.00000000000E+00  0.00000000000E+00  0.25995834878E+04  0.25995834878E+04  0.25500000920E-02 0. -1.
        2   -1    0    0  501    0  0.00000000000E+00  0.00000000000E+00 -0.80902736166E+03  0.80902736166E+03  0.25500000920E-02 0.  1.
    10030    2    1    2    0    0  0.00000000000E+00  0.00000000000E+00  0.17905561262E+04  0.34086108495E+04  0.29004373261E+04 0.  0.
        2    1    3    3  502    0  0.50044628374E+03  0.10159545375E+04 -0.16925608698E+03  0.11451016235E+04  0.25500000920E-02 0. -1.
       -2    1    3    3    0  502 -0.50044628374E+03 -0.10159545375E+04  0.19598122132E+04  0.22635092260E+04  0.25500000920E-02 0.  1.
</event>
<event>
 5   0  0.3770467E-07  0.2899342E+04  0.7818609E-02  0.8273073E-01
       -1   -1    0    0    0  501  0.00000000000E+00  0.00000000000E+00  0.15344353353E+04  0.15344353353E+04  0.50400001928E-02 0.  1.
        1   -1    0    0  501    0  0.00000000000E+00  0.00000000000E+00 -0.13695887659E+04  0.13695887659E+04  0.50400001928E-02 0. -1.
    10030    2    1    2    0    0  0.00000000000E+00  0.00000000000E+00  0.16484656939E+03  0.29040241013E+04  0.28993415786E+04 0.  0.
        1    1    3    3  502    0  0.10523911513E+04 -0.99186925140E+03  0.18364910898E+03  0.14577581220E+04  0.50400001928E-02 0. -1.
       -1    1    3    3    0  502 -0.10523911513E+04  0.99186925140E+03 -0.18802539585E+02  0.14462659792E+04  0.50400001928E-02 0.  1.
</event>
<event>
 5   0  0.9994311E-07  0.2898774E+04  0.7818609E-02  0.8273242E-01
        2   -1    0    0  501    0  0.00000000000E+00  0.00000000000E+00  0.23981229602E+04  0.23981229602E+04  0.25500000920E-02 0.  1.
       -2   -1    0    0    0  501  0.00000000000E+00  0.00000000000E+00 -0.87598637041E+03  0.87598637041E+03  0.25500000920E-02 0. -1.
    10030    2    1    2    0    0  0.00000000000E+00  0.00000000000E+00  0.15221365898E+04  0.32741093306E+04  0.28987742428E+04 0.  0.
        2    1    3    3  502    0 -0.77376968200E+03 -0.74900374275E+03 -0.33458432154E+03  0.11276847058E+04  0.25500000920E-02 0. -1.
       -2    1    3    3    0  502  0.77376968200E+03  0.74900374275E+03  0.18567209113E+04  0.21464246248E+04  0.25500000920E-02 0.  1.
</event>
<event>
 5   0  0.9994311E-07  0.2898294E+04  0.7818609E-02  0.8273385E-01
        2   -1    0    0  501    0  0.00000000000E+00  0.00000000000E+00  0.12470113751E+04  0.12470113751E+04  0.25500000920E-02 0.  1.
       -2   -1    0    0    0  501  0.00000000000E+00  0.00000000000E+00 -0.16840476998E+04  0.16840476998E+04  0.25500000920E-02 0. -1.
    10030    2    1    2    0    0  0.00000000000E+00  0.00000000000E+00 -0.43703632470E+03  0.29310590748E+04  0.28982937310E+04 0.  0.
        2    1    3    3  502    0  0.89117712582E+03 -0.50124215445E+03 -0.12570581682E+04  0.16203813148E+04  0.25500000920E-02 0. -1.
       -2    1    3    3    0  502 -0.89117712582E+03  0.50124215445E+03  0.82002184349E+03  0.13106777601E+04  0.25500000920E-02 0.  1.
</event>
<event>
 5   0  0.9994311E-07  0.2898601E+04  0.7818609E-02  0.8273294E-01
       -2   -1    0    0    0  501  0.00000000000E+00  0.00000000000E+00  0.15117801788E+04  0.15117801788E+04  0.25500000920E-02 0.  1.
        2   -1    0    0  501    0  0.00000000000E+00  0.00000000000E+00 -0.13894032093E+04  0.13894032093E+04  0.25500000920E-02 0. -1.
    10030    2    1    2    0    0  0.00000000000E+00  0.00000000000E+00  0.12237696952E+03  0.29011833882E+04  0.28986012021E+04 0.  0.
        2    1    3    3  502    0 -0.10600671874E+04  0.10921299516E+03 -0.92193004536E+03  0.14091220418E+04  0.25500000920E-02 0. -1.
       -2    1    3    3    0  502  0.10600671874E+04 -0.10921299516E+03  0.10443070149E+04  0.14920613464E+04  0.25500000920E-02 0.  1.
</event>
<event>
 5   0  0.1063979E-06  0.2902698E+04  0.7818609E-02  0.8272075E-01
        2   -1    0    0  501    0  0.00000000000E+00  0.00000000000E+00  0.10944392097E+04  0.10944392097E+04  0.25500000920E-02 0. -1.
       -2   -1    0    0    0  501  0.00000000000E+00  0.00000000000E+00 -0.19246508915E+04  0.19246508915E+04  0.25500000920E-02 0.  1.
    10030    2    1    2    0    0  0.00000000000E+00  0.00000000000E+00 -0.83021168181E+03  0.30190901012E+04  0.29026976423E+04 0.  0.
        1    1    3    3  502    0  0.11700638717E+03  0.77553068742E+03  0.85503871560E+03  0.11602713247E+04  0.50400001928E-02 0. -1.
       -1    1    3    3    0  502 -0.11700638717E+03 -0.77553068742E+03 -0.16852503974E+04  0.18588187765E+04  0.50400001928E-02 0.  1.
</event>
<event>
 5   0  0.3885904E-07  0.2898873E+04  0.7818609E-02  0.8273213E-01
       -1   -1    0    0    0  501  0.00000000000E+00  0.00000000000E+00  0.23618305595E+04  0.23618305596E+04  0.50400001928E-02 0. -1.
        1   -1    0    0  501    0  0.00000000000E+00  0.00000000000E+00 -0.88950770457E+03  0.88950770459E+03  0.50400001928E-02 0.  1.
    10030    2    1    2    0    0  0.00000000000E+00  0.00000000000E+00  0.14723228550E+04  0.32513382641E+04  0.28988732153E+04 0.  0.
        2    1    3    3  502    0  0.91955183851E+03 -0.21548274161E+03 -0.49700187793E+03  0.10672484539E+04  0.25500000920E-02 0.  1.
       -2    1    3    3    0  502 -0.91955183851E+03  0.21548274161E+03  0.19693247329E+04  0.21840898103E+04  0.25500000920E-02 0. -1.
</event>
<event>
 5   0  0.1006893E-06  0.2900518E+04  0.7818609E-02  0.8272723E-01
       -2   -1    0    0    0  501  0.00000000000E+00  0.00000000000E+00  0.15921906266E+04  0.15921906266E+04  0.25500000920E-02 0. -1.
        2   -1    0    0  501    0  0.00000000000E+00  0.00000000000E+00 -0.13209794243E+04  0.13209794243E+04  0.25500000920E-02 0.  1.
    10030    2    1    2    0    0  0.00000000000E+00  0.00000000000E+00  0.27121120225E+03  0.29131700509E+04  0.29005179243E+04 0.  0.
        4    1    3    3  502    0  0.34659442639E+02 -0.79495711859E+02 -0.13183722904E+04  0.13212221441E+04  0.12699999809E+01 0.  1.
       -4    1    3    3    0  502 -0.34659442639E+02  0.79495711859E+02  0.15895834926E+04  0.15919479068E+04  0.12699999809E+01 0. -1.
</event>
<event>
 5   0  0.1031339E-06  0.2909191E+04  0.7818609E-02  0.8270148E-01
       -2   -1    0    0    0  501  0.00000000000E+00  0.00000000000E+00  0.86925823259E+03  0.86925823259E+03  0.25500000920E-02 0.  1.
        2   -1    0    0  501    0  0.00000000000E+00  0.00000000000E+00 -0.24340853717E+04  0.24340853717E+04  0.25500000920E-02 0. -1.
    10030    2    1    2    0    0  0.00000000000E+00  0.00000000000E+00 -0.15648271391E+04  0.33033436043E+04  0.29091914672E+04 0.  0.
        5    1    3    3  502    0  0.36779080892E+03  0.32497993608E+03  0.77239049507E+03  0.91514545557E+03  0.46999998093E+01 0.  1.
       -5    1    3    3    0  502 -0.36779080892E+03 -0.32497993608E+03 -0.23372176341E+04  0.23881981487E+04  0.46999998093E+01 0. -1.
</event>
<event>
 5   0  0.3769563E-07  0.2899702E+04  0.7818609E-02  0.8272966E-01
        1   -1    0    0  501    0  0.00000000000E+00  0.00000000000E+00  0.26885807945E+04  0.26885807945E+04  0.50400001928E-02 0.  1.
       -1   -1    0    0    0  501  0.00000000000E+00  0.00000000000E+00 -0.78185039585E+03  0.78185039586E+03  0.50400001928E-02 0. -1.
    10030    2    1    2    0    0  0.00000000000E+00  0.00000000000E+00  0.19067303987E+04  0.34704311904E+04  0.28997020250E+04 0.  0.
        3    1    3    3  502    0 -0.72604176797E+03  0.12273894902E+04  0.12664811397E+04  0.19072483050E+04  0.10100000352E+00 0. -1.
       -3    1    3    3    0  502  0.72604176797E+03 -0.12273894902E+04  0.64024925897E+03  0.15631828854E+04  0.10100000352E+00 0.  1.
</event>
<event>
 5   0  0.1031339E-06  0.2895542E+04  0.7818609E-02  0.8274205E-01
        2   -1    0    0  501    0  0.00000000000E+00  0.00000000000E+00  0.28045886972E+04  0.28045886972E+04  0.25500000920E-02 0.  1.
       -2   -1    0    0    0  501  0.00000000000E+00  0.00000000000E+00 -0.74736145366E+03  0.74736145367E+03  0.25500000920E-02 0. -1.
    10030    2    1    2    0    0  0.00000000000E+00  0.00000000000E+00  0.20572272435E+04  0.35519501509E+04  0.28955424263E+04 0.  0.
        5    1    3    3  502    0 -0.14314173831E+04 -0.15300904819E+03  0.12172693374E+04  0.18852411578E+04  0.46999998093E+01 0. -1.
       -5    1    3    3    0  502  0.14314173831E+04  0.15300904819E+03  0.83995790617E+03  0.16667089931E+04  0.46999998093E+01 0.  1.
</event>
<event>
 5   0  0.3786210E-07  0.2903975E+04  0.7818609E-02  0.8271696E-01
        1   -1    0    0  501    0  0.00000000000E+00  0.00000000000E+00  0.13051202295E+04  0.13051202295E+04  0.50400001928E-02 0.  1.
       -1   -1    0    0    0  501  0.00000000000E+00  0.00000000000E+00 -0.16153824000E+04  0.16153824000E+04  0.50400001928E-02 0. -1.
    10030    2    1    2    0    0  0.00000000000E+00  0.00000000000E+00 -0.31026217047E+03  0.29205026295E+04  0.29039753777E+04 0.  0.
        5    1    3    3  502    0 -0.55945847119E+03 -0.48680432724E+03  0.11002817762E+04  0.13268814231E+04  0.46999998093E+01 0.  1.
       -5    1    3    3    0  502  0.55945847119E+03  0.48680432724E+03 -0.14105439466E+04  0.15936212064E+04  0.46999998093E+01 0. -1.
</event>
<event>
 5   0  0.1031339E-06  0.2899779E+04  0.7818609E-02  0.8272943E-01
       -2   -1    0    0    0  501  0.00000000000E+00  0.00000000000E+00  0.91532230937E+03  0.91532230937E+03  0.25500000920E-02 0.  1.
        2   -1    0    0  501    0  0.00000000000E+00  0.00000000000E+00 -0.22966554786E+04  0.22966554786E+04  0.25500000920E-02 0. -1.
    10030    2    1    2    0    0  0.00000000000E+00  0.00000000000E+00 -0.13813331692E+04  0.32119777879E+04  0.28997792995E+04 0.  0.
        5    1    3    3  502    0 -0.84401277919E+03 -0.61600005950E+03  0.42271049793E+03  0.11271734116E+04  0.46999998093E+01 0.  1.
       -5    1    3    3    0  502  0.84401277919E+03  0.61600005950E+03 -0.18040436671E+04  0.20848043763E+04  0.46999998093E+01 0. -1.
</event>
<event>
 5   0  0.9994311E-07  0.2901316E+04  0.7818609E-02  0.8272486E-01
       -2   -1    0    0    0  501  0.00000000000E+00  0.00000000000E+00  0.16086359453E+04  0.16086359453E+04  0.25500000920E-02 0. -1.
        2   -1    0    0  501    0  0.00000000000E+00  0.00000000000E+00 -0.13081944581E+04  0.13081944581E+04  0.25500000920E-02 0.  1.
    10030    2    1    2    0    0  0.00000000000E+00  0.00000000000E+00  0.30044148714E+03  0.29168304034E+04  0.29013159971E+04 0.  0.
        2    1    3    3  502    0  0.84936017634E+03 -0.10464287539E+02  0.13324709574E+04  0.15801901983E+04  0.25500000920E-02 0. -1.
       -2    1    3    3    0  502 -0.84936017634E+03  0.10464287539E+02 -0.10320294703E+04  0.13366402051E+04  0.25500000920E-02 0.  1.
</event>
<event>
 5   0  0.3770467E-07  0.2899416E+04  0.7818609E-02  0.8273051E-01
        1   -1    0    0  501    0  0.00000000000E+00  0.00000000000E+00  0.12513348764E+04  0.12513348764E+04  0.50400001928E-02 0.  1.
       -1   -1    0    0    0  501  0.00000000000E+00  0.00000000000E+00 -0.16795285142E+04  0.16795285142E+04  0.50400001928E-02 0. -1.
    10030    2    1    2    0    0  0.00000000000E+00  0.00000000000E+00 -0.42819363781E+03  0.29308633906E+04  0.28994155313E+04 0.  0.
        1    1    3    3  502    0 -0.67729605222E+03 -0.12466580683E+04  0.87071464152E+02  0.14214315747E+04  0.50400001928E-02 0. -1.
       -1    1    3    3    0  502  0.67729605222E+03  0.12466580683E+04 -0.51526510196E+03  0.15094318159E+04  0.50400001928E-02 0.  1.
</event>
<event>
 5   0  0.3769563E-07  0.2901051E+04  0.7818609E-02  0.8272565E-01
       -1   -1    0    0    0  501  0.00000000000E+00  0.00000000000E+00  0.17346191710E+04  0.17346191710E+04  0.50400001928E-02 0.  1.
        1   -1    0    0  501    0  0.00000000000E+00  0.00000000000E+00 -0.12129603637E+04  0.12129603637E+04  0.50400001928E-02 0. -1.
    10030    2    1    2    0    0  0.00000000000E+00  0.00000000000E+00  0.52165880734E+03  0.29475795347E+04  0.29010510513E+04 0.  0.
        3    1    3    3  502    0 -0.12755771867E+04 -0.14970297792E+03 -0.42416152562E+03  0.13525609601E+04  0.10100000352E+00 0. -1.
       -3    1    3    3    0  502  0.12755771867E+04  0.14970297792E+03  0.94582033296E+03  0.15950185746E+04  0.10100000352E+00 0.  1.
</event>
<event>
 5   0  0.1006893E-06  0.2899808E+04  0.7818609E-02  0.8272935E-01
        2   -1    0    0  501    0  0.00000000000E+00  0.00000000000E+00  0.25899367789E+04  0.25899367789E+04  0.25500000920E-02 0.  1.
       -2   -1    0    0    0  501  0.00000000000E+00  0.00000000000E+00 -0.81168816712E+03  0.81168816713E+03  0.25500000920E-02 0. -1.
    10030    2    1    2    0    0  0.00000000000E+00  0.00000000000E+00  0.17782486117E+04  0.34016249460E+04  0.28998076053E+04 0.  0.
        4    1    3    3  502    0  0.26684165919E+03 -0.66011982914E+03 -0.59248105459E+03  0.92628185389E+03  0.12699999809E+01 0. -1.
       -4    1    3    3    0  502 -0.26684165919E+03  0.66011982914E+03  0.23707296663E+04  0.24753430921E+04  0.12699999809E+01 0.  1.
</event>
<event>
 5   0  0.1006893E-06  0.2903930E+04  0.7818609E-02  0.8271709E-01
        2   -1    0    0  501    0  0.00000000000E+00  0.00000000000E+00  0.15363479954E+04  0.15363479954E+04  0.25500000920E-02 0.  1.
       -2   -1    0    0    0  501  0.00000000000E+00  0.00000000000E+00 -0.13722170461E+04  0.13722170462E+04  0.25500000920E-02 0. -1.
    10030    2    1    2    0    0  0.00000000000E+00  0.00000000000E+00  0.16413094928E+03  0.29085650416E+04  0.29039303767E+04 0.  0.
        4    1    3    3  502    0  0.13077992369E+04 -0.23903194685E+03 -0.50258368815E+03  0.14212906431E+04  0.12699999809E+01 0. -1.
       -4    1    3    3    0  502 -0.13077992369E+04  0.23903194685E+03  0.66671463743E+03  0.14872743985E+04  0.12699999809E+01 0.  1.
</event>
<event>
 5   0  0.1063979E-06  0.2899322E+04  0.7818609E-02  0.8273079E-01
        2   -1    0    0  501    0  0.00000000000E+00  0.00000000000E+00  0.15842247766E+04  0.15842247766E+04  0.25500000920E-02 0.  1.
       -2   -1    0    0    0  501  0.00000000000E+00  0.00000000000E+00 -0.13265275000E+04  0.13265275000E+04  0.25500000920E-02 0. -1.
    10030    2    1    2    0    0  0.00000000000E+00  0.00000000000E+00  0.25769727663E+03  0.29107522766E+04  0.28993224949E+04 0.  0.
        1    1    3    3  502    0  0.21120601261E+03 -0.12580982895E+04  0.82011112107E+03  0.15165755955E+04  0.50400001928E-02 0.  1.
       -1    1    3    3    0  502 -0.21120601261E+03  0.12580982895E+04 -0.56241384444E+03  0.13941766812E+04  0.50400001928E-02 0. -1.
</event>
<event>
 5   0  0.1031339E-06  0.2887571E+04  0.7818609E-02  0.8276585E-01
        2   -1    0    0  501    0  0.00000000000E+00  0.00000000000E+00  0.26925938432E+04  0.26925938432E+04  0.25500000920E-02 0. -1.
       -2   -1    0    0    0  501  0.00000000000E+00  0.00000000000E+00 -0.77416688391E+03  0.77416688391E+03  0.25500000920E-02 0.  1.
    10030    2    1    2    0    0  0.00000000000E+00  0.00000000000E+00  0.19184269593E+04  0.34667607271E+04  0.28875712876E+04 0.  0.
        5    1    3    3  502    0 -0.14126749569E+04  0.20948812737E+03  0.70464777765E+03  0.15925094630E+04  0.46999998093E+01 0.  1.
       -5    1    3    3    0  502  0.14126749569E+04 -0.20948812737E+03  0.12137791817E+04  0.18742512641E+04  0.46999998093E+01 0. -1.
</event>
<event>
 5   0  0.3769563E-07  0.2897536E+04  0.7818609E-02  0.8273611E-01
       -1   -1    0    0    0  501  0.00000000000E+00  0.00000000000E+00  0.10780033853E+04  0.10780033854E+04  0.50400001928E-02 0.  1.
        1   -1    0    0  501    0  0.00000000000E+00  0.00000000000E+00 -0.19470522640E+04  0.19470522640E+04  0.50400001928E-02 0. -1.
    10030    2    1    2    0    0  0.00000000000E+00  0.00000000000E+00 -0.86904887864E+03  0.30250556494E+04  0.28975361479E+04 0.  0.
        3    1    3    3  502    0  0.11649027376E+02  0.14412305250E+04 -0.28091731862E+03  0.14683990180E+04  0.10100000352E+00 0. -1.
       -3    1    3    3    0  502 -0.11649027376E+02 -0.14412305250E+04 -0.58813156003E+03  0.15566566314E+04  0.10100000352E+00 0.  1.
</event>
<event>
 5   0  0.3770467E-07  0.2899671E+04  0.7818609E-02  0.8272975E-01
       -1   -1    0    0    0  501  0.00000000000E+00  0.00000000000E+00  0.20920792618E+04  0.20920792618E+04  0.50400001928E-02 0.  1.
        1   -1    0    0  501    0  0.00000000000E+00  0.00000000000E+00 -0.10047527292E+04  0.10047527292E+04  0.50400001928E-02 0. -1.
    10030    2    1    2    0    0  0.00000000000E+00  0.00000000000E+00  0.10873265326E+04  0.30968319909E+04  0.28996705660E+04 0.  0.
        1    1    3    3  502    0  0.97375006629E+02 -0.31288805286E+03  0.20520107818E+04  0.20780108456E+04  0.50400001928E-02 0.  1.
       -1    1    3    3    0  502 -0.97375006629E+02  0.31288805286E+03 -0.96468424923E+03  0.10188211454E+04  0.50400001928E-02 0. -1.
</event>
<event>
 5   0  0.9994311E-07  0.2897355E+04  0.7818609E-02  0.8273665E-01
       -2   -1    0    0    0  501  0.00000000000E+00  0.00000000000E+00  0.11397950753E+04  0.11397950753E+04  0.25500000920E-02 0. -1.
        2   -1    0    0  501    0  0.00000000000E+00  0.00000000000E+00 -0.18412662346E+04  0.18412662346E+04  0.25500000920E-02 0.  1.
    10030    2    1    2    0    0  0.00000000000E+00  0.00000000000E+00 -0.70147115933E+03  0.29810613099E+04  0.28973547842E+04 0.  0.
        2    1    3    3  502    0 -0.26101698814E+03  0.99562323573E+03 -0.13996343338E+04  0.17373461842E+04  0.25500000920E-02 0.  1.
       -2    1    3    3    0  502  0.26101698814E+03 -0.99562323573E+03  0.69816317442E+03  0.12437151256E+04  0.25500000920E-02 0. -1.
</event>
<event>
 5   0  0.3786210E-07  0.2902173E+04  0.7818609E-02  0.8272231E-01
       -1   -1    0    0    0  501  0.00000000000E+00  0.00000000000E+00  0.22366691490E+04  0.22366691491E+04  0.50400001928E-02 0. -1.
        1   -1    0    0  501    0  0.00000000000E+00  0.00000000000E+00 -0.94142282703E+03  0.94142282705E+03  0.50400001928E-02 0.  1.
    10030    2    1    2    0    0  0.00000000000E+00  0.00000000000E+00  0.12952463220E+04  0.31780919761E+04  0.29021725610E+04 0.  0.
        5    1    3    3  502    0 -0.32200682701E+03  0.13766358353E+04  0.10055206981E+04  0.17349088114E+04  0.46999998093E+01 0. -1.
       -5    1    3    3    0  502  0.32200682701E+03 -0.13766358353E+04  0.28972562392E+03  0.14431831647E+04  0.46999998093E+01 0.  1.
</event>
<event>
 5   0  0.3769563E-07  0.2899757E+04  0.7818609E-02  0.8272950E-01
        1   -1    0    0  501    0  0.00000000000E+00  0.00000000000E+00  0.18962622387E+04  0.18962622387E+04  0.50400001928E-02 0. -1.
       -1   -1    0    0    0  501  0.00000000000E+00  0.00000000000E+00 -0.11085744600E+04  0.11085744600E+04  0.50400001928E-02 0.  1.
    10030    2    1    2    0    0  0.00000000000E+00  0.00000000000E+00  0.78768777867E+03  0.30048366987E+04  0.28997571535E+04 0.  0.
        3    1    3    3  502    0  0.14095145352E+04 -0.33516870438E+03  0.45133957932E+03  0.15174902673E+04  0.10100000352E+00 0.  1.
       -3    1    3    3    0  502 -0.14095145352E+04  0.33516870438E+03  0.33634819934E+03  0.14873464313E+04  0.10100000352E+00 0. -1.
</event>
<event>
 5   0  0.3885904E-07  0.2904480E+04  0.7818609E-02  0.8271546E-01
        1   -1    0    0  501    0  0.00000000000E+00  0.00000000000E+00  0.21058203953E+04  0.21058203953E+04  0.50400001928E-02 0. -1.
       -1   -1    0    0    0  501  0.00000000000E+00  0.00000000000E+00 -0.10015101125E+04  0.10015101125E+04  0.50400001928E-02 0.  1.
    10030    2    1    2    0    0  0.00000000000E+00  0.00000000000E+00  0.11043102828E+04  0.31073305078E+04  0.29044795892E+04 0.  0.
        2    1    3    3  502    0  0.12546562609E+04 -0.17949681783E+03 -0.20631512896E+03  0.12841134581E+04  0.25500000920E-02 0.  1.
       -2    1    3    3    0  502 -0.12546562609E+04  0.17949681783E+03  0.13106254117E+04  0.18232170498E+04  0.25500000920E-02 0. -1.
</event>
<event>
 5   0  0.9994311E-07  0.2900851E+04  0.7818609E-02  0.8272624E-01
        2   -1    0    0  501    0  0.00000000000E+00  0.00000000000E+00  0.22321845780E+04  0.22321845780E+04  0.25500000920E-02 0. -1.
       -2   -1    0    0    0  501  0.00000000000E+00  0.00000000000E+00 -0.94245551881E+03  0.94245551882E+03  0.25500000920E-02 0.  1.
    10030    2    1    2    0    0  0.00000000000E+00  0.00000000000E+00  0.12897290592E+04  0.31746400969E+04  0.29008513747E+04 0.  0.
        2    1    3    3  502    0  0.21688264206E+03 -0.13781477904E+04  0.21067570387E+03  0.14109265271E+04  0.25500000920E-02 0.  1.
       -2    1    3    3    0  502 -0.21688264206E+03  0.13781477904E+04  0.10790533554E+04  0.17637135698E+04  0.25500000920E-02 0. -1.
</event>
<event>
 5   0  0.9950999E-07  0.2906091E+04  0.7818609E-02  0.8271068E-01
       -2   -1    0    0    0  501  0.00000000000E+00  0.00000000000E+00  0.13590575610E+04  0.13590575610E+04  0.25500000920E-02 0.  1.
        2   -1    0    0  501    0  0.00000000000E+00  0.00000000000E+00 -0.15535329136E+04  0.15535329136E+04  0.25500000920E-02 0. -1.
    10030    2    1    2    0    0  0.00000000000E+00  0.00000000000E+00 -0.19447535257E+03  0.29125904746E+04  0.29060906059E+04 0.  0.
        3    1    3    3  502    0 -0.94843067514E+03 -0.42326614615E+03 -0.11157121374E+04  0.15242993668E+04  0.10100000352E+00 0. -1.
       -3    1    3    3    0  502  0.94843067514E+03  0.42326614615E+03  0.92123678479E+03  0.13882911078E+04  0.10100000352E+00 0.  1.
</event>
<event>
 5   0  0.3786210E-07  0.2889051E+04  0.7818609E-02  0.8276143E-01
       -1   -1    0    0    0  501  0.00000000000E+00  0.00000000000E+00  0.18662906074E+04  0.18662906074E+04  0.50400001928E-02 0. -1.
        1   -1    0    0  501    0  0.00000000000E+00  0.00000000000E+00 -0.11180756239E+04  0.11180756239E+04  0.50400001928E-02 0.  1.
    10030    2    1    2    0    0  0.00000000000E+00  0.00000000000E+00  0.74821498351E+03  0.29843662313E+04  0.28890510797E+04 0.  0.
        5    1    3    3  502    0 -0.35449831552E+03  0.10164359313E+03 -0.10686206726E+04  0.11304745497E+04  0.46999998093E+01 0.  1.
       -5    1    3    3    0  502  0.35449831552E+03 -0.10164359313E+03  0.18168356561E+04  0.18538916816E+04  0.46999998093E+01 0. -1.
</event>
<event>
 5   0  0.3770467E-07  0.2898645E+04  0.7818609E-02  0.8273281E-01
        1   -1    0    0  501    0  0.00000000000E+00  0.00000000000E+00  0.15175606127E+04  0.15175606127E+04  0.50400001928E-02 0.  1.
       -1   -1    0    0    0  501  0.00000000000E+00  0.00000000000E+00 -0.13841526253E+04  0.13841526254E+04  0.50400001928E-02 0. -1.
    10030    2    1    2    0    0  0.00000000000E+00  0.00000000000E+00  0.13340798736E+03  0.29017132381E+04  0.28986448601E+04 0.  0.
        1    1    3    3  502    0  0.13155655448E+04 -0.59019260546E+03  0.21347260246E+03  0.14576043929E+04  0.50400001928E-02 0.  1.
       -1    1    3    3    0  502 -0.13155655448E+04  0.59019260546E+03 -0.80064615104E+02  0.14441088452E+04  0.50400001928E-02 0. -1.
</event>
<event>
 5   0  0.3769563E-07  0.2916914E+04  0.7818609E-02  0.8267863E-01
        1   -1    0    0  501    0  0.00000000000E+00  0.00000000000E+00  0.10690064666E+04  0.10690064666E+04  0.50400001928E-02 0. -1.
       -1   -1    0    0    0  501  0.00000000000E+00  0.00000000000E+00 -0.19897884477E+04  0.19897884477E+04  0.50400001928E-02 0.  1.
    10030    2    1    2    0    0  0.00000000000E+00  0.00000000000E+00 -0.92078198112E+03  0.30587949144E+04  0.29169139294E+04 0.  0.
        3    1    3    3  502    0  0.13695086830E+04  0.42687129352E+03 -0.73649150519E+03  0.16125113586E+04  0.10100000352E+00 0.  1.
       -3    1    3    3    0  502 -0.13695086830E+04 -0.42687129352E+03 -0.18429047593E+03  0.14462835558E+04  0.10100000352E+00 0. -1.
</event>
<event>
 5   0  0.1031339E-06  0.2901623E+04  0.7818609E-02  0.8272395E-01
        2   -1    0    0  501    0  0.00000000000E+00  0.00000000000E+00  0.13400778994E+04  0.13400778994E+04  0.25500000920E-02 0.  1.
       -2   -1    0    0    0  501  0.00000000000E+00  0.00000000000E+00 -0.15706957613E+04  0.15706957613E+04  0.25500000920E-02 0. -1.
    10030    2    1    2    0    0  0.00000000000E+00  0.00000000000E+00 -0.23061786191E+03  0.29107736608E+04  0.29016234604E+04 0.  0.
        5    1    3    3  502    0  0.89481474379E+03 -0.11116704253E+04 -0.37752953937E+03  0.14761623228E+04  0.46999998093E+01 0.  1.
       -5    1    3    3    0  502 -0.89481474379E+03  0.11116704253E+04  0.14691167746E+03  0.14346113380E+04  0.46999998093E+01 0. -1.
</event>
<event>
 5   0  0.3378750E-07  0.2881695E+04  0.7818609E-02  0.8278345E-01
        3   -1    0    0  501    0  0.00000000000E+00  0.00000000000E+00  0.20911021375E+04  0.20911021399E+04  0.10100000352E+00 0.  1.
       -3   -1    0    0    0  501  0.00000000000E+00  0.00000000000E+00 -0.99279769103E+03  0.99279769616E+03  0.10100000352E+00 0. -1.
    10030    2    1    2    0    0  0.00000000000E+00  0.00000000000E+00  0.10983044464E+04  0.30838998361E+04  0.28816949078E+04 0.  0.
        1    1    3    3  502    0 -0.10599443925E+04 -0.12851706405E+03  0.15845329582E+04  0.19106918764E+04  0.50400001928E-02 0.  1.
       -1    1    3    3    0  502  0.10599443925E+04  0.12851706405E+03 -0.48622851180E+03  0.11732079596E+04  0.50400001928E-02 0. -1.
</event>
<event>
 5   0  0.9994311E-07  0.2888460E+04  0.7818609E-02  0.8276319E-01
       -2   -1    0    0    0  501  0.00000000000E+00  0.00000000000E+00  0.12018955364E+04  0.12018955364E+04  0.25500000920E-02 0. -1.
        2   -1    0    0  501    0  0.00000000000E+00  0.00000000000E+00 -0.17354252999E+04  0.17354252999E+04  0.25500000920E-02 0.  1.
    10030    2    1    2    0    0  0.00000000000E+00  0.00000000000E+00 -0.53352976350E+03  0.29373208362E+04  0.28884597429E+04 0.  0.
        2    1    3    3  502    0  0.19095901573E+03 -0.21810378138E+03  0.11720060238E+04  0.12073246146E+04  0.25500000920E-02 0. -1.
       -2    1    3    3    0  502 -0.19095901573E+03  0.21810378138E+03 -0.17055357873E+04  0.17299962216E+04  0.25500000920E-02 0.  1.
</event>
<event>
 5   0  0.9994311E-07  0.2920943E+04  0.7818609E-02  0.8266673E-01
        2   -1    0    0  501    0  0.00000000000E+00  0.00000000000E+00  0.27050673752E+04  0.27050673752E+04  0.25500000920E-02 0.  1.
       -2   -1    0    0    0  501  0.00000000000E+00  0.00000000000E+00 -0.78851163802E+03  0.78851163803E+03  0.25500000920E-02 0. -1.
    10030    2    1    2    0    0  0.00000000000E+00  0.00000000000E+00  0.19165557372E+04  0.34935790133E+04  0.29209430717E+04 0.  0.
        2    1    3    3  502    0  0.10789638610E+03  0.82541634367E+03 -0.47698762025E+03  0.95941177834E+03  0.25500000920E-02 0. -1.
       -2    1    3    3    0  502 -0.10789638610E+03 -0.82541634367E+03  0.23935433575E+04  0.25341672349E+04  0.25500000920E-02 0.  1.
</event>
<event>
 5   0  0.1031339E-06  0.2902987E+04  0.7818609E-02  0.8271989E-01
        2   -1    0    0  501    0  0.00000000000E+00  0.00000000000E+00  0.10721541601E+04  0.10721541601E+04  0.25500000920E-02 0. -1.
       -2   -1    0    0    0  501  0.00000000000E+00  0.00000000000E+00 -0.19650472915E+04  0.19650472915E+04  0.25500000920E-02 0.  1.
    10030    2    1    2    0    0  0.00000000000E+00  0.00000000000E+00 -0.89289313142E+03  0.30372014516E+04  0.29029871708E+04 0.  0.
        5    1    3    3  502    0 -0.21352489269E+02  0.10407962761E+04  0.61180093917E+03  0.12074913235E+04  0.46999998093E+01 0. -1.
       -5    1    3    3    0  502  0.21352489269E+02 -0.10407962761E+04 -0.15046940706E+04  0.18297101282E+04  0.46999998093E+01 0.  1.
</event>
<event>
 5   0  0.1063979E-06  0.2916609E+04  0.7818609E-02  0.8267953E-01
        2   -1    0    0  501    0  0.00000000000E+00  0.00000000000E+00  0.19443148161E+04  0.19443148161E+04  0.25500000920E-02 0. -1.
       -2   -1    0    0    0  501  0.00000000000E+00  0.00000000000E+00 -0.10937799908E+04  0.10937799908E+04  0.25500000920E-02 0.  1.
    10030    2    1    2    0    0  0.00000000000E+00  0.00000000000E+00  0.85053482527E+03  0.30380948069E+04  0.29166094299E+04 0.  0.
        1    1    3    3  502    0 -0.36841952165E+03  0.11125010511E+04 -0.47878960027E+03  0.12659506364E+04  0.50400001928E-02 0.  1.
       -1    1    3    3    0  502  0.36841952165E+03 -0.11125010511E+04  0.13293244255E+04  0.17721441705E+04  0.50400001928E-02 0. -1.
</event>
<event>
 5   0  0.9994311E-07  0.2903795E+04  0.7818609E-02  0.8271749E-01
        2   -1    0    0  501    0  0.00000000000E+00  0.00000000000E+00  0.13841998694E+04  0.13841998694E+04  0.25500000920E-02 0.  1.
       -2   -1    0    0    0  501  0.00000000000E+00  0.00000000000E+00 -0.15229061621E+04  0.15229061621E+04  0.25500000920E-02 0. -1.
    10030    2    1    2    0    0  0.00000000000E+00  0.00000000000E+00 -0.13870629265E+03  0.29071060315E+04  0.29037951104E+04 0.  0.
        2    1    3    3  502    0  0.82908475102E+03  0.77504246942E+03  0.83718146894E+03  0.14102996723E+04  0.25500000920E-02 0.  1.
       -2    1    3    3    0  502 -0.82908475102E+03 -0.77504246942E+03 -0.97588776159E+03  0.14968063592E+04  0.25500000920E-02 0. -1.
</event>
<event>
 5   0  0.1063979E-06  0.2896821E+04  0.7818609E-02  0.8273824E-01
       -2   -1    0    0    0  501  0.00000000000E+00  0.00000000000E+00  0.11715695150E+04  0.11715695150E+04  0.25500000920E-02 0. -1.
        2   -1    0    0  501    0  0.00000000000E+00  0.00000000000E+00 -0.17906687008E+04  0.17906687008E+04  0.25500000920E-02 0.  1.
    10030    2    1    2    0    0  0.00000000000E+00  0.00000000000E+00 -0.61909918581E+03  0.29622382158E+04  0.28968209205E+04 0.  0.
        1    1    3    3  502    0  0.75997874544E+03  0.23445859763E+03  0.92830507515E+03  0.12224110766E+04  0.50400001928E-02 0. -1.
       -1    1    3    3    0  502 -0.75997874544E+03 -0.23445859763E+03 -0.15474042610E+04  0.17398271392E+04  0.50400001928E-02 0.  1.
</event>
<event>
 5   0  0.3638028E-07  0.2899072E+04  0.7818609E-02  0.8273154E-01
        1   -1    0    0  501    0  0.00000000000E+00  0.00000000000E+00  0.17812234118E+04  0.17812234118E+04  0.50400001928E-02 0. -1.
       -1   -1    0    0    0  501  0.00000000000E+00  0.00000000000E+00 -0.11796131081E+04  0.11796131082E+04  0.50400001928E-02 0.  1.
    10030    2    1    2    0    0  0.00000000000E+00  0.00000000000E+00  0.60161030363E+03  0.29608365199E+04  0.28990719102E+04 0.  0.
        4    1    3    3  502    0 -0.78714890217E+03 -0.17055587927E+03 -0.93005172611E+03  0.12303213110E+04  0.12699999809E+01 0.  1.
       -4    1    3    3    0  502  0.78714890217E+03  0.17055587927E+03  0.15316620297E+04  0.17305152089E+04  0.12699999809E+01 0. -1.
</event>
<event>
 5   0  0.3638028E-07  0.2850590E+04  0.7818609E-02  0.8287732E-01
       -1   -1    0    0    0  501  0.00000000000E+00  0.00000000000E+00  0.13321128178E+04  0.13321128178E+04  0.50400001928E-02 0. -1.
        1   -1    0    0  501    0  0.00000000000E+00  0.00000000000E+00 -0.15249953487E+04  0.15249953487E+04  0.50400001928E-02 0.  1.
    10030    2    1    2    0    0  0.00000000000E+00  0.00000000000E+00 -0.19288253089E+03  0.28571081665E+04  0.28505900099E+04 0.  0.
        4    1    3    3  502    0  0.12066184060E+04 -0.71346970408E+03  0.16201897246E+03  0.14111055087E+04  0.12699999809E+01 0. -1.
       -4    1    3    3    0  502 -0.12066184060E+04  0.71346970408E+03 -0.35490150335E+03  0.14460026578E+04  0.12699999809E+01 0.  1.
</event>
<event>
 5   0  0.3638028E-07  0.2901203E+04  0.7818609E-02  0.8272520E-01
       -1   -1    0    0    0  501  0.00000000000E+00  0.00000000000E+00  0.82067735944E+03  0.82067735945E+03  0.50400001928E-02 0.  1.
        1   -1    0    0  501    0  0.00000000000E+00  0.00000000000E+00 -0.25640348553E+04  0.25640348554E+04  0.50400001928E-02 0. -1.
    10030    2    1    2    0    0  0.00000000000E+00  0.00000000000E+00 -0.17433574959E+04  0.33847122148E+04  0.29012034431E+04 0.  0.
        4    1    3    3  502    0  0.22333328803E+03  0.24405032061E+03 -0.25194382883E+04  0.25410645836E+04  0.12699999809E+01 0. -1.
       -4    1    3    3    0  502 -0.22333328803E+03 -0.24405032061E+03  0.77608079236E+03  0.84364763124E+03  0.12699999809E+01 0.  1.
</event>
<event>
 5   0  0.1006893E-06  0.2907081E+04  0.7818609E-02  0.8270774E-01
        2   -1    0    0  501    0  0.00000000000E+00  0.00000000000E+00  0.17508822649E+04  0.17508822649E+04  0.25500000920E-02 0. -1.
       -2   -1    0    0    0  501  0.00000000000E+00  0.00000000000E+00 -0.12066942360E+04  0.12066942360E+04  0.25500000920E-02 0.  1.
    10030    2    1    2    0    0  0.00000000000E+00  0.00000000000E+00  0.54418802892E+03  0.29575765009E+04  0.29070806916E+04 0.  0.
        4    1    3    3  502    0 -0.80576569480E+03 -0.87346146245E+03 -0.57945412980E+03  0.13221051330E+04  0.12699999809E+01 0.  1.
       -4    1    3    3    0  502  0.80576569480E+03  0.87346146245E+03  0.11236421587E+04  0.16354713678E+04  0.12699999809E+01 0. -1.
</event>
<event>
 5   0  0.3786210E-07  0.2899382E+04  0.7818609E-02  0.8273061E-01
       -1   -1    0    0    0  501  0.00000000000E+00  0.00000000000E+00  0.11410086898E+04  0.11410086898E+04  0.50400001928E-02 0.  1.
        1   -1    0    0  501    0  0.00000000000E+00  0.00000000000E+00 -0.18418830796E+04  0.18418830796E+04  0.50400001928E-02 0. -1.
    10030    2    1    2    0    0  0.00000000000E+00  0.00000000000E+00 -0.70087438981E+03  0.29828917694E+04  0.28993824166E+04 0.  0.
        5    1    3    3  502    0  0.18989815513E+03  0.13639212685E+04  0.11564549090E+03  0.13819328875E+04  0.46999998093E+01 0.  1.
       -5    1    3    3    0  502 -0.18989815513E+03 -0.13639212685E+04 -0.81651988071E+03  0.16009588819E+04  0.46999998093E+01 0. -1.
</event>
<event>
 5   0  0.3885904E-07  0.2922680E+04  0.7818609E-02  0.8266161E-01
        1   -1    0    0  501    0  0.00000000000E+00  0.00000000000E+00  0.14009823980E+04  0.14009823980E+04  0.50400001928E-02 0. -1.
       -1   -1    0    0    0  501  0.00000000000E+00  0.00000000000E+00 -0.15242981053E+04  0.15242981053E+04  0.50400001928E-02 0.  1.
    10030    2    1    2    0    0  0.00000000000E+00  0.00000000000E+00 -0.12331570737E+03  0.29252805033E+04  0.29226801500E+04 0.  0.
        2    1    3    3  502    0  0.45425086696E+02 -0.28299561936E+03 -0.14958894603E+04  0.15231005340E+04  0.25500000920E-02 0.  1.
       -2    1    3    3    0  502 -0.45425086696E+02  0.28299561936E+03  0.13725737530E+04  0.14021799693E+04  0.25500000920E-02 0. -1.
</event>
<event>
 5   0  0.3638028E-07  0.2897574E+04  0.7818609E-02  0.8273600E-01
       -1   -1    0    0    0  501  0.00000000000E+00  0.00000000000E+00  0.22524567157E+04  0.22524567157E+04  0.50400001928E-02 0.  1.
        1   -1    0    0  501    0  0.00000000000E+00  0.00000000000E+00 -0.93186426483E+03  0.93186426484E+03  0.50400001928E-02 0. -1.
    10030    2    1    2    0    0  0.00000000000E+00  0.00000000000E+00  0.13205924509E+04  0.31843209805E+04  0.28975741036E+04 0.  0.
        4    1    3    3  502    0 -0.43324010653E+03 -0.81172608799E+02  0.21769804123E+04  0.22211553999E+04  0.12699999809E+01 0.  1.
       -4    1    3    3    0  502  0.43324010653E+03  0.81172608799E+02 -0.85638796141E+03  0.96316558061E+03  0.12699999809E+01 0. -1.
</event>
<event>
 5   0  0.3638028E-07  0.2896012E+04  0.7818609E-02  0.8274065E-01
       -1   -1    0    0    0  501  0.00000000000E+00  0.00000000000E+00  0.14420183880E+04  0.14420183880E+04  0.50400001928E-02 0. -1.
        1   -1    0    0  501    0  0.00000000000E+00  0.00000000000E+00 -0.14540181094E+04  0.14540181094E+04  0.50400001928E-02 0.  1.
    10030    2    1    2    0    0  0.00000000000E+00  0.00000000000E+00 -0.11999721366E+02  0.28960364975E+04  0.28960116369E+04 0.  0.
        4    1    3    3  502    0  0.14206938804E+03  0.11441465705E+04 -0.88205769446E+03  0.14516481926E+04  0.12699999809E+01 0.  1.
       -4    1    3    3    0  502 -0.14206938804E+03 -0.11441465705E+04  0.87005797310E+03  0.14443883049E+04  0.12699999809E+01 0. -1.
</event>
<event>
 5   0  0.9950999E-07  0.2901464E+04  0.7818609E-02  0.8272442E-01
        2   -1    0    0  501    0  0.00000000000E+00  0.00000000000E+00  0.10923693706E+04  0.10923693706E+04  0.25500000920E-02 0. -1.
       -2   -1    0    0    0  501  0.00000000000E+00  0.00000000000E+00 -0.19266591524E+04  0.19266591524E+04  0.25500000920E-02 0.  1.
    10030    2    1    2    0    0  0.00000000000E+00  0.00000000000E+00 -0.83428978183E+03  0.30190285230E+04  0.29014640757E+04 0.  0.
        3    1    3    3  502    0 -0.14116231868E+04  0.56883914794E+01 -0.76523085798E+03  0.16057056566E+04  0.10100000352E+00 0.  1.
       -3    1    3    3    0  502  0.14116231868E+04 -0.56883914794E+01 -0.69058923852E+02  0.14133228664E+04  0.10100000352E+00 0. -1.
</event>
<event>
 5   0  0.3885904E-07  0.2901363E+04  0.7818609E-02  0.8272472E-01
       -1   -1    0    0    0  501  0.00000000000E+00  0.00000000000E+00  0.20605930249E+04  0.20605930249E+04  0.50400001928E-02 0.  1.
        1   -1    0    0  501    0  0.00000000000E+00  0.00000000000E+00 -0.10212964789E+04  0.10212964789E+04  0.50400001928E-02 0. -1.
    10030    2    1    2    0    0  0.00000000000E+00  0.00000000000E+00  0.10392965460E+04  0.30818895038E+04  0.29013627149E+04 0.  0.
        2    1    3    3  502    0 -0.30831866437E+03  0.13424702802E+03 -0.97932402399E+03  0.10354507266E+04  0.25500000920E-02 0. -1.
       -2    1    3    3    0  502  0.30831866437E+03 -0.13424702802E+03  0.20186205699E+04  0.20464387772E+04  0.25500000920E-02 0.  1.
</event>
<event>
 5   0  0.9950999E-07  0.2902951E+04  0.7818609E-02  0.8272000E-01
       -2   -1    0    0    0  501  0.00000000000E+00  0.00000000000E+00  0.68789191619E+03  0.68789191620E+03  0.25500000920E-02 0.  1.
        2   -1    0    0  501    0  0.00000000000E+00  0.00000000000E+00 -0.30626639937E+04  0.30626639937E+04  0.25500000920E-02 0. -1.
    10030    2    1    2    0    0  0.00000000000E+00  0.00000000000E+00 -0.23747720775E+04  0.37505559099E+04  0.29029514659E+04 0.  0.
        3    1    3    3  502    0 -0.39933944448E+03  0.13943842030E+04 -0.11165919415E+04  0.18304526412E+04  0.10100000352E+00 0. -1.
       -3    1    3    3    0  502  0.39933944448E+03 -0.13943842030E+04 -0.12581801360E+04  0.19201032687E+04  0.10100000352E+00 0.  1.
</event>
<event>
 5   0  0.3786210E-07  0.2896309E+04  0.7818609E-02  0.8273976E-01
       -1   -1    0    0    0  501  0.00000000000E+00  0.00000000000E+00  0.15605879369E+04  0.15605879369E+04  0.50400001928E-02 0.  1.
        1   -1    0    0  501    0  0.00000000000E+00  0.00000000000E+00 -0.13438213878E+04  0.13438213878E+04  0.50400001928E-02 0. -1.
    10030    2    1    2    0    0  0.00000000000E+00  0.00000000000E+00  0.21676654916E+03  0.29044093247E+04  0.28963089940E+04 0.  0.
        5    1    3    3  502    0 -0.28497549779E+03 -0.13585218817E+04 -0.30548957949E+03  0.14213158377E+04  0.46999998093E+01 0. -1.
       -5    1    3    3    0  502  0.28497549779E+03  0.13585218817E+04  0.52225612865E+03  0.14830934870E+04  0.46999998093E+01 0.  1.
</event>
<event>
 5   0  0.9950999E-07  0.2902347E+04  0.7818609E-02  0.8272179E-01
        2   -1    0    0  501    0  0.00000000000E+00  0.00000000000E+00  0.10716764420E+04  0.10716764420E+04  0.25500000920E-02 0. -1.
       -2   -1    0    0    0  501  0.00000000000E+00  0.00000000000E+00 -0.19650567210E+04  0.19650567210E+04  0.25500000920E-02 0.  1.
    10030    2    1    2    0    0  0.00000000000E+00  0.00000000000E+00 -0.89338027909E+03  0.30367331630E+04  0.29023473225E+04 0.  0.
        3    1    3    3  502    0  0.14476117309E+04  0.99735936932E+02 -0.46703270108E+03  0.15243511848E+04  0.10100000352E+00 0.  1.
       -3    1    3    3    0  502 -0.14476117309E+04 -0.99735936932E+02 -0.42634757801E+03  0.15123819782E+04  0.10100000352E+00 0. -1.
</event>
<event>
 5   0  0.3769563E-07  0.2895044E+04  0.7818609E-02  0.8274354E-01
       -1   -1    0    0    0  501  0.00000000000E+00  0.00000000000E+00  0.15642982044E+04  0.15642982044E+04  0.50400001928E-02 0. -1.
        1   -1    0    0  501    0  0.00000000000E+00  0.00000000000E+00 -0.13394631296E+04  0.13394631296E+04  0.50400001928E-02 0.  1.
    10030    2    1    2    0    0  0.00000000000E+00  0.00000000000E+00  0.22483507473E+03  0.29037613340E+04  0.28950438812E+04 0.  0.
        3    1    3    3  502    0 -0.28712083272E+03 -0.14051614831E+04  0.30897341568E+03  0.14670997744E+04  0.10100000352E+00 0. -1.
       -3    1    3    3    0  502  0.28712083272E+03  0.14051614831E+04 -0.84138340944E+02  0.14366615596E+04  0.10100000352E+00 0.  1.
</event>
<event>
 5   0  0.3786210E-07  0.2896910E+04  0.7818609E-02  0.8273797E-01
       -1   -1    0    0    0  501  0.00000000000E+00  0.00000000000E+00  0.11001094384E+04  0.11001094384E+04  0.50400001928E-02 0.  1.
        1   -1    0    0  501    0  0.00000000000E+00  0.00000000000E+00 -0.19071031068E+04  0.19071031068E+04  0.50400001928E-02 0. -1.
    10030    2    1    2    0    0  0.00000000000E+00  0.00000000000E+00 -0.80699366841E+03  0.30072125452E+04  0.28969101662E+04 0.  0.
        5    1    3    3  502    0  0.88017756735E+03 -0.11503402978E+04 -0.40574419613E+03  0.15042093583E+04  0.46999998093E+01 0.  1.
       -5    1    3    3    0  502 -0.88017756735E+03  0.11503402978E+04 -0.40124947228E+03  0.15030031869E+04  0.46999998093E+01 0. -1.
</event>
<event>
 5   0  0.1031339E-06  0.2897111E+04  0.7818609E-02  0.8273737E-01
        2   -1    0    0  501    0  0.00000000000E+00  0.00000000000E+00  0.16842615754E+04  0.16842615754E+04  0.25500000920E-02 0. -1.
       -2   -1    0    0    0  501  0.00000000000E+00  0.00000000000E+00 -0.12458359726E+04  0.12458359726E+04  0.25500000920E-02 0.  1.
    10030    2    1    2    0    0  0.00000000000E+00  0.00000000000E+00  0.43842560276E+03  0.29300975481E+04  0.28971114290E+04 0.  0.
        5    1    3    3  502    0 -0.55621630388E+03  0.22042795978E+03  0.15534475494E+04  0.16646880912E+04  0.46999998093E+01 0. -1.
       -5    1    3    3    0  502  0.55621630388E+03 -0.22042795978E+03 -0.11150219466E+04  0.12654094569E+04  0.46999998093E+01 0.  1.
</event>
<event>
 5   0  0.3769563E-07  0.2904462E+04  0.7818609E-02  0.8271551E-01
        1   -1    0    0  501    0  0.00000000000E+00  0.00000000000E+00  0.15148224974E+04  0.15148224974E+04  0.50400001928E-02 0.  1.
       -1   -1    0    0    0  501  0.00000000000E+00  0.00000000000E+00 -0.13922259325E+04  0.13922259326E+04  0.50400001928E-02 0. -1.
    10030    2    1    2    0    0  0.00000000000E+00  0.00000000000E+00  0.12259656481E+03  0.29070484299E+04  0.29044621974E+04 0.  0.
        3    1    3    3  502    0 -0.21787047068E+03  0.16544855424E+02 -0.13756799012E+04  0.13929237147E+04  0.10100000352E+00 0. -1.
       -3    1    3    3    0  502  0.21787047068E+03 -0.16544855424E+02  0.14982764660E+04  0.15141247152E+04  0.10100000352E+00 0.  1.
</event>
<event>
 5   0  0.3885904E-07  0.2901571E+04  0.7818609E-02  0.8272410E-01
        1   -1    0    0  501    0  0.00000000000E+00  0.00000000000E+00  0.12040104616E+04  0.12040104616E+04  0.50400001928E-02 0.  1.
       -1   -1    0    0    0  501  0.00000000000E+00  0.00000000000E+00 -0.17481399547E+04  0.17481399547E+04  0.50400001928E-02 0. -1.
    10030    2    1    2    0    0  0.00000000000E+00  0.00000000000E+00 -0.54412949310E+03  0.29521504162E+04  0.29015711563E+04 0.  0.
        2    1    3    3  502    0  0.18251664236E+03 -0.72846989357E+03 -0.15349913769E+04  0.17088531938E+04  0.25500000920E-02 0. -1.
       -2    1    3    3    0  502 -0.18251664236E+03  0.72846989357E+03  0.99086188384E+03  0.12432972225E+04  0.25500000920E-02 0.  1.
</event>
<event>
 5   0  0.9994311E-07  0.2909970E+04  0.7818609E-02  0.8269917E-01
       -2   -1    0    0    0  501  0.00000000000E+00  0.00000000000E+00  0.13348274991E+04  0.13348274991E+04  0.25500000920E-02 0. -1.
        2   -1    0    0  501    0  0.00000000000E+00  0.00000000000E+00 -0.15859585712E+04  0.15859585712E+04  0.25500000920E-02 0.  1.
    10030    2    1    2    0    0  0.00000000000E+00  0.00000000000E+00 -0.25113107214E+03  0.29207860703E+04  0.29099698371E+04 0.  0.
        2    1    3    3  502    0  0.90701313319E+03 -0.11082683028E+04 -0.38352207958E+03  0.14825723053E+04  0.25500000920E-02 0. -1.
       -2    1    3    3    0  502 -0.90701313319E+03  0.11082683028E+04  0.13239100744E+03  0.14382137650E+04  0.25500000920E-02 0.  1.
</event>
<event>
 5   0  0.9994311E-07  0.2902285E+04  0.7818609E-02  0.8272198E-01
       -2   -1    0    0    0  501  0.00000000000E+00  0.00000000000E+00  0.15300405232E+04  0.15300405232E+04  0.25500000920E-02 0. -1.
        2   -1    0    0  501    0  0.00000000000E+00  0.00000000000E+00 -0.13763130287E+04  0.13763130287E+04  0.25500000920E-02 0.  1.
    10030    2    1    2    0    0  0.00000000000E+00  0.00000000000E+00  0.15372749451E+03  0.29063535519E+04  0.29022851042E+04 0.  0.
        2    1    3    3  502    0  0.55052610332E+03 -0.91802231713E+02 -0.12645318486E+04  0.13822255374E+04  0.25500000920E-02 0.  1.
       -2    1    3    3    0  502 -0.55052610332E+03  0.91802231713E+02  0.14182593431E+04  0.15241280145E+04  0.25500000920E-02 0. -1.
</event>
<event>
 5   0  0.1006893E-06  0.2894689E+04  0.7818609E-02  0.8274459E-01
       -2   -1    0    0    0  501  0.00000000000E+00  0.00000000000E+00  0.16078815110E+04  0.16078815110E+04  0.25500000920E-02 0.  1.
        2   -1    0    0  501    0  0.00000000000E+00  0.00000000000E+00 -0.13028364664E+04  0.13028364664E+04  0.25500000920E-02 0. -1.
    10030    2    1    2    0    0  0.00000000000E+00  0.00000000000E+00  0.30504504464E+03  0.29107179773E+04  0.28946893900E+04 0.  0.
        4    1    3    3  502    0  0.25097782218E+02 -0.44822338334E+03  0.15361033804E+04  0.16003591185E+04  0.12699999809E+01 0.  1.
       -4    1    3    3    0  502 -0.25097782218E+02  0.44822338334E+03 -0.12310583357E+04  0.13103588588E+04  0.12699999809E+01 0. -1.
</event>
<event>
 5   0  0.1063979E-06  0.2902554E+04  0.7818609E-02  0.8272118E-01
       -2   -1    0    0    0  501  0.00000000000E+00  0.00000000000E+00  0.12778409097E+04  0.12778409097E+04  0.25500000920E-02 0. -1.
        2   -1    0    0  501    0  0.00000000000E+00  0.00000000000E+00 -0.16482533096E+04  0.16482533096E+04  0.25500000920E-02 0.  1.
    10030    2    1    2    0    0  0.00000000000E+00  0.00000000000E+00 -0.37041239993E+03  0.29260942193E+04  0.29025543981E+04 0.  0.
        1    1    3    3  502    0  0.73110985298E+03  0.33808861520E+03 -0.14022167357E+04  0.16171076967E+04  0.50400001928E-02 0.  1.
       -1    1    3    3    0  502 -0.73110985298E+03 -0.33808861520E+03  0.10318043358E+04  0.13089865226E+04  0.50400001928E-02 0. -1.
</event>
<event>
 5   0  0.3378750E-07  0.2892039E+04  0.7818609E-02  0.8275250E-01
       -4   -1    0    0    0  501  0.00000000000E+00  0.00000000000E+00  0.22841478466E+04  0.22841481997E+04  0.12699999809E+01 0. -1.
        4   -1    0    0  501    0  0.00000000000E+00  0.00000000000E+00 -0.91542719883E+03  0.91542807979E+03  0.12699999809E+01 0.  1.
    10030    2    1    2    0    0  0.00000000000E+00  0.00000000000E+00  0.13687206478E+04  0.31995762795E+04  0.28920394459E+04 0.  0.
        1    1    3    3  502    0 -0.12715950770E+04 -0.86015685068E+02 -0.71375607260E+02  0.12764980279E+04  0.50400001928E-02 0.  1.
       -1    1    3    3    0  502  0.12715950770E+04  0.86015685068E+02  0.14400962551E+04  0.19230782516E+04  0.50400001928E-02 0. -1.
</event>
<event>
 5   0  0.9994311E-07  0.2903025E+04  0.7818609E-02  0.8271978E-01
       -2   -1    0    0    0  501  0.00000000000E+00  0.00000000000E+00  0.81932282636E+03  0.81932282637E+03  0.25500000920E-02 0. -1.
        2   -1    0    0  501    0  0.00000000000E+00  0.00000000000E+00 -0.25714992132E+04  0.25714992132E+04  0.25500000920E-02 0.  1.
    10030    2    1    2    0    0  0.00000000000E+00  0.00000000000E+00 -0.17521763868E+04  0.33908220395E+04  0.29030246319E+04 0.  0.
        2    1    3    3  502    0 -0.45373174934E+03  0.65401179269E+03  0.54165484753E+03  0.96280522391E+03  0.25500000920E-02 0. -1.
       -2    1    3    3    0  502  0.45373174934E+03 -0.65401179269E+03 -0.22938312343E+04  0.24280168156E+04  0.25500000920E-02 0.  1.
</event>
<event>
 5   0  0.9950999E-07  0.2900343E+04  0.7818609E-02  0.8272775E-01
        2   -1    0    0  501    0  0.00000000000E+00  0.00000000000E+00  0.14733536542E+04  0.14733536542E+04  0.25500000920E-02 0.  1.
       -2   -1    0    0    0  501  0.00000000000E+00  0.00000000000E+00 -0.14273540438E+04  0.14273540438E+04  0.25500000920E-02 0. -1.
    10030    2    1    2    0    0  0.00000000000E+00  0.00000000000E+00  0.45999610346E+02  0.29007076980E+04  0.29003429427E+04 0.  0.
        3    1    3    3  502    0  0.81744722759E+03 -0.33989166272E+03  0.11717307659E+04  0.14685704989E+04  0.10100000352E+00 0.  1.
       -3    1    3    3    0  502 -0.81744722759E+03  0.33989166272E+03 -0.11257311556E+04  0.14321371991E+04  0.10100000352E+00 0. -1.
</event>
<event>
 5   0  0.3378750E-07  0.2891617E+04  0.7818609E-02  0.8275376E-01
       -3   -1    0    0    0  501  0.00000000000E+00  0.00000000000E+00  0.16853309059E+04  0.16853309089E+04  0.10100000352E+00 0. -1.
        3   -1    0    0  501    0  0.00000000000E+00  0.00000000000E+00 -0.12403270646E+04  0.12403270687E+04  0.10100000352E+00 0.  1.
    10030    2    1    2    0    0  0.00000000000E+00  0.00000000000E+00  0.44500384127E+03  0.29256579776E+04  0.28916165346E+04 0.  0.
        5    1    3    3  502    0  0.27673667288E+02 -0.13930657165E+04 -0.16797085968E+03  0.14034365757E+04  0.46999998093E+01 0.  1.
       -5    1    3    3    0  502 -0.27673667288E+02  0.13930657165E+04  0.61297470096E+03  0.15222214019E+04  0.46999998093E+01 0. -1.
</event>
<event>
 5   0  0.3378750E-07  0.2901515E+04  0.7818609E-02  0.8272427E-01
        3   -1    0    0  501    0  0.00000000000E+00  0.00000000000E+00  0.11242460639E+04  0.11242460684E+04  0.10100000352E+00 0.  1.
       -3   -1    0    0    0  501  0.00000000000E+00  0.00000000000E+00 -0.18720962526E+04  0.18720962553E+04  0.10100000352E+00 0. -1.
    10030    2    1    2    0    0  0.00000000000E+00  0.00000000000E+00 -0.74785018869E+03  0.29963423238E+04  0.29015146762E+04 0.  0.
        5    1    3    3  502    0 -0.49237468209E+03  0.12980516592E+04  0.60911125381E+02  0.13896413900E+04  0.46999998093E+01 0. -1.
       -5    1    3    3    0  502  0.49237468209E+03 -0.12980516592E+04 -0.80876131408E+03  0.16067009338E+04  0.46999998093E+01 0.  1.
</event>
<event>
 5   0  0.3769563E-07  0.2904084E+04  0.7818609E-02  0.8271663E-01
       -1   -1    0    0    0  501  0.00000000000E+00  0.00000000000E+00  0.19522930445E+04  0.19522930445E+04  0.50400001928E-02 0.  1.
        1   -1    0    0  501    0  0.00000000000E+00  0.00000000000E+00 -0.10799743045E+04  0.10799743046E+04  0.50400001928E-02 0. -1.
    10030    2    1    2    0    0  0.00000000000E+00  0.00000000000E+00  0.87231873998E+03  0.30322673491E+04  0.29040842433E+04 0.  0.
        3    1    3    3  502    0 -0.92563743626E+02  0.14423552639E+04  0.58185158166E+03  0.15580462211E+04  0.10100000352E+00 0.  1.
       -3    1    3    3    0  502  0.92563743626E+02 -0.14423552639E+04  0.29046715832E+03  0.14742211280E+04  0.10100000352E+00 0. -1.
</event>
<event>
 5   0  0.1031339E-06  0.2900250E+04  0.7818609E-02  0.8272803E-01
       -2   -1    0    0    0  501  0.00000000000E+00  0.00000000000E+00  0.15988726982E+04  0.15988726982E+04  0.25500000920E-02 0. -1.
        2   -1    0    0  501    0  0.00000000000E+00  0.00000000000E+00 -0.13152153730E+04  0.13152153730E+04  0.25500000920E-02 0.  1.
    10030    2    1    2    0    0  0.00000000000E+00  0.00000000000E+00  0.28365732522E+03  0.29140880712E+04  0.29002496114E+04 0.  0.
        5    1    3    3  502    0  0.12306327288E+04 -0.72789027043E+03  0.38497236229E+03  0.14807116427E+04  0.46999998093E+01 0. -1.
       -5    1    3    3    0  502 -0.12306327288E+04  0.72789027043E+03 -0.10131503707E+03  0.14333764285E+04  0.46999998093E+01 0.  1.
</event>
<event>
 5   0  0.3638028E-07  0.2903520E+04  0.7818609E-02  0.8271831E-01
       -1   -1    0    0    0  501  0.00000000000E+00  0.00000000000E+00  0.13779282897E+04  0.13779282897E+04  0.50400001928E-02 0.  1.
        1   -1    0    0  501    0  0.00000000000E+00  0.00000000000E+00 -0.15295473685E+04  0.15295473686E+04  0.50400001928E-02 0. -1.
    10030    2    1    2    0    0  0.00000000000E+00  0.00000000000E+00 -0.15161907883E+03  0.29074756583E+04  0.29035196501E+04 0.  0.
        4    1    3    3  502    0  0.23771832956E+03  0.14279325259E+04  0.34357056131E+02  0.14479928601E+04  0.12699999809E+01 0.  1.
       -4    1    3    3    0  502 -0.23771832956E+03 -0.14279325259E+04 -0.18597613497E+03  0.14594827982E+04  0.12699999809E+01 0. -1.
</event>
<event>
 5   0  0.1063979E-06  0.2868002E+04  0.7818609E-02  0.8282462E-01
       -2   -1    0    0    0  501  0.00000000000E+00  0.00000000000E+00  0.83652893933E+03  0.83652893933E+03  0.25500000920E-02 0. -1.
        2   -1    0    0  501    0  0.00000000000E+00  0.00000000000E+00 -0.24582043516E+04  0.24582043516E+04  0.25500000920E-02 0.  1.
    10030    2    1    2    0    0  0.00000000000E+00  0.00000000000E+00 -0.16216754123E+04  0.32947332909E+04  0.28680021471E+04 0.  0.
        1    1    3    3  502    0 -0.21096516557E+03  0.13258424988E+04 -0.13898034953E+04  0.19323349576E+04  0.50400001928E-02 0.  1.
       -1    1    3    3    0  502  0.21096516557E+03 -0.13258424988E+04 -0.23187191700E+03  0.13623983333E+04  0.50400001928E-02 0. -1.
</event>
<event>
 5   0  0.9994311E-07  0.2897006E+04  0.7818609E-02  0.8273769E-01
        2   -1    0    0  501    0  0.00000000000E+00  0.00000000000E+00  0.11942429858E+04  0.11942429858E+04  0.25500000920E-02 0. -1.
       -2   -1    0    0    0  501  0.00000000000E+00  0.00000000000E+00 -0.17568962586E+04  0.17568962586E+04  0.25500000920E-02 0.  1.
    10030    2    1    2    0    0  0.00000000000E+00  0.00000000000E+00 -0.56265327280E+03  0.29511392444E+04  0.28970060639E+04 0.  0.
        2    1    3    3  502    0  0.90305180675E+03  0.11044570944E+04 -0.25977627576E+02  0.14268857264E+04  0.25500000920E-02 0. -1.
       -2    1    3    3    0  502 -0.90305180675E+03 -0.11044570944E+04 -0.53667564523E+03  0.15242535180E+04  0.25500000920E-02 0.  1.
</event>
<event>
 5   0  0.3786210E-07  0.2900477E+04  0.7818609E-02  0.8272736E-01
        1   -1    0    0  501    0  0.00000000000E+00  0.00000000000E+00  0.13012262346E+04  0.13012262346E+04  0.50400001928E-02 0. -1.
       -1   -1    0    0    0  501  0.00000000000E+00  0.00000000000E+00 -0.16163150804E+04  0.16163150804E+04  0.50400001928E-02 0.  1.
    10030    2    1    2    0    0  0.00000000000E+00  0.00000000000E+00 -0.31508884577E+03  0.29175413151E+04  0.29004769167E+04 0.  0.
        5    1    3    3  502    0 -0.48826877127E+03  0.37507507299E+03  0.11632235645E+04  0.13161302574E+04  0.46999998093E+01 0. -1.
       -5    1    3    3    0  502  0.48826877127E+03 -0.37507507299E+03 -0.14783124103E+04  0.16014110577E+04  0.46999998093E+01 0.  1.
</event>
<event>
 5   0  0.1006893E-06  0.2898551E+04  0.7818609E-02  0.8273309E-01
       -2   -1    0    0    0  501  0.00000000000E+00  0.00000000000E+00  0.13625136287E+04  0.13625136287E+04  0.25500000920E-02 0. -1.
        2   -1    0    0  501    0  0.00000000000E+00  0.00000000000E+00 -0.15415618205E+04  0.15415618205E+04  0.25500000920E-02 0.  1.
    10030    2    1    2    0    0  0.00000000000E+00  0.00000000000E+00 -0.17904819174E+03  0.29040754492E+04  0.28985506654E+04 0.  0.
        4    1    3    3  502    0  0.11978749596E+04 -0.80319753321E+03  0.53459800932E+02  0.14432221795E+04  0.12699999809E+01 0.  1.
       -4    1    3    3    0  502 -0.11978749596E+04  0.80319753321E+03 -0.23250799267E+03  0.14608532697E+04  0.12699999809E+01 0. -1.
</event>
<event>
 5   0  0.1031339E-06  0.2903339E+04  0.7818609E-02  0.8271885E-01
       -2   -1    0    0    0  501  0.00000000000E+00  0.00000000000E+00  0.10470846579E+04  0.10470846579E+04  0.25500000920E-02 0. -1.
        2   -1    0    0  501    0  0.00000000000E+00  0.00000000000E+00 -0.20125824599E+04  0.20125824599E+04  0.25500000920E-02 0.  1.
    10030    2    1    2    0    0  0.00000000000E+00  0.00000000000E+00 -0.96549780197E+03  0.30596671178E+04  0.29033389169E+04 0.  0.
        5    1    3    3  502    0 -0.98145132505E+02  0.54220059191E+03 -0.18980849904E+04  0.19764520409E+04  0.46999998093E+01 0.  1.
       -5    1    3    3    0  502  0.98145132505E+02 -0.54220059191E+03  0.93258718846E+03  0.10832150770E+04  0.46999998093E+01 0. -1.
</event>
<event>
 5   0  0.3638028E-07  0.2896551E+04  0.7818609E-02  0.8273904E-01
        1   -1    0    0  501    0  0.00000000000E+00  0.00000000000E+00  0.15096779233E+04  0.15096779233E+04  0.50400001928E-02 0. -1.
       -1   -1    0    0    0  501  0.00000000000E+00  0.00000000000E+00 -0.13893707820E+04  0.13893707820E+04  0.50400001928E-02 0.  1.
    10030    2    1    2    0    0  0.00000000000E+00  0.00000000000E+00  0.12030714129E+03  0.28990487053E+04  0.28965513266E+04 0.  0.
        4    1    3    3  502    0 -0.74021410506E+03 -0.95677129835E+03  0.85718968755E+03  0.14826004222E+04  0.12699999809E+01 0. -1.
       -4    1    3    3    0  502  0.74021410506E+03  0.95677129835E+03 -0.73688254626E+03  0.14164482830E+04  0.12699999809E+01 0.  1.
</event>
<event>
 5   0  0.9950999E-07  0.2917639E+04  0.7818609E-02  0.8267649E-01
        2   -1    0    0  501    0  0.00000000000E+00  0.00000000000E+00  0.20224285929E+04  0.20224285929E+04  0.25500000920E-02 0. -1.
       -2   -1    0    0    0  501  0.00000000000E+00  0.00000000000E+00 -0.10522766628E+04  0.10522766628E+04  0.25500000920E-02 0.  1.
    10030    2    1    2    0    0  0.00000000000E+00  0.00000000000E+00  0.97015193008E+03  0.30747052557E+04  0.29176390527E+04 0.  0.
        3    1    3    3  502    0 -0.80862339225E+03 -0.10390691737E+04  0.11470794817E+04  0.17462324833E+04  0.10100000352E+00 0. -1.
       -3    1    3    3    0  502  0.80862339225E+03  0.10390691737E+04 -0.17692755165E+03  0.13284727724E+04  0.10100000352E+00 0.  1.
</event>
<event>
 5   0  0.3786210E-07  0.2898283E+04  0.7818609E-02  0.8273388E-01
        1   -1    0    0  501    0  0.00000000000E+00  0.00000000000E+00  0.99138967618E+03  0.99138967619E+03  0.50400001928E-02 0. -1.
       -1   -1    0    0    0  501  0.00000000000E+00  0.00000000000E+00 -0.21182504374E+04  0.21182504374E+04  0.50400001928E-02 0.  1.
    10030    2    1    2    0    0  0.00000000000E+00  0.00000000000E+00 -0.11268607612E+04  0.31096401136E+04  0.28982833645E+04 0.  0.
        5    1    3    3  502    0  0.33195389333E+03  0.10434387679E+04 -0.15818794490E+04  0.19238821509E+04  0.46999998093E+01 0.  1.
       -5    1    3    3    0  502 -0.33195389333E+03 -0.10434387679E+04  0.45501868779E+03  0.11857579626E+04  0.46999998093E+01 0. -1.
</event>
<event>
 5   0  0.3769563E-07  0.2900489E+04  0.7818609E-02  0.8272732E-01
       -1   -1    0    0    0  501  0.00000000000E+00  0.00000000000E+00  0.17658609325E+04  0.17658609325E+04  0.50400001928E-02 0.  1.
        1   -1    0    0  501    0  0.00000000000E+00  0.00000000000E+00 -0.11910385508E+04  0.11910385508E+04  0.50400001928E-02 0. -1.
    10030    2    1    2    0    0  0.00000000000E+00  0.00000000000E+00  0.57482238177E+03  0.29568994833E+04  0.29004885423E+04 0.  0.
        3    1    3    3  502    0  0.99252646082E+03 -0.98080521750E+02 -0.78590903369E+03  0.12697958827E+04  0.10100000352E+00 0. -1.
       -3    1    3    3    0  502 -0.99252646082E+03  0.98080521750E+02  0.13607314155E+04  0.16871036007E+04  0.10100000352E+00 0.  1.
</event>
<event>
 5   0  0.3769563E-07  0.2902148E+04  0.7818609E-02  0.8272239E-01
        1   -1    0    0  501    0  0.00000000000E+00  0.00000000000E+00  0.21522254994E+04  0.21522254994E+04  0.50400001928E-02 0.  1.
       -1   -1    0    0    0  501  0.00000000000E+00  0.00000000000E+00 -0.97834338992E+03  0.97834338993E+03  0.50400001928E-02 0. -1.
    10030    2    1    2    0    0  0.00000000000E+00  0.00000000000E+00  0.11738821095E+04  0.31305688894E+04  0.29021478880E+04 0.  0.
        3    1    3    3  502    0  0.12003726685E+04 -0.60835835638E+03  0.11724528981E+04  0.17848361946E+04  0.10100000352E+00 0.  1.
       -3    1    3    3    0  502 -0.12003726685E+04  0.60835835638E+03  0.14292114134E+01  0.13457326948E+04  0.10100000352E+00 0. -1.
</event>
<event>
 5   0  0.3770467E-07  0.2895620E+04  0.7818609E-02  0.8274182E-01
       -1   -1    0    0    0  501  0.00000000000E+00  0.00000000000E+00  0.19795696456E+04  0.19795696456E+04  0.50400001928E-02 0. -1.
        1   -1    0    0  501    0  0.00000000000E+00  0.00000000000E+00 -0.10588935855E+04  0.10588935855E+04  0.50400001928E-02 0.  1.
    10030    2    1    2    0    0  0.00000000000E+00  0.00000000000E+00  0.92067606009E+03  0.30384632311E+04  0.28956198644E+04 0.  0.
        1    1    3    3  502    0 -0.87202165505E+03 -0.59961496255E+03 -0.57642725006E+03  0.12050843310E+04  0.50400001928E-02 0.  1.
       -1    1    3    3    0  502  0.87202165505E+03  0.59961496255E+03  0.14971033101E+04  0.18333789001E+04  0.50400001928E-02 0. -1.
</event>
<event>
 5   0  0.9950999E-07  0.2907149E+04  0.7818609E-02  0.8270753E-01
        2   -1    0    0  501    0  0.00000000000E+00  0.00000000000E+00  0.21105068229E+04  0.21105068229E+04  0.25500000920E-02 0. -1.
       -2   -1    0    0    0  501  0.00000000000E+00  0.00000000000E+00 -0.10011242261E+04  0.10011242261E+04  0.25500000920E-02 0.  1.
    10030    2    1    2    0    0  0.00000000000E+00  0.00000000000E+00  0.11093825968E+04  0.31116310491E+04  0.29071494698E+04 0.  0.
        3    1    3    3  502    0 -0.53792950086E+03  0.55054147876E+02 -0.88946346771E+03  0.10409343772E+04  0.10100000352E+00 0.  1.
       -3    1    3    3    0  502  0.53792950086E+03 -0.55054147876E+02  0.19988460645E+04  0.20706966719E+04  0.10100000352E+00 0. -1.
</event>
<event>
 5   0  0.3378750E-07  0.2910740E+04  0.7818609E-02  0.8269689E-01
        3   -1    0    0  501    0  0.00000000000E+00  0.00000000000E+00  0.19241338331E+04  0.19241338358E+04  0.10100000352E+00 0.  1.
       -3   -1    0    0    0  501  0.00000000000E+00  0.00000000000E+00 -0.11008081944E+04  0.11008081991E+04  0.10100000352E+00 0. -1.
    10030    2    1    2    0    0  0.00000000000E+00  0.00000000000E+00  0.82332563868E+03  0.30249420348E+04  0.29107403194E+04 0.  0.
        4    1    3    3  502    0 -0.42090365522E+03 -0.89472648262E+03 -0.69813332871E+03  0.12104078334E+04  0.12699999809E+01 0. -1.
       -4    1    3    3    0  502  0.42090365522E+03  0.89472648262E+03  0.15214589674E+04  0.18145342014E+04  0.12699999809E+01 0.  1.
</event>
<event>
 5   0  0.9950999E-07  0.2899786E+04  0.7818609E-02  0.8272941E-01
       -2   -1    0    0    0  501  0.00000000000E+00  0.00000000000E+00  0.75743124495E+03  0.75743124495E+03  0.25500000920E-02 0.  1.
        2   -1    0    0  501    0  0.00000000000E+00  0.00000000000E+00 -0.27754189279E+04  0.27754189279E+04  0.25500000920E-02 0. -1.
    10030    2    1    2    0    0  0.00000000000E+00  0.00000000000E+00 -0.20179876830E+04  0.35328501729E+04  0.28997855189E+04 0.  0.
        3    1    3    3  502    0 -0.89261389364E+03  0.42017044418E+03 -0.23034413151E+04  0.25058221540E+04  0.10100000352E+00 0. -1.
       -3    1    3    3    0  502  0.89261389364E+03 -0.42017044418E+03  0.28545363210E+03  0.10270280189E+04  0.10100000352E+00 0.  1.
</event>
<event>
 5   0  0.1031339E-06  0.2902103E+04  0.7818609E-02  0.8272252E-01
        2   -1    0    0  501    0  0.00000000000E+00  0.00000000000E+00  0.16311896204E+04  0.16311896204E+04  0.25500000920E-02 0. -1.
       -2   -1    0    0    0  501  0.00000000000E+00  0.00000000000E+00 -0.12908065793E+04  0.12908065793E+04  0.25500000920E-02 0.  1.
    10030    2    1    2    0    0  0.00000000000E+00  0.00000000000E+00  0.34038304113E+03  0.29219961998E+04  0.29021028887E+04 0.  0.
        5    1    3    3  502    0 -0.14343507206E+04 -0.16808475148E+03  0.28108180870E+02  0.14444468260E+04  0.46999998093E+01 0.  1.
       -5    1    3    3    0  502  0.14343507206E+04  0.16808475148E+03  0.31227486026E+03  0.14775493737E+04  0.46999998093E+01 0. -1.
</event>
<event>
 5   0  0.3885904E-07  0.2900150E+04  0.7818609E-02  0.8272833E-01
       -1   -1    0    0    0  501  0.00000000000E+00  0.00000000000E+00  0.17251715449E+04  0.17251715449E+04  0.50400001928E-02 0.  1.
        1   -1    0    0  501    0  0.00000000000E+00  0.00000000000E+00 -0.12188450974E+04  0.12188450974E+04  0.50400001928E-02 0. -1.
    10030    2    1    2    0    0  0.00000000000E+00  0.00000000000E+00  0.50632644751E+03  0.29440166422E+04  0.29001495683E+04 0.  0.
        2    1    3    3  502    0  0.47406307966E+03  0.94040019630E+03 -0.75872349248E+03  0.12979790718E+04  0.25500000920E-02 0. -1.
       -2    1    3    3    0  502 -0.47406307966E+03 -0.94040019630E+03  0.12650499400E+04  0.16460375705E+04  0.25500000920E-02 0.  1.
</event>
<event>
 5   0  0.3638028E-07  0.2902338E+04  0.7818609E-02  0.8272182E-01
        1   -1    0    0  501    0  0.00000000000E+00  0.00000000000E+00  0.18427984229E+04  0.18427984230E+04  0.50400001928E-02 0. -1.
       -1   -1    0    0    0  501  0.00000000000E+00  0.00000000000E+00 -0.11427678836E+04  0.11427678836E+04  0.50400001928E-02 0.  1.
    10030    2    1    2    0    0  0.00000000000E+00  0.00000000000E+00  0.70003053936E+03  0.29855663066E+04  0.29023375777E+04 0.  0.
        4    1    3    3  502    0  0.90134582291E+03  0.57790315749E+03  0.13576419914E+04  0.17290430132E+04  0.12699999809E+01 0. -1.
       -4    1    3    3    0  502 -0.90134582291E+03 -0.57790315749E+03 -0.65761145204E+03  0.12565232933E+04  0.12699999809E+01 0.  1.
</event>
<event>
 5   0  0.9994311E-07  0.2881604E+04  0.7818609E-02  0.8278372E-01
       -2   -1    0    0    0  501  0.00000000000E+00  0.00000000000E+00  0.15829717359E+04  0.15829717359E+04  0.25500000920E-02 0. -1.
        2   -1    0    0  501    0  0.00000000000E+00  0.00000000000E+00 -0.13114012424E+04  0.13114012424E+04  0.25500000920E-02 0.  1.
    10030    2    1    2    0    0  0.00000000000E+00  0.00000000000E+00  0.27157049349E+03  0.28943729782E+04  0.28816044843E+04 0.  0.
        2    1    3    3  502    0  0.90863643390E+02  0.13519923431E+03 -0.13021222688E+04  0.13122718611E+04  0.25500000920E-02 0.  1.
       -2    1    3    3    0  502 -0.90863643390E+02 -0.13519923431E+03  0.15736927623E+04  0.15821011171E+04  0.25500000920E-02 0. -1.
</event>
<event>
 5   0  0.9950999E-07  0.2906535E+04  0.7818609E-02  0.8270936E-01
       -2   -1    0    0    0  501  0.00000000000E+00  0.00000000000E+00  0.17993171914E+04  0.17993171914E+04  0.25500000920E-02 0.  1.
        2   -1    0    0  501    0  0.00000000000E+00  0.00000000000E+00 -0.11737710981E+04  0.11737710981E+04  0.25500000920E-02 0. -1.
    10030    2    1    2    0    0  0.00000000000E+00  0.00000000000E+00  0.62554609327E+03  0.29730882895E+04  0.29065350613E+04 0.  0.
        3    1    3    3  502    0 -0.25469592925E+03 -0.14280806398E+04  0.22300145233E+03  0.14676559502E+04  0.10100000352E+00 0. -1.
       -3    1    3    3    0  502  0.25469592925E+03  0.14280806398E+04  0.40254464093E+03  0.15054323393E+04  0.10100000352E+00 0.  1.
</event>
<event>
 5   0  0.3770467E-07  0.2904159E+04  0.7818609E-02  0.8271641E-01
        1   -1    0    0  501    0  0.00000000000E+00  0.00000000000E+00  0.17058160708E+04  0.17058160708E+04  0.50400001928E-02 0.  1.
       -1   -1    0    0    0  501  0.00000000000E+00  0.00000000000E+00 -0.12360854982E+04  0.12360854983E+04  0.50400001928E-02 0. -1.
    10030    2    1    2    0    0  0.00000000000E+00  0.00000000000E+00  0.46973057252E+03  0.29419015690E+04  0.29041587476E+04 0.  0.
        1    1    3    3  502    0 -0.11150960802E+04 -0.81527465489E+03 -0.21863858429E+03  0.13985402610E+04  0.50400001928E-02 0. -1.
       -1    1    3    3    0  502  0.11150960802E+04  0.81527465489E+03  0.68836915681E+03  0.15433613080E+04  0.50400001928E-02 0.  1.
</event>
<event>
 5   0  0.1031339E-06  0.2892002E+04  0.7818609E-02  0.8275261E-01
       -2   -1    0    0    0  501  0.00000000000E+00  0.00000000000E+00  0.98386624109E+03  0.98386624109E+03  0.25500000920E-02 0.  1.
        2   -1    0    0  501    0  0.00000000000E+00  0.00000000000E+00 -0.21252070074E+04  0.21252070074E+04  0.25500000920E-02 0. -1.
    10030    2    1    2    0    0  0.00000000000E+00  0.00000000000E+00 -0.11413407663E+04  0.31090732485E+04  0.28920023720E+04 0.  0.
        5    1    3    3  502    0  0.47461338927E+03  0.13583537420E+04 -0.41669061964E+03  0.14980106542E+04  0.46999998093E+01 0. -1.
       -5    1    3    3    0  502 -0.47461338927E+03 -0.13583537420E+04 -0.72465014663E+03  0.16110625943E+04  0.46999998093E+01 0.  1.
</event>
<event>
 5   0  0.3638028E-07  0.2902668E+04  0.7818609E-02  0.8272084E-01
        1   -1    0    0  501    0  0.00000000000E+00  0.00000000000E+00  0.12920533464E+04  0.12920533464E+04  0.50400001928E-02 0. -1.
       -1   -1    0    0    0  501  0.00000000000E+00  0.00000000000E+00 -0.16302506152E+04  0.16302506152E+04  0.50400001928E-02 0.  1.
    10030    2    1    2    0    0  0.00000000000E+00  0.00000000000E+00 -0.33819726880E+03  0.29223039616E+04  0.29026682641E+04 0.  0.
        4    1    3    3  502    0  0.48904238474E+03 -0.83059282833E+03 -0.12614834581E+04  0.15875733143E+04  0.12699999809E+01 0.  1.
       -4    1    3    3    0  502 -0.48904238474E+03  0.83059282833E+03  0.92328618925E+03  0.13347306473E+04  0.12699999809E+01 0. -1.
</event>
<event>
 5   0  0.3786210E-07  0.2901920E+04  0.7818609E-02  0.8272307E-01
        1   -1    0    0  501    0  0.00000000000E+00  0.00000000000E+00  0.16954803889E+04  0.16954803889E+04  0.50400001928E-02 0.  1.
       -1   -1    0    0    0  501  0.00000000000E+00  0.00000000000E+00 -0.12417038660E+04  0.12417038660E+04  0.50400001928E-02 0. -1.
    10030    2    1    2    0    0  0.00000000000E+00  0.00000000000E+00  0.45377652284E+03  0.29371842549E+04  0.29019197464E+04 0.  0.
        5    1    3    3  502    0  0.69508903172E+03  0.12307976457E+04 -0.10458322748E+03  0.14173818639E+04  0.46999998093E+01 0.  1.
       -5    1    3    3    0  502 -0.69508903172E+03 -0.12307976457E+04  0.55835975032E+03  0.15198023910E+04  0.46999998093E+01 0. -1.
</event>
<event>
 5   0  0.9994311E-07  0.2905737E+04  0.7818609E-02  0.8271173E-01
       -2   -1    0    0    0  501  0.00000000000E+00  0.00000000000E+00  0.15088315739E+04  0.15088315739E+04  0.25500000920E-02 0. -1.
        2   -1    0    0  501    0  0.00000000000E+00  0.00000000000E+00 -0.13989807647E+04  0.13989807647E+04  0.25500000920E-02 0.  1.
    10030    2    1    2    0    0  0.00000000000E+00  0.00000000000E+00  0.10985080917E+03  0.29078123386E+04  0.29057366357E+04 0.  0.
        2    1    3    3  502    0  0.95118774259E+03 -0.10205649781E+04 -0.35096926000E+03  0.14385723540E+04  0.25500000920E-02 0.  1.
       -2    1    3    3    0  502 -0.95118774259E+03  0.10205649781E+04  0.46082006916E+03  0.14692399846E+04  0.25500000920E-02 0. -1.
</event>
<event>
 5   0  0.3770467E-07  0.2923510E+04  0.7818609E-02  0.8265917E-01
        1   -1    0    0  501    0  0.00000000000E+00  0.00000000000E+00  0.14017973501E+04  0.14017973501E+04  0.50400001928E-02 0. -1.
       -1   -1    0    0    0  501  0.00000000000E+00  0.00000000000E+00 -0.15242769641E+04  0.15242769641E+04  0.50400001928E-02 0.  1.
    10030    2    1    2    0    0  0.00000000000E+00  0.00000000000E+00 -0.12247961405E+03  0.29260743142E+04  0.29235098147E+04 0.  0.
        1    1    3    3  502    0 -0.12389792921E+04  0.61923676604E+03 -0.52877219541E+03  0.14826071271E+04  0.50400001928E-02 0.  1.
       -1    1    3    3    0  502  0.12389792921E+04 -0.61923676604E+03  0.40629258136E+03  0.14434671871E+04  0.50400001928E-02 0. -1.
</event>
<event>
 5   0  0.3885904E-07  0.2899410E+04  0.7818609E-02  0.8273053E-01
       -1   -1    0    0    0  501  0.00000000000E+00  0.00000000000E+00  0.13251088363E+04  0.13251088363E+04  0.50400001928E-02 0.  1.
        1   -1    0    0  501    0  0.00000000000E+00  0.00000000000E+00 -0.15860164726E+04  0.15860164727E+04  0.50400001928E-02 0. -1.
    10030    2    1    2    0    0  0.00000000000E+00  0.00000000000E+00 -0.26090763639E+03  0.29111253089E+04  0.28994099002E+04 0.  0.
        2    1    3    3  502    0  0.89851292951E+03  0.10434123211E+03  0.10070102629E+04  0.13536182057E+04  0.25500000920E-02 0.  1.
       -2    1    3    3    0  502 -0.89851292951E+03 -0.10434123211E+03 -0.12679178993E+04  0.15575071032E+04  0.25500000920E-02 0. -1.
</event>
<event>
 5   0  0.1031339E-06  0.2898649E+04  0.7818609E-02  0.8273279E-01
       -2   -1    0    0    0  501  0.00000000000E+00  0.00000000000E+00  0.97531284734E+03  0.97531284735E+03  0.25500000920E-02 0. -1.
        2   -1    0    0  501    0  0.00000000000E+00  0.00000000000E+00 -0.21537111295E+04  0.21537111295E+04  0.25500000920E-02 0.  1.
    10030    2    1    2    0    0  0.00000000000E+00  0.00000000000E+00 -0.11783982822E+04  0.31290239768E+04  0.28986494331E+04 0.  0.
        5    1    3    3  502    0 -0.72994512437E+03  0.12237416856E+04 -0.30327752615E+03  0.14568331907E+04  0.46999998093E+01 0. -1.
       -5    1    3    3    0  502  0.72994512437E+03 -0.12237416856E+04 -0.87512075601E+03  0.16721907861E+04  0.46999998093E+01 0.  1.
</event>
<event>
 5   0  0.1006893E-06  0.2907498E+04  0.7818609E-02  0.8270650E-01
       -2   -1    0    0    0  501  0.00000000000E+00  0.00000000000E+00  0.96574806961E+03  0.96574806962E+03  0.25500000920E-02 0. -1.
        2   -1    0    0  501    0  0.00000000000E+00  0.00000000000E+00 -0.21883412533E+04  0.21883412533E+04  0.25500000920E-02 0.  1.
    10030    2    1    2    0    0  0.00000000000E+00  0.00000000000E+00 -0.12225931836E+04  0.31540893229E+04  0.29074981279E+04 0.  0.
        4    1    3    3  502    0 -0.45732562185E+03 -0.60381713972E+02 -0.21068399172E+04  0.21567495741E+04  0.12699999809E+01 0.  1.
       -4    1    3    3    0  502  0.45732562185E+03  0.60381713972E+02  0.88424673355E+03  0.99733974877E+03  0.12699999809E+01 0. -1.
</event>
<event>
 5   0  0.3885904E-07  0.2897597E+04  0.7818609E-02  0.8273593E-01
       -1   -1    0    0    0  501  0.00000000000E+00  0.00000000000E+00  0.13250858746E+04  0.13250858746E+04  0.50400001928E-02 0. -1.
        1   -1    0    0  501    0  0.00000000000E+00  0.00000000000E+00 -0.15840611988E+04  0.15840611988E+04  0.50400001928E-02 0.  1.
    10030    2    1    2    0    0  0.00000000000E+00  0.00000000000E+00 -0.25897532425E+03  0.29091470734E+04  0.28975970175E+04 0.  0.
        2    1    3    3  502    0  0.46388315265E+03  0.78571695639E+03 -0.12593527415E+04  0.15551553113E+04  0.25500000920E-02 0.  1.
       -2    1    3    3    0  502 -0.46388315265E+03 -0.78571695639E+03  0.10003774172E+04  0.13539917621E+04  0.25500000920E-02 0. -1.
</event>
<event>
 5   0  0.3769563E-07  0.2898287E+04  0.7818609E-02  0.8273387E-01
       -1   -1    0    0    0  501  0.00000000000E+00  0.00000000000E+00  0.10445630850E+04  0.10445630850E+04  0.50400001928E-02 0.  1.
        1   -1    0    0  501    0  0.00000000000E+00  0.00000000000E+00 -0.20104257354E+04  0.20104257354E+04  0.50400001928E-02 0. -1.
    10030    2    1    2    0    0  0.00000000000E+00  0.00000000000E+00 -0.96586265041E+03  0.30549888204E+04  0.28982867410E+04 0.  0.
        3    1    3    3  502    0 -0.77335265091E+03 -0.11269524732E+04 -0.99055007592E+03  0.16879827199E+04  0.10100000352E+00 0. -1.
       -3    1    3    3    0  502  0.77335265091E+03  0.11269524732E+04  0.24687425511E+02  0.13670061005E+04  0.10100000352E+00 0.  1.
</event>
<event>
 5   0  0.3885904E-07  0.2889894E+04  0.7818609E-02  0.8275891E-01
        1   -1    0    0  501    0  0.00000000000E+00  0.00000000000E+00  0.12934668314E+04  0.12934668314E+04  0.50400001928E-02 0.  1.
       -1   -1    0    0    0  501  0.00000000000E+00  0.00000000000E+00 -0.16141677987E+04  0.16141677987E+04  0.50400001928E-02 0. -1.
    10030    2    1    2    0    0  0.00000000000E+00  0.00000000000E+00 -0.32070096730E+03  0.29076346301E+04  0.28898944672E+04 0.  0.
        2    1    3    3  502    0  0.12196327827E+04 -0.36877884491E+03  0.52528010100E+03  0.13781948866E+04  0.25500000920E-02 0.  1.
       -2    1    3    3    0  502 -0.12196327827E+04  0.36877884491E+03 -0.84598106830E+03  0.15294397435E+04  0.25500000920E-02 0. -1.
</event>
<event>
 5   0  0.9950999E-07  0.2899347E+04  0.7818609E-02  0.8273072E-01
       -2   -1    0    0    0  501  0.00000000000E+00  0.00000000000E+00  0.11112149669E+04  0.11112149669E+04  0.25500000920E-02 0.  1.
        2   -1    0    0  501    0  0.00000000000E+00  0.00000000000E+00 -0.18912206909E+04  0.18912206909E+04  0.25500000920E-02 0. -1.
    10030    2    1    2    0    0  0.00000000000E+00  0.00000000000E+00 -0.78000572405E+03  0.30024356578E+04  0.28993466419E+04 0.  0.
        3    1    3    3  502    0 -0.49423976048E+03  0.13503536817E+04 -0.19954860848E+03  0.14517395303E+04  0.10100000352E+00 0.  1.
       -3    1    3    3    0  502  0.49423976048E+03 -0.13503536817E+04 -0.58045711558E+03  0.15506961275E+04  0.10100000352E+00 0. -1.
</event>
<event>
 5   0  0.3786210E-07  0.2890321E+04  0.7818609E-02  0.8275763E-01
       -1   -1    0    0    0  501  0.00000000000E+00  0.00000000000E+00  0.14817359001E+04  0.14817359001E+04  0.50400001928E-02 0. -1.
        1   -1    0    0  501    0  0.00000000000E+00  0.00000000000E+00 -0.14094878049E+04  0.14094878049E+04  0.50400001928E-02 0.  1.
    10030    2    1    2    0    0  0.00000000000E+00  0.00000000000E+00  0.72248095177E+02  0.28912237050E+04  0.28903208688E+04 0.  0.
        5    1    3    3  502    0  0.14313336830E+03  0.95967760046E+03 -0.10351905702E+04  0.14188410286E+04  0.46999998093E+01 0.  1.
       -5    1    3    3    0  502 -0.14313336830E+03 -0.95967760046E+03  0.11074386654E+04  0.14723826763E+04  0.46999998093E+01 0. -1.
</event>
<event>
 5   0  0.3638028E-07  0.2905733E+04  0.7818609E-02  0.8271174E-01
        1   -1    0    0  501    0  0.00000000000E+00  0.00000000000E+00  0.18723246175E+04  0.18723246175E+04  0.50400001928E-02 0. -1.
       -1   -1    0    0    0  501  0.00000000000E+00  0.00000000000E+00 -0.11273794943E+04  0.11273794943E+04  0.50400001928E-02 0.  1.
    10030    2    1    2    0    0  0.00000000000E+00  0.00000000000E+00  0.74494512320E+03  0.29997041118E+04  0.29057325276E+04 0.  0.
        4    1    3    3  502    0  0.33887858573E+03 -0.88721821841E+03 -0.76254950033E+03  0.12179812052E+04  0.12699999809E+01 0.  1.
       -4    1    3    3    0  502 -0.33887858573E+03  0.88721821841E+03  0.15074946235E+04  0.17817229066E+04  0.12699999809E+01 0. -1.
</event>
<event>
 5   0  0.3769563E-07  0.2916421E+04  0.7818609E-02  0.8268008E-01
        1   -1    0    0  501    0  0.00000000000E+00  0.00000000000E+00  0.10497424172E+04  0.10497424172E+04  0.50400001928E-02 0. -1.
       -1   -1    0    0    0  501  0.00000000000E+00  0.00000000000E+00 -0.20256185979E+04  0.20256185979E+04  0.50400001928E-02 0.  1.
    10030    2    1    2    0    0  0.00000000000E+00  0.00000000000E+00 -0.97587618066E+03  0.30753610151E+04  0.29164209321E+04 0.  0.
        3    1    3    3  502    0 -0.78698569254E+03  0.87382120998E+03  0.42129863669E+03  0.12491607338E+04  0.10100000352E+00 0. -1.
       -3    1    3    3    0  502  0.78698569254E+03 -0.87382120998E+03 -0.13971748173E+04  0.18262002814E+04  0.10100000352E+00 0.  1.
</event>
<event>
 5   0  0.1063979E-06  0.2899531E+04  0.7818609E-02  0.8273017E-01
        2   -1    0    0  501    0  0.00000000000E+00  0.00000000000E+00  0.19434941376E+04  0.19434941376E+04  0.25500000920E-02 0.  1.
       -2   -1    0    0    0  501  0.00000000000E+00  0.00000000000E+00 -0.10814648228E+04  0.10814648228E+04  0.25500000920E-02 0. -1.
    10030    2    1    2    0    0  0.00000000000E+00  0.00000000000E+00  0.86202931475E+03  0.30249589604E+04  0.28995313712E+04 0.  0.
        1    1    3    3  502    0  0.11234832319E+04  0.78730608268E+03 -0.58044234219E+02  0.13731112750E+04  0.50400001928E-02 0. -1.
       -1    1    3    3    0  502 -0.11234832319E+04 -0.78730608268E+03  0.92007354897E+03  0.16518476854E+04  0.50400001928E-02 0.  1.
</event>
<event>
 5   0  0.3770467E-07  0.2905904E+04  0.7818609E-02  0.8271123E-01
        1   -1    0    0  501    0  0.00000000000E+00  0.00000000000E+00  0.11328871792E+04  0.11328871792E+04  0.50400001928E-02 0.  1.
       -1   -1    0    0    0  501  0.00000000000E+00  0.00000000000E+00 -0.18634418884E+04  0.18634418884E+04  0.50400001928E-02 0. -1.
    10030    2    1    2    0    0  0.00000000000E+00  0.00000000000E+00 -0.73055470915E+03  0.29963290676E+04  0.29059039382E+04 0.  0.
        1    1    3    3  502    0 -0.12115637292E+04  0.45587635941E+03  0.31507245324E+03  0.13322839697E+04  0.50400001928E-02 0.  1.
       -1    1    3    3    0  502  0.12115637292E+04 -0.45587635941E+03 -0.10456271624E+04  0.16640450979E+04  0.50400001928E-02 0. -1.
</event>
<event>
 5   0  0.9950999E-07  0.2898788E+04  0.7818609E-02  0.8273238E-01
        2   -1    0    0  501    0  0.00000000000E+00  0.00000000000E+00  0.18533691969E+04  0.18533691969E+04  0.25500000920E-02 0. -1.
       -2   -1    0    0    0  501  0.00000000000E+00  0.00000000000E+00 -0.11334727780E+04  0.11334727780E+04  0.25500000920E-02 0.  1.
    10030    2    1    2    0    0  0.00000000000E+00  0.00000000000E+00  0.71989641886E+03  0.29868419749E+04  0.28987883899E+04 0.  0.
        3    1    3    3  502    0  0.13331751531E+03  0.12263979376E+04  0.11439269431E+04  0.16823775803E+04  0.10100000352E+00 0. -1.
       -3    1    3    3    0  502 -0.13331751531E+03 -0.12263979376E+04 -0.42403052420E+03  0.13044643947E+04  0.10100000352E+00 0.  1.
</event>
<event>
 5   0  0.9950999E-07  0.2900396E+04  0.7818609E-02  0.8272760E-01
       -2   -1    0    0    0  501  0.00000000000E+00  0.00000000000E+00  0.12206918982E+04  0.12206918982E+04  0.25500000920E-02 0. -1.
        2   -1    0    0  501    0  0.00000000000E+00  0.00000000000E+00 -0.17228546921E+04  0.17228546921E+04  0.25500000920E-02 0.  1.
    10030    2    1    2    0    0  0.00000000000E+00  0.00000000000E+00 -0.50216279385E+03  0.29435465903E+04  0.29003963622E+04 0.  0.
        3    1    3    3  502    0 -0.66239077339E+03 -0.69606527013E+03 -0.13534299298E+04  0.16598316126E+04  0.10100000352E+00 0.  1.
       -3    1    3    3    0  502  0.66239077339E+03  0.69606527013E+03  0.85126713598E+03  0.12837149777E+04  0.10100000352E+00 0. -1.
</event>
<event>
 5   0  0.1006893E-06  0.2901860E+04  0.7818609E-02  0.8272324E-01
        2   -1    0    0  501    0  0.00000000000E+00  0.00000000000E+00  0.19398633035E+04  0.19398633035E+04  0.25500000920E-02 0.  1.
       -2   -1    0    0    0  501  0.00000000000E+00  0.00000000000E+00 -0.10852298939E+04  0.10852298939E+04  0.25500000920E-02 0. -1.
    10030    2    1    2    0    0  0.00000000000E+00  0.00000000000E+00  0.85463340962E+03  0.30250931974E+04  0.29018598498E+04 0.  0.
        4    1    3    3  502    0 -0.11047753864E+04  0.14319866577E+02 -0.55308034007E+03  0.12355699852E+04  0.12699999809E+01 0.  1.
       -4    1    3    3    0  502  0.11047753864E+04 -0.14319866577E+02  0.14077137497E+04  0.17895232122E+04  0.12699999809E+01 0. -1.
</event>
<event>
 5   0  0.3769563E-07  0.2898649E+04  0.7818609E-02  0.8273279E-01
        1   -1    0    0  501    0  0.00000000000E+00  0.00000000000E+00  0.15433263795E+04  0.15433263795E+04  0.50400001928E-02 0.  1.
       -1   -1    0    0    0  501  0.00000000000E+00  0.00000000000E+00 -0.13610483672E+04  0.13610483672E+04  0.50400001928E-02 0. -1.
    10030    2    1    2    0    0  0.00000000000E+00  0.00000000000E+00  0.18227801224E+03  0.29043747467E+04  0.28986492364E+04 0.  0.
        3    1    3    3  502    0  0.12714999562E+04 -0.27631905041E+02  0.78754147609E+03  0.14958934613E+04  0.10100000352E+00 0.  1.
       -3    1    3    3    0  502 -0.12714999562E+04  0.27631905041E+02 -0.60526346384E+03  0.14084812855E+04  0.10100000352E+00 0. -1.
</event>
<event>
 5   0  0.1006893E-06  0.2899379E+04  0.7818609E-02  0.8273062E-01
        2   -1    0    0  501    0  0.00000000000E+00  0.00000000000E+00  0.11563109066E+04  0.11563109066E+04  0.25500000920E-02 0. -1.
       -2   -1    0    0    0  501  0.00000000000E+00  0.00000000000E+00 -0.18175041805E+04  0.18175041805E+04  0.25500000920E-02 0.  1.
    10030    2    1    2    0    0  0.00000000000E+00  0.00000000000E+00 -0.66119327396E+03  0.29738150871E+04  0.28993791796E+04 0.  0.
        4    1    3    3  502    0 -0.11369098231E+04  0.57677529610E+03 -0.10385076803E+04  0.16443033489E+04  0.12699999809E+01 0.  1.
       -4    1    3    3    0  502  0.11369098231E+04 -0.57677529610E+03  0.37731440634E+03  0.13295117383E+04  0.12699999809E+01 0. -1.
</event>
<event>
 5   0  0.3786210E-07  0.2897586E+04  0.7818609E-02  0.8273596E-01
       -1   -1    0    0    0  501  0.00000000000E+00  0.00000000000E+00  0.15296947442E+04  0.15296947442E+04  0.50400001928E-02 0. -1.
        1   -1    0    0  501    0  0.00000000000E+00  0.00000000000E+00 -0.13721699498E+04  0.13721699498E+04  0.50400001928E-02 0.  1.
    10030    2    1    2    0    0  0.00000000000E+00  0.00000000000E+00  0.15752479437E+03  0.29018646940E+04  0.28975860024E+04 0.  0.
        5    1    3    3  502    0  0.12583753995E+02 -0.12797798151E+04  0.75872325294E+03  0.14878433354E+04  0.46999998093E+01 0. -1.
       -5    1    3    3    0  502 -0.12583753995E+02  0.12797798151E+04 -0.60119845857E+03  0.14140213586E+04  0.46999998093E+01 0.  1.
</event>
<event>
 5   0  0.1063979E-06  0.2910827E+04  0.7818609E-02  0.8269663E-01
        2   -1    0    0  501    0  0.00000000000E+00  0.00000000000E+00  0.76738376544E+03  0.76738376544E+03  0.25500000920E-02 0.  1.
       -2   -1    0    0    0  501  0.00000000000E+00  0.00000000000E+00 -0.27603257435E+04  0.27603257435E+04  0.25500000920E-02 0. -1.
    10030    2    1    2    0    0  0.00000000000E+00  0.00000000000E+00 -0.19929419781E+04  0.35277095090E+04  0.29108274857E+04 0.  0.
        1    1    3    3  502    0 -0.10974454174E+04  0.65290933580E+03 -0.18426979779E+04  0.22419216942E+04  0.50400001928E-02 0. -1.
       -1    1    3    3    0  502  0.10974454174E+04 -0.65290933580E+03 -0.15024400019E+03  0.12857878148E+04  0.50400001928E-02 0.  1.
</event>
<event>
 5   0  0.3885904E-07  0.2899310E+04  0.7818609E-02  0.8273083E-01
       -1   -1    0    0    0  501  0.00000000000E+00  0.00000000000E+00  0.16268692360E+04  0.16268692360E+04  0.50400001928E-02 0. -1.
        1   -1    0    0  501    0  0.00000000000E+00  0.00000000000E+00 -0.12917444356E+04  0.12917444356E+04  0.50400001928E-02 0.  1.
    10030    2    1    2    0    0  0.00000000000E+00  0.00000000000E+00  0.33512480040E+03  0.29186136716E+04  0.28993097683E+04 0.  0.
        2    1    3    3  502    0 -0.53900559666E+03 -0.13111911409E+04 -0.13735705093E+03  0.14242949837E+04  0.25500000920E-02 0.  1.
       -2    1    3    3    0  502  0.53900559666E+03  0.13111911409E+04  0.47248185133E+03  0.14943186879E+04  0.25500000920E-02 0. -1.
</event>
<event>
 5   0  0.1031339E-06  0.2894396E+04  0.7818609E-02  0.8274547E-01
       -2   -1    0    0    0  501  0.00000000000E+00  0.00000000000E+00  0.10882326481E+04  0.10882326481E+04  0.25500000920E-02 0.  1.
        2   -1    0    0  501    0  0.00000000000E+00  0.00000000000E+00 -0.19245720989E+04  0.19245720989E+04  0.25500000920E-02 0. -1.
    10030    2    1    2    0    0  0.00000000000E+00  0.00000000000E+00 -0.83633945074E+03  0.30128047470E+04  0.28943960971E+04 0.  0.
        5    1    3    3  502    0 -0.40957226909E+03  0.80471961889E+02  0.10242076320E+04  0.11060056707E+04  0.46999998093E+01 0.  1.
       -5    1    3    3    0  502  0.40957226909E+03 -0.80471961889E+02 -0.18605470827E+04  0.19067990763E+04  0.46999998093E+01 0. -1.
</event>
<event>
 5   0  0.3769563E-07  0.2911987E+04  0.7818609E-02  0.8269320E-01
       -1   -1    0    0    0  501  0.00000000000E+00  0.00000000000E+00  0.95173793316E+03  0.95173793317E+03  0.50400001928E-02 0.  1.
        1   -1    0    0  501    0  0.00000000000E+00  0.00000000000E+00 -0.22274174517E+04  0.22274174517E+04  0.50400001928E-02 0. -1.
    10030    2    1    2    0    0  0.00000000000E+00  0.00000000000E+00 -0.12756795185E+04  0.31791553848E+04  0.29119874188E+04 0.  0.
        3    1    3    3  502    0 -0.68327672022E+03  0.55044930499E+03  0.63068274964E+03  0.10805657105E+04  0.10100000352E+00 0.  1.
       -3    1    3    3    0  502  0.68327672022E+03 -0.55044930499E+03 -0.19063622681E+04  0.20985896744E+04  0.10100000352E+00 0. -1.
</event>
<event>
 5   0  0.3769563E-07  0.2922643E+04  0.7818609E-02  0.8266172E-01
        1   -1    0    0  501    0  0.00000000000E+00  0.00000000000E+00  0.11597344530E+04  0.11597344530E+04  0.50400001928E-02 0. -1.
       -1   -1    0    0    0  501  0.00000000000E+00  0.00000000000E+00 -0.18413360746E+04  0.18413360746E+04  0.50400001928E-02 0.  1.
    10030    2    1    2    0    0  0.00000000000E+00  0.00000000000E+00 -0.68160162157E+03  0.30010705276E+04  0.29226432456E+04 0.  0.
        3    1    3    3  502    0  0.57312144750E+03 -0.10413797360E+04 -0.12136226631E+04  0.16987701218E+04  0.10100000352E+00 0.  1.
       -3    1    3    3    0  502 -0.57312144750E+03  0.10413797360E+04  0.53202104150E+03  0.13023004058E+04  0.10100000352E+00 0. -1.
</event>
<event>
 5   0  0.3378750E-07  0.2891297E+04  0.7818609E-02  0.8275471E-01
       -3   -1    0    0    0  501  0.00000000000E+00  0.00000000000E+00  0.16020382338E+04  0.16020382369E+04  0.10100000352E+00 0.  1.
        3   -1    0    0  501    0  0.00000000000E+00  0.00000000000E+00 -0.13045258488E+04  0.13045258527E+04  0.10100000352E+00 0. -1.
    10030    2    1    2    0    0  0.00000000000E+00  0.00000000000E+00  0.29751238497E+03  0.29065640896E+04  0.28912974921E+04 0.  0.
        3    1    3    3  502    0 -0.10572433212E+04  0.94369447648E+03 -0.13836981857E+03  0.14238921736E+04  0.10100000352E+00 0. -1.
       -3    1    3    3    0  502  0.10572433212E+04 -0.94369447648E+03  0.43588220354E+03  0.14826719161E+04  0.10100000352E+00 0.  1.
</event>
<event>
 5   0  0.3769563E-07  0.2899157E+04  0.7818609E-02  0.8273128E-01
        1   -1    0    0  501    0  0.00000000000E+00  0.00000000000E+00  0.17982269777E+04  0.17982269777E+04  0.50400001928E-02 0.  1.
       -1   -1    0    0    0  501  0.00000000000E+00  0.00000000000E+00 -0.11685276078E+04  0.11685276078E+04  0.50400001928E-02 0. -1.
    10030    2    1    2    0    0  0.00000000000E+00  0.00000000000E+00  0.62969936992E+03  0.29667545855E+04  0.28991570282E+04 0.  0.
        3    1    3    3  502    0 -0.94453890721E+03 -0.15176983568E+03 -0.79962115778E+03  0.12468287117E+04  0.10100000352E+00 0. -1.
       -3    1    3    3    0  502  0.94453890721E+03  0.15176983568E+03  0.14293205277E+04  0.17199258738E+04  0.10100000352E+00 0.  1.
</event>
<event>
 5   0  0.3885904E-07  0.2907361E+04  0.7818609E-02  0.8270691E-01
        1   -1    0    0  501    0  0.00000000000E+00  0.00000000000E+00  0.16259670010E+04  0.16259670010E+04  0.50400001928E-02 0.  1.
       -1   -1    0    0    0  501  0.00000000000E+00  0.00000000000E+00 -0.12996495024E+04  0.12996495024E+04  0.50400001928E-02 0. -1.
    10030    2    1    2    0    0  0.00000000000E+00  0.00000000000E+00  0.32631749861E+03  0.29256165033E+04  0.29073611428E+04 0.  0.
        2    1    3    3  502    0  0.13136959343E+04  0.18196073406E+03 -0.43579326803E+03  0.13960023241E+04  0.25500000920E-02 0. -1.
       -2    1    3    3    0  502 -0.13136959343E+04 -0.18196073406E+03  0.76211076664E+03  0.15296141792E+04  0.25500000920E-02 0.  1.
</event>
<event>
 5   0  0.3786210E-07  0.2887672E+04  0.7818609E-02  0.8276555E-01
       -1   -1    0    0    0  501  0.00000000000E+00  0.00000000000E+00  0.86935690285E+03  0.86935690286E+03  0.50400001928E-02 0. -1.
        1   -1    0    0  501    0  0.00000000000E+00  0.00000000000E+00 -0.23979358181E+04  0.23979358181E+04  0.50400001928E-02 0.  1.
    10030    2    1    2    0    0  0.00000000000E+00  0.00000000000E+00 -0.15285789152E+04  0.32672927209E+04  0.28876717653E+04 0.  0.
        5    1    3    3  502    0 -0.76434007101E+03 -0.52692917766E+03  0.48686976629E+03  0.10483007020E+04  0.46999998093E+01 0. -1.
       -5    1    3    3    0  502  0.76434007101E+03  0.52692917766E+03 -0.20154486815E+04  0.22189920189E+04  0.46999998093E+01 0.  1.
</event>
<event>
 5   0  0.1031339E-06  0.2892468E+04  0.7818609E-02  0.8275122E-01
        2   -1    0    0  501    0  0.00000000000E+00  0.00000000000E+00  0.10819766309E+04  0.10819766309E+04  0.25500000920E-02 0. -1.
       -2   -1    0    0    0  501  0.00000000000E+00  0.00000000000E+00 -0.19331221970E+04  0.19331221970E+04  0.25500000920E-02 0.  1.
    10030    2    1    2    0    0  0.00000000000E+00  0.00000000000E+00 -0.85114556612E+03  0.30150988279E+04  0.28924681791E+04 0.  0.
        5    1    3    3  502    0 -0.10899139229E+04  0.44073857417E+03  0.45239996137E+03  0.12597026098E+04  0.46999998093E+01 0.  1.
       -5    1    3    3    0  502  0.10899139229E+04 -0.44073857417E+03 -0.13035455275E+04  0.17553962181E+04  0.46999998093E+01 0. -1.
</event>
<event>
 5   0  0.3786210E-07  0.2899585E+04  0.7818609E-02  0.8273001E-01
        1   -1    0    0  501    0  0.00000000000E+00  0.00000000000E+00  0.18384918860E+04  0.18384918860E+04  0.50400001928E-02 0. -1.
       -1   -1    0    0    0  501  0.00000000000E+00  0.00000000000E+00 -0.11432732203E+04  0.11432732203E+04  0.50400001928E-02 0.  1.
    10030    2    1    2    0    0  0.00000000000E+00  0.00000000000E+00  0.69521866567E+03  0.29817651063E+04  0.28995851696E+04 0.  0.
        5    1    3    3  502    0  0.11298344817E+04 -0.89572480319E+03  0.50365855697E+03  0.15272664833E+04  0.46999998093E+01 0.  1.
       -5    1    3    3    0  502 -0.11298344817E+04  0.89572480319E+03  0.19156010870E+03  0.14544986230E+04  0.46999998093E+01 0. -1.
</event>
<event>
 5   0  0.1063979E-06  0.2908197E+04  0.7818609E-02  0.8270443E-01
        2   -1    0    0  501    0  0.00000000000E+00  0.00000000000E+00  0.21837869238E+04  0.21837869238E+04  0.25500000920E-02 0.  1.
       -2   -1    0    0    0  501  0.00000000000E+00  0.00000000000E+00 -0.96822766627E+03  0.96822766628E+03  0.25500000920E-02 0. -1.
    10030    2    1    2    0    0  0.00000000000E+00  0.00000000000E+00  0.12155592575E+04  0.31520145901E+04  0.29081973227E+04 0.  0.
        1    1    3    3  502    0  0.11223284078E+04 -0.73864164930E+03  0.51127387414E+01  0.13435917093E+04  0.50400001928E-02 0.  1.
       -1    1    3    3    0  502 -0.11223284078E+04  0.73864164930E+03  0.12104465188E+04  0.18084228808E+04  0.50400001928E-02 0. -1.
</event>
<event>
 5   0  0.3770467E-07  0.2894613E+04  0.7818609E-02  0.8274482E-01
       -1   -1    0    0    0  501  0.00000000000E+00  0.00000000000E+00  0.13406728727E+04  0.13406728727E+04  0.50400001928E-02 0.  1.
        1   -1    0    0  501    0  0.00000000000E+00  0.00000000000E+00 -0.15624216470E+04  0.15624216470E+04  0.50400001928E-02 0. -1.
    10030    2    1    2    0    0  0.00000000000E+00  0.00000000000E+00 -0.22174877435E+03  0.29030945197E+04  0.28946131471E+04 0.  0.
        1    1    3    3  502    0  0.22263756766E+03  0.49448282811E+03 -0.14566763132E+04  0.15543444391E+04  0.50400001928E-02 0. -1.
       -1    1    3    3    0  502 -0.22263756766E+03 -0.49448282811E+03  0.12349275388E+04  0.13487500806E+04  0.50400001928E-02 0.  1.
</event>
<event>
 5   0  0.1006893E-06  0.2893642E+04  0.7818609E-02  0.8274772E-01
        2   -1    0    0  501    0  0.00000000000E+00  0.00000000000E+00  0.19787497053E+04  0.19787497053E+04  0.25500000920E-02 0. -1.
       -2   -1    0    0    0  501  0.00000000000E+00  0.00000000000E+00 -0.10578857883E+04  0.10578857883E+04  0.25500000920E-02 0.  1.
    10030    2    1    2    0    0  0.00000000000E+00  0.00000000000E+00  0.92086391707E+03  0.30366354936E+04  0.28936421284E+04 0.  0.
        4    1    3    3  502    0  0.48975328043E+03 -0.13592036938E+04  0.37916740006E+03  0.14936741569E+04  0.12699999809E+01 0. -1.
       -4    1    3    3    0  502 -0.48975328043E+03  0.13592036938E+04  0.54169651701E+03  0.15429613366E+04  0.12699999809E+01 0.  1.
</event>
<event>
 5   0  0.9950999E-07  0.2899666E+04  0.7818609E-02  0.8272977E-01
       -2   -1    0    0    0  501  0.00000000000E+00  0.00000000000E+00  0.98072014308E+03  0.98072014308E+03  0.25500000920E-02 0.  1.
        2   -1    0    0  501    0  0.00000000000E+00  0.00000000000E+00 -0.21433396394E+04  0.21433396394E+04  0.25500000920E-02 0. -1.
    10030    2    1    2    0    0  0.00000000000E+00  0.00000000000E+00 -0.11626194963E+04  0.31240597825E+04  0.28996664345E+04 0.  0.
        3    1    3    3  502    0 -0.14144048038E+04 -0.30181648875E+03 -0.69108794954E+03  0.16028838717E+04  0.10100000352E+00 0. -1.
       -3    1    3    3    0  502  0.14144048038E+04  0.30181648875E+03 -0.47153154677E+03  0.15211759108E+04  0.10100000352E+00 0.  1.
</event>
<event>
 5   0  0.3769563E-07  0.2886719E+04  0.7818609E-02  0.8276840E-01
        1   -1    0    0  501    0  0.00000000000E+00  0.00000000000E+00  0.23043351510E+04  0.23043351510E+04  0.50400001928E-02 0. -1.
       -1   -1    0    0    0  501  0.00000000000E+00  0.00000000000E+00 -0.90407290560E+03  0.90407290562E+03  0.50400001928E-02 0.  1.
    10030    2    1    2    0    0  0.00000000000E+00  0.00000000000E+00  0.14002622454E+04  0.32084080566E+04  0.28867192281E+04 0.  0.
        3    1    3    3  502    0  0.31628441640E+03 -0.14081614292E+04  0.72039840832E+03  0.16130493854E+04  0.10100000352E+00 0.  1.
       -3    1    3    3    0  502 -0.31628441640E+03  0.14081614292E+04  0.67986383710E+03  0.15953586713E+04  0.10100000352E+00 0. -1.
</event>
<event>
 5   0  0.3786210E-07  0.2887571E+04  0.7818609E-02  0.8276585E-01
       -1   -1    0    0    0  501  0.00000000000E+00  0.00000000000E+00  0.23069437755E+04  0.23069437756E+04  0.50400001928E-02 0. -1.
        1   -1    0    0  501    0  0.00000000000E+00  0.00000000000E+00 -0.90358379393E+03  0.90358379395E+03  0.50400001928E-02 0.  1.
    10030    2    1    2    0    0  0.00000000000E+00  0.00000000000E+00  0.14033599816E+04  0.32105275695E+04  0.28875713041E+04 0.  0.
        5    1    3    3  502    0 -0.45489490486E+03 -0.11394779393E+04  0.15478181968E+04  0.19751209099E+04  0.46999998093E+01 0. -1.
       -5    1    3    3    0  502  0.45489490486E+03  0.11394779393E+04 -0.14445821518E+03  0.12354066596E+04  0.46999998093E+01 0.  1.
</event>
<event>
 5   0  0.3638028E-07  0.2893096E+04  0.7818609E-02  0.8274934E-01
       -1   -1    0    0    0  501  0.00000000000E+00  0.00000000000E+00  0.93732267217E+03  0.93732267218E+03  0.50400001928E-02 0.  1.
        1   -1    0    0  501    0  0.00000000000E+00  0.00000000000E+00 -0.22324241691E+04  0.22324241691E+04  0.50400001928E-02 0. -1.
    10030    2    1    2    0    0  0.00000000000E+00  0.00000000000E+00 -0.12951014970E+04  0.31697468413E+04  0.28930964641E+04 0.  0.
        4    1    3    3  502    0  0.66521432857E+03  0.84581236760E+03 -0.17067375956E+04  0.20176380987E+04  0.12699999809E+01 0. -1.
       -4    1    3    3    0  502 -0.66521432857E+03 -0.84581236760E+03  0.41163609868E+03  0.11521087426E+04  0.12699999809E+01 0.  1.
</event>
<event>
 5   0  0.9950999E-07  0.2911450E+04  0.7818609E-02  0.8269479E-01
       -2   -1    0    0    0  501  0.00000000000E+00  0.00000000000E+00  0.96472498790E+03  0.96472498790E+03  0.25500000920E-02 0.  1.
        2   -1    0    0  501    0  0.00000000000E+00  0.00000000000E+00 -0.21966211449E+04  0.21966211449E+04  0.25500000920E-02 0. -1.
    10030    2    1    2    0    0  0.00000000000E+00  0.00000000000E+00 -0.12318961570E+04  0.31613461328E+04  0.29114500218E+04 0.  0.
        3    1    3    3  502    0  0.83343052796E+03  0.57598083787E+03  0.51913610044E+03  0.11383596407E+04  0.10100000352E+00 0.  1.
       -3    1    3    3    0  502 -0.83343052796E+03 -0.57598083787E+03 -0.17510322574E+04  0.20229864921E+04  0.10100000352E+00 0. -1.
</event>
<event>
 5   0  0.9994311E-07  0.2927945E+04  0.7818609E-02  0.8264611E-01
        2   -1    0    0  501    0  0.00000000000E+00  0.00000000000E+00  0.15681840348E+04  0.15681840348E+04  0.25500000920E-02 0.  1.
       -2   -1    0    0    0  501  0.00000000000E+00  0.00000000000E+00 -0.13666862613E+04  0.13666862613E+04  0.25500000920E-02 0. -1.
    10030    2    1    2    0    0  0.00000000000E+00  0.00000000000E+00  0.20149777351E+03  0.29348702961E+04  0.29279450647E+04 0.  0.
        2    1    3    3  502    0  0.18188603443E+03  0.45306116965E+03  0.14841830709E+04  0.15624168269E+04  0.25500000920E-02 0.  1.
       -2    1    3    3    0  502 -0.18188603443E+03 -0.45306116965E+03 -0.12826852974E+04  0.13724534692E+04  0.25500000920E-02 0. -1.
</event>
<event>
 5   0  0.9950999E-07  0.2900544E+04  0.7818609E-02  0.8272716E-01
       -2   -1    0    0    0  501  0.00000000000E+00  0.00000000000E+00  0.14276421720E+04  0.14276421720E+04  0.25500000920E-02 0. -1.
        2   -1    0    0  501    0  0.00000000000E+00  0.00000000000E+00 -0.14732602417E+04  0.14732602417E+04  0.25500000920E-02 0.  1.
    10030    2    1    2    0    0  0.00000000000E+00  0.00000000000E+00 -0.45618069743E+02  0.29009024137E+04  0.29005437086E+04 0.  0.
        3    1    3    3  502    0  0.30332356013E+03 -0.12528895665E+03 -0.14356358283E+04  0.14726685799E+04  0.10100000352E+00 0.  1.
       -3    1    3    3    0  502 -0.30332356013E+03  0.12528895665E+03  0.13900177585E+04  0.14282338338E+04  0.10100000352E+00 0. -1.
</event>
<event>
 5   0  0.9994311E-07  0.2893221E+04  0.7818609E-02  0.8274897E-01
       -2   -1    0    0    0  501  0.00000000000E+00  0.00000000000E+00  0.92116747897E+03  0.92116747897E+03  0.25500000920E-02 0. -1.
        2   -1    0    0  501    0  0.00000000000E+00  0.00000000000E+00 -0.22717713459E+04  0.22717713459E+04  0.25500000920E-02 0.  1.
    10030    2    1    2    0    0  0.00000000000E+00  0.00000000000E+00 -0.13506038669E+04  0.31929388249E+04  0.28932209618E+04 0.  0.
        2    1    3    3  502    0 -0.10969595295E+04  0.83846588180E+03 -0.11516869834E+04  0.17979789076E+04  0.25500000920E-02 0.  1.
       -2    1    3    3    0  502  0.10969595295E+04 -0.83846588180E+03 -0.19891688347E+03  0.13949599173E+04  0.25500000920E-02 0. -1.
</event>
<event>
 5   0  0.9950999E-07  0.2912281E+04  0.7818609E-02  0.8269233E-01
       -2   -1    0    0    0  501  0.00000000000E+00  0.00000000000E+00  0.89022933043E+03  0.89022933043E+03  0.25500000920E-02 0. -1.
        2   -1    0    0  501    0  0.00000000000E+00  0.00000000000E+00 -0.23817958841E+04  0.23817958841E+04  0.25500000920E-02 0.  1.
    10030    2    1    2    0    0  0.00000000000E+00  0.00000000000E+00 -0.14915665537E+04  0.32720252145E+04  0.29122805875E+04 0.  0.
        3    1    3    3  502    0 -0.61879713862E+01 -0.55360053416E+03  0.76736692554E+03  0.94623667812E+03  0.10100000352E+00 0. -1.
       -3    1    3    3    0  502  0.61879713862E+01  0.55360053416E+03 -0.22589334792E+04  0.23257885364E+04  0.10100000352E+00 0.  1.
</event>
<event>
 5   0  0.1031339E-06  0.2898570E+04  0.7818609E-02  0.8273303E-01
       -2   -1    0    0    0  501  0.00000000000E+00  0.00000000000E+00  0.12751541520E+04  0.12751541520E+04  0.25500000920E-02 0. -1.
        2   -1    0    0  501    0  0.00000000000E+00  0.00000000000E+00 -0.16471945529E+04  0.16471945529E+04  0.25500000920E-02 0.  1.
    10030    2    1    2    0    0  0.00000000000E+00  0.00000000000E+00 -0.37204040095E+03  0.29223487049E+04  0.28985699738E+04 0.  0.
        5    1    3    3  502    0 -0.10475855634E+04  0.10012756896E+04 -0.20659259664E+03  0.14637933974E+04  0.46999998093E+01 0.  1.
       -5    1    3    3    0  502  0.10475855634E+04 -0.10012756896E+04 -0.16544780431E+03  0.14585553076E+04  0.46999998093E+01 0. -1.
</event>
<event>
 5   0  0.1006893E-06  0.2901293E+04  0.7818609E-02  0.8272493E-01
       -2   -1    0    0    0  501  0.00000000000E+00  0.00000000000E+00  0.10913669141E+04  0.10913669141E+04  0.25500000920E-02 0. -1.
        2   -1    0    0  501    0  0.00000000000E+00  0.00000000000E+00 -0.19282010373E+04  0.19282010373E+04  0.25500000920E-02 0.  1.
    10030    2    1    2    0    0  0.00000000000E+00  0.00000000000E+00 -0.83683412322E+03  0.30195679514E+04  0.29012926883E+04 0.  0.
        4    1    3    3  502    0 -0.10665425454E+04 -0.12019101193E+03  0.59728473961E+03  0.12282953853E+04  0.12699999809E+01 0. -1.
       -4    1    3    3    0  502  0.10665425454E+04  0.12019101193E+03 -0.14341188628E+04  0.17912725661E+04  0.12699999809E+01 0.  1.
</event>
<event>
 5   0  0.1006893E-06  0.2904476E+04  0.7818609E-02  0.8271547E-01
       -2   -1    0    0    0  501  0.00000000000E+00  0.00000000000E+00  0.13885615068E+04  0.13885615068E+04  0.25500000920E-02 0. -1.
        2   -1    0    0  501    0  0.00000000000E+00  0.00000000000E+00 -0.15188349719E+04  0.15188349719E+04  0.25500000920E-02 0.  1.
    10030    2    1    2    0    0  0.00000000000E+00  0.00000000000E+00 -0.13027346509E+03  0.29073964787E+04  0.29044763915E+04 0.  0.
        4    1    3    3  502    0 -0.94118329053E+03 -0.98178879660E+03  0.44454993944E+03  0.14308604017E+04  0.12699999809E+01 0. -1.
       -4    1    3    3    0  502  0.94118329053E+03  0.98178879660E+03 -0.57482340453E+03  0.14765360770E+04  0.12699999809E+01 0.  1.
</event>
<event>
 5   0  0.3770467E-07  0.2958978E+04  0.7818609E-02  0.8255543E-01
       -1   -1    0    0    0  501  0.00000000000E+00  0.00000000000E+00  0.13190659892E+04  0.13190659892E+04  0.50400001928E-02 0. -1.
        1   -1    0    0  501    0  0.00000000000E+00  0.00000000000E+00 -0.16594218980E+04  0.16594218980E+04  0.50400001928E-02 0.  1.
    10030    2    1    2    0    0  0.00000000000E+00  0.00000000000E+00 -0.34035590880E+03  0.29784878871E+04  0.29589775175E+04 0.  0.
        1    1    3    3  502    0  0.77794522560E+03 -0.18810120363E+03 -0.14226919644E+04  0.16323704427E+04  0.50400001928E-02 0.  1.
       -1    1    3    3    0  502 -0.77794522560E+03  0.18810120363E+03  0.10823360556E+04  0.13461174444E+04  0.50400001928E-02 0. -1.
</event>
<event>
 5   0  0.9994311E-07  0.2901131E+04  0.7818609E-02  0.8272541E-01
        2   -1    0    0  501    0  0.00000000000E+00  0.00000000000E+00  0.11832200071E+04  0.11832200071E+04  0.25500000920E-02 0. -1.
       -2   -1    0    0    0  501  0.00000000000E+00  0.00000000000E+00 -0.17783164366E+04  0.17783164366E+04  0.25500000920E-02 0.  1.
    10030    2    1    2    0    0  0.00000000000E+00  0.00000000000E+00 -0.59509642950E+03  0.29615364437E+04  0.29011305292E+04 0.  0.
        2    1    3    3  502    0  0.46934956044E+03 -0.11019413010E+04 -0.11328621639E+04  0.16486177007E+04  0.25500000920E-02 0. -1.
       -2    1    3    3    0  502 -0.46934956044E+03  0.11019413010E+04  0.53776573435E+03  0.13129187430E+04  0.25500000920E-02 0.  1.
</event>
<event>
 5   0  0.3786210E-07  0.2888408E+04  0.7818609E-02  0.8276335E-01
       -1   -1    0    0    0  501  0.00000000000E+00  0.00000000000E+00  0.13086609626E+04  0.13086609626E+04  0.50400001928E-02 0.  1.
        1   -1    0    0  501    0  0.00000000000E+00  0.00000000000E+00 -0.15937856512E+04  0.15937856512E+04  0.50400001928E-02 0. -1.
    10030    2    1    2    0    0  0.00000000000E+00  0.00000000000E+00 -0.28512468857E+03  0.29024466138E+04  0.28884079105E+04 0.  0.
        5    1    3    3  502    0 -0.18287580146E+03  0.50955970048E+03  0.12028283496E+04  0.13190575331E+04  0.46999998093E+01 0.  1.
       -5    1    3    3    0  502  0.18287580146E+03 -0.50955970048E+03 -0.14879530381E+04  0.15833890807E+04  0.46999998093E+01 0. -1.
</event>
<event>
 5   0  0.3638028E-07  0.2903339E+04  0.7818609E-02  0.8271885E-01
       -1   -1    0    0    0  501  0.00000000000E+00  0.00000000000E+00  0.26582098896E+04  0.26582098896E+04  0.50400001928E-02 0. -1.
        1   -1    0    0  501    0  0.00000000000E+00  0.00000000000E+00 -0.79276825479E+03  0.79276825481E+03  0.50400001928E-02 0.  1.
    10030    2    1    2    0    0  0.00000000000E+00  0.00000000000E+00  0.18654416348E+04  0.34509781444E+04  0.29033390536E+04 0.  0.
        4    1    3    3  502    0 -0.52135872808E+03 -0.27695653476E+03  0.25090812149E+04  0.25775977191E+04  0.12699999809E+01 0. -1.
       -4    1    3    3    0  502  0.52135872808E+03  0.27695653476E+03 -0.64363958007E+03  0.87338042537E+03  0.12699999809E+01 0.  1.
</event>
<event>
 5   0  0.3786210E-07  0.2900778E+04  0.7818609E-02  0.8272646E-01
       -1   -1    0    0    0  501  0.00000000000E+00  0.00000000000E+00  0.14400931861E+04  0.14400931861E+04  0.50400001928E-02 0. -1.
        1   -1    0    0  501    0  0.00000000000E+00  0.00000000000E+00 -0.14607580507E+04  0.14607580507E+04  0.50400001928E-02 0.  1.
    10030    2    1    2    0    0  0.00000000000E+00  0.00000000000E+00 -0.20664864579E+02  0.29008512369E+04  0.29007776305E+04 0.  0.
        5    1    3    3  502    0 -0.11163669641E+04 -0.80762949830E+03  0.44252011269E+03  0.14471996217E+04  0.46999998093E+01 0. -1.
       -5    1    3    3    0  502  0.11163669641E+04  0.80762949830E+03 -0.46318497727E+03  0.14536516151E+04  0.46999998093E+01 0.  1.
</event>
<event>
 5   0  0.1063979E-06  0.2895538E+04  0.7818609E-02  0.8274206E-01
        2   -1    0    0  501    0  0.00000000000E+00  0.00000000000E+00  0.18670189948E+04  0.18670189948E+04  0.25500000920E-02 0.  1.
       -2   -1    0    0    0  501  0.00000000000E+00  0.00000000000E+00 -0.11226637442E+04  0.11226637442E+04  0.25500000920E-02 0. -1.
    10030    2    1    2    0    0  0.00000000000E+00  0.00000000000E+00  0.74435525059E+03  0.29896827390E+04  0.28955376255E+04 0.  0.
        1    1    3    3  502    0  0.33135399395E+03 -0.10666394715E+03 -0.10788118206E+04  0.11335817620E+04  0.50400001928E-02 0. -1.
       -1    1    3    3    0  502 -0.33135399395E+03  0.10666394715E+03  0.18231670712E+04  0.18561009769E+04  0.50400001928E-02 0.  1.
</event>
<event>
 5   0  0.9950999E-07  0.2915994E+04  0.7818609E-02  0.8268135E-01
        2   -1    0    0  501    0  0.00000000000E+00  0.00000000000E+00  0.18272469122E+04  0.18272469122E+04  0.25500000920E-02 0. -1.
       -2   -1    0    0    0  501  0.00000000000E+00  0.00000000000E+00 -0.11633647791E+04  0.11633647791E+04  0.25500000920E-02 0.  1.
    10030    2    1    2    0    0  0.00000000000E+00  0.00000000000E+00  0.66388213319E+03  0.29906116913E+04  0.29159936216E+04 0.  0.
        3    1    3    3  502    0  0.45636279287E+03 -0.72554673643E+00 -0.10882268263E+04  0.11800445588E+04  0.10100000352E+00 0.  1.
       -3    1    3    3    0  502 -0.45636279287E+03  0.72554673643E+00  0.17521089595E+04  0.18105671325E+04  0.10100000352E+00 0. -1.
</event>
<event>
 5   0  0.1031339E-06  0.2899224E+04  0.7818609E-02  0.8273108E-01
       -2   -1    0    0    0  501  0.00000000000E+00  0.00000000000E+00  0.13699597274E+04  0.13699597274E+04  0.25500000920E-02 0. -1.
        2   -1    0    0  501    0  0.00000000000E+00  0.00000000000E+00 -0.15338953356E+04  0.15338953356E+04  0.25500000920E-02 0.  1.
    10030    2    1    2    0    0  0.00000000000E+00  0.00000000000E+00 -0.16393560826E+03  0.29038550630E+04  0.28992239209E+04 0.  0.
        5    1    3    3  502    0  0.14064357949E+04 -0.24760730477E+03  0.16739116843E+03  0.14378501020E+04  0.46999998093E+01 0. -1.
       -5    1    3    3    0  502 -0.14064357949E+04  0.24760730477E+03 -0.33132677669E+03  0.14660049610E+04  0.46999998093E+01 0.  1.
</event>
<event>
 5   0  0.3786210E-07  0.2894346E+04  0.7818609E-02  0.8274562E-01
       -1   -1    0    0    0  501  0.00000000000E+00  0.00000000000E+00  0.91775578994E+03  0.91775578996E+03  0.50400001928E-02 0.  1.
        1   -1    0    0  501    0  0.00000000000E+00  0.00000000000E+00 -0.22819897494E+04  0.22819897494E+04  0.50400001928E-02 0. -1.
    10030    2    1    2    0    0  0.00000000000E+00  0.00000000000E+00 -0.13642339594E+04  0.31997455394E+04  0.28943457327E+04 0.  0.
        5    1    3    3  502    0  0.82795209133E+03 -0.44545066958E+02  0.62911928157E+03  0.10408179903E+04  0.46999998093E+01 0.  1.
       -5    1    3    3    0  502 -0.82795209133E+03  0.44545066958E+02 -0.19933532410E+04  0.21589275490E+04  0.46999998093E+01 0. -1.
</event>
<event>
 5   0  0.9950999E-07  0.2904945E+04  0.7818609E-02  0.8271408E-01
       -2   -1    0    0    0  501  0.00000000000E+00  0.00000000000E+00  0.11998423437E+04  0.11998423437E+04  0.25500000920E-02 0.  1.
        2   -1    0    0  501    0  0.00000000000E+00  0.00000000000E+00 -0.17582946761E+04  0.17582946761E+04  0.25500000920E-02 0. -1.
    10030    2    1    2    0    0  0.00000000000E+00  0.00000000000E+00 -0.55845233240E+03  0.29581370199E+04  0.29049450289E+04 0.  0.
        3    1    3    3  502    0  0.65999410211E+03  0.99310496071E+03  0.56531318159E+03  0.13196320250E+04  0.10100000352E+00 0.  1.
       -3    1    3    3    0  502 -0.65999410211E+03 -0.99310496071E+03 -0.11237655140E+04  0.16385049949E+04  0.10100000352E+00 0. -1.
</event>
<event>
 5   0  0.1006893E-06  0.2896623E+04  0.7818609E-02  0.8273883E-01
       -2   -1    0    0    0  501  0.00000000000E+00  0.00000000000E+00  0.23623717952E+04  0.23623717952E+04  0.25500000920E-02 0. -1.
        2   -1    0    0  501    0  0.00000000000E+00  0.00000000000E+00 -0.88792352915E+03  0.88792352915E+03  0.25500000920E-02 0.  1.
    10030    2    1    2    0    0  0.00000000000E+00  0.00000000000E+00  0.14744482660E+04  0.32502953244E+04  0.28966225170E+04 0.  0.
        4    1    3    3  502    0  0.14372852444E+04  0.91474540314E+02  0.56540224602E+03  0.15472032116E+04  0.12699999809E+01 0. -1.
       -4    1    3    3    0  502 -0.14372852444E+04 -0.91474540314E+02  0.90904602003E+03  0.17030921128E+04  0.12699999809E+01 0.  1.
</event>
<event>
 5   0  0.1031339E-06  0.2905977E+04  0.7818609E-02  0.8271101E-01
       -2   -1    0    0    0  501  0.00000000000E+00  0.00000000000E+00  0.12412873346E+04  0.12412873346E+04  0.25500000920E-02 0.  1.
        2   -1    0    0  501    0  0.00000000000E+00  0.00000000000E+00 -0.17007952810E+04  0.17007952810E+04  0.25500000920E-02 0. -1.
    10030    2    1    2    0    0  0.00000000000E+00  0.00000000000E+00 -0.45950794635E+03  0.29420826156E+04  0.29059770413E+04 0.  0.
        5    1    3    3  502    0  0.10158508438E+04  0.37964736491E+03 -0.12087578167E+04  0.16239466148E+04  0.46999998093E+01 0. -1.
       -5    1    3    3    0  502 -0.10158508438E+04 -0.37964736491E+03  0.74924987031E+03  0.13181360008E+04  0.46999998093E+01 0.  1.
</event>
<event>
 5   0  0.3786210E-07  0.2930440E+04  0.7818609E-02  0.8263878E-01
       -1   -1    0    0    0  501  0.00000000000E+00  0.00000000000E+00  0.98965260089E+03  0.98965260090E+03  0.50400001928E-02 0.  1.
        1   -1    0    0  501    0  0.00000000000E+00  0.00000000000E+00 -0.21693163411E+04  0.21693163411E+04  0.50400001928E-02 0. -1.
    10030    2    1    2    0    0  0.00000000000E+00  0.00000000000E+00 -0.11796637402E+04  0.31589689420E+04  0.29304399391E+04 0.  0.
        5    1    3    3  502    0 -0.11850380346E+04  0.50406262097E+03  0.16356534554E+03  0.12981409714E+04  0.46999998093E+01 0.  1.
       -5    1    3    3    0  502  0.11850380346E+04 -0.50406262097E+03 -0.13432290858E+04  0.18608279706E+04  0.46999998093E+01 0. -1.
</event>
<event>
 5   0  0.9950999E-07  0.2900222E+04  0.7818609E-02  0.8272811E-01
        2   -1    0    0  501    0  0.00000000000E+00  0.00000000000E+00  0.19491828235E+04  0.19491828235E+04  0.25500000920E-02 0. -1.
       -2   -1    0    0    0  501  0.00000000000E+00  0.00000000000E+00 -0.10788224959E+04  0.10788224959E+04  0.25500000920E-02 0.  1.
    10030    2    1    2    0    0  0.00000000000E+00  0.00000000000E+00  0.87036032761E+03  0.30280053194E+04  0.29002222526E+04 0.  0.
        3    1    3    3  502    0 -0.10367431035E+03 -0.70796354364E+03  0.17520460365E+04  0.18925184453E+04  0.10100000352E+00 0. -1.
       -3    1    3    3    0  502  0.10367431035E+03  0.70796354364E+03 -0.88168570887E+03  0.11354868741E+04  0.10100000352E+00 0.  1.
</event>
<event>
 5   0  0.1063979E-06  0.2904261E+04  0.7818609E-02  0.8271611E-01
        2   -1    0    0  501    0  0.00000000000E+00  0.00000000000E+00  0.24304139909E+04  0.24304139909E+04  0.25500000920E-02 0.  1.
       -2   -1    0    0    0  501  0.00000000000E+00  0.00000000000E+00 -0.86762288270E+03  0.86762288270E+03  0.25500000920E-02 0. -1.
    10030    2    1    2    0    0  0.00000000000E+00  0.00000000000E+00  0.15627911082E+04  0.32980368736E+04  0.29042608649E+04 0.  0.
        1    1    3    3  502    0  0.49064121483E+03  0.13656755476E+04  0.84238284354E+03  0.16779175660E+04  0.50400001928E-02 0. -1.
       -1    1    3    3    0  502 -0.49064121483E+03 -0.13656755476E+04  0.72040826462E+03  0.16201193076E+04  0.50400001928E-02 0.  1.
</event>
<event>
 5   0  0.1006893E-06  0.2898293E+04  0.7818609E-02  0.8273386E-01
       -2   -1    0    0    0  501  0.00000000000E+00  0.00000000000E+00  0.11016328731E+04  0.11016328731E+04  0.25500000920E-02 0. -1.
        2   -1    0    0  501    0  0.00000000000E+00  0.00000000000E+00 -0.19062842314E+04  0.19062842314E+04  0.25500000920E-02 0.  1.
    10030    2    1    2    0    0  0.00000000000E+00  0.00000000000E+00 -0.80465135833E+03  0.30079171045E+04  0.28982928594E+04 0.  0.
        4    1    3    3  502    0  0.58767203145E+03 -0.49354944675E+03 -0.16780784037E+04  0.18452366284E+04  0.12699999809E+01 0.  1.
       -4    1    3    3    0  502 -0.58767203145E+03  0.49354944675E+03  0.87342704539E+03  0.11626804761E+04  0.12699999809E+01 0. -1.
</event>
<event>
 5   0  0.1063979E-06  0.2899873E+04  0.7818609E-02  0.8272915E-01
        2   -1    0    0  501    0  0.00000000000E+00  0.00000000000E+00  0.14618261994E+04  0.14618261994E+04  0.25500000920E-02 0.  1.
       -2   -1    0    0    0  501  0.00000000000E+00  0.00000000000E+00 -0.14381435707E+04  0.14381435707E+04  0.25500000920E-02 0. -1.
    10030    2    1    2    0    0  0.00000000000E+00  0.00000000000E+00  0.23682628631E+02  0.28999697701E+04  0.28998730663E+04 0.  0.
        1    1    3    3  502    0  0.14145181888E+04 -0.24844418891E+03  0.21117113746E+03  0.14516127138E+04  0.50400001928E-02 0.  1.
       -1    1    3    3    0  502 -0.14145181888E+04  0.24844418891E+03 -0.18748850883E+03  0.14483570563E+04  0.50400001928E-02 0. -1.
</event>
<event>
 5   0  0.9950999E-07  0.2898457E+04  0.7818609E-02  0.8273337E-01
        2   -1    0    0  501    0  0.00000000000E+00  0.00000000000E+00  0.99142472652E+03  0.99142472652E+03  0.25500000920E-02 0. -1.
       -2   -1    0    0    0  501  0.00000000000E+00  0.00000000000E+00 -0.21184292666E+04  0.21184292666E+04  0.25500000920E-02 0.  1.
    10030    2    1    2    0    0  0.00000000000E+00  0.00000000000E+00 -0.11270045401E+04  0.31098539931E+04  0.28984569386E+04 0.  0.
        3    1    3    3  502    0 -0.70132382494E+03 -0.65363015563E+03 -0.17295877595E+04  0.19775139230E+04  0.10100000352E+00 0.  1.
       -3    1    3    3    0  502  0.70132382494E+03  0.65363015563E+03  0.60258321942E+03  0.11323400701E+04  0.10100000352E+00 0. -1.
</event>
<event>
 5   0  0.9994311E-07  0.2898800E+04  0.7818609E-02  0.8273235E-01
        2   -1    0    0  501    0  0.00000000000E+00  0.00000000000E+00  0.25697486617E+04  0.25697486617E+04  0.25500000920E-02 0.  1.
       -2   -1    0    0    0  501  0.00000000000E+00  0.00000000000E+00 -0.81749647799E+03  0.81749647800E+03  0.25500000920E-02 0. -1.
    10030    2    1    2    0    0  0.00000000000E+00  0.00000000000E+00  0.17522521837E+04  0.33872451397E+04  0.28988000830E+04 0.  0.
        2    1    3    3  502    0 -0.13780107597E+03  0.13348559442E+04  0.15160657222E+04  0.20246690600E+04  0.25500000920E-02 0.  1.
       -2    1    3    3    0  502  0.13780107597E+03 -0.13348559442E+04  0.23618646145E+03  0.13625760797E+04  0.25500000920E-02 0. -1.
</event>
<event>
 5   0  0.1063979E-06  0.2897920E+04  0.7818609E-02  0.8273497E-01
        2   -1    0    0  501    0  0.00000000000E+00  0.00000000000E+00  0.20529404971E+04  0.20529404971E+04  0.25500000920E-02 0.  1.
       -2   -1    0    0    0  501  0.00000000000E+00  0.00000000000E+00 -0.10226720118E+04  0.10226720118E+04  0.25500000920E-02 0. -1.
    10030    2    1    2    0    0  0.00000000000E+00  0.00000000000E+00  0.10302684853E+04  0.30756125089E+04  0.28979197975E+04 0.  0.
        1    1    3    3  502    0  0.51879768310E+03  0.34464882092E+03  0.19036159796E+04  0.20029197796E+04  0.50400001928E-02 0.  1.
       -1    1    3    3    0  502 -0.51879768310E+03 -0.34464882092E+03 -0.87334749424E+03  0.10726927293E+04  0.50400001928E-02 0. -1.
</event>
<event>
 5   0  0.9994311E-07  0.2899282E+04  0.7818609E-02  0.8273091E-01
       -2   -1    0    0    0  501  0.00000000000E+00  0.00000000000E+00  0.68111975461E+03  0.68111975461E+03  0.25500000920E-02 0.  1.
        2   -1    0    0  501    0  0.00000000000E+00  0.00000000000E+00 -0.30853008995E+04  0.30853008995E+04  0.25500000920E-02 0. -1.
    10030    2    1    2    0    0  0.00000000000E+00  0.00000000000E+00 -0.24041811449E+04  0.37664206541E+04  0.28992822502E+04 0.  0.
        2    1    3    3  502    0  0.69289348601E+03  0.11292956572E+04 -0.43789004933E+03  0.13954059480E+04  0.25500000920E-02 0.  1.
       -2    1    3    3    0  502 -0.69289348601E+03 -0.11292956572E+04 -0.19662910955E+04  0.23710147061E+04  0.25500000920E-02 0. -1.
</event>
<event>
 5   0  0.3770467E-07  0.2900351E+04  0.7818609E-02  0.8272773E-01
        1   -1    0    0  501    0  0.00000000000E+00  0.00000000000E+00  0.15161149721E+04  0.15161149721E+04  0.50400001928E-02 0.  1.
       -1   -1    0    0    0  501  0.00000000000E+00  0.00000000000E+00 -0.13871035887E+04  0.13871035887E+04  0.50400001928E-02 0. -1.
    10030    2    1    2    0    0  0.00000000000E+00  0.00000000000E+00  0.12901138334E+03  0.29032185608E+04  0.29003506813E+04 0.  0.
        1    1    3    3  502    0  0.22759217052E+03  0.12058025025E+04 -0.70907840817E+03  0.14172332413E+04  0.50400001928E-02 0. -1.
       -1    1    3    3    0  502 -0.22759217052E+03 -0.12058025025E+04  0.83808979151E+03  0.14859853195E+04  0.50400001928E-02 0.  1.
</event>
<event>
 5   0  0.3885904E-07  0.2909759E+04  0.7818609E-02  0.8269980E-01
        1   -1    0    0  501    0  0.00000000000E+00  0.00000000000E+00  0.17138704753E+04  0.17138704753E+04  0.50400001928E-02 0.  1.
       -1   -1    0    0    0  501  0.00000000000E+00  0.00000000000E+00 -0.12350259201E+04  0.12350259201E+04  0.50400001928E-02 0. -1.
    10030    2    1    2    0    0  0.00000000000E+00  0.00000000000E+00  0.47884455514E+03  0.29488963954E+04  0.29097590696E+04 0.  0.
        2    1    3    3  502    0 -0.34934905743E+03 -0.58579979508E+03 -0.10629573812E+04  0.12629665704E+04  0.25500000920E-02 0. -1.
       -2    1    3    3    0  502  0.34934905743E+03  0.58579979508E+03  0.15418019363E+04  0.16859298250E+04  0.25500000920E-02 0.  1.
</event>
<event>
 5   0  0.3638028E-07  0.2894696E+04  0.7818609E-02  0.8274457E-01
       -1   -1    0    0    0  501  0.00000000000E+00  0.00000000000E+00  0.10306919022E+04  0.10306919022E+04  0.50400001928E-02 0. -1.
        1   -1    0    0  501    0  0.00000000000E+00  0.00000000000E+00 -0.20324374810E+04  0.20324374810E+04  0.50400001928E-02 0.  1.
    10030    2    1    2    0    0  0.00000000000E+00  0.00000000000E+00 -0.10017455788E+04  0.30631293832E+04  0.28946964285E+04 0.  0.
        4    1    3    3  502    0 -0.46151808519E+01  0.28364960399E+03 -0.20027290321E+04  0.20227218263E+04  0.12699999809E+01 0.  1.
       -4    1    3    3    0  502  0.46151808519E+01 -0.28364960399E+03  0.10009834533E+04  0.10404075569E+04  0.12699999809E+01 0. -1.
</event>
<event>
 5   0  0.3786210E-07  0.2900435E+04  0.7818609E-02  0.8272748E-01
        1   -1    0    0  501    0  0.00000000000E+00  0.00000000000E+00  0.20234257797E+04  0.20234257797E+04  0.50400001928E-02 0.  1.
       -1   -1    0    0    0  501  0.00000000000E+00  0.00000000000E+00 -0.10393911019E+04  0.10393911020E+04  0.50400001928E-02 0. -1.
    10030    2    1    2    0    0  0.00000000000E+00  0.00000000000E+00  0.98403467776E+03  0.30628168817E+04  0.29004349680E+04 0.  0.
        5    1    3    3  502    0 -0.36163887283E+03  0.78172176729E+03  0.17240572671E+04  0.19272434060E+04  0.46999998093E+01 0.  1.
       -5    1    3    3    0  502  0.36163887283E+03 -0.78172176729E+03 -0.74002258936E+03  0.11355734756E+04  0.46999998093E+01 0. -1.
</event>
<event>
 5   0  0.9950999E-07  0.2885852E+04  0.7818609E-02  0.8277099E-01
        2   -1    0    0  501    0  0.00000000000E+00  0.00000000000E+00  0.22541361779E+04  0.22541361779E+04  0.25500000920E-02 0. -1.
       -2   -1    0    0    0  501  0.00000000000E+00  0.00000000000E+00 -0.92365115217E+03  0.92365115218E+03  0.25500000920E-02 0.  1.
    10030    2    1    2    0    0  0.00000000000E+00  0.00000000000E+00  0.13304850257E+04  0.31777873300E+04  0.28858520252E+04 0.  0.
        3    1    3    3  502    0  0.90562825209E+02  0.77451331948E+03 -0.67164250337E+03  0.10291628491E+04  0.10100000352E+00 0.  1.
       -3    1    3    3    0  502 -0.90562825209E+02 -0.77451331948E+03  0.20021275291E+04  0.21486244810E+04  0.10100000352E+00 0. -1.
</event>
<event>
 5   0  0.9950999E-07  0.2899027E+04  0.7818609E-02  0.8273167E-01
       -2   -1    0    0    0  501  0.00000000000E+00  0.00000000000E+00  0.11405230826E+04  0.11405230826E+04  0.25500000920E-02 0. -1.
        2   -1    0    0  501    0  0.00000000000E+00  0.00000000000E+00 -0.18422150361E+04  0.18422150361E+04  0.25500000920E-02 0.  1.
    10030    2    1    2    0    0  0.00000000000E+00  0.00000000000E+00 -0.70169195350E+03  0.29827381187E+04  0.28990265757E+04 0.  0.
        3    1    3    3  502    0 -0.56400469744E+03 -0.93530934180E+03 -0.13313510083E+04  0.17220337921E+04  0.10100000352E+00 0.  1.
       -3    1    3    3    0  502  0.56400469744E+03  0.93530934180E+03  0.62965905479E+03  0.12607043266E+04  0.10100000352E+00 0. -1.
</event>
<event>
 5   0  0.3769563E-07  0.2890805E+04  0.7818609E-02  0.8275618E-01
        1   -1    0    0  501    0  0.00000000000E+00  0.00000000000E+00  0.73373336092E+03  0.73373336093E+03  0.50400001928E-02 0.  1.
       -1   -1    0    0    0  501  0.00000000000E+00  0.00000000000E+00 -0.28473405005E+04  0.28473405005E+04  0.50400001928E-02 0. -1.
    10030    2    1    2    0    0  0.00000000000E+00  0.00000000000E+00 -0.21136071396E+04  0.35810738614E+04  0.28908052270E+04 0.  0.
        3    1    3    3  502    0  0.11499970428E+04  0.30355668802E+03 -0.39381513235E+02  0.11900381402E+04  0.10100000352E+00 0.  1.
       -3    1    3    3    0  502 -0.11499970428E+04 -0.30355668802E+03 -0.20742256263E+04  0.23910357213E+04  0.10100000352E+00 0. -1.
</event>
<event>
 5   0  0.3638028E-07  0.2894566E+04  0.7818609E-02  0.8274496E-01
       -1   -1    0    0    0  501  0.00000000000E+00  0.00000000000E+00  0.11680310894E+04  0.11680310894E+04  0.50400001928E-02 0.  1.
        1   -1    0    0  501    0  0.00000000000E+00  0.00000000000E+00 -0.17932979733E+04  0.17932979733E+04  0.50400001928E-02 0. -1.
    10030    2    1    2    0    0  0.00000000000E+00  0.00000000000E+00 -0.62526688389E+03  0.29613290626E+04  0.28945657949E+04 0.  0.
        4    1    3    3  502    0  0.81416987463E+02  0.14438381694E+04 -0.25360704712E+03  0.14682014618E+04  0.12699999809E+01 0. -1.
       -4    1    3    3    0  502 -0.81416987463E+02 -0.14438381694E+04 -0.37165983677E+03  0.14931276008E+04  0.12699999809E+01 0.  1.
</event>
<event>
 5   0  0.3786210E-07  0.2896225E+04  0.7818609E-02  0.8274002E-01
       -1   -1    0    0    0  501  0.00000000000E+00  0.00000000000E+00  0.13918000020E+04  0.13918000020E+04  0.50400001928E-02 0. -1.
        1   -1    0    0  501    0  0.00000000000E+00  0.00000000000E+00 -0.15067030411E+04  0.15067030411E+04  0.50400001928E-02 0.  1.
    10030    2    1    2    0    0  0.00000000000E+00  0.00000000000E+00 -0.11490303919E+03  0.28985030431E+04  0.28962246430E+04 0.  0.
        5    1    3    3  502    0 -0.26175333441E+03 -0.43492818220E+03  0.12998343522E+04  0.13954457227E+04  0.46999998093E+01 0. -1.
       -5    1    3    3    0  502  0.26175333441E+03  0.43492818220E+03 -0.14147373914E+04  0.15030573204E+04  0.46999998093E+01 0.  1.
</event>
<event>
 5   0  0.1006893E-06  0.2905884E+04  0.7818609E-02  0.8271129E-01
       -2   -1    0    0    0  501  0.00000000000E+00  0.00000000000E+00  0.10741167899E+04  0.10741167899E+04  0.25500000920E-02 0.  1.
        2   -1    0    0  501    0  0.00000000000E+00  0.00000000000E+00 -0.19653730169E+04  0.19653730169E+04  0.25500000920E-02 0. -1.
    10030    2    1    2    0    0  0.00000000000E+00  0.00000000000E+00 -0.89125622702E+03  0.30394898068E+04  0.29058837939E+04 0.  0.
        4    1    3    3  502    0  0.48746970197E+03 -0.10370682619E+04  0.48869484775E+03  0.12457774910E+04  0.12699999809E+01 0.  1.
       -4    1    3    3    0  502 -0.48746970197E+03  0.10370682619E+04 -0.13799510748E+04  0.17937123158E+04  0.12699999809E+01 0. -1.
</event>
<event>
 5   0  0.1006893E-06  0.2892129E+04  0.7818609E-02  0.8275223E-01
       -2   -1    0    0    0  501  0.00000000000E+00  0.00000000000E+00  0.74336962923E+03  0.74336962923E+03  0.25500000920E-02 0. -1.
        2   -1    0    0  501    0  0.00000000000E+00  0.00000000000E+00 -0.28130053246E+04  0.28130053246E+04  0.25500000920E-02 0.  1.
    10030    2    1    2    0    0  0.00000000000E+00  0.00000000000E+00 -0.20696356953E+04  0.35563749538E+04  0.28921291293E+04 0.  0.
        4    1    3    3  502    0  0.21527147021E+03 -0.77844798408E+03  0.44016430038E+03  0.91982025094E+03  0.12699999809E+01 0. -1.
       -4    1    3    3    0  502 -0.21527147021E+03  0.77844798408E+03 -0.25097999957E+04  0.26365547029E+04  0.12699999809E+01 0.  1.
</event>
<event>
 5   0  0.9950999E-07  0.2899514E+04  0.7818609E-02  0.8273022E-01
       -2   -1    0    0    0  501  0.00000000000E+00  0.00000000000E+00  0.18543816318E+04  0.18543816318E+04  0.25500000920E-02 0. -1.
        2   -1    0    0  501    0  0.00000000000E+00  0.00000000000E+00 -0.11334210172E+04  0.11334210172E+04  0.25500000920E-02 0.  1.
    10030    2    1    2    0    0  0.00000000000E+00  0.00000000000E+00  0.72096061460E+03  0.29878026491E+04  0.28995138320E+04 0.  0.
        3    1    3    3  502    0 -0.10176538548E+04  0.99623694041E+03  0.64020075260E+03  0.15613982270E+04  0.10100000352E+00 0.  1.
       -3    1    3    3    0  502  0.10176538548E+04 -0.99623694041E+03  0.80759862000E+02  0.14264044220E+04  0.10100000352E+00 0. -1.
</event>
<event>
 5   0  0.3770467E-07  0.2898040E+04  0.7818609E-02  0.8273461E-01
       -1   -1    0    0    0  501  0.00000000000E+00  0.00000000000E+00  0.15867384702E+04  0.15867384702E+04  0.50400001928E-02 0. -1.
        1   -1    0    0  501    0  0.00000000000E+00  0.00000000000E+00 -0.13232548426E+04  0.13232548426E+04  0.50400001928E-02 0.  1.
    10030    2    1    2    0    0  0.00000000000E+00  0.00000000000E+00  0.26348362755E+03  0.29099933128E+04  0.28980402790E+04 0.  0.
        1    1    3    3  502    0 -0.38613731030E+03 -0.13914895942E+04  0.25187662256E+03  0.14658741918E+04  0.50400001928E-02 0. -1.
       -1    1    3    3    0  502  0.38613731030E+03  0.13914895942E+04  0.11607004986E+02  0.14441191210E+04  0.50400001928E-02 0.  1.
</event>
<event>
 5   0  0.1006893E-06  0.2900322E+04  0.7818609E-02  0.8272782E-01
       -2   -1    0    0    0  501  0.00000000000E+00  0.00000000000E+00  0.86951932942E+03  0.86951932942E+03  0.25500000920E-02 0.  1.
        2   -1    0    0  501    0  0.00000000000E+00  0.00000000000E+00 -0.24185391142E+04  0.24185391142E+04  0.25500000920E-02 0. -1.
    10030    2    1    2    0    0  0.00000000000E+00  0.00000000000E+00 -0.15490197848E+04  0.32880584436E+04  0.29003217123E+04 0.  0.
        4    1    3    3  502    0 -0.10764378946E+04  0.79918585051E+03 -0.14011718234E+04  0.19392526025E+04  0.12699999809E+01 0. -1.
       -4    1    3    3    0  502  0.10764378946E+04 -0.79918585051E+03 -0.14784796135E+03  0.13488058411E+04  0.12699999809E+01 0.  1.
</event>
<event>
 5   0  0.3638028E-07  0.2900717E+04  0.7818609E-02  0.8272664E-01
        1   -1    0    0  501    0  0.00000000000E+00  0.00000000000E+00  0.15397821358E+04  0.15397821358E+04  0.50400001928E-02 0.  1.
       -1   -1    0    0    0  501  0.00000000000E+00  0.00000000000E+00 -0.13661282233E+04  0.13661282233E+04  0.50400001928E-02 0. -1.
    10030    2    1    2    0    0  0.00000000000E+00  0.00000000000E+00  0.17365391248E+03  0.29059103590E+04  0.29007170378E+04 0.  0.
        4    1    3    3  502    0  0.37160604903E+03 -0.10372400616E+04 -0.85803726926E+03  0.13964911633E+04  0.12699999809E+01 0. -1.
       -4    1    3    3    0  502 -0.37160604903E+03  0.10372400616E+04  0.10316911817E+04  0.15094191957E+04  0.12699999809E+01 0.  1.
</event>
<event>
 5   0  0.1063979E-06  0.2882446E+04  0.7818609E-02  0.8278120E-01
        2   -1    0    0  501    0  0.00000000000E+00  0.00000000000E+00  0.12541880427E+04  0.12541880427E+04  0.25500000920E-02 0. -1.
       -2   -1    0    0    0  501  0.00000000000E+00  0.00000000000E+00 -0.16561498446E+04  0.16561498446E+04  0.25500000920E-02 0.  1.
    10030    2    1    2    0    0  0.00000000000E+00  0.00000000000E+00 -0.40196180188E+03  0.29103378873E+04  0.28824457199E+04 0.  0.
        1    1    3    3  502    0 -0.11161513851E+04  0.85984450439E+01 -0.11215354683E+04  0.15823114910E+04  0.50400001928E-02 0.  1.
       -1    1    3    3    0  502  0.11161513851E+04 -0.85984450439E+01  0.71957366642E+03  0.13280263963E+04  0.50400001928E-02 0. -1.
</event>
<event>
 5   0  0.1031339E-06  0.2898897E+04  0.7818609E-02  0.8273206E-01
        2   -1    0    0  501    0  0.00000000000E+00  0.00000000000E+00  0.16259552090E+04  0.16259552090E+04  0.25500000920E-02 0.  1.
       -2   -1    0    0    0  501  0.00000000000E+00  0.00000000000E+00 -0.12921028601E+04  0.12921028601E+04  0.25500000920E-02 0. -1.
    10030    2    1    2    0    0  0.00000000000E+00  0.00000000000E+00  0.33385234884E+03  0.29180580691E+04  0.28988972910E+04 0.  0.
        5    1    3    3  502    0 -0.18053064520E+02 -0.12585123756E+04 -0.55664344065E+03  0.13762460982E+04  0.46999998093E+01 0.  1.
       -5    1    3    3    0  502  0.18053064520E+02  0.12585123756E+04  0.89049578949E+03  0.15418119710E+04  0.46999998093E+01 0. -1.
</event>
<event>
 5   0  0.3770467E-07  0.2901924E+04  0.7818609E-02  0.8272305E-01
       -1   -1    0    0    0  501  0.00000000000E+00  0.00000000000E+00  0.17098499069E+04  0.17098499069E+04  0.50400001928E-02 0. -1.
        1   -1    0    0  501    0  0.00000000000E+00  0.00000000000E+00 -0.12312719247E+04  0.12312719247E+04  0.50400001928E-02 0.  1.
    10030    2    1    2    0    0  0.00000000000E+00  0.00000000000E+00  0.47857798226E+03  0.29411218316E+04  0.29019236281E+04 0.  0.
        1    1    3    3  502    0 -0.89723379218E+03  0.10684695356E+04  0.64295849388E+03  0.15362458303E+04  0.50400001928E-02 0.  1.
       -1    1    3    3    0  502  0.89723379218E+03 -0.10684695356E+04 -0.16438051163E+03  0.14048760013E+04  0.50400001928E-02 0. -1.
</event>
<event>
 5   0  0.3770467E-07  0.2926009E+04  0.7818609E-02  0.8265181E-01
       -1   -1    0    0    0  501  0.00000000000E+00  0.00000000000E+00  0.93256636554E+03  0.93256636556E+03  0.50400001928E-02 0. -1.
        1   -1    0    0  501    0  0.00000000000E+00  0.00000000000E+00 -0.22951522201E+04  0.22951522201E+04  0.50400001928E-02 0.  1.
    10030    2    1    2    0    0  0.00000000000E+00  0.00000000000E+00 -0.13625858546E+04  0.32277185857E+04  0.29260087248E+04 0.  0.
        1    1    3    3  502    0  0.12059208699E+04  0.82581829591E+03 -0.75244810056E+03  0.16438975474E+04  0.50400001928E-02 0. -1.
       -1    1    3    3    0  502 -0.12059208699E+04 -0.82581829591E+03 -0.61013775404E+03  0.15838210383E+04  0.50400001928E-02 0.  1.
</event>
<event>
 5   0  0.3638028E-07  0.2900388E+04  0.7818609E-02  0.8272762E-01
        1   -1    0    0  501    0  0.00000000000E+00  0.00000000000E+00  0.13388093367E+04  0.13388093368E+04  0.50400001928E-02 0. -1.
       -1   -1    0    0    0  501  0.00000000000E+00  0.00000000000E+00 -0.15708453658E+04  0.15708453658E+04  0.50400001928E-02 0.  1.
    10030    2    1    2    0    0  0.00000000000E+00  0.00000000000E+00 -0.23203602903E+03  0.29096547025E+04  0.29003878653E+04 0.  0.
        4    1    3    3  502    0  0.31628234101E+03 -0.55708218691E+03  0.11891713981E+04  0.13507425029E+04  0.12699999809E+01 0. -1.
       -4    1    3    3    0  502 -0.31628234101E+03  0.55708218691E+03 -0.14212074271E+04  0.15589121996E+04  0.12699999809E+01 0.  1.
</event>
<event>
 5   0  0.1006893E-06  0.2912395E+04  0.7818609E-02  0.8269199E-01
        2   -1    0    0  501    0  0.00000000000E+00  0.00000000000E+00  0.16456691189E+04  0.16456691189E+04  0.25500000920E-02 0. -1.
       -2   -1    0    0    0  501  0.00000000000E+00  0.00000000000E+00 -0.12885405308E+04  0.12885405308E+04  0.25500000920E-02 0.  1.
    10030    2    1    2    0    0  0.00000000000E+00  0.00000000000E+00  0.35712858813E+03  0.29342096497E+04  0.29123951380E+04 0.  0.
        4    1    3    3  502    0 -0.52090178408E+03 -0.13577771759E+04  0.10308842007E+03  0.14579185037E+04  0.12699999809E+01 0.  1.
       -4    1    3    3    0  502  0.52090178408E+03  0.13577771759E+04  0.25404016807E+03  0.14762911461E+04  0.12699999809E+01 0. -1.
</event>
<event>
 5   0  0.3770467E-07  0.2941854E+04  0.7818609E-02  0.8260533E-01
       -1   -1    0    0    0  501  0.00000000000E+00  0.00000000000E+00  0.15368279827E+04  0.15368279827E+04  0.50400001928E-02 0. -1.
        1   -1    0    0  501    0  0.00000000000E+00  0.00000000000E+00 -0.14078519036E+04  0.14078519036E+04  0.50400001928E-02 0.  1.
    10030    2    1    2    0    0  0.00000000000E+00  0.00000000000E+00  0.12897607911E+03  0.29446798864E+04  0.29418539740E+04 0.  0.
        1    1    3    3  502    0 -0.52008079082E+03 -0.13717031388E+04  0.17216772568E+03  0.14770562805E+04  0.50400001928E-02 0.  1.
       -1    1    3    3    0  502  0.52008079082E+03  0.13717031388E+04 -0.43191646577E+02  0.14676236058E+04  0.50400001928E-02 0. -1.
</event>
<event>
 5   0  0.1063979E-06  0.2902368E+04  0.7818609E-02  0.8272173E-01
       -2   -1    0    0    0  501  0.00000000000E+00  0.00000000000E+00  0.75164521025E+03  0.75164521025E+03  0.25500000920E-02 0. -1.
        2   -1    0    0  501    0  0.00000000000E+00  0.00000000000E+00 -0.28017679243E+04  0.28017679243E+04  0.25500000920E-02 0.  1.
    10030    2    1    2    0    0  0.00000000000E+00  0.00000000000E+00 -0.20501227140E+04  0.35534131345E+04  0.29023683023E+04 0.  0.
        1    1    3    3  502    0 -0.13336086154E+04  0.18062013171E+03 -0.16898090279E+04  0.21602291827E+04  0.50400001928E-02 0.  1.
       -1    1    3    3    0  502  0.13336086154E+04 -0.18062013171E+03 -0.36031368610E+03  0.13931839518E+04  0.50400001928E-02 0. -1.
</event>
<event>
 5   0  0.3378750E-07  0.2899202E+04  0.7818609E-02  0.8273115E-01
        3   -1    0    0  501    0  0.00000000000E+00  0.00000000000E+00  0.13348231257E+04  0.13348231295E+04  0.10100000352E+00 0.  1.
       -3   -1    0    0    0  501  0.00000000000E+00  0.00000000000E+00 -0.15742482397E+04  0.15742482430E+04  0.10100000352E+00 0. -1.
    10030    2    1    2    0    0  0.00000000000E+00  0.00000000000E+00 -0.23942511407E+03  0.29090713724E+04  0.28992019358E+04 0.  0.
        5    1    3    3  502    0  0.81199709980E+02 -0.13918389699E+04 -0.51794112304E+03  0.14873110663E+04  0.46999998093E+01 0.  1.
       -5    1    3    3    0  502 -0.81199709980E+02  0.13918389699E+04  0.27851600897E+03  0.14217603062E+04  0.46999998093E+01 0. -1.
</event>
<event>
 5   0  0.3786210E-07  0.2889305E+04  0.7818609E-02  0.8276067E-01
        1   -1    0    0  501    0  0.00000000000E+00  0.00000000000E+00  0.12132171081E+04  0.12132171081E+04  0.50400001928E-02 0. -1.
       -1   -1    0    0    0  501  0.00000000000E+00  0.00000000000E+00 -0.17202365999E+04  0.17202365999E+04  0.50400001928E-02 0.  1.
    10030    2    1    2    0    0  0.00000000000E+00  0.00000000000E+00 -0.50701949177E+03  0.29334537080E+04  0.28893047420E+04 0.  0.
        5    1    3    3  502    0 -0.26004815044E+03  0.34435777678E+03  0.11462486451E+04  0.12247919682E+04  0.46999998093E+01 0. -1.
       -5    1    3    3    0  502  0.26004815044E+03 -0.34435777678E+03 -0.16532681368E+04  0.17086617399E+04  0.46999998093E+01 0.  1.
</event>
<event>
 5   0  0.9950999E-07  0.2899168E+04  0.7818609E-02  0.8273125E-01
       -2   -1    0    0    0  501  0.00000000000E+00  0.00000000000E+00  0.10371530101E+04  0.10371530101E+04  0.25500000920E-02 0.  1.
        2   -1    0    0  501    0  0.00000000000E+00  0.00000000000E+00 -0.20260215721E+04  0.20260215721E+04  0.25500000920E-02 0. -1.
    10030    2    1    2    0    0  0.00000000000E+00  0.00000000000E+00 -0.98886856194E+03  0.30631745822E+04  0.28991684132E+04 0.  0.
        3    1    3    3  502    0  0.61267631328E+03  0.11277181580E+04  0.21761388037E+03  0.13017205230E+04  0.10100000352E+00 0.  1.
       -3    1    3    3    0  502 -0.61267631328E+03 -0.11277181580E+04 -0.12064824423E+04  0.17614540592E+04  0.10100000352E+00 0. -1.
</event>
<event>
 5   0  0.3770467E-07  0.2897888E+04  0.7818609E-02  0.8273506E-01
        1   -1    0    0  501    0  0.00000000000E+00  0.00000000000E+00  0.24895379184E+04  0.24895379184E+04  0.50400001928E-02 0.  1.
       -1   -1    0    0    0  501  0.00000000000E+00  0.00000000000E+00 -0.84330465041E+03  0.84330465042E+03  0.50400001928E-02 0. -1.
    10030    2    1    2    0    0  0.00000000000E+00  0.00000000000E+00  0.16462332680E+04  0.33328425688E+04  0.28978881303E+04 0.  0.
        1    1    3    3  502    0  0.72462432155E+03  0.19372834972E+03  0.22488745480E+04  0.23706640027E+04  0.50400001928E-02 0.  1.
       -1    1    3    3    0  502 -0.72462432155E+03 -0.19372834972E+03 -0.60264127998E+03  0.96217856619E+03  0.50400001928E-02 0. -1.
</event>
<event>
 5   0  0.3786210E-07  0.2897939E+04  0.7818609E-02  0.8273491E-01
        1   -1    0    0  501    0  0.00000000000E+00  0.00000000000E+00  0.10240405335E+04  0.10240405335E+04  0.50400001928E-02 0.  1.
       -1   -1    0    0    0  501  0.00000000000E+00  0.00000000000E+00 -0.20502245789E+04  0.20502245789E+04  0.50400001928E-02 0. -1.
    10030    2    1    2    0    0  0.00000000000E+00  0.00000000000E+00 -0.10261840454E+04  0.30742651124E+04  0.28979393172E+04 0.  0.
        5    1    3    3  502    0  0.69958576163E+03 -0.10832218028E+04  0.18795033092E+03  0.13031259068E+04  0.46999998093E+01 0.  1.
       -5    1    3    3    0  502 -0.69958576163E+03  0.10832218028E+04 -0.12141343763E+04  0.17711392056E+04  0.46999998093E+01 0. -1.
</event>
<event>
 5   0  0.1031339E-06  0.2901163E+04  0.7818609E-02  0.8272532E-01
       -2   -1    0    0    0  501  0.00000000000E+00  0.00000000000E+00  0.12027674037E+04  0.12027674037E+04  0.25500000920E-02 0.  1.
        2   -1    0    0  501    0  0.00000000000E+00  0.00000000000E+00 -0.17494538619E+04  0.17494538619E+04  0.25500000920E-02 0. -1.
    10030    2    1    2    0    0  0.00000000000E+00  0.00000000000E+00 -0.54668645820E+03  0.29522212656E+04  0.29011625803E+04 0.  0.
        5    1    3    3  502    0 -0.11657930833E+04  0.72064642200E+03 -0.75684667769E+03  0.15656448391E+04  0.46999998093E+01 0.  1.
       -5    1    3    3    0  502  0.11657930833E+04 -0.72064642200E+03  0.21016021949E+03  0.13865764265E+04  0.46999998093E+01 0. -1.
</event>
<event>
 5   0  0.3770467E-07  0.2900352E+04  0.7818609E-02  0.8272773E-01
       -1   -1    0    0    0  501  0.00000000000E+00  0.00000000000E+00  0.12783754296E+04  0.12783754296E+04  0.50400001928E-02 0. -1.
        1   -1    0    0  501    0  0.00000000000E+00  0.00000000000E+00 -0.16450646463E+04  0.16450646463E+04  0.50400001928E-02 0.  1.
    10030    2    1    2    0    0  0.00000000000E+00  0.00000000000E+00 -0.36668921668E+03  0.29234400759E+04  0.29003518572E+04 0.  0.
        1    1    3    3  502    0 -0.72372690717E+03  0.68468105784E+03 -0.12455080224E+04  0.15949479681E+04  0.50400001928E-02 0.  1.
       -1    1    3    3    0  502  0.72372690717E+03 -0.68468105784E+03  0.87881880570E+03  0.13284921078E+04  0.50400001928E-02 0. -1.
</event>
<event>
 5   0  0.3786210E-07  0.2902394E+04  0.7818609E-02  0.8272166E-01
       -1   -1    0    0    0  501  0.00000000000E+00  0.00000000000E+00  0.99982384595E+03  0.99982384596E+03  0.50400001928E-02 0.  1.
        1   -1    0    0  501    0  0.00000000000E+00  0.00000000000E+00 -0.21063438502E+04  0.21063438502E+04  0.50400001928E-02 0. -1.
    10030    2    1    2    0    0  0.00000000000E+00  0.00000000000E+00 -0.11065200042E+04  0.31061676961E+04  0.29023940526E+04 0.  0.
        5    1    3    3  502    0  0.39873130108E+03  0.13646941734E+04 -0.86449373061E+03  0.16639556297E+04  0.46999998093E+01 0.  1.
       -5    1    3    3    0  502 -0.39873130108E+03 -0.13646941734E+04 -0.24202627361E+03  0.14422120664E+04  0.46999998093E+01 0. -1.
</event>
<event>
 5   0  0.3769563E-07  0.2886059E+04  0.7818609E-02  0.8277038E-01
       -1   -1    0    0    0  501  0.00000000000E+00  0.00000000000E+00  0.10582088530E+04  0.10582088531E+04  0.50400001928E-02 0.  1.
        1   -1    0    0  501    0  0.00000000000E+00  0.00000000000E+00 -0.19677909384E+04  0.19677909384E+04  0.50400001928E-02 0. -1.
    10030    2    1    2    0    0  0.00000000000E+00  0.00000000000E+00 -0.90958208532E+03  0.30259997914E+04  0.28860587603E+04 0.  0.
        3    1    3    3  502    0 -0.11807354032E+04  0.75662832660E+03 -0.98133391549E+02  0.14057925486E+04  0.10100000352E+00 0.  1.
       -3    1    3    3    0  502  0.11807354032E+04 -0.75662832660E+03 -0.81144869377E+03  0.16202072428E+04  0.10100000352E+00 0. -1.
</event>
<event>
 5   0  0.1006893E-06  0.2891416E+04  0.7818609E-02  0.8275436E-01
        2   -1    0    0  501    0  0.00000000000E+00  0.00000000000E+00  0.21996568081E+04  0.21996568081E+04  0.25500000920E-02 0. -1.
       -2   -1    0    0    0  501  0.00000000000E+00  0.00000000000E+00 -0.95018110072E+03  0.95018110072E+03  0.25500000920E-02 0.  1.
    10030    2    1    2    0    0  0.00000000000E+00  0.00000000000E+00  0.12494757074E+04  0.31498379089E+04  0.28914164883E+04 0.  0.
        4    1    3    3  502    0  0.17685537273E+02 -0.19269914047E+03  0.21854843077E+04  0.21940348696E+04  0.12699999809E+01 0. -1.
       -4    1    3    3    0  502 -0.17685537273E+02  0.19269914047E+03 -0.93600860033E+03  0.95580303920E+03  0.12699999809E+01 0.  1.
</event>
<event>
 5   0  0.3885904E-07  0.2899953E+04  0.7818609E-02  0.8272891E-01
        1   -1    0    0  501    0  0.00000000000E+00  0.00000000000E+00  0.10887404146E+04  0.10887404146E+04  0.50400001928E-02 0. -1.
       -1   -1    0    0    0  501  0.00000000000E+00  0.00000000000E+00 -0.19310687034E+04  0.19310687034E+04  0.50400001928E-02 0.  1.
    10030    2    1    2    0    0  0.00000000000E+00  0.00000000000E+00 -0.84232828882E+03  0.30198091180E+04  0.28999534760E+04 0.  0.
        2    1    3    3  502    0  0.99041854778E+01 -0.14477381933E+04 -0.50439614645E+03  0.15331208178E+04  0.25500000920E-02 0. -1.
       -2    1    3    3    0  502 -0.99041854778E+01  0.14477381933E+04 -0.33793214236E+03  0.14866883003E+04  0.25500000920E-02 0.  1.
</event>
<event>
 5   0  0.3378750E-07  0.2902724E+04  0.7818609E-02  0.8272067E-01
        3   -1    0    0  501    0  0.00000000000E+00  0.00000000000E+00  0.16988511996E+04  0.16988512027E+04  0.10100000352E+00 0. -1.
       -3   -1    0    0    0  501  0.00000000000E+00  0.00000000000E+00 -0.12399272168E+04  0.12399272209E+04  0.10100000352E+00 0.  1.
    10030    2    1    2    0    0  0.00000000000E+00  0.00000000000E+00  0.45892398289E+03  0.29387784235E+04  0.29027241344E+04 0.  0.
        1    1    3    3  502    0  0.21910564717E+03  0.39423612571E+03  0.16260973529E+04  0.16874898544E+04  0.50400001928E-02 0. -1.
       -1    1    3    3    0  502 -0.21910564717E+03 -0.39423612571E+03 -0.11671733701E+04  0.12512885691E+04  0.50400001928E-02 0.  1.
</event>
<event>
 5   0  0.1063979E-06  0.2898111E+04  0.7818609E-02  0.8273440E-01
        2   -1    0    0  501    0  0.00000000000E+00  0.00000000000E+00  0.23739946316E+04  0.23739946316E+04  0.25500000920E-02 0. -1.
       -2   -1    0    0    0  501  0.00000000000E+00  0.00000000000E+00 -0.88448479028E+03  0.88448479028E+03  0.25500000920E-02 0.  1.
    10030    2    1    2    0    0  0.00000000000E+00  0.00000000000E+00  0.14895098413E+04  0.32584794219E+04  0.28981112083E+04 0.  0.
        1    1    3    3  502    0 -0.83487500358E+03 -0.83059047702E+03  0.16940553634E+04  0.20631821021E+04  0.50400001928E-02 0. -1.
       -1    1    3    3    0  502  0.83487500358E+03  0.83059047702E+03 -0.20454552206E+03  0.11952973198E+04  0.50400001928E-02 0.  1.
</event>
<event>
 5   0  0.1006893E-06  0.2896642E+04  0.7818609E-02  0.8273877E-01
       -2   -1    0    0    0  501  0.00000000000E+00  0.00000000000E+00  0.83927454834E+03  0.83927454834E+03  0.25500000920E-02 0. -1.
        2   -1    0    0  501    0  0.00000000000E+00  0.00000000000E+00 -0.24993413111E+04  0.24993413111E+04  0.25500000920E-02 0.  1.
    10030    2    1    2    0    0  0.00000000000E+00  0.00000000000E+00 -0.16600667628E+04  0.33386158595E+04  0.28966418833E+04 0.  0.
        4    1    3    3  502    0 -0.33858697537E+03 -0.27345254125E+02  0.79271093355E+03  0.86242746935E+03  0.12699999809E+01 0. -1.
       -4    1    3    3    0  502  0.33858697537E+03  0.27345254125E+02 -0.24527776963E+04  0.24761883901E+04  0.12699999809E+01 0.  1.
</event>
<event>
 5   0  0.1006893E-06  0.2896461E+04  0.7818609E-02  0.8273931E-01
        2   -1    0    0  501    0  0.00000000000E+00  0.00000000000E+00  0.11708827008E+04  0.11708827008E+04  0.25500000920E-02 0. -1.
       -2   -1    0    0    0  501  0.00000000000E+00  0.00000000000E+00 -0.17912738567E+04  0.17912738567E+04  0.25500000920E-02 0.  1.
    10030    2    1    2    0    0  0.00000000000E+00  0.00000000000E+00 -0.62039115588E+03  0.29621565575E+04  0.28964609931E+04 0.  0.
        4    1    3    3  502    0  0.94139000712E+03 -0.23604619881E+03  0.78909741668E+03  0.12508434352E+04  0.12699999809E+01 0. -1.
       -4    1    3    3    0  502 -0.94139000712E+03  0.23604619881E+03 -0.14094885726E+04  0.17113131223E+04  0.12699999809E+01 0.  1.
</event>
<event>
 5   0  0.9994311E-07  0.2901298E+04  0.7818609E-02  0.8272491E-01
        2   -1    0    0  501    0  0.00000000000E+00  0.00000000000E+00  0.10252822172E+04  0.10252822172E+04  0.25500000920E-02 0. -1.
       -2   -1    0    0    0  501  0.00000000000E+00  0.00000000000E+00 -0.20524909316E+04  0.20524909316E+04  0.25500000920E-02 0.  1.
    10030    2    1    2    0    0  0.00000000000E+00  0.00000000000E+00 -0.10272087144E+04  0.30777731488E+04  0.29012979531E+04 0.  0.
        2    1    3    3  502    0 -0.92210814174E+02  0.48902030441E+03  0.93190090399E+03  0.10564482890E+04  0.25500000920E-02 0. -1.
       -2    1    3    3    0  502  0.92210814174E+02 -0.48902030441E+03 -0.19591096183E+04  0.20213248599E+04  0.25500000920E-02 0.  1.
</event>
<event>
 5   0  0.9950999E-07  0.2897885E+04  0.7818609E-02  0.8273507E-01
        2   -1    0    0  501    0  0.00000000000E+00  0.00000000000E+00  0.18267890943E+04  0.18267890943E+04  0.25500000920E-02 0. -1.
       -2   -1    0    0    0  501  0.00000000000E+00  0.00000000000E+00 -0.11492481752E+04  0.11492481752E+04  0.25500000920E-02 0.  1.
    10030    2    1    2    0    0  0.00000000000E+00  0.00000000000E+00  0.67754091908E+03  0.29760372695E+04  0.28978847687E+04 0.  0.
        3    1    3    3  502    0  0.65970179808E+03 -0.10751415666E+04  0.10709482103E+04  0.16547102254E+04  0.10100000352E+00 0. -1.
       -3    1    3    3    0  502 -0.65970179808E+03  0.10751415666E+04 -0.39340729123E+03  0.13213270441E+04  0.10100000352E+00 0.  1.
</event>
<event>
 5   0  0.3769563E-07  0.2904627E+04  0.7818609E-02  0.8271502E-01
       -1   -1    0    0    0  501  0.00000000000E+00  0.00000000000E+00  0.11280105560E+04  0.11280105560E+04  0.50400001928E-02 0. -1.
        1   -1    0    0  501    0  0.00000000000E+00  0.00000000000E+00 -0.18698531934E+04  0.18698531934E+04  0.50400001928E-02 0.  1.
    10030    2    1    2    0    0  0.00000000000E+00  0.00000000000E+00 -0.74184263739E+03  0.29978637495E+04  0.29046267508E+04 0.  0.
        3    1    3    3  502    0 -0.35586619015E+03  0.11688024609E+04  0.43944057007E+03  0.12984020805E+04  0.10100000352E+00 0. -1.
       -3    1    3    3    0  502  0.35586619015E+03 -0.11688024609E+04 -0.11812832075E+04  0.16994616690E+04  0.10100000352E+00 0.  1.
</event>
<event>
 5   0  0.3638028E-07  0.2904060E+04  0.7818609E-02  0.8271671E-01
        1   -1    0    0  501    0  0.00000000000E+00  0.00000000000E+00  0.13991439459E+04  0.13991439459E+04  0.50400001928E-02 0.  1.
       -1   -1    0    0    0  501  0.00000000000E+00  0.00000000000E+00 -0.15069149172E+04  0.15069149172E+04  0.50400001928E-02 0. -1.
    10030    2    1    2    0    0  0.00000000000E+00  0.00000000000E+00 -0.10777097135E+03  0.29060588631E+04  0.29040598364E+04 0.  0.
        4    1    3    3  502    0  0.22638374420E+03 -0.27819306850E+03  0.13541183383E+04  0.14008137171E+04  0.12699999809E+01 0.  1.
       -4    1    3    3    0  502 -0.22638374420E+03  0.27819306850E+03 -0.14618893096E+04  0.15052451460E+04  0.12699999809E+01 0. -1.
</event>
<event>
 5   0  0.9950999E-07  0.2904748E+04  0.7818609E-02  0.8271466E-01
        2   -1    0    0  501    0  0.00000000000E+00  0.00000000000E+00  0.12331807411E+04  0.12331807411E+04  0.25500000920E-02 0. -1.
       -2   -1    0    0    0  501  0.00000000000E+00  0.00000000000E+00 -0.17105281287E+04  0.17105281287E+04  0.25500000920E-02 0.  1.
    10030    2    1    2    0    0  0.00000000000E+00  0.00000000000E+00 -0.47734738753E+03  0.29437088698E+04  0.29047480754E+04 0.  0.
        3    1    3    3  502    0 -0.64020431442E+03 -0.72233859056E+03 -0.13384744071E+04  0.16501964587E+04  0.10100000352E+00 0.  1.
       -3    1    3    3    0  502  0.64020431442E+03  0.72233859056E+03  0.86112701958E+03  0.12935124111E+04  0.10100000352E+00 0. -1.
</event>
<event>
 5   0  0.9994311E-07  0.2902300E+04  0.7818609E-02  0.8272194E-01
        2   -1    0    0  501    0  0.00000000000E+00  0.00000000000E+00  0.17689155559E+04  0.17689155559E+04  0.25500000920E-02 0. -1.
       -2   -1    0    0    0  501  0.00000000000E+00  0.00000000000E+00 -0.11904672740E+04  0.11904672740E+04  0.25500000920E-02 0.  1.
    10030    2    1    2    0    0  0.00000000000E+00  0.00000000000E+00  0.57844828190E+03  0.29593828299E+04  0.29022998327E+04 0.  0.
        2    1    3    3  502    0 -0.11566768462E+04 -0.43707039391E+02  0.11816665260E+04  0.16541304092E+04  0.25500000920E-02 0. -1.
       -2    1    3    3    0  502  0.11566768462E+04  0.43707039391E+02 -0.60321824412E+03  0.13052524207E+04  0.25500000920E-02 0.  1.
</event>
<event>
 5   0  0.3770467E-07  0.2899987E+04  0.7818609E-02  0.8272881E-01
        1   -1    0    0  501    0  0.00000000000E+00  0.00000000000E+00  0.17722291232E+04  0.17722291232E+04  0.50400001928E-02 0. -1.
       -1   -1    0    0    0  501  0.00000000000E+00  0.00000000000E+00 -0.11863486038E+04  0.11863486038E+04  0.50400001928E-02 0.  1.
    10030    2    1    2    0    0  0.00000000000E+00  0.00000000000E+00  0.58588051941E+03  0.29585777270E+04  0.28999872730E+04 0.  0.
        1    1    3    3  502    0  0.12894710550E+03  0.47810033519E+03 -0.10974122058E+04  0.12039604795E+04  0.50400001928E-02 0.  1.
       -1    1    3    3    0  502 -0.12894710550E+03 -0.47810033519E+03  0.16832927253E+04  0.17546172476E+04  0.50400001928E-02 0. -1.
</event>
<event>
 5   0  0.1063979E-06  0.2898415E+04  0.7818609E-02  0.8273349E-01
        2   -1    0    0  501    0  0.00000000000E+00  0.00000000000E+00  0.18094774839E+04  0.18094774839E+04  0.25500000920E-02 0.  1.
       -2   -1    0    0    0  501  0.00000000000E+00  0.00000000000E+00 -0.11606681474E+04  0.11606681474E+04  0.25500000920E-02 0. -1.
    10030    2    1    2    0    0  0.00000000000E+00  0.00000000000E+00  0.64880933651E+03  0.29701456314E+04  0.28984153457E+04 0.  0.
        1    1    3    3  502    0  0.19974181520E+03 -0.24475128737E+02 -0.11462809715E+04  0.11638109341E+04  0.50400001928E-02 0. -1.
       -1    1    3    3    0  502 -0.19974181520E+03  0.24475128737E+02  0.17950903080E+04  0.18063346973E+04  0.50400001928E-02 0.  1.
</event>
<event>
 5   0  0.3885904E-07  0.2895567E+04  0.7818609E-02  0.8274198E-01
        1   -1    0    0  501    0  0.00000000000E+00  0.00000000000E+00  0.13310464459E+04  0.13310464459E+04  0.50400001928E-02 0. -1.
       -1   -1    0    0    0  501  0.00000000000E+00  0.00000000000E+00 -0.15747587409E+04  0.15747587409E+04  0.50400001928E-02 0.  1.
    10030    2    1    2    0    0  0.00000000000E+00  0.00000000000E+00 -0.24371229497E+03  0.29058051869E+04  0.28955669741E+04 0.  0.
        2    1    3    3  502    0  0.78741157270E+03  0.11505563299E+04 -0.51346685666E+03  0.14857473089E+04  0.25500000920E-02 0.  1.
       -2    1    3    3    0  502 -0.78741157270E+03 -0.11505563299E+04  0.26975456169E+03  0.14200578779E+04  0.25500000920E-02 0. -1.
</event>
<event>
 5   0  0.1031339E-06  0.2897504E+04  0.7818609E-02  0.8273621E-01
        2   -1    0    0  501    0  0.00000000000E+00  0.00000000000E+00  0.19434365258E+04  0.19434365258E+04  0.25500000920E-02 0. -1.
       -2   -1    0    0    0  501  0.00000000000E+00  0.00000000000E+00 -0.10799849747E+04  0.10799849747E+04  0.25500000920E-02 0.  1.
    10030    2    1    2    0    0  0.00000000000E+00  0.00000000000E+00  0.86345155111E+03  0.30234215005E+04  0.28975039239E+04 0.  0.
        5    1    3    3  502    0  0.57849988413E+03 -0.11411104317E+04 -0.27756810388E+03  0.13091452462E+04  0.46999998093E+01 0.  1.
       -5    1    3    3    0  502 -0.57849988413E+03  0.11411104317E+04  0.11410196550E+04  0.17142762544E+04  0.46999998093E+01 0. -1.
</event>
<event>
 5   0  0.3885904E-07  0.2896211E+04  0.7818609E-02  0.8274006E-01
       -1   -1    0    0    0  501  0.00000000000E+00  0.00000000000E+00  0.97075343862E+03  0.97075343863E+03  0.50400001928E-02 0. -1.
        1   -1    0    0  501    0  0.00000000000E+00  0.00000000000E+00 -0.21601878237E+04  0.21601878237E+04  0.50400001928E-02 0.  1.
    10030    2    1    2    0    0  0.00000000000E+00  0.00000000000E+00 -0.11894343850E+04  0.31309412623E+04  0.28962111511E+04 0.  0.
        2    1    3    3  502    0  0.37653930356E+03 -0.26137435474E+03  0.89026227255E+03  0.10013317704E+04  0.25500000920E-02 0. -1.
       -2    1    3    3    0  502 -0.37653930356E+03  0.26137435474E+03 -0.20796966576E+04  0.21296094919E+04  0.25500000920E-02 0.  1.
</event>
<event>
 5   0  0.3769563E-07  0.2896948E+04  0.7818609E-02  0.8273786E-01
       -1   -1    0    0    0  501  0.00000000000E+00  0.00000000000E+00  0.16041516480E+04  0.16041516480E+04  0.50400001928E-02 0. -1.
        1   -1    0    0  501    0  0.00000000000E+00  0.00000000000E+00 -0.13079044190E+04  0.13079044190E+04  0.50400001928E-02 0.  1.
    10030    2    1    2    0    0  0.00000000000E+00  0.00000000000E+00  0.29624722895E+03  0.29120560670E+04  0.28969480694E+04 0.  0.
        3    1    3    3  502    0 -0.68154370638E+03  0.12217744843E+04 -0.22912320229E+03  0.14176502271E+04  0.10100000352E+00 0.  1.
       -3    1    3    3    0  502  0.68154370638E+03 -0.12217744843E+04  0.52537043124E+03  0.14944058400E+04  0.10100000352E+00 0. -1.
</event>
<event>
 5   0  0.3786210E-07  0.2888575E+04  0.7818609E-02  0.8276285E-01
        1   -1    0    0  501    0  0.00000000000E+00  0.00000000000E+00  0.16688531479E+04  0.16688531479E+04  0.50400001928E-02 0. -1.
       -1   -1    0    0    0  501  0.00000000000E+00  0.00000000000E+00 -0.12499397970E+04  0.12499397970E+04  0.50400001928E-02 0.  1.
    10030    2    1    2    0    0  0.00000000000E+00  0.00000000000E+00  0.41891335095E+03  0.29187929449E+04  0.28885747108E+04 0.  0.
        5    1    3    3  502    0 -0.66005604679E+03  0.77545481413E+03 -0.82543513192E+03  0.13108658973E+04  0.46999998093E+01 0.  1.
       -5    1    3    3    0  502  0.66005604679E+03 -0.77545481413E+03  0.12443484829E+04  0.16079270476E+04  0.46999998093E+01 0. -1.
</event>
<event>
 5   0  0.1063979E-06  0.2897566E+04  0.7818609E-02  0.8273602E-01
       -2   -1    0    0    0  501  0.00000000000E+00  0.00000000000E+00  0.97980611253E+03  0.97980611254E+03  0.25500000920E-02 0.  1.
        2   -1    0    0  501    0  0.00000000000E+00  0.00000000000E+00 -0.21422325310E+04  0.21422325310E+04  0.25500000920E-02 0. -1.
    10030    2    1    2    0    0  0.00000000000E+00  0.00000000000E+00 -0.11624264185E+04  0.31220386435E+04  0.28975662397E+04 0.  0.
        1    1    3    3  502    0 -0.31222977828E+03  0.12313273450E+04  0.16940332970E+03  0.12815428019E+04  0.50400001928E-02 0.  1.
       -1    1    3    3    0  502  0.31222977828E+03 -0.12313273450E+04 -0.13318297482E+04  0.18404958416E+04  0.50400001928E-02 0. -1.
</event>
<event>
 5   0  0.3769563E-07  0.2910671E+04  0.7818609E-02  0.8269710E-01
       -1   -1    0    0    0  501  0.00000000000E+00  0.00000000000E+00  0.11946252320E+04  0.11946252320E+04  0.50400001928E-02 0.  1.
        1   -1    0    0  501    0  0.00000000000E+00  0.00000000000E+00 -0.17729420710E+04  0.17729420711E+04  0.50400001928E-02 0. -1.
    10030    2    1    2    0    0  0.00000000000E+00  0.00000000000E+00 -0.57831683904E+03  0.29675673031E+04  0.29106709419E+04 0.  0.
        3    1    3    3  502    0  0.13095632493E+04  0.15552590181E+03  0.33838703720E+03  0.13614881590E+04  0.10100000352E+00 0.  1.
       -3    1    3    3    0  502 -0.13095632493E+04 -0.15552590181E+03 -0.91670387624E+03  0.16060791440E+04  0.10100000352E+00 0. -1.
</event>
<event>
 5   0  0.9994311E-07  0.2901614E+04  0.7818609E-02  0.8272398E-01
       -2   -1    0    0    0  501  0.00000000000E+00  0.00000000000E+00  0.26573396118E+04  0.26573396118E+04  0.25500000920E-02 0.  1.
        2   -1    0    0  501    0  0.00000000000E+00  0.00000000000E+00 -0.79208553445E+03  0.79208553446E+03  0.25500000920E-02 0. -1.
    10030    2    1    2    0    0  0.00000000000E+00  0.00000000000E+00  0.18652540773E+04  0.34494251462E+04  0.29016135281E+04 0.  0.
        2    1    3    3  502    0  0.49876182657E+03 -0.17664047413E+03 -0.67329228679E+03  0.85632220583E+03  0.25500000920E-02 0. -1.
       -2    1    3    3    0  502 -0.49876182657E+03  0.17664047413E+03  0.25385463641E+04  0.25931029404E+04  0.25500000920E-02 0.  1.
</event>
<event>
 5   0  0.3638028E-07  0.2885644E+04  0.7818609E-02  0.8277162E-01
       -1   -1    0    0    0  501  0.00000000000E+00  0.00000000000E+00  0.89455002670E+03  0.89455002671E+03  0.50400001928E-02 0. -1.
        1   -1    0    0  501    0  0.00000000000E+00  0.00000000000E+00 -0.23271305044E+04  0.23271305044E+04  0.50400001928E-02 0.  1.
    10030    2    1    2    0    0  0.00000000000E+00  0.00000000000E+00 -0.14325804777E+04  0.32216805311E+04  0.28856435365E+04 0.  0.
        4    1    3    3  502    0  0.10578119018E+04 -0.44424349912E+03 -0.16930509908E+04  0.20451751945E+04  0.12699999809E+01 0.  1.
       -4    1    3    3    0  502 -0.10578119018E+04  0.44424349912E+03  0.26047051305E+03  0.11765053366E+04  0.12699999809E+01 0. -1.
</event>
<event>
 5   0  0.3786210E-07  0.2894794E+04  0.7818609E-02  0.8274428E-01
        1   -1    0    0  501    0  0.00000000000E+00  0.00000000000E+00  0.15717329757E+04  0.15717329757E+04  0.50400001928E-02 0. -1.
       -1   -1    0    0    0  501  0.00000000000E+00  0.00000000000E+00 -0.13328966071E+04  0.13328966071E+04  0.50400001928E-02 0.  1.
    10030    2    1    2    0    0  0.00000000000E+00  0.00000000000E+00  0.23883636861E+03  0.29046295828E+04  0.28947936373E+04 0.  0.
        5    1    3    3  502    0  0.52787847459E+02 -0.14461852549E+04  0.92925587740E+02  0.14501364085E+04  0.46999998093E+01 0. -1.
       -5    1    3    3    0  502 -0.52787847459E+02  0.14461852549E+04  0.14591078087E+03  0.14544931743E+04  0.46999998093E+01 0.  1.
</event>
<event>
 5   0  0.1031339E-06  0.2897899E+04  0.7818609E-02  0.8273503E-01
        2   -1    0    0  501    0  0.00000000000E+00  0.00000000000E+00  0.11454844931E+04  0.11454844931E+04  0.25500000920E-02 0. -1.
       -2   -1    0    0    0  501  0.00000000000E+00  0.00000000000E+00 -0.18328097369E+04  0.18328097369E+04  0.25500000920E-02 0.  1.
    10030    2    1    2    0    0  0.00000000000E+00  0.00000000000E+00 -0.68732524380E+03  0.29782942300E+04  0.28978993305E+04 0.  0.
        5    1    3    3  502    0 -0.81820691461E+03 -0.10718587890E+04 -0.88854956798E+03  0.16148951184E+04  0.46999998093E+01 0. -1.
       -5    1    3    3    0  502  0.81820691461E+03  0.10718587890E+04  0.20122432417E+03  0.13633991116E+04  0.46999998093E+01 0.  1.
</event>
<event>
 5   0  0.3786210E-07  0.2896564E+04  0.7818609E-02  0.8273901E-01
       -1   -1    0    0    0  501  0.00000000000E+00  0.00000000000E+00  0.10749926051E+04  0.10749926051E+04  0.50400001928E-02 0. -1.
        1   -1    0    0  501    0  0.00000000000E+00  0.00000000000E+00 -0.19511954525E+04  0.19511954526E+04  0.50400001928E-02 0.  1.
    10030    2    1    2    0    0  0.00000000000E+00  0.00000000000E+00 -0.87620284749E+03  0.30261880576E+04  0.28965639524E+04 0.  0.
        5    1    3    3  502    0 -0.86076447686E+03  0.86141807663E+03 -0.12571102424E+04  0.17502299389E+04  0.46999998093E+01 0.  1.
       -5    1    3    3    0  502  0.86076447686E+03 -0.86141807663E+03  0.38090739490E+03  0.12759581188E+04  0.46999998093E+01 0. -1.
</event>
<event>
 5   0  0.3885904E-07  0.2894297E+04  0.7818609E-02  0.8274576E-01
        1   -1    0    0  501    0  0.00000000000E+00  0.00000000000E+00  0.73319918078E+03  0.73319918080E+03  0.50400001928E-02 0. -1.
       -1   -1    0    0    0  501  0.00000000000E+00  0.00000000000E+00 -0.28563019667E+04  0.28563019667E+04  0.50400001928E-02 0.  1.
    10030    2    1    2    0    0  0.00000000000E+00  0.00000000000E+00 -0.21231027860E+04  0.35895011475E+04  0.28942966414E+04 0.  0.
        2    1    3    3  502    0  0.44768936246E+03  0.22020153049E+02  0.64493936243E+03  0.78540272066E+03  0.25500000920E-02 0. -1.
       -2    1    3    3    0  502 -0.44768936246E+03 -0.22020153049E+02 -0.27680421484E+04  0.28040984269E+04  0.25500000920E-02 0.  1.
</event>
<event>
 5   0  0.1063979E-06  0.2894506E+04  0.7818609E-02  0.8274514E-01
       -2   -1    0    0    0  501  0.00000000000E+00  0.00000000000E+00  0.86042454232E+03  0.86042454232E+03  0.25500000920E-02 0.  1.
        2   -1    0    0  501    0  0.00000000000E+00  0.00000000000E+00 -0.24343110217E+04  0.24343110217E+04  0.25500000920E-02 0. -1.
    10030    2    1    2    0    0  0.00000000000E+00  0.00000000000E+00 -0.15738864794E+04  0.32947355641E+04  0.28945057932E+04 0.  0.
        1    1    3    3  502    0 -0.79955775936E+03  0.81155671230E+03  0.22900795280E+03  0.11620505799E+04  0.50400001928E-02 0.  1.
       -1    1    3    3    0  502  0.79955775936E+03 -0.81155671230E+03 -0.18028944322E+04  0.21326849841E+04  0.50400001928E-02 0. -1.
</event>
<event>
 5   0  0.3638028E-07  0.2897266E+04  0.7818609E-02  0.8273691E-01
        1   -1    0    0  501    0  0.00000000000E+00  0.00000000000E+00  0.17019313745E+04  0.17019313745E+04  0.50400001928E-02 0. -1.
       -1   -1    0    0    0  501  0.00000000000E+00  0.00000000000E+00 -0.12330329635E+04  0.12330329635E+04  0.50400001928E-02 0.  1.
    10030    2    1    2    0    0  0.00000000000E+00  0.00000000000E+00  0.46889841092E+03  0.29349643380E+04  0.28972659432E+04 0.  0.
        4    1    3    3  502    0  0.13222598522E+04  0.67480951052E+02  0.82998558253E+03  0.15626267870E+04  0.12699999809E+01 0. -1.
       -4    1    3    3    0  502 -0.13222598522E+04 -0.67480951052E+02 -0.36108717161E+03  0.13723375510E+04  0.12699999809E+01 0.  1.
</event>
<event>
 5   0  0.1063979E-06  0.2901498E+04  0.7818609E-02  0.8272432E-01
        2   -1    0    0  501    0  0.00000000000E+00  0.00000000000E+00  0.22939236205E+04  0.22939236206E+04  0.25500000920E-02 0.  1.
       -2   -1    0    0    0  501  0.00000000000E+00  0.00000000000E+00 -0.91749874631E+03  0.91749874631E+03  0.25500000920E-02 0. -1.
    10030    2    1    2    0    0  0.00000000000E+00  0.00000000000E+00  0.13764248742E+04  0.32114223669E+04  0.29014975761E+04 0.  0.
        1    1    3    3  502    0  0.26966455763E+03  0.11586004070E+04  0.16073346577E+04  0.19996496139E+04  0.50400001928E-02 0.  1.
       -1    1    3    3    0  502 -0.26966455763E+03 -0.11586004070E+04 -0.23090978342E+03  0.12117727529E+04  0.50400001928E-02 0. -1.
</event>
<event>
 5   0  0.1063979E-06  0.2900123E+04  0.7818609E-02  0.8272841E-01
       -2   -1    0    0    0  501  0.00000000000E+00  0.00000000000E+00  0.12832961634E+04  0.12832961634E+04  0.25500000920E-02 0. -1.
        2   -1    0    0  501    0  0.00000000000E+00  0.00000000000E+00 -0.16384976896E+04  0.16384976896E+04  0.25500000920E-02 0.  1.
    10030    2    1    2    0    0  0.00000000000E+00  0.00000000000E+00 -0.35520152620E+03  0.29217938531E+04  0.29001226174E+04 0.  0.
        1    1    3    3  502    0 -0.14474193714E+03 -0.70026146957E+03  0.10933175180E+04  0.13063918054E+04  0.50400001928E-02 0. -1.
       -1    1    3    3    0  502  0.14474193714E+03  0.70026146957E+03 -0.14485190442E+04  0.16154020477E+04  0.50400001928E-02 0.  1.
</event>
<event>
 5   0  0.3638028E-07  0.2906108E+04  0.7818609E-02  0.8271062E-01
       -1   -1    0    0    0  501  0.00000000000E+00  0.00000000000E+00  0.96512645186E+03  0.96512645187E+03  0.50400001928E-02 0.  1.
        1   -1    0    0  501    0  0.00000000000E+00  0.00000000000E+00 -0.21876578006E+04  0.21876578006E+04  0.50400001928E-02 0. -1.
    10030    2    1    2    0    0  0.00000000000E+00  0.00000000000E+00 -0.12225313488E+04  0.31527842525E+04  0.29061083332E+04 0.  0.
        4    1    3    3  502    0  0.66127880081E+03  0.12937902515E+04 -0.62589874726E+03  0.15820662824E+04  0.12699999809E+01 0.  1.
       -4    1    3    3    0  502 -0.66127880081E+03 -0.12937902515E+04 -0.59663260150E+03  0.15707179700E+04  0.12699999809E+01 0. -1.
</event>
<event>
 5   0  0.3769563E-07  0.2888154E+04  0.7818609E-02  0.8276411E-01
       -1   -1    0    0    0  501  0.00000000000E+00  0.00000000000E+00  0.12059087767E+04  0.12059087767E+04  0.50400001928E-02 0.  1.
        1   -1    0    0  501    0  0.00000000000E+00  0.00000000000E+00 -0.17292841783E+04  0.17292841783E+04  0.50400001928E-02 0. -1.
    10030    2    1    2    0    0  0.00000000000E+00  0.00000000000E+00 -0.52337540159E+03  0.29351929549E+04  0.28881544058E+04 0.  0.
        3    1    3    3  502    0 -0.80157301060E+03 -0.19052979124E+03 -0.14669789228E+04  0.16825124258E+04  0.10100000352E+00 0. -1.
       -3    1    3    3    0  502  0.80157301060E+03  0.19052979124E+03  0.94360352123E+03  0.12526805292E+04  0.10100000352E+00 0.  1.
</event>
<event>
 5   0  0.1006893E-06  0.2889730E+04  0.7818609E-02  0.8275940E-01
       -2   -1    0    0    0  501  0.00000000000E+00  0.00000000000E+00  0.14297518967E+04  0.14297518968E+04  0.25500000920E-02 0. -1.
        2   -1    0    0  501    0  0.00000000000E+00  0.00000000000E+00 -0.14601383003E+04  0.14601383003E+04  0.25500000920E-02 0.  1.
    10030    2    1    2    0    0  0.00000000000E+00  0.00000000000E+00 -0.30386403590E+02  0.28898901971E+04  0.28897304403E+04 0.  0.
        4    1    3    3  502    0  0.76879098088E+02  0.14072800006E+04 -0.33346619037E+03  0.14482916518E+04  0.12699999809E+01 0. -1.
       -4    1    3    3    0  502 -0.76879098088E+02 -0.14072800006E+04  0.30307978678E+03  0.14415985453E+04  0.12699999809E+01 0.  1.
</event>
<event>
 5   0  0.3638028E-07  0.2901611E+04  0.7818609E-02  0.8272398E-01
        1   -1    0    0  501    0  0.00000000000E+00  0.00000000000E+00  0.61902886791E+03  0.61902886793E+03  0.50400001928E-02 0. -1.
       -1   -1    0    0    0  501  0.00000000000E+00  0.00000000000E+00 -0.34002242423E+04  0.34002242423E+04  0.50400001928E-02 0.  1.
    10030    2    1    2    0    0  0.00000000000E+00  0.00000000000E+00 -0.27811953744E+04  0.40192531103E+04  0.29016112513E+04 0.  0.
        4    1    3    3  502    0  0.40954490147E+03 -0.87675357842E+02 -0.33146623813E+04  0.33410181547E+04  0.12699999809E+01 0.  1.
       -4    1    3    3    0  502 -0.40954490147E+03  0.87675357842E+02  0.53346700689E+03  0.67823495562E+03  0.12699999809E+01 0. -1.
</event>
<event>
 5   0  0.3770467E-07  0.2836626E+04  0.7818609E-02  0.8291987E-01
        1   -1    0    0  501    0  0.00000000000E+00  0.00000000000E+00  0.22635407256E+04  0.22635407256E+04  0.50400001928E-02 0.  1.
       -1   -1    0    0    0  501  0.00000000000E+00  0.00000000000E+00 -0.88870117778E+03  0.88870117780E+03  0.50400001928E-02 0. -1.
    10030    2    1    2    0    0  0.00000000000E+00  0.00000000000E+00  0.13748395478E+04  0.31522419034E+04  0.28366256777E+04 0.  0.
        1    1    3    3  502    0  0.90696101162E+03 -0.27537414168E+03 -0.48505773141E+03  0.10647488893E+04  0.50400001928E-02 0. -1.
       -1    1    3    3    0  502 -0.90696101162E+03  0.27537414168E+03  0.18598972792E+04  0.20874930140E+04  0.50400001928E-02 0.  1.
</event>
<event>
 5   0  0.3786210E-07  0.2875398E+04  0.7818609E-02  0.8280235E-01
        1   -1    0    0  501    0  0.00000000000E+00  0.00000000000E+00  0.16659172238E+04  0.16659172238E+04  0.50400001928E-02 0.  1.
       -1   -1    0    0    0  501  0.00000000000E+00  0.00000000000E+00 -0.12407452228E+04  0.12407452228E+04  0.50400001928E-02 0. -1.
    10030    2    1    2    0    0  0.00000000000E+00  0.00000000000E+00  0.42517200099E+03  0.29066624467E+04  0.28753982939E+04 0.  0.
        5    1    3    3  502    0  0.30081794862E+03 -0.44405705522E+03  0.15609854658E+04  0.16505683327E+04  0.46999998093E+01 0.  1.
       -5    1    3    3    0  502 -0.30081794862E+03  0.44405705522E+03 -0.11358134648E+04  0.12560941140E+04  0.46999998093E+01 0. -1.
</event>
<event>
 5   0  0.1006893E-06  0.2900149E+04  0.7818609E-02  0.8272833E-01
        2   -1    0    0  501    0  0.00000000000E+00  0.00000000000E+00  0.15495935061E+04  0.15495935061E+04  0.25500000920E-02 0.  1.
       -2   -1    0    0    0  501  0.00000000000E+00  0.00000000000E+00 -0.13569470865E+04  0.13569470865E+04  0.25500000920E-02 0. -1.
    10030    2    1    2    0    0  0.00000000000E+00  0.00000000000E+00  0.19264641963E+03  0.29065405926E+04  0.29001492329E+04 0.  0.
        4    1    3    3  502    0 -0.87642515855E+03 -0.11257452766E+04  0.35630054434E+03  0.14705016753E+04  0.12699999809E+01 0. -1.
       -4    1    3    3    0  502  0.87642515855E+03  0.11257452766E+04 -0.16365412471E+03  0.14360389172E+04  0.12699999809E+01 0.  1.
</event>
<event>
 5   0  0.9994311E-07  0.2899685E+04  0.7818609E-02  0.8272971E-01
        2   -1    0    0  501    0  0.00000000000E+00  0.00000000000E+00  0.15524057687E+04  0.15524057687E+04  0.25500000920E-02 0.  1.
       -2   -1    0    0    0  501  0.00000000000E+00  0.00000000000E+00 -0.13540549293E+04  0.13540549293E+04  0.25500000920E-02 0. -1.
    10030    2    1    2    0    0  0.00000000000E+00  0.00000000000E+00  0.19835083939E+03  0.29064606979E+04  0.28996845920E+04 0.  0.
        2    1    3    3  502    0 -0.25197571148E+03  0.16164631326E+03  0.15210888511E+04  0.15502685518E+04  0.25500000920E-02 0.  1.
       -2    1    3    3    0  502  0.25197571148E+03 -0.16164631326E+03 -0.13227380117E+04  0.13561921462E+04  0.25500000920E-02 0. -1.
</event>
<event>
 5   0  0.3786210E-07  0.2901012E+04  0.7818609E-02  0.8272576E-01
       -1   -1    0    0    0  501  0.00000000000E+00  0.00000000000E+00  0.10299954226E+04  0.10299954226E+04  0.50400001928E-02 0.  1.
        1   -1    0    0  501    0  0.00000000000E+00  0.00000000000E+00 -0.20426963692E+04  0.20426963692E+04  0.50400001928E-02 0. -1.
    10030    2    1    2    0    0  0.00000000000E+00  0.00000000000E+00 -0.10127009466E+04  0.30726917919E+04  0.29010121752E+04 0.  0.
        5    1    3    3  502    0 -0.13723785709E+04 -0.45318793586E+03 -0.63669224714E+03  0.15793040729E+04  0.46999998093E+01 0.  1.
       -5    1    3    3    0  502  0.13723785709E+04  0.45318793586E+03 -0.37600869944E+03  0.14933877190E+04  0.46999998093E+01 0. -1.
</event>
<event>
 5   0  0.3770467E-07  0.2889826E+04  0.7818609E-02  0.8275911E-01
       -1   -1    0    0    0  501  0.00000000000E+00  0.00000000000E+00  0.88401136386E+03  0.88401136387E+03  0.50400001928E-02 0.  1.
        1   -1    0    0  501    0  0.00000000000E+00  0.00000000000E+00 -0.23617040767E+04  0.23617040767E+04  0.50400001928E-02 0. -1.
    10030    2    1    2    0    0  0.00000000000E+00  0.00000000000E+00 -0.14776927128E+04  0.32457154405E+04  0.28898257677E+04 0.  0.
        1    1    3    3  502    0  0.35169345683E+03 -0.65085973244E+03 -0.21328532466E+04  0.22575140421E+04  0.50400001928E-02 0. -1.
       -1    1    3    3    0  502 -0.35169345683E+03  0.65085973244E+03  0.65516053375E+03  0.98820139845E+03  0.50400001928E-02 0.  1.
</event>
<event>
 5   0  0.9950999E-07  0.2908779E+04  0.7818609E-02  0.8270270E-01
        2   -1    0    0  501    0  0.00000000000E+00  0.00000000000E+00  0.14805351845E+04  0.14805351845E+04  0.25500000920E-02 0. -1.
       -2   -1    0    0    0  501  0.00000000000E+00  0.00000000000E+00 -0.14287055913E+04  0.14287055913E+04  0.25500000920E-02 0.  1.
    10030    2    1    2    0    0  0.00000000000E+00  0.00000000000E+00  0.51829593297E+02  0.29092407758E+04  0.29087790540E+04 0.  0.
        3    1    3    3  502    0  0.67679390784E+03  0.10836044895E+03  0.13088720549E+04  0.14774769192E+04  0.10100000352E+00 0. -1.
       -3    1    3    3    0  502 -0.67679390784E+03 -0.10836044895E+03 -0.12570424616E+04  0.14317638566E+04  0.10100000352E+00 0.  1.
</event>
<event>
 5   0  0.1006893E-06  0.2900409E+04  0.7818609E-02  0.8272756E-01
        2   -1    0    0  501    0  0.00000000000E+00  0.00000000000E+00  0.12049923575E+04  0.12049923575E+04  0.25500000920E-02 0. -1.
       -2   -1    0    0    0  501  0.00000000000E+00  0.00000000000E+00 -0.17453163745E+04  0.17453163745E+04  0.25500000920E-02 0.  1.
    10030    2    1    2    0    0  0.00000000000E+00  0.00000000000E+00 -0.54032401696E+03  0.29503087320E+04  0.29004088627E+04 0.  0.
        4    1    3    3  502    0  0.79011374036E+03  0.11294390647E+04  0.18834671582E+03  0.13911823826E+04  0.12699999809E+01 0. -1.
       -4    1    3    3    0  502 -0.79011374036E+03 -0.11294390647E+04 -0.72867073278E+03  0.15591263494E+04  0.12699999809E+01 0.  1.
</event>
<event>
 5   0  0.1006893E-06  0.2900681E+04  0.7818609E-02  0.8272675E-01
        2   -1    0    0  501    0  0.00000000000E+00  0.00000000000E+00  0.22525887612E+04  0.22525887612E+04  0.25500000920E-02 0. -1.
       -2   -1    0    0    0  501  0.00000000000E+00  0.00000000000E+00 -0.93380876997E+03  0.93380876998E+03  0.25500000920E-02 0.  1.
    10030    2    1    2    0    0  0.00000000000E+00  0.00000000000E+00  0.13187799912E+04  0.31863975311E+04  0.29006807065E+04 0.  0.
        4    1    3    3  502    0 -0.12381448138E+04 -0.41386439587E+03 -0.34666569786E+02  0.13059439889E+04  0.12699999809E+01 0.  1.
       -4    1    3    3    0  502  0.12381448138E+04  0.41386439587E+03  0.13534465610E+04  0.18804535422E+04  0.12699999809E+01 0. -1.
</event>
<event>
 5   0  0.3769563E-07  0.2898644E+04  0.7818609E-02  0.8273281E-01
       -1   -1    0    0    0  501  0.00000000000E+00  0.00000000000E+00  0.17490871464E+04  0.17490871464E+04  0.50400001928E-02 0.  1.
        1   -1    0    0  501    0  0.00000000000E+00  0.00000000000E+00 -0.12009316240E+04  0.12009316240E+04  0.50400001928E-02 0. -1.
    10030    2    1    2    0    0  0.00000000000E+00  0.00000000000E+00  0.54815552239E+03  0.29500187704E+04  0.28986438673E+04 0.  0.
        3    1    3    3  502    0 -0.12563056125E+04 -0.26741441991E+03 -0.40917789251E+03  0.13480507490E+04  0.10100000352E+00 0. -1.
       -3    1    3    3    0  502  0.12563056125E+04  0.26741441991E+03  0.95733341491E+03  0.16019680214E+04  0.10100000352E+00 0.  1.
</event>
<event>
 5   0  0.3769563E-07  0.2901122E+04  0.7818609E-02  0.8272544E-01
        1   -1    0    0  501    0  0.00000000000E+00  0.00000000000E+00  0.13107556824E+04  0.13107556824E+04  0.50400001928E-02 0.  1.
       -1   -1    0    0    0  501  0.00000000000E+00  0.00000000000E+00 -0.16052781851E+04  0.16052781851E+04  0.50400001928E-02 0. -1.
    10030    2    1    2    0    0  0.00000000000E+00  0.00000000000E+00 -0.29452250271E+03  0.29160338675E+04  0.29011221987E+04 0.  0.
        3    1    3    3  502    0  0.92713798246E+03 -0.40952614991E+02 -0.12678302790E+04  0.15711955899E+04  0.10100000352E+00 0. -1.
       -3    1    3    3    0  502 -0.92713798246E+03  0.40952614991E+02  0.97330777634E+03  0.13448382776E+04  0.10100000352E+00 0.  1.
</event>
<event>
 5   0  0.3770467E-07  0.2898491E+04  0.7818609E-02  0.8273327E-01
       -1   -1    0    0    0  501  0.00000000000E+00  0.00000000000E+00  0.10274456371E+04  0.10274456371E+04  0.50400001928E-02 0.  1.
        1   -1    0    0  501    0  0.00000000000E+00  0.00000000000E+00 -0.20442075917E+04  0.20442075917E+04  0.50400001928E-02 0. -1.
    10030    2    1    2    0    0  0.00000000000E+00  0.00000000000E+00 -0.10167619546E+04  0.30716532289E+04  0.28984907600E+04 0.  0.
        1    1    3    3  502    0  0.26729374618E+03  0.21842936840E+02  0.10009201620E+04  0.10362259557E+04  0.50400001928E-02 0.  1.
       -1    1    3    3    0  502 -0.26729374618E+03 -0.21842936840E+02 -0.20176821166E+04  0.20354272731E+04  0.50400001928E-02 0. -1.
</event>
<event>
 5   0  0.3885904E-07  0.2896947E+04  0.7818609E-02  0.8273786E-01
       -1   -1    0    0    0  501  0.00000000000E+00  0.00000000000E+00  0.12380011781E+04  0.12380011781E+04  0.50400001928E-02 0. -1.
        1   -1    0    0  501    0  0.00000000000E+00  0.00000000000E+00 -0.16947283430E+04  0.16947283430E+04  0.50400001928E-02 0.  1.
    10030    2    1    2    0    0  0.00000000000E+00  0.00000000000E+00 -0.45672716493E+03  0.29327295211E+04  0.28969471415E+04 0.  0.
        2    1    3    3  502    0 -0.19009339936E+03 -0.33359496537E+03 -0.16422731268E+04  0.16865592561E+04  0.25500000920E-02 0.  1.
       -2    1    3    3    0  502  0.19009339936E+03  0.33359496537E+03  0.11855459619E+04  0.12461702649E+04  0.25500000920E-02 0. -1.
</event>
<event>
 5   0  0.9950999E-07  0.2896109E+04  0.7818609E-02  0.8274036E-01
        2   -1    0    0  501    0  0.00000000000E+00  0.00000000000E+00  0.18769270646E+04  0.18769270646E+04  0.25500000920E-02 0. -1.
       -2   -1    0    0    0  501  0.00000000000E+00  0.00000000000E+00 -0.11171783940E+04  0.11171783940E+04  0.25500000920E-02 0.  1.
    10030    2    1    2    0    0  0.00000000000E+00  0.00000000000E+00  0.75974867066E+03  0.29941054586E+04  0.28961093651E+04 0.  0.
        3    1    3    3  502    0 -0.32815675868E+03 -0.12395867382E+04  0.10753941584E+04  0.16735395860E+04  0.10100000352E+00 0.  1.
       -3    1    3    3    0  502  0.32815675868E+03  0.12395867382E+04 -0.31564548777E+03  0.13205658726E+04  0.10100000352E+00 0. -1.
</event>
<event>
 5   0  0.9950999E-07  0.2897272E+04  0.7818609E-02  0.8273690E-01
        2   -1    0    0  501    0  0.00000000000E+00  0.00000000000E+00  0.18465785908E+04  0.18465785908E+04  0.25500000920E-02 0.  1.
       -2   -1    0    0    0  501  0.00000000000E+00  0.00000000000E+00 -0.11364513316E+04  0.11364513316E+04  0.25500000920E-02 0. -1.
    10030    2    1    2    0    0  0.00000000000E+00  0.00000000000E+00  0.71012725924E+03  0.29830299225E+04  0.28972723023E+04 0.  0.
        3    1    3    3  502    0 -0.86190638739E+02  0.55484492320E+03  0.17299798476E+04  0.18188215961E+04  0.10100000352E+00 0.  1.
       -3    1    3    3    0  502  0.86190638739E+02 -0.55484492320E+03 -0.10198525884E+04  0.11642083264E+04  0.10100000352E+00 0. -1.
</event>
<event>
 5   0  0.3769563E-07  0.2973296E+04  0.7818609E-02  0.8251398E-01
       -1   -1    0    0    0  501  0.00000000000E+00  0.00000000000E+00  0.10839100898E+04  0.10839100898E+04  0.50400001928E-02 0.  1.
        1   -1    0    0  501    0  0.00000000000E+00  0.00000000000E+00 -0.20390275378E+04  0.20390275378E+04  0.50400001928E-02 0. -1.
    10030    2    1    2    0    0  0.00000000000E+00  0.00000000000E+00 -0.95511744795E+03  0.31229376276E+04  0.29732961653E+04 0.  0.
        3    1    3    3  502    0 -0.13658849524E+04  0.54251228632E+03 -0.71279766577E+03  0.16334141565E+04  0.10100000352E+00 0. -1.
       -3    1    3    3    0  502  0.13658849524E+04 -0.54251228632E+03 -0.24231978218E+03  0.14895234711E+04  0.10100000352E+00 0.  1.
</event>
<event>
 5   0  0.9994311E-07  0.2899171E+04  0.7818609E-02  0.8273124E-01
       -2   -1    0    0    0  501  0.00000000000E+00  0.00000000000E+00  0.10007655973E+04  0.10007655973E+04  0.25500000920E-02 0. -1.
        2   -1    0    0  501    0  0.00000000000E+00  0.00000000000E+00 -0.20996903241E+04  0.20996903241E+04  0.25500000920E-02 0.  1.
    10030    2    1    2    0    0  0.00000000000E+00  0.00000000000E+00 -0.10989247268E+04  0.31004559215E+04  0.28991708066E+04 0.  0.
        2    1    3    3  502    0 -0.31648138378E+03  0.13482172918E+04 -0.10075068588E+04  0.17125771231E+04  0.25500000920E-02 0.  1.
       -2    1    3    3    0  502  0.31648138378E+03 -0.13482172918E+04 -0.91417868031E+02  0.13878787983E+04  0.25500000920E-02 0. -1.
</event>
<event>
 5   0  0.1063979E-06  0.2905102E+04  0.7818609E-02  0.8271361E-01
        2   -1    0    0  501    0  0.00000000000E+00  0.00000000000E+00  0.16775525559E+04  0.16775525559E+04  0.25500000920E-02 0. -1.
       -2   -1    0    0    0  501  0.00000000000E+00  0.00000000000E+00 -0.12577275977E+04  0.12577275977E+04  0.25500000920E-02 0.  1.
    10030    2    1    2    0    0  0.00000000000E+00  0.00000000000E+00  0.41982495823E+03  0.29352801536E+04  0.29051018200E+04 0.  0.
        1    1    3    3  502    0  0.12665953920E+04  0.66796841214E+03 -0.36461606604E+02  0.14324018764E+04  0.50400001928E-02 0. -1.
       -1    1    3    3    0  502 -0.12665953920E+04 -0.66796841214E+03  0.45628656484E+03  0.15028782772E+04  0.50400001928E-02 0.  1.
</event>
<event>
 5   0  0.1006893E-06  0.2894371E+04  0.7818609E-02  0.8274554E-01
       -2   -1    0    0    0  501  0.00000000000E+00  0.00000000000E+00  0.15112978724E+04  0.15112978724E+04  0.25500000920E-02 0. -1.
        2   -1    0    0  501    0  0.00000000000E+00  0.00000000000E+00 -0.13857926960E+04  0.13857926960E+04  0.25500000920E-02 0.  1.
    10030    2    1    2    0    0  0.00000000000E+00  0.00000000000E+00  0.12550517642E+03  0.28970905685E+04  0.28943707801E+04 0.  0.
        4    1    3    3  502    0  0.55761748243E+03  0.11387355861E+04 -0.63553320008E+03  0.14182947695E+04  0.12699999809E+01 0.  1.
       -4    1    3    3    0  502 -0.55761748243E+03 -0.11387355861E+04  0.76103837649E+03  0.14787957990E+04  0.12699999809E+01 0. -1.
</event>
<event>
 5   0  0.3786210E-07  0.2897748E+04  0.7818609E-02  0.8273548E-01
       -1   -1    0    0    0  501  0.00000000000E+00  0.00000000000E+00  0.10619955823E+04  0.10619955823E+04  0.50400001928E-02 0. -1.
        1   -1    0    0  501    0  0.00000000000E+00  0.00000000000E+00 -0.19766904282E+04  0.19766904282E+04  0.50400001928E-02 0.  1.
    10030    2    1    2    0    0  0.00000000000E+00  0.00000000000E+00 -0.91469484595E+03  0.30386860105E+04  0.28977484379E+04 0.  0.
        5    1    3    3  502    0 -0.39357580221E+03 -0.86489932667E+03 -0.16042809208E+04  0.18645889950E+04  0.46999998093E+01 0.  1.
       -5    1    3    3    0  502  0.39357580221E+03  0.86489932667E+03  0.68958607483E+03  0.11740970156E+04  0.46999998093E+01 0. -1.
</event>
<event>
 5   0  0.1063979E-06  0.2944013E+04  0.7818609E-02  0.8259901E-01
        2   -1    0    0  501    0  0.00000000000E+00  0.00000000000E+00  0.12372725711E+04  0.12372725711E+04  0.25500000920E-02 0. -1.
       -2   -1    0    0    0  501  0.00000000000E+00  0.00000000000E+00 -0.17512743095E+04  0.17512743095E+04  0.25500000920E-02 0.  1.
    10030    2    1    2    0    0  0.00000000000E+00  0.00000000000E+00 -0.51400173838E+03  0.29885468806E+04  0.29440133611E+04 0.  0.
        1    1    3    3  502    0  0.42727428030E+02  0.20621033459E+03 -0.17359034806E+04  0.17486306726E+04  0.50400001928E-02 0.  1.
       -1    1    3    3    0  502 -0.42727428030E+02 -0.20621033459E+03  0.12219017422E+04  0.12399162080E+04  0.50400001928E-02 0. -1.
</event>
<event>
 5   0  0.9950999E-07  0.2899056E+04  0.7818609E-02  0.8273158E-01
        2   -1    0    0  501    0  0.00000000000E+00  0.00000000000E+00  0.16867643591E+04  0.16867643591E+04  0.25500000920E-02 0.  1.
       -2   -1    0    0    0  501  0.00000000000E+00  0.00000000000E+00 -0.12456578439E+04  0.12456578439E+04  0.25500000920E-02 0. -1.
    10030    2    1    2    0    0  0.00000000000E+00  0.00000000000E+00  0.44110651518E+03  0.29324222030E+04  0.28990558841E+04 0.  0.
        3    1    3    3  502    0 -0.42960409247E+03  0.94395928456E+03  0.12448844029E+04  0.16202950330E+04  0.10100000352E+00 0.  1.
       -3    1    3    3    0  502  0.42960409247E+03 -0.94395928456E+03 -0.80377788774E+03  0.13121271700E+04  0.10100000352E+00 0. -1.
</event>
<event>
 5   0  0.3638028E-07  0.2893635E+04  0.7818609E-02  0.8274774E-01
       -1   -1    0    0    0  501  0.00000000000E+00  0.00000000000E+00  0.95511615181E+03  0.95511615182E+03  0.50400001928E-02 0.  1.
        1   -1    0    0  501    0  0.00000000000E+00  0.00000000000E+00 -0.21916509627E+04  0.21916509627E+04  0.50400001928E-02 0. -1.
    10030    2    1    2    0    0  0.00000000000E+00  0.00000000000E+00 -0.12365348108E+04  0.31467671145E+04  0.28936352456E+04 0.  0.
        4    1    3    3  502    0 -0.87019286655E+03  0.58775707855E+03 -0.17006151716E+04  0.19986964710E+04  0.12699999809E+01 0. -1.
       -4    1    3    3    0  502  0.87019286655E+03 -0.58775707855E+03  0.46408036073E+03  0.11480706435E+04  0.12699999809E+01 0.  1.
</event>
<event>
 5   0  0.1031339E-06  0.2909884E+04  0.7818609E-02  0.8269943E-01
        2   -1    0    0  501    0  0.00000000000E+00  0.00000000000E+00  0.13822798858E+04  0.13822798858E+04  0.25500000920E-02 0. -1.
       -2   -1    0    0    0  501  0.00000000000E+00  0.00000000000E+00 -0.15314232316E+04  0.15314232316E+04  0.25500000920E-02 0.  1.
    10030    2    1    2    0    0  0.00000000000E+00  0.00000000000E+00 -0.14914334576E+03  0.29137031174E+04  0.29098835232E+04 0.  0.
        5    1    3    3  502    0 -0.10788478621E+04  0.95673268836E+03 -0.26869025404E+03  0.14667878815E+04  0.46999998093E+01 0.  1.
       -5    1    3    3    0  502  0.10788478621E+04 -0.95673268836E+03  0.11954690828E+03  0.14469152359E+04  0.46999998093E+01 0. -1.
</event>
<event>
 5   0  0.9994311E-07  0.2897227E+04  0.7818609E-02  0.8273703E-01
       -2   -1    0    0    0  501  0.00000000000E+00  0.00000000000E+00  0.10003800266E+04  0.10003800266E+04  0.25500000920E-02 0.  1.
        2   -1    0    0  501    0  0.00000000000E+00  0.00000000000E+00 -0.20976845095E+04  0.20976845095E+04  0.25500000920E-02 0. -1.
    10030    2    1    2    0    0  0.00000000000E+00  0.00000000000E+00 -0.10973044829E+04  0.30980645361E+04  0.28972274232E+04 0.  0.
        2    1    3    3  502    0 -0.72496480516E+03 -0.10547687396E+04 -0.12741927654E+04  0.18060117016E+04  0.25500000920E-02 0. -1.
       -2    1    3    3    0  502  0.72496480516E+03  0.10547687396E+04  0.17688828247E+03  0.12920528346E+04  0.25500000920E-02 0.  1.
</event>
<event>
 5   0  0.9994311E-07  0.2887429E+04  0.7818609E-02  0.8276628E-01
       -2   -1    0    0    0  501  0.00000000000E+00  0.00000000000E+00  0.14400524672E+04  0.14400524672E+04  0.25500000920E-02 0. -1.
        2   -1    0    0  501    0  0.00000000000E+00  0.00000000000E+00 -0.14473854162E+04  0.14473854162E+04  0.25500000920E-02 0.  1.
    10030    2    1    2    0    0  0.00000000000E+00  0.00000000000E+00 -0.73329490125E+01  0.28874378835E+04  0.28874285721E+04 0.  0.
        2    1    3    3  502    0  0.13887631385E+04 -0.28225066724E+03  0.27198354958E+03  0.14430188998E+04  0.25500000920E-02 0.  1.
       -2    1    3    3    0  502 -0.13887631385E+04  0.28225066724E+03 -0.27931649859E+03  0.14444189837E+04  0.25500000920E-02 0. -1.
</event>
<event>
 5   0  0.3769563E-07  0.2903987E+04  0.7818609E-02  0.8271692E-01
       -1   -1    0    0    0  501  0.00000000000E+00  0.00000000000E+00  0.13240532220E+04  0.13240532220E+04  0.50400001928E-02 0. -1.
        1   -1    0    0  501    0  0.00000000000E+00  0.00000000000E+00 -0.15922964045E+04  0.15922964045E+04  0.50400001928E-02 0.  1.
    10030    2    1    2    0    0  0.00000000000E+00  0.00000000000E+00 -0.26824318247E+03  0.29163496265E+04  0.29039870418E+04 0.  0.
        3    1    3    3  502    0 -0.28692916017E+03  0.13165158157E+04 -0.67748217161E+03  0.15081526245E+04  0.10100000352E+00 0.  1.
       -3    1    3    3    0  502  0.28692916017E+03 -0.13165158157E+04  0.40923898914E+03  0.14081970020E+04  0.10100000352E+00 0. -1.
</event>
<event>
 5   0  0.3885904E-07  0.2905800E+04  0.7818609E-02  0.8271154E-01
        1   -1    0    0  501    0  0.00000000000E+00  0.00000000000E+00  0.21099810458E+04  0.21099810458E+04  0.50400001928E-02 0.  1.
       -1   -1    0    0    0  501  0.00000000000E+00  0.00000000000E+00 -0.10004440861E+04  0.10004440861E+04  0.50400001928E-02 0. -1.
    10030    2    1    2    0    0  0.00000000000E+00  0.00000000000E+00  0.11095369598E+04  0.31104251319E+04  0.29057997585E+04 0.  0.
        2    1    3    3  502    0 -0.13576170733E+04 -0.12718382738E+03  0.10917076756E+04  0.17467471175E+04  0.25500000920E-02 0. -1.
       -2    1    3    3    0  502  0.13576170733E+04  0.12718382738E+03  0.17829284120E+02  0.13636780144E+04  0.25500000920E-02 0.  1.
</event>
<event>
 5   0  0.1063979E-06  0.2897331E+04  0.7818609E-02  0.8273672E-01
        2   -1    0    0  501    0  0.00000000000E+00  0.00000000000E+00  0.20145029035E+04  0.20145029035E+04  0.25500000920E-02 0.  1.
       -2   -1    0    0    0  501  0.00000000000E+00  0.00000000000E+00 -0.10417617261E+04  0.10417617261E+04  0.25500000920E-02 0. -1.
    10030    2    1    2    0    0  0.00000000000E+00  0.00000000000E+00  0.97274117741E+03  0.30562646296E+04  0.28973312009E+04 0.  0.
        1    1    3    3  502    0  0.16553355763E+03  0.28515323106E+03  0.19743962981E+04  0.20017378614E+04  0.50400001928E-02 0.  1.
       -1    1    3    3    0  502 -0.16553355763E+03 -0.28515323106E+03 -0.10016551207E+04  0.10545267681E+04  0.50400001928E-02 0. -1.
</event>
<event>
 5   0  0.3885904E-07  0.2897977E+04  0.7818609E-02  0.8273480E-01
        1   -1    0    0  501    0  0.00000000000E+00  0.00000000000E+00  0.10957352557E+04  0.10957352558E+04  0.50400001928E-02 0.  1.
       -1   -1    0    0    0  501  0.00000000000E+00  0.00000000000E+00 -0.19161263774E+04  0.19161263775E+04  0.50400001928E-02 0. -1.
    10030    2    1    2    0    0  0.00000000000E+00  0.00000000000E+00 -0.82039112171E+03  0.30118616332E+04  0.28979766916E+04 0.  0.
        2    1    3    3  502    0  0.74114312250E+03  0.33943322818E+03 -0.16552118512E+04  0.18450567246E+04  0.25500000920E-02 0. -1.
       -2    1    3    3    0  502 -0.74114312250E+03 -0.33943322818E+03  0.83482072951E+03  0.11668049086E+04  0.25500000920E-02 0.  1.
</event>
<event>
 5   0  0.3786210E-07  0.2841813E+04  0.7818609E-02  0.8290403E-01
        1   -1    0    0  501    0  0.00000000000E+00  0.00000000000E+00  0.28235189317E+04  0.28235189317E+04  0.50400001928E-02 0.  1.
       -1   -1    0    0    0  501  0.00000000000E+00  0.00000000000E+00 -0.71505654126E+03  0.71505654128E+03  0.50400001928E-02 0. -1.
    10030    2    1    2    0    0  0.00000000000E+00  0.00000000000E+00  0.21084623904E+04  0.35385754730E+04  0.28418132814E+04 0.  0.
        5    1    3    3  502    0  0.51587220522E+03  0.12458338936E+04  0.49635706942E+03  0.14368780926E+04  0.46999998093E+01 0. -1.
       -5    1    3    3    0  502 -0.51587220522E+03 -0.12458338936E+04  0.16121053210E+04  0.21016973804E+04  0.46999998093E+01 0.  1.
</event>
<event>
 5   0  0.1031339E-06  0.2899536E+04  0.7818609E-02  0.8273016E-01
        2   -1    0    0  501    0  0.00000000000E+00  0.00000000000E+00  0.92956784254E+03  0.92956784254E+03  0.25500000920E-02 0. -1.
       -2   -1    0    0    0  501  0.00000000000E+00  0.00000000000E+00 -0.22610800812E+04  0.22610800812E+04  0.25500000920E-02 0.  1.
    10030    2    1    2    0    0  0.00000000000E+00  0.00000000000E+00 -0.13315122386E+04  0.31906479237E+04  0.28995360545E+04 0.  0.
        5    1    3    3  502    0  0.48760132579E+03  0.11511981412E+04  0.14196484479E+03  0.12582481156E+04  0.46999998093E+01 0. -1.
       -5    1    3    3    0  502 -0.48760132579E+03 -0.11511981412E+04 -0.14734770834E+04  0.19323998082E+04  0.46999998093E+01 0.  1.
</event>
<event>
 5   0  0.3885904E-07  0.2903269E+04  0.7818609E-02  0.8271906E-01
       -1   -1    0    0    0  501  0.00000000000E+00  0.00000000000E+00  0.25322435152E+04  0.25322435152E+04  0.50400001928E-02 0. -1.
        1   -1    0    0  501    0  0.00000000000E+00  0.00000000000E+00 -0.83216432885E+03  0.83216432887E+03  0.50400001928E-02 0.  1.
    10030    2    1    2    0    0  0.00000000000E+00  0.00000000000E+00  0.17000791863E+04  0.33644078441E+04  0.29032690026E+04 0.  0.
        2    1    3    3  502    0  0.14128625423E+04  0.33317025595E+03  0.85899660659E+03  0.16867300178E+04  0.25500000920E-02 0. -1.
       -2    1    3    3    0  502 -0.14128625423E+04 -0.33317025595E+03  0.84108257973E+03  0.16776778263E+04  0.25500000920E-02 0.  1.
</event>
<event>
 5   0  0.3769563E-07  0.2898342E+04  0.7818609E-02  0.8273371E-01
        1   -1    0    0  501    0  0.00000000000E+00  0.00000000000E+00  0.18073797293E+04  0.18073797293E+04  0.50400001928E-02 0.  1.
       -1   -1    0    0    0  501  0.00000000000E+00  0.00000000000E+00 -0.11619562689E+04  0.11619562689E+04  0.50400001928E-02 0. -1.
    10030    2    1    2    0    0  0.00000000000E+00  0.00000000000E+00  0.64542346046E+03  0.29693359982E+04  0.28983417374E+04 0.  0.
        3    1    3    3  502    0  0.43248444487E+03 -0.17951902907E+03  0.17277368837E+04  0.17900683301E+04  0.10100000352E+00 0.  1.
       -3    1    3    3    0  502 -0.43248444487E+03  0.17951902907E+03 -0.10823134232E+04  0.11792676682E+04  0.10100000352E+00 0. -1.
</event>
<event>
 5   0  0.3786210E-07  0.2907893E+04  0.7818609E-02  0.8270533E-01
       -1   -1    0    0    0  501  0.00000000000E+00  0.00000000000E+00  0.15483578808E+04  0.15483578808E+04  0.50400001928E-02 0.  1.
        1   -1    0    0  501    0  0.00000000000E+00  0.00000000000E+00 -0.13652914999E+04  0.13652914999E+04  0.50400001928E-02 0. -1.
    10030    2    1    2    0    0  0.00000000000E+00  0.00000000000E+00  0.18306638092E+03  0.29136493807E+04  0.29078926070E+04 0.  0.
        5    1    3    3  502    0 -0.34610617166E+03 -0.85917196393E+03  0.12144533351E+04  0.15273784531E+04  0.46999998093E+01 0.  1.
       -5    1    3    3    0  502  0.34610617166E+03  0.85917196393E+03 -0.10313869542E+04  0.13862709277E+04  0.46999998093E+01 0. -1.
</event>
<event>
 5   0  0.9994311E-07  0.2899210E+04  0.7818609E-02  0.8273112E-01
       -2   -1    0    0    0  501  0.00000000000E+00  0.00000000000E+00  0.96644106190E+03  0.96644106191E+03  0.25500000920E-02 0.  1.
        2   -1    0    0  501    0  0.00000000000E+00  0.00000000000E+00 -0.21743230197E+04  0.21743230197E+04  0.25500000920E-02 0. -1.
    10030    2    1    2    0    0  0.00000000000E+00  0.00000000000E+00 -0.12078819578E+04  0.31407640816E+04  0.28992102704E+04 0.  0.
        2    1    3    3  502    0 -0.69232840552E+03 -0.34073515960E+03  0.72546875900E+03  0.10591147201E+04  0.25500000920E-02 0.  1.
       -2    1    3    3    0  502  0.69232840552E+03  0.34073515960E+03 -0.19333507168E+04  0.20816493615E+04  0.25500000920E-02 0. -1.
</event>
<event>
 5   0  0.1063979E-06  0.2899045E+04  0.7818609E-02  0.8273162E-01
        2   -1    0    0  501    0  0.00000000000E+00  0.00000000000E+00  0.15300149001E+04  0.15300149001E+04  0.25500000920E-02 0. -1.
       -2   -1    0    0    0  501  0.00000000000E+00  0.00000000000E+00 -0.13732646663E+04  0.13732646663E+04  0.25500000920E-02 0.  1.
    10030    2    1    2    0    0  0.00000000000E+00  0.00000000000E+00  0.15675023375E+03  0.29032795664E+04  0.28990449470E+04 0.  0.
        1    1    3    3  502    0 -0.12521910366E+04  0.17681526003E+03 -0.63108707347E+03  0.14133353893E+04  0.50400001928E-02 0.  1.
       -1    1    3    3    0  502  0.12521910366E+04 -0.17681526003E+03  0.78783730722E+03  0.14899441771E+04  0.50400001928E-02 0. -1.
</event>
<event>
 5   0  0.3769563E-07  0.2900841E+04  0.7818609E-02  0.8272627E-01
        1   -1    0    0  501    0  0.00000000000E+00  0.00000000000E+00  0.15091705871E+04  0.15091705871E+04  0.50400001928E-02 0. -1.
       -1   -1    0    0    0  501  0.00000000000E+00  0.00000000000E+00 -0.13939576720E+04  0.13939576720E+04  0.50400001928E-02 0.  1.
    10030    2    1    2    0    0  0.00000000000E+00  0.00000000000E+00  0.11521291504E+03  0.29031282591E+04  0.29008412009E+04 0.  0.
        3    1    3    3  502    0 -0.23798695222E+03  0.13702175321E+04  0.46973938032E+03  0.14679199469E+04  0.10100000352E+00 0.  1.
       -3    1    3    3    0  502  0.23798695222E+03 -0.13702175321E+04 -0.35452646528E+03  0.14352083123E+04  0.10100000352E+00 0. -1.
</event>
<event>
 5   0  0.1063979E-06  0.2899426E+04  0.7818609E-02  0.8273048E-01
        2   -1    0    0  501    0  0.00000000000E+00  0.00000000000E+00  0.18379377563E+04  0.18379377563E+04  0.25500000920E-02 0.  1.
       -2   -1    0    0    0  501  0.00000000000E+00  0.00000000000E+00 -0.11434920930E+04  0.11434920930E+04  0.25500000920E-02 0. -1.
    10030    2    1    2    0    0  0.00000000000E+00  0.00000000000E+00  0.69444566336E+03  0.29814298493E+04  0.28994256615E+04 0.  0.
        1    1    3    3  502    0 -0.40895548874E+03  0.61124757678E+03  0.16318766729E+04  0.17899412469E+04  0.50400001928E-02 0.  1.
       -1    1    3    3    0  502  0.40895548874E+03 -0.61124757678E+03 -0.93743100952E+03  0.11914886024E+04  0.50400001928E-02 0. -1.
</event>
<event>
 5   0  0.1063979E-06  0.2898232E+04  0.7818609E-02  0.8273404E-01
        2   -1    0    0  501    0  0.00000000000E+00  0.00000000000E+00  0.24375354152E+04  0.24375354152E+04  0.25500000920E-02 0.  1.
       -2   -1    0    0    0  501  0.00000000000E+00  0.00000000000E+00 -0.86149992651E+03  0.86149992651E+03  0.25500000920E-02 0. -1.
    10030    2    1    2    0    0  0.00000000000E+00  0.00000000000E+00  0.15760354887E+04  0.32990353417E+04  0.28982315857E+04 0.  0.
        1    1    3    3  502    0  0.61086617582E+03  0.10331831305E+04  0.17122886430E+04  0.20910660589E+04  0.50400001928E-02 0.  1.
       -1    1    3    3    0  502 -0.61086617582E+03 -0.10331831305E+04 -0.13625315430E+03  0.12079692827E+04  0.50400001928E-02 0. -1.
</event>
<event>
 5   0  0.1031339E-06  0.2899567E+04  0.7818609E-02  0.8273006E-01
       -2   -1    0    0    0  501  0.00000000000E+00  0.00000000000E+00  0.11701864541E+04  0.11701864541E+04  0.25500000920E-02 0.  1.
        2   -1    0    0  501    0  0.00000000000E+00  0.00000000000E+00 -0.17961861961E+04  0.17961861961E+04  0.25500000920E-02 0. -1.
    10030    2    1    2    0    0  0.00000000000E+00  0.00000000000E+00 -0.62599974201E+03  0.29663726501E+04  0.28995673854E+04 0.  0.
        5    1    3    3  502    0  0.22911860569E+03  0.57805845228E+03 -0.16528319191E+04  0.17659338472E+04  0.46999998093E+01 0. -1.
       -5    1    3    3    0  502 -0.22911860569E+03 -0.57805845228E+03  0.10268321771E+04  0.12004388030E+04  0.46999998093E+01 0.  1.
</event>
<event>
 5   0  0.9950999E-07  0.2909472E+04  0.7818609E-02  0.8270065E-01
        2   -1    0    0  501    0  0.00000000000E+00  0.00000000000E+00  0.14999581804E+04  0.14999581804E+04  0.25500000920E-02 0.  1.
       -2   -1    0    0    0  501  0.00000000000E+00  0.00000000000E+00 -0.14108773212E+04  0.14108773212E+04  0.25500000920E-02 0. -1.
    10030    2    1    2    0    0  0.00000000000E+00  0.00000000000E+00  0.89080859173E+02  0.29108355016E+04  0.29094721029E+04 0.  0.
        3    1    3    3  502    0 -0.65994404715E+03  0.11316871669E+04 -0.58822332373E+03  0.14360531598E+04  0.10100000352E+00 0.  1.
       -3    1    3    3    0  502  0.65994404715E+03 -0.11316871669E+04  0.67730418290E+03  0.14747823417E+04  0.10100000352E+00 0. -1.
</event>
<event>
 5   0  0.3770467E-07  0.2893667E+04  0.7818609E-02  0.8274764E-01
        1   -1    0    0  501    0  0.00000000000E+00  0.00000000000E+00  0.28621731106E+04  0.28621731106E+04  0.50400001928E-02 0.  1.
       -1   -1    0    0    0  501  0.00000000000E+00  0.00000000000E+00 -0.73137704445E+03  0.73137704447E+03  0.50400001928E-02 0. -1.
    10030    2    1    2    0    0  0.00000000000E+00  0.00000000000E+00  0.21307960662E+04  0.35935501551E+04  0.28936673689E+04 0.  0.
        1    1    3    3  502    0  0.11295125642E+04 -0.16203399815E+03 -0.39287250473E+02  0.11417517844E+04  0.50400001928E-02 0. -1.
       -1    1    3    3    0  502 -0.11295125642E+04  0.16203399815E+03  0.21700833166E+04  0.24517983707E+04  0.50400001928E-02 0.  1.
</event>
<event>
 5   0  0.3770467E-07  0.2904217E+04  0.7818609E-02  0.8271624E-01
        1   -1    0    0  501    0  0.00000000000E+00  0.00000000000E+00  0.24755554243E+04  0.24755554243E+04  0.50400001928E-02 0. -1.
       -1   -1    0    0    0  501  0.00000000000E+00  0.00000000000E+00 -0.85177618457E+03  0.85177618459E+03  0.50400001928E-02 0.  1.
    10030    2    1    2    0    0  0.00000000000E+00  0.00000000000E+00  0.16237792398E+04  0.33273316089E+04  0.29042170401E+04 0.  0.
        1    1    3    3  502    0  0.14802929247E+03  0.11095072455E+04  0.18716991531E+04  0.21808660479E+04  0.50400001928E-02 0. -1.
       -1    1    3    3    0  502 -0.14802929247E+03 -0.11095072455E+04 -0.24791991335E+03  0.11464655610E+04  0.50400001928E-02 0.  1.
</event>
<event>
 5   0  0.3770467E-07  0.2899275E+04  0.7818609E-02  0.8273093E-01
        1   -1    0    0  501    0  0.00000000000E+00  0.00000000000E+00  0.25655131168E+04  0.25655131168E+04  0.50400001928E-02 0. -1.
       -1   -1    0    0    0  501  0.00000000000E+00  0.00000000000E+00 -0.81911461075E+03  0.81911461076E+03  0.50400001928E-02 0.  1.
    10030    2    1    2    0    0  0.00000000000E+00  0.00000000000E+00  0.17463985061E+04  0.33846277276E+04  0.28992752736E+04 0.  0.
        1    1    3    3  502    0  0.88085610916E+03 -0.82761732546E+03 -0.61155917366E+02  0.12102057547E+04  0.50400001928E-02 0.  1.
       -1    1    3    3    0  502 -0.88085610916E+03  0.82761732546E+03  0.18075544234E+04  0.21744219729E+04  0.50400001928E-02 0. -1.
</event>
<event>
 5   0  0.1031339E-06  0.2832035E+04  0.7818609E-02  0.8293391E-01
       -2   -1    0    0    0  501  0.00000000000E+00  0.00000000000E+00  0.11166704816E+04  0.11166704816E+04  0.25500000920E-02 0. -1.
        2   -1    0    0  501    0  0.00000000000E+00  0.00000000000E+00 -0.17956105010E+04  0.17956105010E+04  0.25500000920E-02 0.  1.
    10030    2    1    2    0    0  0.00000000000E+00  0.00000000000E+00 -0.67894001944E+03  0.29122809827E+04  0.28320347759E+04 0.  0.
        5    1    3    3  502    0 -0.77531807403E+03 -0.35832992556E+03  0.82194099981E+03  0.11853807610E+04  0.46999998093E+01 0. -1.
       -5    1    3    3    0  502  0.77531807403E+03  0.35832992556E+03 -0.15008810193E+04  0.17269002216E+04  0.46999998093E+01 0.  1.
</event>
<event>
 5   0  0.1063979E-06  0.2910526E+04  0.7818609E-02  0.8269753E-01
        2   -1    0    0  501    0  0.00000000000E+00  0.00000000000E+00  0.24466188524E+04  0.24466188524E+04  0.25500000920E-02 0. -1.
       -2   -1    0    0    0  501  0.00000000000E+00  0.00000000000E+00 -0.86559889603E+03  0.86559889604E+03  0.25500000920E-02 0.  1.
    10030    2    1    2    0    0  0.00000000000E+00  0.00000000000E+00  0.15810199563E+04  0.33122177484E+04  0.29105261226E+04 0.  0.
        1    1    3    3  502    0 -0.13446481561E+04  0.52721789011E+03  0.99329748619E+03  0.17529053778E+04  0.50400001928E-02 0.  1.
       -1    1    3    3    0  502  0.13446481561E+04 -0.52721789011E+03  0.58772247015E+03  0.15593123706E+04  0.50400001928E-02 0. -1.
</event>
<event>
 5   0  0.3786210E-07  0.2902393E+04  0.7818609E-02  0.8272166E-01
        1   -1    0    0  501    0  0.00000000000E+00  0.00000000000E+00  0.13477675845E+04  0.13477675845E+04  0.50400001928E-02 0.  1.
       -1   -1    0    0    0  501  0.00000000000E+00  0.00000000000E+00 -0.15625623335E+04  0.15625623335E+04  0.50400001928E-02 0. -1.
    10030    2    1    2    0    0  0.00000000000E+00  0.00000000000E+00 -0.21479474898E+03  0.29103299180E+04  0.29023927107E+04 0.  0.
        5    1    3    3  502    0 -0.27935456644E+03 -0.63602329727E+03  0.11702079164E+04  0.13608722446E+04  0.46999998093E+01 0.  1.
       -5    1    3    3    0  502  0.27935456644E+03  0.63602329727E+03 -0.13850026654E+04  0.15494576734E+04  0.46999998093E+01 0. -1.
</event>
<event>
 5   0  0.3769563E-07  0.2900636E+04  0.7818609E-02  0.8272688E-01
        1   -1    0    0  501    0  0.00000000000E+00  0.00000000000E+00  0.20977685553E+04  0.20977685553E+04  0.50400001928E-02 0. -1.
       -1   -1    0    0    0  501  0.00000000000E+00  0.00000000000E+00 -0.10026948974E+04  0.10026948974E+04  0.50400001928E-02 0.  1.
    10030    2    1    2    0    0  0.00000000000E+00  0.00000000000E+00  0.10950736579E+04  0.31004634527E+04  0.29006356726E+04 0.  0.
        3    1    3    3  502    0  0.35663000791E+03 -0.13907065035E+04  0.76704310710E+03  0.16277606334E+04  0.10100000352E+00 0. -1.
       -3    1    3    3    0  502 -0.35663000791E+03  0.13907065035E+04  0.32803055083E+03  0.14727028193E+04  0.10100000352E+00 0.  1.
</event>
<event>
 5   0  0.1063979E-06  0.2905039E+04  0.7818609E-02  0.8271380E-01
        2   -1    0    0  501    0  0.00000000000E+00  0.00000000000E+00  0.24404584060E+04  0.24404584060E+04  0.25500000920E-02 0. -1.
       -2   -1    0    0    0  501  0.00000000000E+00  0.00000000000E+00 -0.86451489509E+03  0.86451489509E+03  0.25500000920E-02 0.  1.
    10030    2    1    2    0    0  0.00000000000E+00  0.00000000000E+00  0.15759435109E+04  0.33049733011E+04  0.29050388244E+04 0.  0.
        1    1    3    3  502    0 -0.53478961459E+03  0.11412946184E+04  0.16093494877E+04  0.20441524188E+04  0.50400001928E-02 0. -1.
       -1    1    3    3    0  502  0.53478961459E+03 -0.11412946184E+04 -0.33405976778E+02  0.12608208823E+04  0.50400001928E-02 0.  1.
</event>
<event>
 5   0  0.3770467E-07  0.2867421E+04  0.7818609E-02  0.8282637E-01
       -1   -1    0    0    0  501  0.00000000000E+00  0.00000000000E+00  0.12361291613E+04  0.12361291613E+04  0.50400001928E-02 0. -1.
        1   -1    0    0  501    0  0.00000000000E+00  0.00000000000E+00 -0.16628725428E+04  0.16628725429E+04  0.50400001928E-02 0.  1.
    10030    2    1    2    0    0  0.00000000000E+00  0.00000000000E+00 -0.42674338155E+03  0.28990017042E+04  0.28674206122E+04 0.  0.
        1    1    3    3  502    0 -0.84568177955E+03 -0.48250548915E+03 -0.12773578980E+04  0.16061234133E+04  0.50400001928E-02 0.  1.
       -1    1    3    3    0  502  0.84568177955E+03  0.48250548915E+03  0.85061451642E+03  0.12928782908E+04  0.50400001928E-02 0. -1.
</event>
<event>
 5   0  0.3885904E-07  0.2864003E+04  0.7818609E-02  0.8283669E-01
       -1   -1    0    0    0  501  0.00000000000E+00  0.00000000000E+00  0.12589373471E+04  0.12589373471E+04  0.50400001928E-02 0.  1.
        1   -1    0    0  501    0  0.00000000000E+00  0.00000000000E+00 -0.16288570102E+04  0.16288570102E+04  0.50400001928E-02 0. -1.
    10030    2    1    2    0    0  0.00000000000E+00  0.00000000000E+00 -0.36991966316E+03  0.28877943573E+04  0.28640034380E+04 0.  0.
        2    1    3    3  502    0  0.33121840146E+03 -0.12310191512E+04 -0.84269375036E+03  0.15281513462E+04  0.25500000920E-02 0. -1.
       -2    1    3    3    0  502 -0.33121840146E+03  0.12310191512E+04  0.47277408721E+03  0.13596430111E+04  0.25500000920E-02 0.  1.
</event>
<event>
 5   0  0.3638028E-07  0.2909329E+04  0.7818609E-02  0.8270107E-01
       -1   -1    0    0    0  501  0.00000000000E+00  0.00000000000E+00  0.13143799864E+04  0.13143799864E+04  0.50400001928E-02 0.  1.
        1   -1    0    0  501    0  0.00000000000E+00  0.00000000000E+00 -0.16099217358E+04  0.16099217358E+04  0.50400001928E-02 0. -1.
    10030    2    1    2    0    0  0.00000000000E+00  0.00000000000E+00 -0.29554174939E+03  0.29243017222E+04  0.29093290699E+04 0.  0.
        4    1    3    3  502    0  0.13887593968E+04 -0.72885000770E+02  0.28113631964E+03  0.14188037668E+04  0.12699999809E+01 0. -1.
       -4    1    3    3    0  502 -0.13887593968E+04  0.72885000770E+02 -0.57667806903E+03  0.15054979554E+04  0.12699999809E+01 0.  1.
</event>
<event>
 5   0  0.3638028E-07  0.2894478E+04  0.7818609E-02  0.8274522E-01
       -1   -1    0    0    0  501  0.00000000000E+00  0.00000000000E+00  0.21505742791E+04  0.21505742791E+04  0.50400001928E-02 0.  1.
        1   -1    0    0  501    0  0.00000000000E+00  0.00000000000E+00 -0.97392604294E+03  0.97392604295E+03  0.50400001928E-02 0. -1.
    10030    2    1    2    0    0  0.00000000000E+00  0.00000000000E+00  0.11766482361E+04  0.31245003220E+04  0.28944777060E+04 0.  0.
        4    1    3    3  502    0 -0.40295919494E+03  0.71368962057E+03 -0.69926609906E+03  0.10773595860E+04  0.12699999809E+01 0. -1.
       -4    1    3    3    0  502  0.40295919494E+03 -0.71368962057E+03  0.18759143352E+04  0.20471407360E+04  0.12699999809E+01 0.  1.
</event>
<event>
 5   0  0.3770467E-07  0.2891311E+04  0.7818609E-02  0.8275467E-01
        1   -1    0    0  501    0  0.00000000000E+00  0.00000000000E+00  0.13998599928E+04  0.13998599928E+04  0.50400001928E-02 0.  1.
       -1   -1    0    0    0  501  0.00000000000E+00  0.00000000000E+00 -0.14929495402E+04  0.14929495402E+04  0.50400001928E-02 0. -1.
    10030    2    1    2    0    0  0.00000000000E+00  0.00000000000E+00 -0.93089547359E+02  0.28928095330E+04  0.28913113513E+04 0.  0.
        1    1    3    3  502    0 -0.78805134521E+03  0.11617620000E+04  0.29889412506E+03  0.14352886697E+04  0.50400001928E-02 0.  1.
       -1    1    3    3    0  502  0.78805134521E+03 -0.11617620000E+04 -0.39198367242E+03  0.14575208633E+04  0.50400001928E-02 0. -1.
</event>
<event>
 5   0  0.3769563E-07  0.2898989E+04  0.7818609E-02  0.8273178E-01
       -1   -1    0    0    0  501  0.00000000000E+00  0.00000000000E+00  0.15862639211E+04  0.15862639211E+04  0.50400001928E-02 0. -1.
        1   -1    0    0  501    0  0.00000000000E+00  0.00000000000E+00 -0.13245170916E+04  0.13245170916E+04  0.50400001928E-02 0.  1.
    10030    2    1    2    0    0  0.00000000000E+00  0.00000000000E+00  0.26174682949E+03  0.29107810128E+04  0.28989885653E+04 0.  0.
        3    1    3    3  502    0 -0.12346737761E+04  0.14624432904E+03  0.87903997190E+03  0.15226680595E+04  0.10100000352E+00 0. -1.
       -3    1    3    3    0  502  0.12346737761E+04 -0.14624432904E+03 -0.61729314241E+03  0.13881129532E+04  0.10100000352E+00 0.  1.
</event>
<event>
 5   0  0.3638028E-07  0.2902642E+04  0.7818609E-02  0.8272092E-01
        1   -1    0    0  501    0  0.00000000000E+00  0.00000000000E+00  0.15144688888E+04  0.15144688888E+04  0.50400001928E-02 0. -1.
       -1   -1    0    0    0  501  0.00000000000E+00  0.00000000000E+00 -0.13908066093E+04  0.13908066093E+04  0.50400001928E-02 0.  1.
    10030    2    1    2    0    0  0.00000000000E+00  0.00000000000E+00  0.12366227950E+03  0.29052754981E+04  0.29026424789E+04 0.  0.
        4    1    3    3  502    0  0.95088676039E+03  0.10844711644E+04 -0.99772402645E+02  0.14457591372E+04  0.12699999809E+01 0.  1.
       -4    1    3    3    0  502 -0.95088676039E+03 -0.10844711644E+04  0.22343468214E+03  0.14595163609E+04  0.12699999809E+01 0. -1.
</event>
<event>
 5   0  0.9950999E-07  0.2905783E+04  0.7818609E-02  0.8271159E-01
        2   -1    0    0  501    0  0.00000000000E+00  0.00000000000E+00  0.24799348716E+04  0.24799348716E+04  0.25500000920E-02 0.  1.
       -2   -1    0    0    0  501  0.00000000000E+00  0.00000000000E+00 -0.85118933696E+03  0.85118933697E+03  0.25500000920E-02 0. -1.
    10030    2    1    2    0    0  0.00000000000E+00  0.00000000000E+00  0.16287455347E+04  0.33311242086E+04  0.29057832810E+04 0.  0.
        3    1    3    3  502    0  0.34995559762E+03  0.48240881222E+03  0.23333582291E+04  0.24082665588E+04  0.10100000352E+00 0.  1.
       -3    1    3    3    0  502 -0.34995559762E+03 -0.48240881222E+03 -0.70461269448E+03  0.92285764982E+03  0.10100000352E+00 0. -1.
</event>
<event>
 5   0  0.3885904E-07  0.2898935E+04  0.7818609E-02  0.8273194E-01
       -1   -1    0    0    0  501  0.00000000000E+00  0.00000000000E+00  0.11966110856E+04  0.11966110857E+04  0.50400001928E-02 0.  1.
        1   -1    0    0  501    0  0.00000000000E+00  0.00000000000E+00 -0.17557553282E+04  0.17557553282E+04  0.50400001928E-02 0. -1.
    10030    2    1    2    0    0  0.00000000000E+00  0.00000000000E+00 -0.55914424255E+03  0.29523664139E+04  0.28989351765E+04 0.  0.
        2    1    3    3  502    0  0.25170489387E+03 -0.76364545061E+03 -0.15078047674E+04  0.17087963438E+04  0.25500000920E-02 0. -1.
       -2    1    3    3    0  502 -0.25170489387E+03  0.76364545061E+03  0.94866052485E+03  0.12435700701E+04  0.25500000920E-02 0.  1.
</event>
<event>
 5   0  0.3769563E-07  0.2919746E+04  0.7818609E-02  0.8267027E-01
        1   -1    0    0  501    0  0.00000000000E+00  0.00000000000E+00  0.14855622918E+04  0.14855622918E+04  0.50400001928E-02 0.  1.
       -1   -1    0    0    0  501  0.00000000000E+00  0.00000000000E+00 -0.14346282285E+04  0.14346282285E+04  0.50400001928E-02 0. -1.
    10030    2    1    2    0    0  0.00000000000E+00  0.00000000000E+00  0.50934063345E+02  0.29201905203E+04  0.29197462897E+04 0.  0.
        3    1    3    3  502    0 -0.67915719986E+03  0.48508174648E+03 -0.11724926424E+04  0.14392004064E+04  0.10100000352E+00 0. -1.
       -3    1    3    3    0  502  0.67915719986E+03 -0.48508174648E+03  0.12234267058E+04  0.14809901139E+04  0.10100000352E+00 0.  1.
</event>
<event>
 5   0  0.3885904E-07  0.2896034E+04  0.7818609E-02  0.8274058E-01
       -1   -1    0    0    0  501  0.00000000000E+00  0.00000000000E+00  0.94452020542E+03  0.94452020543E+03  0.50400001928E-02 0. -1.
        1   -1    0    0  501    0  0.00000000000E+00  0.00000000000E+00 -0.22199142661E+04  0.22199142661E+04  0.50400001928E-02 0.  1.
    10030    2    1    2    0    0  0.00000000000E+00  0.00000000000E+00 -0.12753940607E+04  0.31644344715E+04  0.28960344464E+04 0.  0.
        2    1    3    3  502    0  0.13774702769E+04 -0.11973480486E+03 -0.11076670328E+04  0.17716340037E+04  0.25500000920E-02 0.  1.
       -2    1    3    3    0  502 -0.13774702769E+04  0.11973480486E+03 -0.16772702785E+03  0.13928004678E+04  0.25500000920E-02 0. -1.
</event>
<event>
 5   0  0.1063979E-06  0.2900893E+04  0.7818609E-02  0.8272612E-01
       -2   -1    0    0    0  501  0.00000000000E+00  0.00000000000E+00  0.13795046327E+04  0.13795046327E+04  0.25500000920E-02 0. -1.
        2   -1    0    0  501    0  0.00000000000E+00  0.00000000000E+00 -0.15250362173E+04  0.15250362173E+04  0.25500000920E-02 0.  1.
    10030    2    1    2    0    0  0.00000000000E+00  0.00000000000E+00 -0.14553158461E+03  0.29045408501E+04  0.29008926398E+04 0.  0.
        1    1    3    3  502    0 -0.11396814610E+04  0.84976060601E+03  0.21539400467E+03  0.14378322215E+04  0.50400001928E-02 0. -1.
       -1    1    3    3    0  502  0.11396814610E+04 -0.84976060601E+03 -0.36092558928E+03  0.14667086285E+04  0.50400001928E-02 0.  1.
</event>
<event>
 5   0  0.3770467E-07  0.2898612E+04  0.7818609E-02  0.8273291E-01
       -1   -1    0    0    0  501  0.00000000000E+00  0.00000000000E+00  0.12714942630E+04  0.12714942630E+04  0.50400001928E-02 0. -1.
        1   -1    0    0  501    0  0.00000000000E+00  0.00000000000E+00 -0.16519835872E+04  0.16519835872E+04  0.50400001928E-02 0.  1.
    10030    2    1    2    0    0  0.00000000000E+00  0.00000000000E+00 -0.38048932424E+03  0.29234778502E+04  0.28986118427E+04 0.  0.
        1    1    3    3  502    0 -0.10929195769E+02  0.14474620599E+04 -0.26312653207E+03  0.14712244676E+04  0.50400001928E-02 0.  1.
       -1    1    3    3    0  502  0.10929195769E+02 -0.14474620599E+04 -0.11736279217E+03  0.14522533826E+04  0.50400001928E-02 0. -1.
</event>
<event>
 5   0  0.9994311E-07  0.2896335E+04  0.7818609E-02  0.8273969E-01
       -2   -1    0    0    0  501  0.00000000000E+00  0.00000000000E+00  0.14283594757E+04  0.14283594757E+04  0.25500000920E-02 0. -1.
        2   -1    0    0  501    0  0.00000000000E+00  0.00000000000E+00 -0.14682502133E+04  0.14682502133E+04  0.25500000920E-02 0.  1.
    10030    2    1    2    0    0  0.00000000000E+00  0.00000000000E+00 -0.39890737618E+02  0.28966096890E+04  0.28963349978E+04 0.  0.
        2    1    3    3  502    0  0.55260191829E+03  0.11597126307E+04  0.64861398475E+03  0.14390977615E+04  0.25500000920E-02 0. -1.
       -2    1    3    3    0  502 -0.55260191829E+03 -0.11597126307E+04 -0.68850472237E+03  0.14575119275E+04  0.25500000920E-02 0.  1.
</event>
<event>
 5   0  0.3378750E-07  0.2898479E+04  0.7818609E-02  0.8273330E-01
        3   -1    0    0  501    0  0.00000000000E+00  0.00000000000E+00  0.11644954456E+04  0.11644954500E+04  0.10100000352E+00 0. -1.
       -3   -1    0    0    0  501  0.00000000000E+00  0.00000000000E+00 -0.18036095807E+04  0.18036095835E+04  0.10100000352E+00 0.  1.
    10030    2    1    2    0    0  0.00000000000E+00  0.00000000000E+00 -0.63911413511E+03  0.29681050335E+04  0.28984790170E+04 0.  0.
        2    1    3    3  502    0  0.10665547617E+04  0.63245323540E+03 -0.10877500380E+04  0.16494654588E+04  0.25500000920E-02 0.  1.
       -2    1    3    3    0  502 -0.10665547617E+04 -0.63245323540E+03  0.44863590288E+03  0.13186395747E+04  0.25500000920E-02 0. -1.
</event>
<event>
 5   0  0.3770467E-07  0.2894571E+04  0.7818609E-02  0.8274495E-01
       -1   -1    0    0    0  501  0.00000000000E+00  0.00000000000E+00  0.12768714592E+04  0.12768714592E+04  0.50400001928E-02 0.  1.
        1   -1    0    0  501    0  0.00000000000E+00  0.00000000000E+00 -0.16404428188E+04  0.16404428188E+04  0.50400001928E-02 0. -1.
    10030    2    1    2    0    0  0.00000000000E+00  0.00000000000E+00 -0.36357135961E+03  0.29173142779E+04  0.28945705144E+04 0.  0.
        1    1    3    3  502    0  0.59972978037E+03 -0.79825181769E+03 -0.12377551658E+04  0.15902577226E+04  0.50400001928E-02 0. -1.
       -1    1    3    3    0  502 -0.59972978037E+03  0.79825181769E+03  0.87418380619E+03  0.13270565553E+04  0.50400001928E-02 0.  1.
</event>
<event>
 5   0  0.3769563E-07  0.2896987E+04  0.7818609E-02  0.8273774E-01
       -1   -1    0    0    0  501  0.00000000000E+00  0.00000000000E+00  0.99760624064E+03  0.99760624066E+03  0.50400001928E-02 0.  1.
        1   -1    0    0  501    0  0.00000000000E+00  0.00000000000E+00 -0.21031679523E+04  0.21031679523E+04  0.50400001928E-02 0. -1.
    10030    2    1    2    0    0  0.00000000000E+00  0.00000000000E+00 -0.11055617116E+04  0.31007741929E+04  0.28969870378E+04 0.  0.
        3    1    3    3  502    0  0.10965269532E+03  0.62521568886E+03 -0.19463739771E+04  0.20472640377E+04  0.10100000352E+00 0. -1.
       -3    1    3    3    0  502 -0.10965269532E+03 -0.62521568886E+03  0.84081226547E+03  0.10535101552E+04  0.10100000352E+00 0.  1.
</event>
<event>
 5   0  0.9950999E-07  0.2909978E+04  0.7818609E-02  0.8269915E-01
        2   -1    0    0  501    0  0.00000000000E+00  0.00000000000E+00  0.13763306187E+04  0.13763306187E+04  0.25500000920E-02 0.  1.
       -2   -1    0    0    0  501  0.00000000000E+00  0.00000000000E+00 -0.15381423261E+04  0.15381423261E+04  0.25500000920E-02 0. -1.
    10030    2    1    2    0    0  0.00000000000E+00  0.00000000000E+00 -0.16181170743E+03  0.29144729449E+04  0.29099775803E+04 0.  0.
        3    1    3    3  502    0  0.24443518853E+03  0.20302822631E+03 -0.15029666496E+04  0.15361893705E+04  0.10100000352E+00 0. -1.
       -3    1    3    3    0  502 -0.24443518853E+03 -0.20302822631E+03  0.13411549422E+04  0.13782835743E+04  0.10100000352E+00 0.  1.
</event>
<event>
 5   0  0.1006893E-06  0.2899167E+04  0.7818609E-02  0.8273125E-01
       -2   -1    0    0    0  501  0.00000000000E+00  0.00000000000E+00  0.95627445312E+03  0.95627445312E+03  0.25500000920E-02 0. -1.
        2   -1    0    0  501    0  0.00000000000E+00  0.00000000000E+00 -0.21973735535E+04  0.21973735535E+04  0.25500000920E-02 0.  1.
    10030    2    1    2    0    0  0.00000000000E+00  0.00000000000E+00 -0.12410991004E+04  0.31536480066E+04  0.28991669101E+04 0.  0.
        4    1    3    3  502    0 -0.11214678322E+04  0.35923207452E+03 -0.15400610415E+04  0.19386921897E+04  0.12699999809E+01 0.  1.
       -4    1    3    3    0  502  0.11214678322E+04 -0.35923207452E+03  0.29896194111E+03  0.12149558169E+04  0.12699999809E+01 0. -1.
</event>
<event>
 5   0  0.3770467E-07  0.2865149E+04  0.7818609E-02  0.8283323E-01
       -1   -1    0    0    0  501  0.00000000000E+00  0.00000000000E+00  0.21786194045E+04  0.21786194045E+04  0.50400001928E-02 0. -1.
        1   -1    0    0  501    0  0.00000000000E+00  0.00000000000E+00 -0.94200447813E+03  0.94200447815E+03  0.50400001928E-02 0.  1.
    10030    2    1    2    0    0  0.00000000000E+00  0.00000000000E+00  0.12366149264E+04  0.31206238826E+04  0.28651486769E+04 0.  0.
        1    1    3    3  502    0  0.13011810297E+04  0.48453428922E+03  0.10024972323E+04  0.17125554737E+04  0.50400001928E-02 0. -1.
       -1    1    3    3    0  502 -0.13011810297E+04 -0.48453428922E+03  0.23411769402E+03  0.14080684090E+04  0.50400001928E-02 0.  1.
</event>
<event>
 5   0  0.3786210E-07  0.2899021E+04  0.7818609E-02  0.8273169E-01
        1   -1    0    0  501    0  0.00000000000E+00  0.00000000000E+00  0.11478481622E+04  0.11478481622E+04  0.50400001928E-02 0. -1.
       -1   -1    0    0    0  501  0.00000000000E+00  0.00000000000E+00 -0.18304519516E+04  0.18304519516E+04  0.50400001928E-02 0.  1.
    10030    2    1    2    0    0  0.00000000000E+00  0.00000000000E+00 -0.68260378936E+03  0.29783001138E+04  0.28990211511E+04 0.  0.
        5    1    3    3  502    0  0.73255795037E+03  0.19318487420E+03 -0.16108536926E+04  0.17801216967E+04  0.46999998093E+01 0.  1.
       -5    1    3    3    0  502 -0.73255795037E+03 -0.19318487420E+03  0.92824990321E+03  0.11981784170E+04  0.46999998093E+01 0. -1.
</event>
<event>
 5   0  0.9950999E-07  0.2901583E+04  0.7818609E-02  0.8272407E-01
       -2   -1    0    0    0  501  0.00000000000E+00  0.00000000000E+00  0.14690133618E+04  0.14690133618E+04  0.25500000920E-02 0. -1.
        2   -1    0    0  501    0  0.00000000000E+00  0.00000000000E+00 -0.14327955892E+04  0.14327955892E+04  0.25500000920E-02 0.  1.
    10030    2    1    2    0    0  0.00000000000E+00  0.00000000000E+00  0.36217772666E+02  0.29018089510E+04  0.29015829233E+04 0.  0.
        3    1    3    3  502    0  0.68924041437E+03 -0.94341542203E+03  0.87824032762E+03  0.14616398635E+04  0.10100000352E+00 0. -1.
       -3    1    3    3    0  502 -0.68924041437E+03  0.94341542203E+03 -0.84202255495E+03  0.14401690875E+04  0.10100000352E+00 0.  1.
</event>
<event>
 5   0  0.3638028E-07  0.2897558E+04  0.7818609E-02  0.8273604E-01
        1   -1    0    0  501    0  0.00000000000E+00  0.00000000000E+00  0.11675482395E+04  0.11675482395E+04  0.50400001928E-02 0.  1.
       -1   -1    0    0    0  501  0.00000000000E+00  0.00000000000E+00 -0.17977504937E+04  0.17977504937E+04  0.50400001928E-02 0. -1.
    10030    2    1    2    0    0  0.00000000000E+00  0.00000000000E+00 -0.63020225426E+03  0.29652987332E+04  0.28975578848E+04 0.  0.
        4    1    3    3  502    0  0.13401468010E+04 -0.15813264992E+03  0.22444308227E+03  0.13679823439E+04  0.12699999809E+01 0. -1.
       -4    1    3    3    0  502 -0.13401468010E+04  0.15813264992E+03 -0.85464533653E+03  0.15973163893E+04  0.12699999809E+01 0.  1.
</event>
<event>
 5   0  0.9950999E-07  0.2893937E+04  0.7818609E-02  0.8274684E-01
        2   -1    0    0  501    0  0.00000000000E+00  0.00000000000E+00  0.13237131605E+04  0.13237131605E+04  0.25500000920E-02 0.  1.
       -2   -1    0    0    0  501  0.00000000000E+00  0.00000000000E+00 -0.15817000841E+04  0.15817000841E+04  0.25500000920E-02 0. -1.
    10030    2    1    2    0    0  0.00000000000E+00  0.00000000000E+00 -0.25798692352E+03  0.29054132446E+04  0.28939365697E+04 0.  0.
        3    1    3    3  502    0 -0.13732127984E+04  0.40733467401E+03 -0.33494665910E+03  0.14709942899E+04  0.10100000352E+00 0.  1.
       -3    1    3    3    0  502  0.13732127984E+04 -0.40733467401E+03  0.76959735580E+02  0.14344189547E+04  0.10100000352E+00 0. -1.
</event>
<event>
 5   0  0.3786210E-07  0.2899934E+04  0.7818609E-02  0.8272897E-01
        1   -1    0    0  501    0  0.00000000000E+00  0.00000000000E+00  0.11368529978E+04  0.11368529978E+04  0.50400001928E-02 0. -1.
       -1   -1    0    0    0  501  0.00000000000E+00  0.00000000000E+00 -0.18493189407E+04  0.18493189407E+04  0.50400001928E-02 0.  1.
    10030    2    1    2    0    0  0.00000000000E+00  0.00000000000E+00 -0.71246594286E+03  0.29861719385E+04  0.28999336418E+04 0.  0.
        5    1    3    3  502    0 -0.12902294598E+02 -0.10607131989E+02  0.11367460868E+04  0.11368785055E+04  0.46999998093E+01 0. -1.
       -5    1    3    3    0  502  0.12902294598E+02  0.10607131989E+02 -0.18492120297E+04  0.18492934330E+04  0.46999998093E+01 0.  1.
</event>
<event>
 5   0  0.3885904E-07  0.2901334E+04  0.7818609E-02  0.8272481E-01
       -1   -1    0    0    0  501  0.00000000000E+00  0.00000000000E+00  0.96804430448E+03  0.96804430449E+03  0.50400001928E-02 0.  1.
        1   -1    0    0  501    0  0.00000000000E+00  0.00000000000E+00 -0.21739027838E+04  0.21739027838E+04  0.50400001928E-02 0. -1.
    10030    2    1    2    0    0  0.00000000000E+00  0.00000000000E+00 -0.12058584793E+04  0.31419470882E+04  0.29013336301E+04 0.  0.
        2    1    3    3  502    0  0.14295846185E+04 -0.21237087210E+03 -0.73827685244E+03  0.16229190613E+04  0.25500000920E-02 0. -1.
       -2    1    3    3    0  502 -0.14295846185E+04  0.21237087210E+03 -0.46758162684E+03  0.15190280269E+04  0.25500000920E-02 0.  1.
</event>
<event>
 5   0  0.1031339E-06  0.2905412E+04  0.7818609E-02  0.8271269E-01
       -2   -1    0    0    0  501  0.00000000000E+00  0.00000000000E+00  0.18282696787E+04  0.18282696787E+04  0.25500000920E-02 0. -1.
        2   -1    0    0  501    0  0.00000000000E+00  0.00000000000E+00 -0.11542906386E+04  0.11542906386E+04  0.25500000920E-02 0.  1.
    10030    2    1    2    0    0  0.00000000000E+00  0.00000000000E+00  0.67397904004E+03  0.29825603173E+04  0.29054118985E+04 0.  0.
        5    1    3    3  502    0  0.32665308844E+03 -0.10974968223E+04  0.12546679113E+04  0.16986509862E+04  0.46999998093E+01 0. -1.
       -5    1    3    3    0  502 -0.32665308844E+03  0.10974968223E+04 -0.58068887127E+03  0.12839093311E+04  0.46999998093E+01 0.  1.
</event>
<event>
 5   0  0.3770467E-07  0.2900659E+04  0.7818609E-02  0.8272681E-01
        1   -1    0    0  501    0  0.00000000000E+00  0.00000000000E+00  0.20188208063E+04  0.20188208063E+04  0.50400001928E-02 0. -1.
       -1   -1    0    0    0  501  0.00000000000E+00  0.00000000000E+00 -0.10419230997E+04  0.10419230997E+04  0.50400001928E-02 0.  1.
    10030    2    1    2    0    0  0.00000000000E+00  0.00000000000E+00  0.97689770654E+03  0.30607439060E+04  0.29006592577E+04 0.  0.
        1    1    3    3  502    0 -0.14357931270E+04  0.15706801497E+03  0.34972552998E+03  0.14860956266E+04  0.50400001928E-02 0. -1.
       -1    1    3    3    0  502  0.14357931270E+04 -0.15706801497E+03  0.62717217657E+03  0.15746482795E+04  0.50400001928E-02 0.  1.
</event>
<event>
 5   0  0.3770467E-07  0.2899741E+04  0.7818609E-02  0.8272955E-01
       -1   -1    0    0    0  501  0.00000000000E+00  0.00000000000E+00  0.18070782760E+04  0.18070782760E+04  0.50400001928E-02 0. -1.
        1   -1    0    0  501    0  0.00000000000E+00  0.00000000000E+00 -0.11632723653E+04  0.11632723653E+04  0.50400001928E-02 0.  1.
    10030    2    1    2    0    0  0.00000000000E+00  0.00000000000E+00  0.64380591068E+03  0.29703506413E+04  0.28997408301E+04 0.  0.
        1    1    3    3  502    0  0.29383619072E+02  0.12127597110E+04 -0.49145621960E+03  0.13088845363E+04  0.50400001928E-02 0.  1.
       -1    1    3    3    0  502 -0.29383619072E+02 -0.12127597110E+04  0.11352621303E+04  0.16614661050E+04  0.50400001928E-02 0. -1.
</event>
<event>
 5   0  0.9950999E-07  0.2900186E+04  0.7818609E-02  0.8272822E-01
       -2   -1    0    0    0  501  0.00000000000E+00  0.00000000000E+00  0.15394848781E+04  0.15394848781E+04  0.25500000920E-02 0. -1.
        2   -1    0    0  501    0  0.00000000000E+00  0.00000000000E+00 -0.13658915567E+04  0.13658915567E+04  0.25500000920E-02 0.  1.
    10030    2    1    2    0    0  0.00000000000E+00  0.00000000000E+00  0.17359332136E+03  0.29053764348E+04  0.29001857848E+04 0.  0.
        3    1    3    3  502    0 -0.23276705362E+02  0.86808230799E+03 -0.10766003388E+04  0.13831764162E+04  0.10100000352E+00 0.  1.
       -3    1    3    3    0  502  0.23276705362E+02 -0.86808230799E+03  0.12501936602E+04  0.15222000186E+04  0.10100000352E+00 0. -1.
</event>
<event>
 5   0  0.3638028E-07  0.2899549E+04  0.7818609E-02  0.8273012E-01
       -1   -1    0    0    0  501  0.00000000000E+00  0.00000000000E+00  0.12346494981E+04  0.12346494981E+04  0.50400001928E-02 0. -1.
        1   -1    0    0  501    0  0.00000000000E+00  0.00000000000E+00 -0.17023827524E+04  0.17023827525E+04  0.50400001928E-02 0.  1.
    10030    2    1    2    0    0  0.00000000000E+00  0.00000000000E+00 -0.46773325434E+03  0.29370322506E+04  0.28995489380E+04 0.  0.
        4    1    3    3  502    0 -0.36045479560E+02 -0.14386252980E+04 -0.55803420556E+02  0.14401589007E+04  0.12699999809E+01 0.  1.
       -4    1    3    3    0  502  0.36045479560E+02  0.14386252980E+04 -0.41192983378E+03  0.14968733499E+04  0.12699999809E+01 0. -1.
</event>
<event>
 5   0  0.3770467E-07  0.2901986E+04  0.7818609E-02  0.8272287E-01
       -1   -1    0    0    0  501  0.00000000000E+00  0.00000000000E+00  0.10483054247E+04  0.10483054247E+04  0.50400001928E-02 0.  1.
        1   -1    0    0  501    0  0.00000000000E+00  0.00000000000E+00 -0.20083655885E+04  0.20083655885E+04  0.50400001928E-02 0. -1.
    10030    2    1    2    0    0  0.00000000000E+00  0.00000000000E+00 -0.96006016388E+03  0.30566710132E+04  0.29019859002E+04 0.  0.
        1    1    3    3  502    0 -0.11448377004E+04  0.82330877164E+02  0.45495009191E+03  0.12346705309E+04  0.50400001928E-02 0.  1.
       -1    1    3    3    0  502  0.11448377004E+04 -0.82330877164E+02 -0.14150102558E+04  0.18220004823E+04  0.50400001928E-02 0. -1.
</event>
<event>
 5   0  0.1031339E-06  0.2891756E+04  0.7818609E-02  0.8275335E-01
        2   -1    0    0  501    0  0.00000000000E+00  0.00000000000E+00  0.19243555003E+04  0.19243555003E+04  0.25500000920E-02 0.  1.
       -2   -1    0    0    0  501  0.00000000000E+00  0.00000000000E+00 -0.10863703078E+04  0.10863703078E+04  0.25500000920E-02 0. -1.
    10030    2    1    2    0    0  0.00000000000E+00  0.00000000000E+00  0.83798519251E+03  0.30107258082E+04  0.28917556448E+04 0.  0.
        5    1    3    3  502    0  0.19767931535E+02 -0.49253058102E+03 -0.99617962005E+03  0.11114733779E+04  0.46999998093E+01 0. -1.
       -5    1    3    3    0  502 -0.19767931535E+02  0.49253058102E+03  0.18341648126E+04  0.18992524303E+04  0.46999998093E+01 0.  1.
</event>
<event>
 5   0  0.3786210E-07  0.2904639E+04  0.7818609E-02  0.8271499E-01
        1   -1    0    0  501    0  0.00000000000E+00  0.00000000000E+00  0.15290446439E+04  0.15290446439E+04  0.50400001928E-02 0. -1.
       -1   -1    0    0    0  501  0.00000000000E+00  0.00000000000E+00 -0.13794438429E+04  0.13794438429E+04  0.50400001928E-02 0.  1.
    10030    2    1    2    0    0  0.00000000000E+00  0.00000000000E+00  0.14960080097E+03  0.29084884868E+04  0.29046385108E+04 0.  0.
        5    1    3    3  502    0 -0.92652592562E+03 -0.83290554508E+03  0.82213218925E+03  0.14926839466E+04  0.46999998093E+01 0. -1.
       -5    1    3    3    0  502  0.92652592562E+03  0.83290554508E+03 -0.67253138828E+03  0.14158045402E+04  0.46999998093E+01 0.  1.
</event>
<event>
 5   0  0.9950999E-07  0.2896639E+04  0.7818609E-02  0.8273878E-01
       -2   -1    0    0    0  501  0.00000000000E+00  0.00000000000E+00  0.14067165524E+04  0.14067165524E+04  0.25500000920E-02 0. -1.
        2   -1    0    0  501    0  0.00000000000E+00  0.00000000000E+00 -0.14911530961E+04  0.14911530961E+04  0.25500000920E-02 0.  1.
    10030    2    1    2    0    0  0.00000000000E+00  0.00000000000E+00 -0.84436543758E+02  0.28978696485E+04  0.28966392543E+04 0.  0.
        3    1    3    3  502    0  0.12570564645E+03 -0.76416144244E+01  0.14012284137E+04  0.14068764627E+04  0.10100000352E+00 0. -1.
       -3    1    3    3    0  502 -0.12570564645E+03  0.76416144244E+01 -0.14856649575E+04  0.14909931857E+04  0.10100000352E+00 0.  1.
</event>
<event>
 5   0  0.3885904E-07  0.2901235E+04  0.7818609E-02  0.8272510E-01
        1   -1    0    0  501    0  0.00000000000E+00  0.00000000000E+00  0.19141642312E+04  0.19141642312E+04  0.50400001928E-02 0. -1.
       -1   -1    0    0    0  501  0.00000000000E+00  0.00000000000E+00 -0.10993263092E+04  0.10993263092E+04  0.50400001928E-02 0.  1.
    10030    2    1    2    0    0  0.00000000000E+00  0.00000000000E+00  0.81483792198E+03  0.30134905404E+04  0.29012349781E+04 0.  0.
        2    1    3    3  502    0  0.14347516150E+04  0.20518049124E+03  0.34440988828E+03  0.14897078244E+04  0.25500000920E-02 0.  1.
       -2    1    3    3    0  502 -0.14347516150E+04 -0.20518049124E+03  0.47042803370E+03  0.15237827160E+04  0.25500000920E-02 0. -1.
</event>
<event>
 5   0  0.3638028E-07  0.2901243E+04  0.7818609E-02  0.8272508E-01
       -1   -1    0    0    0  501  0.00000000000E+00  0.00000000000E+00  0.16935074225E+04  0.16935074225E+04  0.50400001928E-02 0. -1.
        1   -1    0    0  501    0  0.00000000000E+00  0.00000000000E+00 -0.12425704458E+04  0.12425704458E+04  0.50400001928E-02 0.  1.
    10030    2    1    2    0    0  0.00000000000E+00  0.00000000000E+00  0.45093697675E+03  0.29360778683E+04  0.29012426806E+04 0.  0.
        4    1    3    3  502    0 -0.84026727144E+03 -0.13234537894E+03 -0.96368764107E+03  0.12854026098E+04  0.12699999809E+01 0.  1.
       -4    1    3    3    0  502  0.84026727144E+03  0.13234537894E+03  0.14146246178E+04  0.16506752585E+04  0.12699999809E+01 0. -1.
</event>
<event>
 5   0  0.3770467E-07  0.2898443E+04  0.7818609E-02  0.8273341E-01
       -1   -1    0    0    0  501  0.00000000000E+00  0.00000000000E+00  0.10034032795E+04  0.10034032795E+04  0.50400001928E-02 0. -1.
        1   -1    0    0  501    0  0.00000000000E+00  0.00000000000E+00 -0.20931191288E+04  0.20931191288E+04  0.50400001928E-02 0.  1.
    10030    2    1    2    0    0  0.00000000000E+00  0.00000000000E+00 -0.10897158493E+04  0.30965224084E+04  0.28984427531E+04 0.  0.
        1    1    3    3  502    0 -0.90262227845E+03 -0.95189394002E+03 -0.12029185672E+04  0.17798432880E+04  0.50400001928E-02 0.  1.
       -1    1    3    3    0  502  0.90262227845E+03  0.95189394002E+03  0.11320271790E+03  0.13166791203E+04  0.50400001928E-02 0. -1.
</event>
<event>
 5   0  0.3638028E-07  0.2899454E+04  0.7818609E-02  0.8273040E-01
       -1   -1    0    0    0  501  0.00000000000E+00  0.00000000000E+00  0.93314181793E+03  0.93314181795E+03  0.50400001928E-02 0. -1.
        1   -1    0    0  501    0  0.00000000000E+00  0.00000000000E+00 -0.22522926337E+04  0.22522926337E+04  0.50400001928E-02 0.  1.
    10030    2    1    2    0    0  0.00000000000E+00  0.00000000000E+00 -0.13191508158E+04  0.31854344517E+04  0.28994540471E+04 0.  0.
        4    1    3    3  502    0 -0.17711365645E+02  0.12423063093E+04 -0.14802973975E+04  0.19325942814E+04  0.12699999809E+01 0.  1.
       -4    1    3    3    0  502  0.17711365645E+02 -0.12423063093E+04  0.16114658169E+03  0.12528401703E+04  0.12699999809E+01 0. -1.
</event>
<event>
 5   0  0.9994311E-07  0.2959976E+04  0.7818609E-02  0.8255253E-01
       -2   -1    0    0    0  501  0.00000000000E+00  0.00000000000E+00  0.11118144834E+04  0.11118144834E+04  0.25500000920E-02 0. -1.
        2   -1    0    0  501    0  0.00000000000E+00  0.00000000000E+00 -0.19700804729E+04  0.19700804729E+04  0.25500000920E-02 0.  1.
    10030    2    1    2    0    0  0.00000000000E+00  0.00000000000E+00 -0.85826598949E+03  0.30818949563E+04  0.29599756778E+04 0.  0.
        2    1    3    3  502    0  0.11405911753E+04 -0.87474235836E+03 -0.79613055178E+03  0.16431513254E+04  0.25500000920E-02 0.  1.
       -2    1    3    3    0  502 -0.11405911753E+04  0.87474235836E+03 -0.62135437709E+02  0.14387436309E+04  0.25500000920E-02 0. -1.
</event>
<event>
 5   0  0.1063979E-06  0.2901456E+04  0.7818609E-02  0.8272444E-01
       -2   -1    0    0    0  501  0.00000000000E+00  0.00000000000E+00  0.98023841028E+03  0.98023841028E+03  0.25500000920E-02 0.  1.
        2   -1    0    0  501    0  0.00000000000E+00  0.00000000000E+00 -0.21470412381E+04  0.21470412381E+04  0.25500000920E-02 0. -1.
    10030    2    1    2    0    0  0.00000000000E+00  0.00000000000E+00 -0.11668028278E+04  0.31272796484E+04  0.29014563861E+04 0.  0.
        1    1    3    3  502    0 -0.48019090511E+03  0.11580941044E+04 -0.13701789409E+04  0.18571902407E+04  0.50400001928E-02 0. -1.
       -1    1    3    3    0  502  0.48019090511E+03 -0.11580941044E+04  0.20337611312E+03  0.12700894077E+04  0.50400001928E-02 0.  1.
</event>
<event>
 5   0  0.9950999E-07  0.2900860E+04  0.7818609E-02  0.8272622E-01
       -2   -1    0    0    0  501  0.00000000000E+00  0.00000000000E+00  0.19610991509E+04  0.19610991510E+04  0.25500000920E-02 0.  1.
        2   -1    0    0  501    0  0.00000000000E+00  0.00000000000E+00 -0.10727384784E+04  0.10727384784E+04  0.25500000920E-02 0. -1.
    10030    2    1    2    0    0  0.00000000000E+00  0.00000000000E+00  0.88836067251E+03  0.30338376294E+04  0.29008595411E+04 0.  0.
        3    1    3    3  502    0 -0.13347887665E+04 -0.34809174741E+02 -0.14824380483E+03  0.13434466739E+04  0.10100000352E+00 0. -1.
       -3    1    3    3    0  502  0.13347887665E+04  0.34809174741E+02  0.10366044773E+04  0.16903909555E+04  0.10100000352E+00 0.  1.
</event>
<event>
 5   0  0.1063979E-06  0.2901876E+04  0.7818609E-02  0.8272320E-01
       -2   -1    0    0    0  501  0.00000000000E+00  0.00000000000E+00  0.15406605261E+04  0.15406605261E+04  0.25500000920E-02 0.  1.
        2   -1    0    0  501    0  0.00000000000E+00  0.00000000000E+00 -0.13664406579E+04  0.13664406580E+04  0.25500000920E-02 0. -1.
    10030    2    1    2    0    0  0.00000000000E+00  0.00000000000E+00  0.17421986810E+03  0.29071011840E+04  0.29018760710E+04 0.  0.
        1    1    3    3  502    0  0.61842932099E+03 -0.12244419520E+04 -0.38650793494E+03  0.14251671139E+04  0.50400001928E-02 0. -1.
       -1    1    3    3    0  502 -0.61842932099E+03  0.12244419520E+04  0.56072780304E+03  0.14819340701E+04  0.50400001928E-02 0.  1.
</event>
<event>
 5   0  0.1006893E-06  0.2908405E+04  0.7818609E-02  0.8270381E-01
       -2   -1    0    0    0  501  0.00000000000E+00  0.00000000000E+00  0.13066425980E+04  0.13066425980E+04  0.25500000920E-02 0.  1.
        2   -1    0    0  501    0  0.00000000000E+00  0.00000000000E+00 -0.16184269530E+04  0.16184269530E+04  0.25500000920E-02 0. -1.
    10030    2    1    2    0    0  0.00000000000E+00  0.00000000000E+00 -0.31178435504E+03  0.29250695510E+04  0.29084054727E+04 0.  0.
        4    1    3    3  502    0 -0.53267614408E+03  0.77779882887E+03  0.95769583454E+03  0.13438369756E+04  0.12699999809E+01 0.  1.
       -4    1    3    3    0  502  0.53267614408E+03 -0.77779882887E+03 -0.12694801896E+04  0.15812325753E+04  0.12699999809E+01 0. -1.
</event>
<event>
 5   0  0.3769563E-07  0.2920662E+04  0.7818609E-02  0.8266756E-01
        1   -1    0    0  501    0  0.00000000000E+00  0.00000000000E+00  0.10413193584E+04  0.10413193584E+04  0.50400001928E-02 0. -1.
       -1   -1    0    0    0  501  0.00000000000E+00  0.00000000000E+00 -0.20479469464E+04  0.20479469464E+04  0.50400001928E-02 0.  1.
    10030    2    1    2    0    0  0.00000000000E+00  0.00000000000E+00 -0.10066275880E+04  0.30892663048E+04  0.29206621169E+04 0.  0.
        3    1    3    3  502    0 -0.41461199843E+03  0.10718481221E+04  0.44970171189E+03  0.12340960846E+04  0.10100000352E+00 0. -1.
       -3    1    3    3    0  502  0.41461199843E+03 -0.10718481221E+04 -0.14563292999E+04  0.18551702202E+04  0.10100000352E+00 0.  1.
</event>
<event>
 5   0  0.3770467E-07  0.2901220E+04  0.7818609E-02  0.8272515E-01
       -1   -1    0    0    0  501  0.00000000000E+00  0.00000000000E+00  0.12229032044E+04  0.12229032044E+04  0.50400001928E-02 0. -1.
        1   -1    0    0  501    0  0.00000000000E+00  0.00000000000E+00 -0.17207164208E+04  0.17207164208E+04  0.50400001928E-02 0.  1.
    10030    2    1    2    0    0  0.00000000000E+00  0.00000000000E+00 -0.49781321643E+03  0.29436196253E+04  0.29012201743E+04 0.  0.
        1    1    3    3  502    0 -0.76913848050E+03 -0.99985735104E+03  0.47778743236E+03  0.13489142134E+04  0.50400001928E-02 0. -1.
       -1    1    3    3    0  502  0.76913848050E+03  0.99985735104E+03 -0.97560064879E+03  0.15947054118E+04  0.50400001928E-02 0.  1.
</event>
<event>
 5   0  0.3378750E-07  0.2893161E+04  0.7818609E-02  0.8274915E-01
       -3   -1    0    0    0  501  0.00000000000E+00  0.00000000000E+00  0.15198851316E+04  0.15198851350E+04  0.10100000352E+00 0. -1.
        3   -1    0    0  501    0  0.00000000000E+00  0.00000000000E+00 -0.13768115226E+04  0.13768115263E+04  0.10100000352E+00 0.  1.
    10030    2    1    2    0    0  0.00000000000E+00  0.00000000000E+00  0.14307360905E+03  0.28966966613E+04  0.28931611586E+04 0.  0.
        2    1    3    3  502    0  0.63586842770E+03  0.12099153085E+04  0.54579450879E+03  0.14717728618E+04  0.25500000920E-02 0. -1.
       -2    1    3    3    0  502 -0.63586842770E+03 -0.12099153085E+04 -0.40272089975E+03  0.14249237994E+04  0.25500000920E-02 0.  1.
</event>
<event>
 5   0  0.3770467E-07  0.2898574E+04  0.7818609E-02  0.8273302E-01
       -1   -1    0    0    0  501  0.00000000000E+00  0.00000000000E+00  0.97535052169E+03  0.97535052171E+03  0.50400001928E-02 0.  1.
        1   -1    0    0  501    0  0.00000000000E+00  0.00000000000E+00 -0.21535159407E+04  0.21535159407E+04  0.50400001928E-02 0. -1.
    10030    2    1    2    0    0  0.00000000000E+00  0.00000000000E+00 -0.11781654190E+04  0.31288664624E+04  0.28985740606E+04 0.  0.
        1    1    3    3  502    0  0.17154204420E+03  0.84479206452E+03  0.66852666303E+03  0.10908841389E+04  0.50400001928E-02 0.  1.
       -1    1    3    3    0  502 -0.17154204420E+03 -0.84479206452E+03 -0.18466920820E+04  0.20379823235E+04  0.50400001928E-02 0. -1.
</event>
<event>
 5   0  0.3638028E-07  0.2897709E+04  0.7818609E-02  0.8273559E-01
       -1   -1    0    0    0  501  0.00000000000E+00  0.00000000000E+00  0.87555826074E+03  0.87555826076E+03  0.50400001928E-02 0.  1.
        1   -1    0    0  501    0  0.00000000000E+00  0.00000000000E+00 -0.23975328704E+04  0.23975328704E+04  0.50400001928E-02 0. -1.
    10030    2    1    2    0    0  0.00000000000E+00  0.00000000000E+00 -0.15219746097E+04  0.32730911312E+04  0.28977092402E+04 0.  0.
        4    1    3    3  502    0  0.12269608465E+03  0.14413424560E+04 -0.85313827665E+03  0.16793954081E+04  0.12699999809E+01 0. -1.
       -4    1    3    3    0  502 -0.12269608465E+03 -0.14413424560E+04 -0.66883633305E+03  0.15936957231E+04  0.12699999809E+01 0.  1.
</event>
<event>
 5   0  0.3769563E-07  0.2900297E+04  0.7818609E-02  0.8272789E-01
        1   -1    0    0  501    0  0.00000000000E+00  0.00000000000E+00  0.77578602333E+03  0.77578602335E+03  0.50400001928E-02 0. -1.
       -1   -1    0    0    0  501  0.00000000000E+00  0.00000000000E+00 -0.27107102858E+04  0.27107102858E+04  0.50400001928E-02 0.  1.
    10030    2    1    2    0    0  0.00000000000E+00  0.00000000000E+00 -0.19349242625E+04  0.34864963092E+04  0.29002973317E+04 0.  0.
        3    1    3    3  502    0 -0.71495863510E+03 -0.53759873560E+01  0.54917700844E+03  0.90154874963E+03  0.10100000352E+00 0. -1.
       -3    1    3    3    0  502  0.71495863510E+03  0.53759873560E+01 -0.24841012710E+04  0.25849475596E+04  0.10100000352E+00 0.  1.
</event>
<event>
 5   0  0.1006893E-06  0.2902587E+04  0.7818609E-02  0.8272108E-01
        2   -1    0    0  501    0  0.00000000000E+00  0.00000000000E+00  0.18402449456E+04  0.18402449456E+04  0.25500000920E-02 0.  1.
       -2   -1    0    0    0  501  0.00000000000E+00  0.00000000000E+00 -0.11445503492E+04  0.11445503492E+04  0.25500000920E-02 0. -1.
    10030    2    1    2    0    0  0.00000000000E+00  0.00000000000E+00  0.69569459638E+03  0.29847952948E+04  0.29025871185E+04 0.  0.
        4    1    3    3  502    0  0.12081287710E+04  0.44269535327E+03  0.10382010025E+04  0.16533049440E+04  0.12699999809E+01 0.  1.
       -4    1    3    3    0  502 -0.12081287710E+04 -0.44269535327E+03 -0.34250640614E+03  0.13314903508E+04  0.12699999809E+01 0. -1.
</event>
<event>
 5   0  0.3885904E-07  0.2900744E+04  0.7818609E-02  0.8272656E-01
       -1   -1    0    0    0  501  0.00000000000E+00  0.00000000000E+00  0.13183445628E+04  0.13183445628E+04  0.50400001928E-02 0. -1.
        1   -1    0    0  501    0  0.00000000000E+00  0.00000000000E+00 -0.15956216920E+04  0.15956216920E+04  0.50400001928E-02 0.  1.
    10030    2    1    2    0    0  0.00000000000E+00  0.00000000000E+00 -0.27727712919E+03  0.29139662548E+04  0.29007441679E+04 0.  0.
        2    1    3    3  502    0  0.47630917265E+03 -0.58626702743E+03  0.11051487670E+04  0.13386311114E+04  0.25500000920E-02 0. -1.
       -2    1    3    3    0  502 -0.47630917265E+03  0.58626702743E+03 -0.13824258962E+04  0.15753351433E+04  0.25500000920E-02 0.  1.
</event>
<event>
 5   0  0.3769563E-07  0.2897293E+04  0.7818609E-02  0.8273683E-01
        1   -1    0    0  501    0  0.00000000000E+00  0.00000000000E+00  0.12920493801E+04  0.12920493801E+04  0.50400001928E-02 0. -1.
       -1   -1    0    0    0  501  0.00000000000E+00  0.00000000000E+00 -0.16242233158E+04  0.16242233158E+04  0.50400001928E-02 0.  1.
    10030    2    1    2    0    0  0.00000000000E+00  0.00000000000E+00 -0.33217393568E+03  0.29162726959E+04  0.28972930320E+04 0.  0.
        3    1    3    3  502    0  0.36758158613E+03 -0.76759687528E+02 -0.15743837527E+04  0.16185464105E+04  0.10100000352E+00 0.  1.
       -3    1    3    3    0  502 -0.36758158613E+03  0.76759687528E+02  0.12422098170E+04  0.12977262854E+04  0.10100000352E+00 0. -1.
</event>
<event>
 5   0  0.1031339E-06  0.2900205E+04  0.7818609E-02  0.8272816E-01
       -2   -1    0    0    0  501  0.00000000000E+00  0.00000000000E+00  0.18083099619E+04  0.18083099619E+04  0.25500000920E-02 0.  1.
        2   -1    0    0  501    0  0.00000000000E+00  0.00000000000E+00 -0.11628524115E+04  0.11628524115E+04  0.25500000920E-02 0. -1.
    10030    2    1    2    0    0  0.00000000000E+00  0.00000000000E+00  0.64545755044E+03  0.29711623734E+04  0.29002052341E+04 0.  0.
        5    1    3    3  502    0 -0.51240425649E+03 -0.60040801430E+03 -0.92347350734E+03  0.12148552648E+04  0.46999998093E+01 0. -1.
       -5    1    3    3    0  502  0.51240425649E+03  0.60040801430E+03  0.15689310578E+04  0.17563071086E+04  0.46999998093E+01 0.  1.
</event>
<event>
 5   0  0.3885904E-07  0.2899686E+04  0.7818609E-02  0.8272971E-01
        1   -1    0    0  501    0  0.00000000000E+00  0.00000000000E+00  0.12365883679E+04  0.12365883679E+04  0.50400001928E-02 0.  1.
       -1   -1    0    0    0  501  0.00000000000E+00  0.00000000000E+00 -0.16998738151E+04  0.16998738151E+04  0.50400001928E-02 0. -1.
    10030    2    1    2    0    0  0.00000000000E+00  0.00000000000E+00 -0.46328544718E+03  0.29364621830E+04  0.28996856289E+04 0.  0.
        2    1    3    3  502    0 -0.11508450845E+04  0.85074215366E+03  0.33293256706E+01  0.14311595666E+04  0.25500000920E-02 0.  1.
       -2    1    3    3    0  502  0.11508450845E+04 -0.85074215366E+03 -0.46661477285E+03  0.15053026164E+04  0.25500000920E-02 0. -1.
</event>
<event>
 5   0  0.3786210E-07  0.2898113E+04  0.7818609E-02  0.8273439E-01
        1   -1    0    0  501    0  0.00000000000E+00  0.00000000000E+00  0.23813206012E+04  0.23813206012E+04  0.50400001928E-02 0. -1.
       -1   -1    0    0    0  501  0.00000000000E+00  0.00000000000E+00 -0.88176470119E+03  0.88176470120E+03  0.50400001928E-02 0.  1.
    10030    2    1    2    0    0  0.00000000000E+00  0.00000000000E+00  0.14995559000E+04  0.32630853024E+04  0.28981127986E+04 0.  0.
        5    1    3    3  502    0 -0.11258978599E+04 -0.47909389276E+03  0.16237856139E+04  0.20331942256E+04  0.46999998093E+01 0. -1.
       -5    1    3    3    0  502  0.11258978599E+04  0.47909389276E+03 -0.12422971386E+03  0.12298910768E+04  0.46999998093E+01 0.  1.
</event>
<event>
 5   0  0.3786210E-07  0.2903077E+04  0.7818609E-02  0.8271963E-01
        1   -1    0    0  501    0  0.00000000000E+00  0.00000000000E+00  0.14305792693E+04  0.14305792693E+04  0.50400001928E-02 0.  1.
       -1   -1    0    0    0  501  0.00000000000E+00  0.00000000000E+00 -0.14728045489E+04  0.14728045490E+04  0.50400001928E-02 0. -1.
    10030    2    1    2    0    0  0.00000000000E+00  0.00000000000E+00 -0.42225279618E+02  0.29033838183E+04  0.29030767510E+04 0.  0.
        5    1    3    3  502    0  0.13059727201E+04 -0.55816205158E+03  0.27863883828E+03  0.14473324821E+04  0.46999998093E+01 0.  1.
       -5    1    3    3    0  502 -0.13059727201E+04  0.55816205158E+03 -0.32086411790E+03  0.14560513362E+04  0.46999998093E+01 0. -1.
</event>
<event>
 5   0  0.9994311E-07  0.2899467E+04  0.7818609E-02  0.8273036E-01
       -2   -1    0    0    0  501  0.00000000000E+00  0.00000000000E+00  0.10476188081E+04  0.10476188081E+04  0.25500000920E-02 0. -1.
        2   -1    0    0  501    0  0.00000000000E+00  0.00000000000E+00 -0.20061942743E+04  0.20061942743E+04  0.25500000920E-02 0.  1.
    10030    2    1    2    0    0  0.00000000000E+00  0.00000000000E+00 -0.95857546627E+03  0.30538130824E+04  0.28994667471E+04 0.  0.
        2    1    3    3  502    0  0.62585906179E+03  0.84226295489E+03 -0.15328470600E+04  0.18576131352E+04  0.25500000920E-02 0.  1.
       -2    1    3    3    0  502 -0.62585906179E+03 -0.84226295489E+03  0.57427159377E+03  0.11961999473E+04  0.25500000920E-02 0. -1.
</event>
<event>
 5   0  0.9994311E-07  0.2900509E+04  0.7818609E-02  0.8272726E-01
        2   -1    0    0  501    0  0.00000000000E+00  0.00000000000E+00  0.14597987254E+04  0.14597987254E+04  0.25500000920E-02 0. -1.
       -2   -1    0    0    0  501  0.00000000000E+00  0.00000000000E+00 -0.14407730197E+04  0.14407730197E+04  0.25500000920E-02 0.  1.
    10030    2    1    2    0    0  0.00000000000E+00  0.00000000000E+00  0.19025705770E+02  0.29005717451E+04  0.29005093468E+04 0.  0.
        2    1    3    3  502    0  0.71568220843E+03 -0.10821423701E+04  0.65760509654E+03  0.14545369008E+04  0.25500000920E-02 0.  1.
       -2    1    3    3    0  502 -0.71568220843E+03  0.10821423701E+04 -0.63857939077E+03  0.14460348443E+04  0.25500000920E-02 0. -1.
</event>
<event>
 5   0  0.9950999E-07  0.2908639E+04  0.7818609E-02  0.8270312E-01
        2   -1    0    0  501    0  0.00000000000E+00  0.00000000000E+00  0.18992276719E+04  0.18992276719E+04  0.25500000920E-02 0. -1.
       -2   -1    0    0    0  501  0.00000000000E+00  0.00000000000E+00 -0.11136344674E+04  0.11136344674E+04  0.25500000920E-02 0.  1.
    10030    2    1    2    0    0  0.00000000000E+00  0.00000000000E+00  0.78559320447E+03  0.30128621393E+04  0.29086391298E+04 0.  0.
        3    1    3    3  502    0 -0.52331133294E+03  0.70121620213E+03  0.15960959615E+04  0.18201871447E+04  0.10100000352E+00 0. -1.
       -3    1    3    3    0  502  0.52331133294E+03 -0.70121620213E+03 -0.81050275704E+03  0.11926749946E+04  0.10100000352E+00 0.  1.
</event>
<event>
 5   0  0.1006893E-06  0.2899007E+04  0.7818609E-02  0.8273173E-01
        2   -1    0    0  501    0  0.00000000000E+00  0.00000000000E+00  0.13392041989E+04  0.13392041989E+04  0.25500000920E-02 0.  1.
       -2   -1    0    0    0  501  0.00000000000E+00  0.00000000000E+00 -0.15688875904E+04  0.15688875904E+04  0.25500000920E-02 0. -1.
    10030    2    1    2    0    0  0.00000000000E+00  0.00000000000E+00 -0.22968339156E+03  0.29080917893E+04  0.28990073119E+04 0.  0.
        4    1    3    3  502    0  0.72395123120E+03 -0.89541421816E+02 -0.13713386468E+04  0.15532850185E+04  0.12699999809E+01 0. -1.
       -4    1    3    3    0  502 -0.72395123120E+03  0.89541421816E+02  0.11416552553E+04  0.13548067708E+04  0.12699999809E+01 0.  1.
</event>
<event>
 5   0  0.3770467E-07  0.2898284E+04  0.7818609E-02  0.8273388E-01
       -1   -1    0    0    0  501  0.00000000000E+00  0.00000000000E+00  0.13362071811E+04  0.13362071812E+04  0.50400001928E-02 0.  1.
        1   -1    0    0  501    0  0.00000000000E+00  0.00000000000E+00 -0.15716217369E+04  0.15716217370E+04  0.50400001928E-02 0. -1.
    10030    2    1    2    0    0  0.00000000000E+00  0.00000000000E+00 -0.23541455581E+03  0.29078289181E+04  0.28982838032E+04 0.  0.
        1    1    3    3  502    0  0.90475297937E+03  0.10063053108E+04  0.40244389495E+03  0.14118036056E+04  0.50400001928E-02 0. -1.
       -1    1    3    3    0  502 -0.90475297937E+03 -0.10063053108E+04 -0.63785845076E+03  0.14960253125E+04  0.50400001928E-02 0.  1.
</event>
<event>
 5   0  0.1006893E-06  0.2896587E+04  0.7818609E-02  0.8273894E-01
        2   -1    0    0  501    0  0.00000000000E+00  0.00000000000E+00  0.22191797021E+04  0.22191797021E+04  0.25500000920E-02 0. -1.
       -2   -1    0    0    0  501  0.00000000000E+00  0.00000000000E+00 -0.94519369851E+03  0.94519369851E+03  0.25500000920E-02 0.  1.
    10030    2    1    2    0    0  0.00000000000E+00  0.00000000000E+00  0.12739860035E+04  0.31643734006E+04  0.28965874199E+04 0.  0.
        4    1    3    3  502    0 -0.78242388031E+03  0.81111210475E+03 -0.35675300924E+03  0.11821016443E+04  0.12699999809E+01 0.  1.
       -4    1    3    3    0  502  0.78242388031E+03 -0.81111210475E+03  0.16307390128E+04  0.19822717563E+04  0.12699999809E+01 0. -1.
</event>
<event>
 5   0  0.3638028E-07  0.2902141E+04  0.7818609E-02  0.8272241E-01
       -1   -1    0    0    0  501  0.00000000000E+00  0.00000000000E+00  0.11695186490E+04  0.11695186490E+04  0.50400001928E-02 0. -1.
        1   -1    0    0  501    0  0.00000000000E+00  0.00000000000E+00 -0.18004042075E+04  0.18004042075E+04  0.50400001928E-02 0.  1.
    10030    2    1    2    0    0  0.00000000000E+00  0.00000000000E+00 -0.63088555853E+03  0.29699228565E+04  0.29021414827E+04 0.  0.
        4    1    3    3  502    0  0.55842350056E+03  0.47477007799E+03 -0.15970343419E+04  0.17572033847E+04  0.12699999809E+01 0.  1.
       -4    1    3    3    0  502 -0.55842350056E+03 -0.47477007799E+03  0.96614878338E+03  0.12127194719E+04  0.12699999809E+01 0. -1.
</event>
<event>
 5   0  0.1063979E-06  0.2855121E+04  0.7818609E-02  0.8286357E-01
       -2   -1    0    0    0  501  0.00000000000E+00  0.00000000000E+00  0.85815453401E+03  0.85815453402E+03  0.25500000920E-02 0. -1.
        2   -1    0    0  501    0  0.00000000000E+00  0.00000000000E+00 -0.23747816881E+04  0.23747816881E+04  0.25500000920E-02 0.  1.
    10030    2    1    2    0    0  0.00000000000E+00  0.00000000000E+00 -0.15166271541E+04  0.32329362221E+04  0.28551214846E+04 0.  0.
        1    1    3    3  502    0 -0.73476327797E+03  0.92878222986E+03  0.14429961276E+03  0.11930364133E+04  0.50400001928E-02 0. -1.
       -1    1    3    3    0  502  0.73476327797E+03 -0.92878222986E+03 -0.16609267668E+04  0.20398998088E+04  0.50400001928E-02 0.  1.
</event>
<event>
 5   0  0.3769563E-07  0.2918713E+04  0.7818609E-02  0.8267331E-01
       -1   -1    0    0    0  501  0.00000000000E+00  0.00000000000E+00  0.10321927236E+04  0.10321927236E+04  0.50400001928E-02 0.  1.
        1   -1    0    0  501    0  0.00000000000E+00  0.00000000000E+00 -0.20632982962E+04  0.20632982962E+04  0.50400001928E-02 0. -1.
    10030    2    1    2    0    0  0.00000000000E+00  0.00000000000E+00 -0.10311055726E+04  0.30954910199E+04  0.29187130644E+04 0.  0.
        3    1    3    3  502    0 -0.10640062759E+04  0.48124549972E+03 -0.14437852489E+04  0.18569389977E+04  0.10100000352E+00 0. -1.
       -3    1    3    3    0  502  0.10640062759E+04 -0.48124549972E+03  0.41267967625E+03  0.12385520222E+04  0.10100000352E+00 0.  1.
</event>
<event>
 5   0  0.9950999E-07  0.2899776E+04  0.7818609E-02  0.8272944E-01
       -2   -1    0    0    0  501  0.00000000000E+00  0.00000000000E+00  0.16998325466E+04  0.16998325466E+04  0.25500000920E-02 0.  1.
        2   -1    0    0  501    0  0.00000000000E+00  0.00000000000E+00 -0.12366956855E+04  0.12366956855E+04  0.25500000920E-02 0. -1.
    10030    2    1    2    0    0  0.00000000000E+00  0.00000000000E+00  0.46313686104E+03  0.29365282321E+04  0.28997762510E+04 0.  0.
        3    1    3    3  502    0  0.55355243926E+03 -0.11752853995E+04  0.88351309813E+03  0.15710860824E+04  0.10100000352E+00 0. -1.
       -3    1    3    3    0  502 -0.55355243926E+03  0.11752853995E+04 -0.42037623709E+03  0.13654421498E+04  0.10100000352E+00 0.  1.
</event>
<event>
 5   0  0.3786210E-07  0.2872272E+04  0.7818609E-02  0.8281176E-01
        1   -1    0    0  501    0  0.00000000000E+00  0.00000000000E+00  0.13548322868E+04  0.13548322869E+04  0.50400001928E-02 0. -1.
       -1   -1    0    0    0  501  0.00000000000E+00  0.00000000000E+00 -0.15223185242E+04  0.15223185242E+04  0.50400001928E-02 0.  1.
    10030    2    1    2    0    0  0.00000000000E+00  0.00000000000E+00 -0.16748623738E+03  0.28771508111E+04  0.28722717751E+04 0.  0.
        5    1    3    3  502    0 -0.10870699914E+04  0.78886007839E+03 -0.59297938100E+03  0.14682193384E+04  0.46999998093E+01 0. -1.
       -5    1    3    3    0  502  0.10870699914E+04 -0.78886007839E+03  0.42549314362E+03  0.14089314727E+04  0.46999998093E+01 0.  1.
</event>
<event>
 5   0  0.1063979E-06  0.2894767E+04  0.7818609E-02  0.8274436E-01
       -2   -1    0    0    0  501  0.00000000000E+00  0.00000000000E+00  0.20323961764E+04  0.20323961764E+04  0.25500000920E-02 0. -1.
        2   -1    0    0  501    0  0.00000000000E+00  0.00000000000E+00 -0.10307629524E+04  0.10307629524E+04  0.25500000920E-02 0.  1.
    10030    2    1    2    0    0  0.00000000000E+00  0.00000000000E+00  0.10016332240E+04  0.30631591288E+04  0.28947667838E+04 0.  0.
        1    1    3    3  502    0  0.68107297053E+03 -0.10554315801E+04 -0.26012736391E+03  0.12827558057E+04  0.50400001928E-02 0.  1.
       -1    1    3    3    0  502 -0.68107297053E+03  0.10554315801E+04  0.12617605879E+04  0.17804033231E+04  0.50400001928E-02 0. -1.
</event>
<event>
 5   0  0.9950999E-07  0.2904854E+04  0.7818609E-02  0.8271435E-01
       -2   -1    0    0    0  501  0.00000000000E+00  0.00000000000E+00  0.98761141790E+03  0.98761141790E+03  0.25500000920E-02 0. -1.
        2   -1    0    0  501    0  0.00000000000E+00  0.00000000000E+00 -0.21360055987E+04  0.21360055987E+04  0.25500000920E-02 0.  1.
    10030    2    1    2    0    0  0.00000000000E+00  0.00000000000E+00 -0.11483941808E+04  0.31236170166E+04  0.29048535371E+04 0.  0.
        3    1    3    3  502    0  0.11611289504E+04  0.66978680786E+03 -0.11755141459E+04  0.17828820278E+04  0.10100000352E+00 0.  1.
       -3    1    3    3    0  502 -0.11611289504E+04 -0.66978680786E+03  0.27119965131E+02  0.13407349888E+04  0.10100000352E+00 0. -1.
</event>
<event>
 5   0  0.3378750E-07  0.2899121E+04  0.7818609E-02  0.8273139E-01
       -3   -1    0    0    0  501  0.00000000000E+00  0.00000000000E+00  0.27946507401E+04  0.27946507420E+04  0.10100000352E+00 0.  1.
        3   -1    0    0  501    0  0.00000000000E+00  0.00000000000E+00 -0.75187437059E+03  0.75187437737E+03  0.10100000352E+00 0. -1.
    10030    2    1    2    0    0  0.00000000000E+00  0.00000000000E+00  0.20427763696E+04  0.35465251193E+04  0.28991214404E+04 0.  0.
        2    1    3    3  502    0 -0.11161972863E+04 -0.61604469879E+02  0.21502423251E+04  0.24234755104E+04  0.25500000920E-02 0.  1.
       -2    1    3    3    0  502  0.11161972863E+04  0.61604469879E+02 -0.10746595554E+03  0.11230496090E+04  0.25500000920E-02 0. -1.
</event>
<event>
 5   0  0.3638028E-07  0.2884460E+04  0.7818609E-02  0.8277516E-01
       -1   -1    0    0    0  501  0.00000000000E+00  0.00000000000E+00  0.11795268199E+04  0.11795268199E+04  0.50400001928E-02 0.  1.
        1   -1    0    0  501    0  0.00000000000E+00  0.00000000000E+00 -0.17634425062E+04  0.17634425062E+04  0.50400001928E-02 0. -1.
    10030    2    1    2    0    0  0.00000000000E+00  0.00000000000E+00 -0.58391568628E+03  0.29429693261E+04  0.28844602486E+04 0.  0.
        4    1    3    3  502    0 -0.11587750726E+04 -0.42873992304E+03  0.46707365002E+03  0.13208849299E+04  0.12699999809E+01 0.  1.
       -4    1    3    3    0  502  0.11587750726E+04  0.42873992304E+03 -0.10509893363E+04  0.16220843962E+04  0.12699999809E+01 0. -1.
</event>
<event>
 5   0  0.3885904E-07  0.2900805E+04  0.7818609E-02  0.8272638E-01
        1   -1    0    0  501    0  0.00000000000E+00  0.00000000000E+00  0.12439397338E+04  0.12439397338E+04  0.50400001928E-02 0.  1.
       -1   -1    0    0    0  501  0.00000000000E+00  0.00000000000E+00 -0.16911324823E+04  0.16911324823E+04  0.50400001928E-02 0. -1.
    10030    2    1    2    0    0  0.00000000000E+00  0.00000000000E+00 -0.44719274847E+03  0.29350722161E+04  0.29008046400E+04 0.  0.
        2    1    3    3  502    0 -0.52278357034E+03  0.51710010217E+03  0.10413609352E+04  0.12748049947E+04  0.25500000920E-02 0.  1.
       -2    1    3    3    0  502  0.52278357034E+03 -0.51710010217E+03 -0.14885536837E+04  0.16602672214E+04  0.25500000920E-02 0. -1.
</event>
<event>
 5   0  0.1006893E-06  0.2845311E+04  0.7818609E-02  0.8289337E-01
       -2   -1    0    0    0  501  0.00000000000E+00  0.00000000000E+00  0.11881659869E+04  0.11881659869E+04  0.25500000920E-02 0.  1.
        2   -1    0    0  501    0  0.00000000000E+00  0.00000000000E+00 -0.17034228988E+04  0.17034228988E+04  0.25500000920E-02 0. -1.
    10030    2    1    2    0    0  0.00000000000E+00  0.00000000000E+00 -0.51525691194E+03  0.28915888857E+04  0.28453113360E+04 0.  0.
        4    1    3    3  502    0 -0.13615322090E+04  0.17472742427E+03  0.12214444265E+03  0.13781220943E+04  0.12699999809E+01 0.  1.
       -4    1    3    3    0  502  0.13615322090E+04 -0.17472742427E+03 -0.63740135459E+03  0.15134667914E+04  0.12699999809E+01 0. -1.
</event>
<event>
 5   0  0.1063979E-06  0.2892945E+04  0.7818609E-02  0.8274979E-01
       -2   -1    0    0    0  501  0.00000000000E+00  0.00000000000E+00  0.92521810083E+03  0.92521810083E+03  0.25500000920E-02 0. -1.
        2   -1    0    0  501    0  0.00000000000E+00  0.00000000000E+00 -0.22613947574E+04  0.22613947574E+04  0.25500000920E-02 0.  1.
    10030    2    1    2    0    0  0.00000000000E+00  0.00000000000E+00 -0.13361766566E+04  0.31866128583E+04  0.28929454628E+04 0.  0.
        1    1    3    3  502    0 -0.11214253012E+04  0.58003084984E+03  0.10943595587E+03  0.12672832049E+04  0.50400001928E-02 0. -1.
       -1    1    3    3    0  502  0.11214253012E+04 -0.58003084984E+03 -0.14456126125E+04  0.19193296534E+04  0.50400001928E-02 0.  1.
</event>
<event>
 5   0  0.3770467E-07  0.2901881E+04  0.7818609E-02  0.8272318E-01
        1   -1    0    0  501    0  0.00000000000E+00  0.00000000000E+00  0.22060565493E+04  0.22060565493E+04  0.50400001928E-02 0.  1.
       -1   -1    0    0    0  501  0.00000000000E+00  0.00000000000E+00 -0.95429475548E+03  0.95429475549E+03  0.50400001928E-02 0. -1.
    10030    2    1    2    0    0  0.00000000000E+00  0.00000000000E+00  0.12517617938E+04  0.31603513048E+04  0.29018809041E+04 0.  0.
        1    1    3    3  502    0  0.13016489234E+04 -0.64041792648E+03  0.65674512613E+03  0.15924004525E+04  0.50400001928E-02 0. -1.
       -1    1    3    3    0  502 -0.13016489234E+04  0.64041792648E+03  0.59501666770E+03  0.15679508523E+04  0.50400001928E-02 0.  1.
</event>
<event>
 5   0  0.1031339E-06  0.2923950E+04  0.7818609E-02  0.8265787E-01
        2   -1    0    0  501    0  0.00000000000E+00  0.00000000000E+00  0.15325183460E+04  0.15325183460E+04  0.25500000920E-02 0.  1.
       -2   -1    0    0    0  501  0.00000000000E+00  0.00000000000E+00 -0.13946791565E+04  0.13946791565E+04  0.25500000920E-02 0. -1.
    10030    2    1    2    0    0  0.00000000000E+00  0.00000000000E+00  0.13783918950E+03  0.29271975025E+04  0.29239503376E+04 0.  0.
        5    1    3    3  502    0 -0.77175272884E+03 -0.11147982869E+04 -0.47847077638E+03  0.14378226138E+04  0.46999998093E+01 0.  1.
       -5    1    3    3    0  502  0.77175272884E+03  0.11147982869E+04  0.61630996588E+03  0.14893748887E+04  0.46999998093E+01 0. -1.
</event>
<event>
 5   0  0.3638028E-07  0.2893521E+04  0.7818609E-02  0.8274808E-01
        1   -1    0    0  501    0  0.00000000000E+00  0.00000000000E+00  0.15827970070E+04  0.15827970070E+04  0.50400001928E-02 0. -1.
       -1   -1    0    0    0  501  0.00000000000E+00  0.00000000000E+00 -0.13224159079E+04  0.13224159079E+04  0.50400001928E-02 0.  1.
    10030    2    1    2    0    0  0.00000000000E+00  0.00000000000E+00  0.26038109913E+03  0.29052129149E+04  0.28935209977E+04 0.  0.
        4    1    3    3  502    0  0.15046471475E+03 -0.14476972841E+03  0.15675885264E+04  0.15814339397E+04  0.12699999809E+01 0. -1.
       -4    1    3    3    0  502 -0.15046471475E+03  0.14476972841E+03 -0.13072074272E+04  0.13237789753E+04  0.12699999809E+01 0.  1.
</event>
<event>
 5   0  0.3769563E-07  0.2898896E+04  0.7818609E-02  0.8273206E-01
       -1   -1    0    0    0  501  0.00000000000E+00  0.00000000000E+00  0.18456979908E+04  0.18456979908E+04  0.50400001928E-02 0. -1.
        1   -1    0    0  501    0  0.00000000000E+00  0.00000000000E+00 -0.11382681868E+04  0.11382681869E+04  0.50400001928E-02 0.  1.
    10030    2    1    2    0    0  0.00000000000E+00  0.00000000000E+00  0.70742980397E+03  0.29839661777E+04  0.28988958626E+04 0.  0.
        3    1    3    3  502    0 -0.11719872165E+04 -0.17486162603E+03 -0.50550749587E+03  0.12882812047E+04  0.10100000352E+00 0.  1.
       -3    1    3    3    0  502  0.11719872165E+04  0.17486162603E+03  0.12129372998E+04  0.16956849729E+04  0.10100000352E+00 0. -1.
</event>
<event>
 5   0  0.3885904E-07  0.2898987E+04  0.7818609E-02  0.8273179E-01
       -1   -1    0    0    0  501  0.00000000000E+00  0.00000000000E+00  0.11041017683E+04  0.11041017683E+04  0.50400001928E-02 0. -1.
        1   -1    0    0  501    0  0.00000000000E+00  0.00000000000E+00 -0.19029326961E+04  0.19029326962E+04  0.50400001928E-02 0.  1.
    10030    2    1    2    0    0  0.00000000000E+00  0.00000000000E+00 -0.79883092787E+03  0.30070344644E+04  0.28989869643E+04 0.  0.
        2    1    3    3  502    0 -0.12089542812E+04  0.70337263188E+03 -0.79402555372E+03  0.16083470065E+04  0.25500000920E-02 0. -1.
       -2    1    3    3    0  502  0.12089542812E+04 -0.70337263188E+03 -0.48053741479E+01  0.13986874579E+04  0.25500000920E-02 0.  1.
</event>
<event>
 5   0  0.1006893E-06  0.2904907E+04  0.7818609E-02  0.8271419E-01
        2   -1    0    0  501    0  0.00000000000E+00  0.00000000000E+00  0.25013941291E+04  0.25013941291E+04  0.25500000920E-02 0. -1.
       -2   -1    0    0    0  501  0.00000000000E+00  0.00000000000E+00 -0.84337808343E+03  0.84337808343E+03  0.25500000920E-02 0.  1.
    10030    2    1    2    0    0  0.00000000000E+00  0.00000000000E+00  0.16580160457E+04  0.33447722125E+04  0.29049068739E+04 0.  0.
        4    1    3    3  502    0  0.65561711647E+03 -0.16474783055E+03  0.23092201277E+04  0.24061327607E+04  0.12699999809E+01 0. -1.
       -4    1    3    3    0  502 -0.65561711647E+03  0.16474783055E+03 -0.65120408205E+03  0.93863945179E+03  0.12699999809E+01 0.  1.
</event>
<event>
 5   0  0.3770467E-07  0.2906106E+04  0.7818609E-02  0.8271063E-01
        1   -1    0    0  501    0  0.00000000000E+00  0.00000000000E+00  0.15786582816E+04  0.15786582816E+04  0.50400001928E-02 0.  1.
       -1   -1    0    0    0  501  0.00000000000E+00  0.00000000000E+00 -0.13374416751E+04  0.13374416751E+04  0.50400001928E-02 0. -1.
    10030    2    1    2    0    0  0.00000000000E+00  0.00000000000E+00  0.24121660653E+03  0.29160999568E+04  0.29061062449E+04 0.  0.
        1    1    3    3  502    0  0.27741341708E+03 -0.16947092949E+03 -0.13004839036E+04  0.13404987816E+04  0.50400001928E-02 0. -1.
       -1    1    3    3    0  502 -0.27741341708E+03  0.16947092949E+03  0.15417005102E+04  0.15756011751E+04  0.50400001928E-02 0.  1.
</event>
<event>
 5   0  0.3769563E-07  0.2896966E+04  0.7818609E-02  0.8273781E-01
       -1   -1    0    0    0  501  0.00000000000E+00  0.00000000000E+00  0.18382918212E+04  0.18382918212E+04  0.50400001928E-02 0.  1.
        1   -1    0    0  501    0  0.00000000000E+00  0.00000000000E+00 -0.11413328878E+04  0.11413328878E+04  0.50400001928E-02 0. -1.
    10030    2    1    2    0    0  0.00000000000E+00  0.00000000000E+00  0.69695893338E+03  0.29796247090E+04  0.28969659390E+04 0.  0.
        3    1    3    3  502    0 -0.32053421494E+03 -0.81490599552E+03 -0.83825714196E+03  0.12122248186E+04  0.10100000352E+00 0. -1.
       -3    1    3    3    0  502  0.32053421494E+03  0.81490599552E+03  0.15352160753E+04  0.17673998904E+04  0.10100000352E+00 0.  1.
</event>
<event>
 5   0  0.9994311E-07  0.2892252E+04  0.7818609E-02  0.8275187E-01
        2   -1    0    0  501    0  0.00000000000E+00  0.00000000000E+00  0.20849878248E+04  0.20849878248E+04  0.25500000920E-02 0. -1.
       -2   -1    0    0    0  501  0.00000000000E+00  0.00000000000E+00 -0.10030178548E+04  0.10030178549E+04  0.25500000920E-02 0.  1.
    10030    2    1    2    0    0  0.00000000000E+00  0.00000000000E+00  0.10819699700E+04  0.30880056797E+04  0.28922517286E+04 0.  0.
        2    1    3    3  502    0 -0.49916252222E+03 -0.39889785804E+03 -0.84412324438E+03  0.10586910675E+04  0.25500000920E-02 0.  1.
       -2    1    3    3    0  502  0.49916252222E+03  0.39889785804E+03  0.19260932143E+04  0.20293146121E+04  0.25500000920E-02 0. -1.
</event>
<event>
 5   0  0.1006893E-06  0.2892186E+04  0.7818609E-02  0.8275206E-01
       -2   -1    0    0    0  501  0.00000000000E+00  0.00000000000E+00  0.89730338176E+03  0.89730338176E+03  0.25500000920E-02 0.  1.
        2   -1    0    0  501    0  0.00000000000E+00  0.00000000000E+00 -0.23305212693E+04  0.23305212693E+04  0.25500000920E-02 0. -1.
    10030    2    1    2    0    0  0.00000000000E+00  0.00000000000E+00 -0.14332178876E+04  0.32278246511E+04  0.28921857591E+04 0.  0.
        4    1    3    3  502    0 -0.12521888522E+04  0.38106182961E+02 -0.15227604032E+04  0.19718594933E+04  0.12699999809E+01 0. -1.
       -4    1    3    3    0  502  0.12521888522E+04 -0.38106182961E+02  0.89542515666E+02  0.12559651578E+04  0.12699999809E+01 0.  1.
</event>
<event>
 5   0  0.3786210E-07  0.2902879E+04  0.7818609E-02  0.8272021E-01
        1   -1    0    0  501    0  0.00000000000E+00  0.00000000000E+00  0.20748235505E+04  0.20748235505E+04  0.50400001928E-02 0.  1.
       -1   -1    0    0    0  501  0.00000000000E+00  0.00000000000E+00 -0.10153521596E+04  0.10153521597E+04  0.50400001928E-02 0. -1.
    10030    2    1    2    0    0  0.00000000000E+00  0.00000000000E+00  0.10594713908E+04  0.30901757101E+04  0.29028789660E+04 0.  0.
        5    1    3    3  502    0  0.43571040962E+02 -0.10396662095E+04  0.16068764545E+04  0.19143871847E+04  0.46999998093E+01 0.  1.
       -5    1    3    3    0  502 -0.43571040962E+02  0.10396662095E+04 -0.54740506370E+03  0.11757885254E+04  0.46999998093E+01 0. -1.
</event>
<event>
 5   0  0.1006893E-06  0.2895931E+04  0.7818609E-02  0.8274089E-01
        2   -1    0    0  501    0  0.00000000000E+00  0.00000000000E+00  0.14377365866E+04  0.14377365866E+04  0.25500000920E-02 0. -1.
       -2   -1    0    0    0  501  0.00000000000E+00  0.00000000000E+00 -0.14582667063E+04  0.14582667063E+04  0.25500000920E-02 0.  1.
    10030    2    1    2    0    0  0.00000000000E+00  0.00000000000E+00 -0.20530119673E+02  0.28960032929E+04  0.28959305217E+04 0.  0.
        4    1    3    3  502    0 -0.11891677027E+04  0.81422958065E+03 -0.14995446309E+03  0.14489919216E+04  0.12699999809E+01 0.  1.
       -4    1    3    3    0  502  0.11891677027E+04 -0.81422958065E+03  0.12942434342E+03  0.14470113713E+04  0.12699999809E+01 0. -1.
</event>
<event>
 5   0  0.3885904E-07  0.2894017E+04  0.7818609E-02  0.8274660E-01
       -1   -1    0    0    0  501  0.00000000000E+00  0.00000000000E+00  0.16906959331E+04  0.16906959331E+04  0.50400001928E-02 0.  1.
        1   -1    0    0  501    0  0.00000000000E+00  0.00000000000E+00 -0.12384447274E+04  0.12384447274E+04  0.50400001928E-02 0. -1.
    10030    2    1    2    0    0  0.00000000000E+00  0.00000000000E+00  0.45225120569E+03  0.29291406605E+04  0.28940169067E+04 0.  0.
        2    1    3    3  502    0  0.39140463330E+03 -0.12909417807E+04 -0.30377912903E+03  0.13827545073E+04  0.25500000920E-02 0. -1.
       -2    1    3    3    0  502 -0.39140463330E+03  0.12909417807E+04  0.75603033472E+03  0.15463861533E+04  0.25500000920E-02 0.  1.
</event>
<event>
 5   0  0.1031339E-06  0.2898947E+04  0.7818609E-02  0.8273191E-01
       -2   -1    0    0    0  501  0.00000000000E+00  0.00000000000E+00  0.23402994501E+04  0.23402994501E+04  0.25500000920E-02 0.  1.
        2   -1    0    0  501    0  0.00000000000E+00  0.00000000000E+00 -0.89773688447E+03  0.89773688448E+03  0.25500000920E-02 0. -1.
    10030    2    1    2    0    0  0.00000000000E+00  0.00000000000E+00  0.14425625656E+04  0.32380363346E+04  0.28989467998E+04 0.  0.
        5    1    3    3  502    0 -0.12471696838E+04  0.32531118795E+03  0.14619354770E+04  0.19489835859E+04  0.46999998093E+01 0.  1.
       -5    1    3    3    0  502  0.12471696838E+04 -0.32531118795E+03 -0.19372911378E+02  0.12890527487E+04  0.46999998093E+01 0. -1.
</event>
<event>
 5   0  0.3638028E-07  0.2899849E+04  0.7818609E-02  0.8272922E-01
        1   -1    0    0  501    0  0.00000000000E+00  0.00000000000E+00  0.15901998580E+04  0.15901998581E+04  0.50400001928E-02 0.  1.
       -1   -1    0    0    0  501  0.00000000000E+00  0.00000000000E+00 -0.13220232315E+04  0.13220232315E+04  0.50400001928E-02 0. -1.
    10030    2    1    2    0    0  0.00000000000E+00  0.00000000000E+00  0.26817662654E+03  0.29122230896E+04  0.28998490686E+04 0.  0.
        4    1    3    3  502    0 -0.12133849532E+04 -0.56215635484E+03  0.69679768118E+03  0.15079295187E+04  0.12699999809E+01 0.  1.
       -4    1    3    3    0  502  0.12133849532E+04  0.56215635484E+03 -0.42862105464E+03  0.14042935709E+04  0.12699999809E+01 0. -1.
</event>
<event>
 5   0  0.9950999E-07  0.2898844E+04  0.7818609E-02  0.8273221E-01
        2   -1    0    0  501    0  0.00000000000E+00  0.00000000000E+00  0.14285865188E+04  0.14285865188E+04  0.25500000920E-02 0. -1.
       -2   -1    0    0    0  501  0.00000000000E+00  0.00000000000E+00 -0.14705616079E+04  0.14705616079E+04  0.25500000920E-02 0.  1.
    10030    2    1    2    0    0  0.00000000000E+00  0.00000000000E+00 -0.41975089104E+02  0.28991481267E+04  0.28988442443E+04 0.  0.
        3    1    3    3  502    0  0.37345930968E+03 -0.94297301896E+03 -0.10565450295E+04  0.14645673013E+04  0.10100000352E+00 0.  1.
       -3    1    3    3    0  502 -0.37345930968E+03  0.94297301896E+03  0.10145699404E+04  0.14345808254E+04  0.10100000352E+00 0. -1.
</event>
<event>
 5   0  0.3378750E-07  0.2898748E+04  0.7818609E-02  0.8273250E-01
        4   -1    0    0  501    0  0.00000000000E+00  0.00000000000E+00  0.22179822069E+04  0.22179825705E+04  0.12699999809E+01 0. -1.
       -4   -1    0    0    0  501  0.00000000000E+00  0.00000000000E+00 -0.94711456041E+03  0.94711541190E+03  0.12699999809E+01 0.  1.
    10030    2    1    2    0    0  0.00000000000E+00  0.00000000000E+00  0.12708676465E+04  0.31650979824E+04  0.28987481200E+04 0.  0.
        5    1    3    3  502    0 -0.10549791348E+04  0.94095035671E+03  0.98465685544E+03  0.17227709545E+04  0.46999998093E+01 0. -1.
       -5    1    3    3    0  502  0.10549791348E+04 -0.94095035671E+03  0.28621079102E+03  0.14423270279E+04  0.46999998093E+01 0.  1.
</event>
<event>
 5   0  0.9994311E-07  0.2896571E+04  0.7818609E-02  0.8273898E-01
        2   -1    0    0  501    0  0.00000000000E+00  0.00000000000E+00  0.87160315306E+03  0.87160315307E+03  0.25500000920E-02 0. -1.
       -2   -1    0    0    0  501  0.00000000000E+00  0.00000000000E+00 -0.24065207344E+04  0.24065207344E+04  0.25500000920E-02 0.  1.
    10030    2    1    2    0    0  0.00000000000E+00  0.00000000000E+00 -0.15349175814E+04  0.32781238875E+04  0.28965711177E+04 0.  0.
        2    1    3    3  502    0 -0.10203877927E+02  0.66711973638E+02 -0.24047402270E+04  0.24056870465E+04  0.25500000920E-02 0.  1.
       -2    1    3    3    0  502  0.10203877927E+02 -0.66711973638E+02  0.86982264564E+03  0.87243684094E+03  0.25500000920E-02 0. -1.
</event>
<event>
 5   0  0.3378750E-07  0.2917967E+04  0.7818609E-02  0.8267552E-01
       -3   -1    0    0    0  501  0.00000000000E+00  0.00000000000E+00  0.13000033693E+04  0.13000033732E+04  0.10100000352E+00 0. -1.
        3   -1    0    0  501    0  0.00000000000E+00  0.00000000000E+00 -0.16374060838E+04  0.16374060869E+04  0.10100000352E+00 0.  1.
    10030    2    1    2    0    0  0.00000000000E+00  0.00000000000E+00 -0.33740271451E+03  0.29374094601E+04  0.29179673995E+04 0.  0.
        1    1    3    3  502    0  0.68813708246E+03 -0.48668610266E+03  0.10301311900E+04  0.13310019817E+04  0.50400001928E-02 0. -1.
       -1    1    3    3    0  502 -0.68813708246E+03  0.48668610266E+03 -0.13675339045E+04  0.16064074784E+04  0.50400001928E-02 0.  1.
</event>
<event>
 5   0  0.1006893E-06  0.2893702E+04  0.7818609E-02  0.8274754E-01
        2   -1    0    0  501    0  0.00000000000E+00  0.00000000000E+00  0.20498336589E+04  0.20498336589E+04  0.25500000920E-02 0.  1.
       -2   -1    0    0    0  501  0.00000000000E+00  0.00000000000E+00 -0.10212426197E+04  0.10212426198E+04  0.25500000920E-02 0. -1.
    10030    2    1    2    0    0  0.00000000000E+00  0.00000000000E+00  0.10285910392E+04  0.30710762787E+04  0.28937017786E+04 0.  0.
        4    1    3    3  502    0  0.10334688080E+04  0.67935242031E+03  0.13111862037E+04  0.18024395584E+04  0.12699999809E+01 0.  1.
       -4    1    3    3    0  502 -0.10334688080E+04 -0.67935242031E+03 -0.28259516458E+03  0.12686367202E+04  0.12699999809E+01 0. -1.
</event>
<event>
 5   0  0.1031339E-06  0.2897819E+04  0.7818609E-02  0.8273527E-01
       -2   -1    0    0    0  501  0.00000000000E+00  0.00000000000E+00  0.12594564092E+04  0.12594564092E+04  0.25500000920E-02 0.  1.
        2   -1    0    0  501    0  0.00000000000E+00  0.00000000000E+00 -0.16668613129E+04  0.16668613129E+04  0.25500000920E-02 0. -1.
    10030    2    1    2    0    0  0.00000000000E+00  0.00000000000E+00 -0.40740490370E+03  0.29263177222E+04  0.28978192931E+04 0.  0.
        5    1    3    3  502    0 -0.11429569900E+04 -0.88485368028E+03 -0.10271720329E+03  0.14490995930E+04  0.46999998093E+01 0. -1.
       -5    1    3    3    0  502  0.11429569900E+04  0.88485368028E+03 -0.30468770041E+03  0.14772181292E+04  0.46999998093E+01 0.  1.
</event>
<event>
 5   0  0.3638028E-07  0.2889448E+04  0.7818609E-02  0.8276024E-01
        1   -1    0    0  501    0  0.00000000000E+00  0.00000000000E+00  0.10523226503E+04  0.10523226503E+04  0.50400001928E-02 0.  1.
       -1   -1    0    0    0  501  0.00000000000E+00  0.00000000000E+00 -0.19834488137E+04  0.19834488137E+04  0.50400001928E-02 0. -1.
    10030    2    1    2    0    0  0.00000000000E+00  0.00000000000E+00 -0.93112616340E+03  0.30357714640E+04  0.28894484680E+04 0.  0.
        4    1    3    3  502    0  0.79973488816E+03 -0.10740256847E+04  0.10422844105E+03  0.13431203385E+04  0.12699999809E+01 0.  1.
       -4    1    3    3    0  502 -0.79973488816E+03  0.10740256847E+04 -0.10353546045E+04  0.16926511255E+04  0.12699999809E+01 0. -1.
</event>
<event>
 5   0  0.3885904E-07  0.2894997E+04  0.7818609E-02  0.8274368E-01
       -1   -1    0    0    0  501  0.00000000000E+00  0.00000000000E+00  0.20616919631E+04  0.20616919631E+04  0.50400001928E-02 0. -1.
        1   -1    0    0  501    0  0.00000000000E+00  0.00000000000E+00 -0.10162778932E+04  0.10162778932E+04  0.50400001928E-02 0.  1.
    10030    2    1    2    0    0  0.00000000000E+00  0.00000000000E+00  0.10454140699E+04  0.30779698563E+04  0.28949970395E+04 0.  0.
        2    1    3    3  502    0 -0.36891315086E+03  0.38526749235E+03 -0.90797251253E+03  0.10530631686E+04  0.25500000920E-02 0.  1.
       -2    1    3    3    0  502  0.36891315086E+03 -0.38526749235E+03  0.19533865824E+04  0.20249066877E+04  0.25500000920E-02 0. -1.
</event>
<event>
 5   0  0.1031339E-06  0.2909417E+04  0.7818609E-02  0.8270081E-01
        2   -1    0    0  501    0  0.00000000000E+00  0.00000000000E+00  0.20422923779E+04  0.20422923779E+04  0.25500000920E-02 0.  1.
       -2   -1    0    0    0  501  0.00000000000E+00  0.00000000000E+00 -0.10361774364E+04  0.10361774364E+04  0.25500000920E-02 0. -1.
    10030    2    1    2    0    0  0.00000000000E+00  0.00000000000E+00  0.10061149415E+04  0.30784698143E+04  0.29094173166E+04 0.  0.
        5    1    3    3  502    0 -0.95832089934E+02  0.19638208776E+02 -0.10326851963E+04  0.10373187810E+04  0.46999998093E+01 0. -1.
       -5    1    3    3    0  502  0.95832089934E+02 -0.19638208776E+02  0.20388001378E+04  0.20411510333E+04  0.46999998093E+01 0.  1.
</event>
<event>
 5   0  0.3769563E-07  0.2900981E+04  0.7818609E-02  0.8272586E-01
        1   -1    0    0  501    0  0.00000000000E+00  0.00000000000E+00  0.24985153519E+04  0.24985153519E+04  0.50400001928E-02 0. -1.
       -1   -1    0    0    0  501  0.00000000000E+00  0.00000000000E+00 -0.84206913962E+03  0.84206913964E+03  0.50400001928E-02 0.  1.
    10030    2    1    2    0    0  0.00000000000E+00  0.00000000000E+00  0.16564462123E+04  0.33405844915E+04  0.29009809877E+04 0.  0.
        3    1    3    3  502    0 -0.12176534823E+04  0.32647696325E+03  0.16543292784E+04  0.20799212923E+04  0.10100000352E+00 0. -1.
       -3    1    3    3    0  502  0.12176534823E+04 -0.32647696325E+03  0.21169338976E+01  0.12606631993E+04  0.10100000352E+00 0.  1.
</event>
<event>
 5   0  0.1063979E-06  0.2899221E+04  0.7818609E-02  0.8273109E-01
        2   -1    0    0  501    0  0.00000000000E+00  0.00000000000E+00  0.16655138840E+04  0.16655138840E+04  0.25500000920E-02 0. -1.
       -2   -1    0    0    0  501  0.00000000000E+00  0.00000000000E+00 -0.12616951833E+04  0.12616951833E+04  0.25500000920E-02 0.  1.
    10030    2    1    2    0    0  0.00000000000E+00  0.00000000000E+00  0.40381870068E+03  0.29272090673E+04  0.28992211679E+04 0.  0.
        1    1    3    3  502    0 -0.12048176722E+04  0.73929182854E+03 -0.12249097278E+03  0.14188523776E+04  0.50400001928E-02 0.  1.
       -1    1    3    3    0  502  0.12048176722E+04 -0.73929182854E+03  0.52630967346E+03  0.15083566897E+04  0.50400001928E-02 0. -1.
</event>
<event>
 5   0  0.3770467E-07  0.2906860E+04  0.7818609E-02  0.8270839E-01
       -1   -1    0    0    0  501  0.00000000000E+00  0.00000000000E+00  0.92771383475E+03  0.92771383477E+03  0.50400001928E-02 0. -1.
        1   -1    0    0  501    0  0.00000000000E+00  0.00000000000E+00 -0.22770584653E+04  0.22770584653E+04  0.50400001928E-02 0.  1.
    10030    2    1    2    0    0  0.00000000000E+00  0.00000000000E+00 -0.13493446305E+04  0.32047723000E+04  0.29068599146E+04 0.  0.
        1    1    3    3  502    0 -0.83564969481E+03  0.10376463961E+04 -0.34244496665E+02  0.13327389622E+04  0.50400001928E-02 0. -1.
       -1    1    3    3    0  502  0.83564969481E+03 -0.10376463961E+04 -0.13151001338E+04  0.18720333378E+04  0.50400001928E-02 0.  1.
</event>
<event>
 5   0  0.1063979E-06  0.2911377E+04  0.7818609E-02  0.8269500E-01
        2   -1    0    0  501    0  0.00000000000E+00  0.00000000000E+00  0.12593765197E+04  0.12593765197E+04  0.25500000920E-02 0. -1.
       -2   -1    0    0    0  501  0.00000000000E+00  0.00000000000E+00 -0.16826021356E+04  0.16826021356E+04  0.25500000920E-02 0.  1.
    10030    2    1    2    0    0  0.00000000000E+00  0.00000000000E+00 -0.42322561591E+03  0.29419786553E+04  0.29113774208E+04 0.  0.
        1    1    3    3  502    0 -0.12638875604E+04  0.26179800916E+02  0.51773003192E+03  0.13660679095E+04  0.50400001928E-02 0. -1.
       -1    1    3    3    0  502  0.12638875604E+04 -0.26179800916E+02 -0.94095564784E+03  0.15759107458E+04  0.50400001928E-02 0.  1.
</event>
<event>
 5   0  0.1063979E-06  0.2899796E+04  0.7818609E-02  0.8272938E-01
        2   -1    0    0  501    0  0.00000000000E+00  0.00000000000E+00  0.13460924454E+04  0.13460924454E+04  0.25500000920E-02 0. -1.
       -2   -1    0    0    0  501  0.00000000000E+00  0.00000000000E+00 -0.15617085352E+04  0.15617085352E+04  0.25500000920E-02 0.  1.
    10030    2    1    2    0    0  0.00000000000E+00  0.00000000000E+00 -0.21561608978E+03  0.29078009806E+04  0.28997958971E+04 0.  0.
        1    1    3    3  502    0  0.14135237552E+04  0.21774101742E+03  0.13105849748E+03  0.14361883187E+04  0.50400001928E-02 0. -1.
       -1    1    3    3    0  502 -0.14135237552E+04 -0.21774101742E+03 -0.34667458726E+03  0.14716126619E+04  0.50400001928E-02 0.  1.
</event>
<event>
 5   0  0.1031339E-06  0.2896984E+04  0.7818609E-02  0.8273775E-01
       -2   -1    0    0    0  501  0.00000000000E+00  0.00000000000E+00  0.16060663149E+04  0.16060663149E+04  0.25500000920E-02 0. -1.
        2   -1    0    0  501    0  0.00000000000E+00  0.00000000000E+00 -0.13063773079E+04  0.13063773079E+04  0.25500000920E-02 0.  1.
    10030    2    1    2    0    0  0.00000000000E+00  0.00000000000E+00  0.29968900692E+03  0.29124436228E+04  0.28969836650E+04 0.  0.
        5    1    3    3  502    0 -0.12582206011E+04 -0.37586447067E+03 -0.46473881515E+03  0.13929814922E+04  0.46999998093E+01 0.  1.
       -5    1    3    3    0  502  0.12582206011E+04  0.37586447067E+03  0.76442782207E+03  0.15194621306E+04  0.46999998093E+01 0. -1.
</event>
<event>
 5   0  0.9950999E-07  0.2903679E+04  0.7818609E-02  0.8271784E-01
       -2   -1    0    0    0  501  0.00000000000E+00  0.00000000000E+00  0.10473675319E+04  0.10473675319E+04  0.25500000920E-02 0.  1.
        2   -1    0    0  501    0  0.00000000000E+00  0.00000000000E+00 -0.20125104358E+04  0.20125104358E+04  0.25500000920E-02 0. -1.
    10030    2    1    2    0    0  0.00000000000E+00  0.00000000000E+00 -0.96514290392E+03  0.30598779678E+04  0.29036791063E+04 0.  0.
        3    1    3    3  502    0  0.14251512851E+04  0.27057713348E+03 -0.54553424131E+03  0.15497986286E+04  0.10100000352E+00 0. -1.
       -3    1    3    3    0  502 -0.14251512851E+04 -0.27057713348E+03 -0.41960866261E+03  0.15100793392E+04  0.10100000352E+00 0.  1.
</event>
<event>
 5   0  0.3885904E-07  0.2902253E+04  0.7818609E-02  0.8272207E-01
       -1   -1    0    0    0  501  0.00000000000E+00  0.00000000000E+00  0.12893724936E+04  0.12893724936E+04  0.50400001928E-02 0. -1.
        1   -1    0    0  501    0  0.00000000000E+00  0.00000000000E+00 -0.16331728619E+04  0.16331728619E+04  0.50400001928E-02 0.  1.
    10030    2    1    2    0    0  0.00000000000E+00  0.00000000000E+00 -0.34380036836E+03  0.29225453555E+04  0.29022530320E+04 0.  0.
        2    1    3    3  502    0 -0.54189354148E+03  0.86029030368E+02 -0.15246912571E+04  0.16204113780E+04  0.25500000920E-02 0.  1.
       -2    1    3    3    0  502  0.54189354148E+03 -0.86029030368E+02  0.11808908887E+04  0.13021339775E+04  0.25500000920E-02 0. -1.
</event>
<event>
 5   0  0.3769563E-07  0.2898189E+04  0.7818609E-02  0.8273417E-01
        1   -1    0    0  501    0  0.00000000000E+00  0.00000000000E+00  0.22956747837E+04  0.22956747838E+04  0.50400001928E-02 0.  1.
       -1   -1    0    0    0  501  0.00000000000E+00  0.00000000000E+00 -0.91470901985E+03  0.91470901986E+03  0.50400001928E-02 0. -1.
    10030    2    1    2    0    0  0.00000000000E+00  0.00000000000E+00  0.13809657639E+04  0.32103838036E+04  0.28981886973E+04 0.  0.
        3    1    3    3  502    0 -0.42265760703E+03 -0.36767907068E+03  0.21708749427E+04  0.22419913869E+04  0.10100000352E+00 0.  1.
       -3    1    3    3    0  502  0.42265760703E+03  0.36767907068E+03 -0.78990917881E+03  0.96839241672E+03  0.10100000352E+00 0. -1.
</event>
<event>
 5   0  0.3378750E-07  0.2905743E+04  0.7818609E-02  0.8271171E-01
        3   -1    0    0  501    0  0.00000000000E+00  0.00000000000E+00  0.11090219410E+04  0.11090219456E+04  0.10100000352E+00 0. -1.
       -3   -1    0    0    0  501  0.00000000000E+00  0.00000000000E+00 -0.19033312654E+04  0.19033312680E+04  0.10100000352E+00 0.  1.
    10030    2    1    2    0    0  0.00000000000E+00  0.00000000000E+00 -0.79430932440E+03  0.30123532136E+04  0.29057433783E+04 0.  0.
        5    1    3    3  502    0  0.11693502338E+03 -0.10854347531E+04  0.59664694397E+03  0.12441270308E+04  0.46999998093E+01 0. -1.
       -5    1    3    3    0  502 -0.11693502338E+03  0.10854347531E+04 -0.13909562684E+04  0.17682261828E+04  0.46999998093E+01 0.  1.
</event>
<event>
 5   0  0.3885904E-07  0.2897340E+04  0.7818609E-02  0.8273669E-01
       -1   -1    0    0    0  501  0.00000000000E+00  0.00000000000E+00  0.83660993129E+03  0.83660993131E+03  0.50400001928E-02 0. -1.
        1   -1    0    0  501    0  0.00000000000E+00  0.00000000000E+00 -0.25085111373E+04  0.25085111373E+04  0.50400001928E-02 0.  1.
    10030    2    1    2    0    0  0.00000000000E+00  0.00000000000E+00 -0.16719012060E+04  0.33451210686E+04  0.28973403875E+04 0.  0.
        2    1    3    3  502    0  0.63638159700E+03  0.55341554306E+03 -0.21958675551E+04  0.23522509687E+04  0.25500000920E-02 0.  1.
       -2    1    3    3    0  502 -0.63638159700E+03 -0.55341554306E+03  0.52396634908E+03  0.99287009990E+03  0.25500000920E-02 0. -1.
</event>
<event>
 5   0  0.3770467E-07  0.2897178E+04  0.7818609E-02  0.8273718E-01
        1   -1    0    0  501    0  0.00000000000E+00  0.00000000000E+00  0.14139951563E+04  0.14139951563E+04  0.50400001928E-02 0.  1.
       -1   -1    0    0    0  501  0.00000000000E+00  0.00000000000E+00 -0.14840291874E+04  0.14840291874E+04  0.50400001928E-02 0. -1.
    10030    2    1    2    0    0  0.00000000000E+00  0.00000000000E+00 -0.70034031174E+02  0.28980243437E+04  0.28971779944E+04 0.  0.
        1    1    3    3  502    0  0.12947324084E+04 -0.51396250698E+03 -0.43252537366E+03  0.14586184103E+04  0.50400001928E-02 0. -1.
       -1    1    3    3    0  502 -0.12947324084E+04  0.51396250698E+03  0.36249134249E+03  0.14394059334E+04  0.50400001928E-02 0.  1.
</event>
<event>
 5   0  0.1006893E-06  0.2888695E+04  0.7818609E-02  0.8276249E-01
       -2   -1    0    0    0  501  0.00000000000E+00  0.00000000000E+00  0.81807783111E+03  0.81807783112E+03  0.25500000920E-02 0.  1.
        2   -1    0    0  501    0  0.00000000000E+00  0.00000000000E+00 -0.25500499877E+04  0.25500499877E+04  0.25500000920E-02 0. -1.
    10030    2    1    2    0    0  0.00000000000E+00  0.00000000000E+00 -0.17319721566E+04  0.33681278189E+04  0.28886947663E+04 0.  0.
        4    1    3    3  502    0  0.79634598699E+03 -0.90203118730E+02 -0.22670100775E+04  0.24045040732E+04  0.12699999809E+01 0. -1.
       -4    1    3    3    0  502 -0.79634598699E+03  0.90203118730E+02  0.53503792085E+03  0.96362374569E+03  0.12699999809E+01 0.  1.
</event>
<event>
 5   0  0.3769563E-07  0.2898880E+04  0.7818609E-02  0.8273211E-01
        1   -1    0    0  501    0  0.00000000000E+00  0.00000000000E+00  0.16053802401E+04  0.16053802401E+04  0.50400001928E-02 0.  1.
       -1   -1    0    0    0  501  0.00000000000E+00  0.00000000000E+00 -0.13086474726E+04  0.13086474727E+04  0.50400001928E-02 0. -1.
    10030    2    1    2    0    0  0.00000000000E+00  0.00000000000E+00  0.29673276745E+03  0.29140277128E+04  0.28988803313E+04 0.  0.
        3    1    3    3  502    0 -0.60884842343E+03 -0.32536260921E+03 -0.11327810949E+04  0.13265557845E+04  0.10100000352E+00 0. -1.
       -3    1    3    3    0  502  0.60884842343E+03  0.32536260921E+03  0.14295138624E+04  0.15874719283E+04  0.10100000352E+00 0.  1.
</event>
<event>
 5   0  0.9994311E-07  0.2902849E+04  0.7818609E-02  0.8272030E-01
       -2   -1    0    0    0  501  0.00000000000E+00  0.00000000000E+00  0.11511540957E+04  0.11511540957E+04  0.25500000920E-02 0.  1.
        2   -1    0    0  501    0  0.00000000000E+00  0.00000000000E+00 -0.18300183326E+04  0.18300183326E+04  0.25500000920E-02 0. -1.
    10030    2    1    2    0    0  0.00000000000E+00  0.00000000000E+00 -0.67886423686E+03  0.29811724283E+04  0.29028490135E+04 0.  0.
        2    1    3    3  502    0 -0.11871410770E+04  0.18057613525E+02 -0.11968252472E+04  0.16858293764E+04  0.25500000920E-02 0. -1.
       -2    1    3    3    0  502  0.11871410770E+04 -0.18057613525E+02  0.51796101031E+03  0.12953430520E+04  0.25500000920E-02 0.  1.
</event>
<event>
 5   0  0.3786210E-07  0.2904284E+04  0.7818609E-02  0.8271604E-01
       -1   -1    0    0    0  501  0.00000000000E+00  0.00000000000E+00  0.12588408061E+04  0.12588408061E+04  0.50400001928E-02 0.  1.
        1   -1    0    0  501    0  0.00000000000E+00  0.00000000000E+00 -0.16751256728E+04  0.16751256728E+04  0.50400001928E-02 0. -1.
    10030    2    1    2    0    0  0.00000000000E+00  0.00000000000E+00 -0.41628486671E+03  0.29339664789E+04  0.29042841130E+04 0.  0.
        5    1    3    3  502    0 -0.24137640959E+03  0.72995578103E+02  0.12365443456E+04  0.12620043321E+04  0.46999998093E+01 0.  1.
       -5    1    3    3    0  502  0.24137640959E+03 -0.72995578103E+02 -0.16528292123E+04  0.16719621469E+04  0.46999998093E+01 0. -1.
</event>
<event>
 5   0  0.1006893E-06  0.2910967E+04  0.7818609E-02  0.8269622E-01
       -2   -1    0    0    0  501  0.00000000000E+00  0.00000000000E+00  0.10487351846E+04  0.10487351846E+04  0.25500000920E-02 0. -1.
        2   -1    0    0  501    0  0.00000000000E+00  0.00000000000E+00 -0.20199876715E+04  0.20199876715E+04  0.25500000920E-02 0.  1.
    10030    2    1    2    0    0  0.00000000000E+00  0.00000000000E+00 -0.97125248689E+03  0.30687228561E+04  0.29109669483E+04 0.  0.
        4    1    3    3  502    0 -0.55230390543E+03 -0.12221389499E+04 -0.10817513705E+04  0.17230353616E+04  0.12699999809E+01 0.  1.
       -4    1    3    3    0  502  0.55230390543E+03  0.12221389499E+04  0.11049888356E+03  0.13456874946E+04  0.12699999809E+01 0. -1.
</event>
<event>
 5   0  0.1063979E-06  0.2898398E+04  0.7818609E-02  0.8273354E-01
       -2   -1    0    0    0  501  0.00000000000E+00  0.00000000000E+00  0.13296163563E+04  0.13296163563E+04  0.25500000920E-02 0. -1.
        2   -1    0    0  501    0  0.00000000000E+00  0.00000000000E+00 -0.15795366983E+04  0.15795366983E+04  0.25500000920E-02 0.  1.
    10030    2    1    2    0    0  0.00000000000E+00  0.00000000000E+00 -0.24992034201E+03  0.29091530546E+04  0.28983980606E+04 0.  0.
        1    1    3    3  502    0  0.23908060731E+03  0.14107781295E+03  0.13026803369E+04  0.13319303834E+04  0.50400001928E-02 0. -1.
       -1    1    3    3    0  502 -0.23908060731E+03 -0.14107781295E+03 -0.15526006789E+04  0.15772226711E+04  0.50400001928E-02 0.  1.
</event>
<event>
 5   0  0.1063979E-06  0.2901633E+04  0.7818609E-02  0.8272392E-01
       -2   -1    0    0    0  501  0.00000000000E+00  0.00000000000E+00  0.97158027785E+03  0.97158027785E+03  0.25500000920E-02 0.  1.
        2   -1    0    0  501    0  0.00000000000E+00  0.00000000000E+00 -0.21664374701E+04  0.21664374701E+04  0.25500000920E-02 0. -1.
    10030    2    1    2    0    0  0.00000000000E+00  0.00000000000E+00 -0.11948571922E+04  0.31380177479E+04  0.29016325881E+04 0.  0.
        1    1    3    3  502    0  0.10954264213E+04  0.93806024283E+03 -0.42659849459E+03  0.15039622133E+04  0.50400001928E-02 0. -1.
       -1    1    3    3    0  502 -0.10954264213E+04 -0.93806024283E+03 -0.76825869763E+03  0.16340555346E+04  0.50400001928E-02 0.  1.
</event>
<event>
 5   0  0.3638028E-07  0.2899156E+04  0.7818609E-02  0.8273129E-01
       -1   -1    0    0    0  501  0.00000000000E+00  0.00000000000E+00  0.13070875424E+04  0.13070875424E+04  0.50400001928E-02 0. -1.
        1   -1    0    0  501    0  0.00000000000E+00  0.00000000000E+00 -0.16076017578E+04  0.16076017578E+04  0.50400001928E-02 0.  1.
    10030    2    1    2    0    0  0.00000000000E+00  0.00000000000E+00 -0.30051421542E+03  0.29146893003E+04  0.28991558984E+04 0.  0.
        4    1    3    3  502    0 -0.64911240603E+03 -0.90716490725E+03 -0.10809489819E+04  0.15533020952E+04  0.12699999809E+01 0.  1.
       -4    1    3    3    0  502  0.64911240603E+03  0.90716490725E+03  0.78043476644E+03  0.13613872051E+04  0.12699999809E+01 0. -1.
</event>
<event>
 5   0  0.1006893E-06  0.2902238E+04  0.7818609E-02  0.8272212E-01
        2   -1    0    0  501    0  0.00000000000E+00  0.00000000000E+00  0.19566742849E+04  0.19566742849E+04  0.25500000920E-02 0. -1.
       -2   -1    0    0    0  501  0.00000000000E+00  0.00000000000E+00 -0.10761865347E+04  0.10761865347E+04  0.25500000920E-02 0.  1.
    10030    2    1    2    0    0  0.00000000000E+00  0.00000000000E+00  0.88048775015E+03  0.30328608196E+04  0.29022381144E+04 0.  0.
        4    1    3    3  502    0 -0.13684198624E+04 -0.26720938415E+03  0.86055409450E+03  0.16384531538E+04  0.12699999809E+01 0. -1.
       -4    1    3    3    0  502  0.13684198624E+04  0.26720938415E+03  0.19933655655E+02  0.13944076658E+04  0.12699999809E+01 0.  1.
</event>
<event>
 5   0  0.1006893E-06  0.2900375E+04  0.7818609E-02  0.8272766E-01
        2   -1    0    0  501    0  0.00000000000E+00  0.00000000000E+00  0.81027900213E+03  0.81027900213E+03  0.25500000920E-02 0.  1.
       -2   -1    0    0    0  501  0.00000000000E+00  0.00000000000E+00 -0.25954564816E+04  0.25954564816E+04  0.25500000920E-02 0. -1.
    10030    2    1    2    0    0  0.00000000000E+00  0.00000000000E+00 -0.17851774795E+04  0.34057354837E+04  0.29003750709E+04 0.  0.
        4    1    3    3  502    0 -0.82371857745E+03  0.86397226743E+03 -0.18595249561E+04  0.22097047425E+04  0.12699999809E+01 0. -1.
       -4    1    3    3    0  502  0.82371857745E+03 -0.86397226743E+03  0.74347476669E+02  0.11960307412E+04  0.12699999809E+01 0.  1.
</event>
<event>
 5   0  0.3885904E-07  0.2900478E+04  0.7818609E-02  0.8272735E-01
        1   -1    0    0  501    0  0.00000000000E+00  0.00000000000E+00  0.14327144783E+04  0.14327144783E+04  0.50400001928E-02 0. -1.
       -1   -1    0    0    0  501  0.00000000000E+00  0.00000000000E+00 -0.14679779895E+04  0.14679779895E+04  0.50400001928E-02 0.  1.
    10030    2    1    2    0    0  0.00000000000E+00  0.00000000000E+00 -0.35263511260E+02  0.29006924678E+04  0.29004781119E+04 0.  0.
        2    1    3    3  502    0 -0.52706552070E+03  0.57331999630E+03 -0.12411188497E+04  0.14652200792E+04  0.25500000920E-02 0.  1.
       -2    1    3    3    0  502  0.52706552070E+03 -0.57331999630E+03  0.12058553385E+04  0.14354723886E+04  0.25500000920E-02 0. -1.
</event>
<event>
 5   0  0.1006893E-06  0.2898462E+04  0.7818609E-02  0.8273335E-01
       -2   -1    0    0    0  501  0.00000000000E+00  0.00000000000E+00  0.16146765469E+04  0.16146765469E+04  0.25500000920E-02 0. -1.
        2   -1    0    0  501    0  0.00000000000E+00  0.00000000000E+00 -0.13007379264E+04  0.13007379264E+04  0.25500000920E-02 0.  1.
    10030    2    1    2    0    0  0.00000000000E+00  0.00000000000E+00  0.31393862043E+03  0.29154144733E+04  0.28984623672E+04 0.  0.
        4    1    3    3  502    0 -0.52332550491E+03 -0.12472346125E+04  0.68040279090E+03  0.15140717729E+04  0.12699999809E+01 0. -1.
       -4    1    3    3    0  502  0.52332550491E+03  0.12472346125E+04 -0.36646417047E+03  0.14013427004E+04  0.12699999809E+01 0.  1.
</event>
<event>
 5   0  0.3786210E-07  0.2849772E+04  0.7818609E-02  0.8287981E-01
       -1   -1    0    0    0  501  0.00000000000E+00  0.00000000000E+00  0.19604479234E+04  0.19604479234E+04  0.50400001928E-02 0.  1.
        1   -1    0    0  501    0  0.00000000000E+00  0.00000000000E+00 -0.10356307707E+04  0.10356307707E+04  0.50400001928E-02 0. -1.
    10030    2    1    2    0    0  0.00000000000E+00  0.00000000000E+00  0.92481715275E+03  0.29960786941E+04  0.28497720567E+04 0.  0.
        5    1    3    3  502    0  0.56667787507E+03  0.54839866110E+03  0.17101027171E+04  0.18831724028E+04  0.46999998093E+01 0.  1.
       -5    1    3    3    0  502 -0.56667787507E+03 -0.54839866110E+03 -0.78528556437E+03  0.11129062913E+04  0.46999998093E+01 0. -1.
</event>
<event>
 5   0  0.3786210E-07  0.2887633E+04  0.7818609E-02  0.8276567E-01
       -1   -1    0    0    0  501  0.00000000000E+00  0.00000000000E+00  0.11074405511E+04  0.11074405511E+04  0.50400001928E-02 0.  1.
        1   -1    0    0  501    0  0.00000000000E+00  0.00000000000E+00 -0.18823634693E+04  0.18823634693E+04  0.50400001928E-02 0. -1.
    10030    2    1    2    0    0  0.00000000000E+00  0.00000000000E+00 -0.77492291812E+03  0.29898040204E+04  0.28876326898E+04 0.  0.
        5    1    3    3  502    0 -0.45328453851E+03  0.22195818472E+02  0.10316637258E+04  0.11270810354E+04  0.46999998093E+01 0.  1.
       -5    1    3    3    0  502  0.45328453851E+03 -0.22195818472E+02 -0.18065866439E+04  0.18627229851E+04  0.46999998093E+01 0. -1.
</event>
<event>
 5   0  0.3786210E-07  0.2900843E+04  0.7818609E-02  0.8272627E-01
        1   -1    0    0  501    0  0.00000000000E+00  0.00000000000E+00  0.21341616182E+04  0.21341616182E+04  0.50400001928E-02 0. -1.
       -1   -1    0    0    0  501  0.00000000000E+00  0.00000000000E+00 -0.98573721089E+03  0.98573721090E+03  0.50400001928E-02 0.  1.
    10030    2    1    2    0    0  0.00000000000E+00  0.00000000000E+00  0.11484244073E+04  0.31198988291E+04  0.29008429955E+04 0.  0.
        5    1    3    3  502    0  0.61488722733E+03  0.75248203109E+03 -0.58384526353E+03  0.11336723033E+04  0.46999998093E+01 0.  1.
       -5    1    3    3    0  502 -0.61488722733E+03 -0.75248203109E+03  0.17322696708E+04  0.19862265258E+04  0.46999998093E+01 0. -1.
</event>
<event>
 5   0  0.3885904E-07  0.2897898E+04  0.7818609E-02  0.8273503E-01
        1   -1    0    0  501    0  0.00000000000E+00  0.00000000000E+00  0.11020451600E+04  0.11020451601E+04  0.50400001928E-02 0.  1.
       -1   -1    0    0    0  501  0.00000000000E+00  0.00000000000E+00 -0.19050520405E+04  0.19050520405E+04  0.50400001928E-02 0. -1.
    10030    2    1    2    0    0  0.00000000000E+00  0.00000000000E+00 -0.80300688047E+03  0.30070972006E+04  0.28978981217E+04 0.  0.
        2    1    3    3  502    0 -0.11674330477E+04 -0.54321312332E+03  0.28796820203E+03  0.13194340088E+04  0.25500000920E-02 0.  1.
       -2    1    3    3    0  502  0.11674330477E+04  0.54321312332E+03 -0.10909750825E+04  0.16876631918E+04  0.25500000920E-02 0. -1.
</event>
<event>
 5   0  0.9950999E-07  0.2873019E+04  0.7818609E-02  0.8280951E-01
        2   -1    0    0  501    0  0.00000000000E+00  0.00000000000E+00  0.17274578145E+04  0.17274578145E+04  0.25500000920E-02 0. -1.
       -2   -1    0    0    0  501  0.00000000000E+00  0.00000000000E+00 -0.11945642027E+04  0.11945642027E+04  0.25500000920E-02 0.  1.
    10030    2    1    2    0    0  0.00000000000E+00  0.00000000000E+00  0.53289361180E+03  0.29220220173E+04  0.28730188074E+04 0.  0.
        3    1    3    3  502    0 -0.67477339347E+03  0.60623197059E+03 -0.86642930246E+03  0.12544066649E+04  0.10100000352E+00 0.  1.
       -3    1    3    3    0  502  0.67477339347E+03 -0.60623197059E+03  0.13993229143E+04  0.16676153523E+04  0.10100000352E+00 0. -1.
</event>
<event>
 5   0  0.1031339E-06  0.2901646E+04  0.7818609E-02  0.8272388E-01
       -2   -1    0    0    0  501  0.00000000000E+00  0.00000000000E+00  0.94914121790E+03  0.94914121790E+03  0.25500000920E-02 0. -1.
        2   -1    0    0  501    0  0.00000000000E+00  0.00000000000E+00 -0.22176756475E+04  0.22176756475E+04  0.25500000920E-02 0.  1.
    10030    2    1    2    0    0  0.00000000000E+00  0.00000000000E+00 -0.12685344296E+04  0.31668168654E+04  0.29016459915E+04 0.  0.
        5    1    3    3  502    0 -0.67614921510E+03  0.87247616859E+03 -0.16618368024E+04  0.19950228253E+04  0.46999998093E+01 0.  1.
       -5    1    3    3    0  502  0.67614921510E+03 -0.87247616859E+03  0.39330237281E+03  0.11717940400E+04  0.46999998093E+01 0. -1.
</event>
<event>
 5   0  0.9994311E-07  0.2894832E+04  0.7818609E-02  0.8274417E-01
        2   -1    0    0  501    0  0.00000000000E+00  0.00000000000E+00  0.12980061616E+04  0.12980061616E+04  0.25500000920E-02 0.  1.
       -2   -1    0    0    0  501  0.00000000000E+00  0.00000000000E+00 -0.16140244777E+04  0.16140244777E+04  0.25500000920E-02 0. -1.
    10030    2    1    2    0    0  0.00000000000E+00  0.00000000000E+00 -0.31601831606E+03  0.29120306393E+04  0.28948324422E+04 0.  0.
        2    1    3    3  502    0  0.98626601657E+03  0.43905618053E+03  0.81183625620E+03  0.13507661130E+04  0.25500000920E-02 0.  1.
       -2    1    3    3    0  502 -0.98626601657E+03 -0.43905618053E+03 -0.11278545723E+04  0.15612645264E+04  0.25500000920E-02 0. -1.
</event>
<event>
 5   0  0.3638028E-07  0.2900566E+04  0.7818609E-02  0.8272709E-01
        1   -1    0    0  501    0  0.00000000000E+00  0.00000000000E+00  0.10449749309E+04  0.10449749309E+04  0.50400001928E-02 0.  1.
       -1   -1    0    0    0  501  0.00000000000E+00  0.00000000000E+00 -0.20127949259E+04  0.20127949259E+04  0.50400001928E-02 0. -1.
    10030    2    1    2    0    0  0.00000000000E+00  0.00000000000E+00 -0.96781999506E+03  0.30577698568E+04  0.29005656267E+04 0.  0.
        4    1    3    3  502    0  0.11190452688E+04  0.17615815289E+03  0.47072102653E+03  0.12267330216E+04  0.12699999809E+01 0.  1.
       -4    1    3    3    0  502 -0.11190452688E+04 -0.17615815289E+03 -0.14385410216E+04  0.18310368353E+04  0.12699999809E+01 0. -1.
</event>
<event>
 5   0  0.1063979E-06  0.2906005E+04  0.7818609E-02  0.8271093E-01
       -2   -1    0    0    0  501  0.00000000000E+00  0.00000000000E+00  0.14050665199E+04  0.14050665199E+04  0.25500000920E-02 0.  1.
        2   -1    0    0  501    0  0.00000000000E+00  0.00000000000E+00 -0.15025742888E+04  0.15025742888E+04  0.25500000920E-02 0. -1.
    10030    2    1    2    0    0  0.00000000000E+00  0.00000000000E+00 -0.97507768958E+02  0.29076408087E+04  0.29060053867E+04 0.  0.
        1    1    3    3  502    0 -0.34894350879E+01  0.13918760869E+04  0.36847672427E+03  0.14398285709E+04  0.50400001928E-02 0. -1.
       -1    1    3    3    0  502  0.34894350879E+01 -0.13918760869E+04 -0.46598449322E+03  0.14678122378E+04  0.50400001928E-02 0.  1.
</event>
<event>
 5   0  0.3885904E-07  0.2909638E+04  0.7818609E-02  0.8270016E-01
        1   -1    0    0  501    0  0.00000000000E+00  0.00000000000E+00  0.24453903524E+04  0.24453903524E+04  0.50400001928E-02 0.  1.
       -1   -1    0    0    0  501  0.00000000000E+00  0.00000000000E+00 -0.86550553436E+03  0.86550553437E+03  0.50400001928E-02 0. -1.
    10030    2    1    2    0    0  0.00000000000E+00  0.00000000000E+00  0.15798848180E+04  0.33108958868E+04  0.29096383856E+04 0.  0.
        2    1    3    3  502    0 -0.49896589327E+03 -0.72692740369E+03 -0.52684111959E+03  0.10271085523E+04  0.25500000920E-02 0. -1.
       -2    1    3    3    0  502  0.49896589327E+03  0.72692740369E+03  0.21067259376E+04  0.22837873345E+04  0.25500000920E-02 0.  1.
</event>
<event>
 5   0  0.3770467E-07  0.2893773E+04  0.7818609E-02  0.8274733E-01
        1   -1    0    0  501    0  0.00000000000E+00  0.00000000000E+00  0.17604947509E+04  0.17604947509E+04  0.50400001928E-02 0. -1.
       -1   -1    0    0    0  501  0.00000000000E+00  0.00000000000E+00 -0.11891432838E+04  0.11891432838E+04  0.50400001928E-02 0.  1.
    10030    2    1    2    0    0  0.00000000000E+00  0.00000000000E+00  0.57135146711E+03  0.29496380347E+04  0.28937729760E+04 0.  0.
        1    1    3    3  502    0 -0.11352400727E+04  0.85372784930E+03  0.56641846966E+03  0.15291995116E+04  0.50400001928E-02 0. -1.
       -1    1    3    3    0  502  0.11352400727E+04 -0.85372784930E+03  0.49329974591E+01  0.14204385231E+04  0.50400001928E-02 0.  1.
</event>
<event>
 5   0  0.3769563E-07  0.2902327E+04  0.7818609E-02  0.8272185E-01
       -1   -1    0    0    0  501  0.00000000000E+00  0.00000000000E+00  0.90901024649E+03  0.90901024650E+03  0.50400001928E-02 0.  1.
        1   -1    0    0  501    0  0.00000000000E+00  0.00000000000E+00 -0.23166693394E+04  0.23166693394E+04  0.50400001928E-02 0. -1.
    10030    2    1    2    0    0  0.00000000000E+00  0.00000000000E+00 -0.14076590929E+04  0.32256795859E+04  0.29023274573E+04 0.  0.
        3    1    3    3  502    0 -0.56384473021E+02 -0.67820592211E+03 -0.21283162354E+04  0.22344736493E+04  0.10100000352E+00 0. -1.
       -3    1    3    3    0  502  0.56384473021E+02  0.67820592211E+03  0.72065714245E+03  0.99120593660E+03  0.10100000352E+00 0.  1.
</event>
<event>
 5   0  0.3885904E-07  0.2896049E+04  0.7818609E-02  0.8274054E-01
        1   -1    0    0  501    0  0.00000000000E+00  0.00000000000E+00  0.22470276539E+04  0.22470276539E+04  0.50400001928E-02 0.  1.
       -1   -1    0    0    0  501  0.00000000000E+00  0.00000000000E+00 -0.93313249920E+03  0.93313249922E+03  0.50400001928E-02 0. -1.
    10030    2    1    2    0    0  0.00000000000E+00  0.00000000000E+00  0.13138951547E+04  0.31801601531E+04  0.28960487085E+04 0.  0.
        2    1    3    3  502    0 -0.11222319650E+03 -0.54920699309E+03 -0.80915464980E+03  0.98435441503E+03  0.25500000920E-02 0. -1.
       -2    1    3    3    0  502  0.11222319650E+03  0.54920699309E+03  0.21230498045E+04  0.21958057381E+04  0.25500000920E-02 0.  1.
</event>
<event>
 5   0  0.3769563E-07  0.2889777E+04  0.7818609E-02  0.8275925E-01
       -1   -1    0    0    0  501  0.00000000000E+00  0.00000000000E+00  0.97461482653E+03  0.97461482654E+03  0.50400001928E-02 0.  1.
        1   -1    0    0  501    0  0.00000000000E+00  0.00000000000E+00 -0.21420804707E+04  0.21420804707E+04  0.50400001928E-02 0. -1.
    10030    2    1    2    0    0  0.00000000000E+00  0.00000000000E+00 -0.11674656442E+04  0.31166952973E+04  0.28897774215E+04 0.  0.
        3    1    3    3  502    0 -0.28219372534E+03 -0.14170003364E+04 -0.59820773687E+03  0.15637697269E+04  0.10100000352E+00 0. -1.
       -3    1    3    3    0  502  0.28219372534E+03  0.14170003364E+04 -0.56925790731E+03  0.15529255704E+04  0.10100000352E+00 0.  1.
</event>
<event>
 5   0  0.3638028E-07  0.2898736E+04  0.7818609E-02  0.8273254E-01
        1   -1    0    0  501    0  0.00000000000E+00  0.00000000000E+00  0.20383567786E+04  0.20383567786E+04  0.50400001928E-02 0. -1.
       -1   -1    0    0    0  501  0.00000000000E+00  0.00000000000E+00 -0.10305692263E+04  0.10305692263E+04  0.50400001928E-02 0.  1.
    10030    2    1    2    0    0  0.00000000000E+00  0.00000000000E+00  0.10077875523E+04  0.30689260049E+04  0.28987361165E+04 0.  0.
        4    1    3    3  502    0  0.56453364125E+03 -0.53964815263E+03  0.17965404214E+04  0.19589480492E+04  0.12699999809E+01 0. -1.
       -4    1    3    3    0  502 -0.56453364125E+03  0.53964815263E+03 -0.78875286911E+03  0.11099779557E+04  0.12699999809E+01 0.  1.
</event>
<event>
 5   0  0.3885904E-07  0.2895996E+04  0.7818609E-02  0.8274070E-01
        1   -1    0    0  501    0  0.00000000000E+00  0.00000000000E+00  0.19513566843E+04  0.19513566843E+04  0.50400001928E-02 0. -1.
       -1   -1    0    0    0  501  0.00000000000E+00  0.00000000000E+00 -0.10744821196E+04  0.10744821196E+04  0.50400001928E-02 0.  1.
    10030    2    1    2    0    0  0.00000000000E+00  0.00000000000E+00  0.87687456474E+03  0.30258388039E+04  0.28959957639E+04 0.  0.
        2    1    3    3  502    0 -0.99340065071E+03  0.41868697477E+03  0.14485041363E+04  0.18056322628E+04  0.25500000920E-02 0. -1.
       -2    1    3    3    0  502  0.99340065071E+03 -0.41868697477E+03 -0.57162957158E+03  0.12202065410E+04  0.25500000920E-02 0.  1.
</event>
<event>
 5   0  0.9994311E-07  0.2902002E+04  0.7818609E-02  0.8272282E-01
       -2   -1    0    0    0  501  0.00000000000E+00  0.00000000000E+00  0.12355362553E+04  0.12355362553E+04  0.25500000920E-02 0.  1.
        2   -1    0    0  501    0  0.00000000000E+00  0.00000000000E+00 -0.17040403635E+04  0.17040403635E+04  0.25500000920E-02 0. -1.
    10030    2    1    2    0    0  0.00000000000E+00  0.00000000000E+00 -0.46850410815E+03  0.29395766188E+04  0.29020018260E+04 0.  0.
        2    1    3    3  502    0  0.79563059415E+02  0.11844036536E+04 -0.10794788333E+04  0.16044989394E+04  0.25500000920E-02 0. -1.
       -2    1    3    3    0  502 -0.79563059415E+02 -0.11844036536E+04  0.61097472513E+03  0.13350776793E+04  0.25500000920E-02 0.  1.
</event>
<event>
 5   0  0.3885904E-07  0.2890199E+04  0.7818609E-02  0.8275800E-01
        1   -1    0    0  501    0  0.00000000000E+00  0.00000000000E+00  0.16346112881E+04  0.16346112881E+04  0.50400001928E-02 0.  1.
       -1   -1    0    0    0  501  0.00000000000E+00  0.00000000000E+00 -0.12775590272E+04  0.12775590272E+04  0.50400001928E-02 0. -1.
    10030    2    1    2    0    0  0.00000000000E+00  0.00000000000E+00  0.35705226088E+03  0.29121703154E+04  0.28901988909E+04 0.  0.
        2    1    3    3  502    0  0.48214985363E+03  0.13261781330E+04  0.49249642398E+03  0.14945800914E+04  0.25500000920E-02 0.  1.
       -2    1    3    3    0  502 -0.48214985363E+03 -0.13261781330E+04 -0.13544416311E+03  0.14175902240E+04  0.25500000920E-02 0. -1.
</event>
<event>
 5   0  0.3786210E-07  0.2898204E+04  0.7818609E-02  0.8273412E-01
       -1   -1    0    0    0  501  0.00000000000E+00  0.00000000000E+00  0.18849292747E+04  0.18849292747E+04  0.50400001928E-02 0. -1.
        1   -1    0    0  501    0  0.00000000000E+00  0.00000000000E+00 -0.11140452115E+04  0.11140452115E+04  0.50400001928E-02 0.  1.
    10030    2    1    2    0    0  0.00000000000E+00  0.00000000000E+00  0.77088406317E+03  0.29989744862E+04  0.28982038800E+04 0.  0.
        5    1    3    3  502    0  0.28618303632E+03  0.59862093843E+03 -0.94761591738E+03  0.11568257324E+04  0.46999998093E+01 0.  1.
       -5    1    3    3    0  502 -0.28618303632E+03 -0.59862093843E+03  0.17184999805E+04  0.18421487539E+04  0.46999998093E+01 0. -1.
</event>
<event>
 5   0  0.3378750E-07  0.2904229E+04  0.7818609E-02  0.8271620E-01
        3   -1    0    0  501    0  0.00000000000E+00  0.00000000000E+00  0.13903474196E+04  0.13903474232E+04  0.10100000352E+00 0. -1.
       -3   -1    0    0    0  501  0.00000000000E+00  0.00000000000E+00 -0.15166257377E+04  0.15166257410E+04  0.10100000352E+00 0.  1.
    10030    2    1    2    0    0  0.00000000000E+00  0.00000000000E+00 -0.12627831813E+03  0.29069731643E+04  0.29042291170E+04 0.  0.
        3    1    3    3  502    0 -0.97845465725E+02 -0.12931047160E+04  0.59088707175E+03  0.14250758168E+04  0.10100000352E+00 0. -1.
       -3    1    3    3    0  502  0.97845465725E+02  0.12931047160E+04 -0.71716538988E+03  0.14818973475E+04  0.10100000352E+00 0.  1.
</event>
<event>
 5   0  0.9950999E-07  0.2838328E+04  0.7818609E-02  0.8291467E-01
       -2   -1    0    0    0  501  0.00000000000E+00  0.00000000000E+00  0.10738712456E+04  0.10738712456E+04  0.25500000920E-02 0.  1.
        2   -1    0    0  501    0  0.00000000000E+00  0.00000000000E+00 -0.18754816947E+04  0.18754816947E+04  0.25500000920E-02 0. -1.
    10030    2    1    2    0    0  0.00000000000E+00  0.00000000000E+00 -0.80161044912E+03  0.29493529403E+04  0.28383275805E+04 0.  0.
        3    1    3    3  502    0  0.46126118139E+03 -0.83013569371E+03 -0.14966365398E+04  0.17725146233E+04  0.10100000352E+00 0. -1.
       -3    1    3    3    0  502 -0.46126118139E+03  0.83013569371E+03  0.69502609064E+03  0.11768383170E+04  0.10100000352E+00 0.  1.
</event>
<event>
 5   0  0.9950999E-07  0.2899194E+04  0.7818609E-02  0.8273117E-01
        2   -1    0    0  501    0  0.00000000000E+00  0.00000000000E+00  0.15361229988E+04  0.15361229988E+04  0.25500000920E-02 0.  1.
       -2   -1    0    0    0  501  0.00000000000E+00  0.00000000000E+00 -0.13679451400E+04  0.13679451400E+04  0.25500000920E-02 0. -1.
    10030    2    1    2    0    0  0.00000000000E+00  0.00000000000E+00  0.16817785879E+03  0.29040681388E+04  0.28991943644E+04 0.  0.
        3    1    3    3  502    0  0.63712322837E+03  0.11033753458E+04  0.77660403823E+03  0.14921383998E+04  0.10100000352E+00 0.  1.
       -3    1    3    3    0  502 -0.63712322837E+03 -0.11033753458E+04 -0.60842617945E+03  0.14119297390E+04  0.10100000352E+00 0. -1.
</event>
<event>
 5   0  0.1006893E-06  0.2891736E+04  0.7818609E-02  0.8275340E-01
        2   -1    0    0  501    0  0.00000000000E+00  0.00000000000E+00  0.24096589096E+04  0.24096589096E+04  0.25500000920E-02 0.  1.
       -2   -1    0    0    0  501  0.00000000000E+00  0.00000000000E+00 -0.86756445979E+03  0.86756445979E+03  0.25500000920E-02 0. -1.
    10030    2    1    2    0    0  0.00000000000E+00  0.00000000000E+00  0.15420944498E+04  0.32772233694E+04  0.28917361084E+04 0.  0.
        4    1    3    3  502    0  0.73863158256E+03  0.39315357389E+03 -0.56528718557E+03  0.10098007539E+04  0.12699999809E+01 0. -1.
       -4    1    3    3    0  502 -0.73863158256E+03 -0.39315357389E+03  0.21073816354E+04  0.22674226156E+04  0.12699999809E+01 0.  1.
</event>
<event>
 5   0  0.9950999E-07  0.2900020E+04  0.7818609E-02  0.8272872E-01
        2   -1    0    0  501    0  0.00000000000E+00  0.00000000000E+00  0.19321128119E+04  0.19321128119E+04  0.25500000920E-02 0.  1.
       -2   -1    0    0    0  501  0.00000000000E+00  0.00000000000E+00 -0.10882017006E+04  0.10882017006E+04  0.25500000920E-02 0. -1.
    10030    2    1    2    0    0  0.00000000000E+00  0.00000000000E+00  0.84391111135E+03  0.30203145125E+04  0.29000196190E+04 0.  0.
        3    1    3    3  502    0  0.73643602218E+03  0.10291920490E+04 -0.31518485868E+03  0.13041916246E+04  0.10100000352E+00 0. -1.
       -3    1    3    3    0  502 -0.73643602218E+03 -0.10291920490E+04  0.11590959700E+04  0.17161228879E+04  0.10100000352E+00 0.  1.
</event>
<event>
 5   0  0.1063979E-06  0.2896807E+04  0.7818609E-02  0.8273828E-01
        2   -1    0    0  501    0  0.00000000000E+00  0.00000000000E+00  0.15766724644E+04  0.15766724644E+04  0.25500000920E-02 0.  1.
       -2   -1    0    0    0  501  0.00000000000E+00  0.00000000000E+00 -0.13305698896E+04  0.13305698896E+04  0.25500000920E-02 0. -1.
    10030    2    1    2    0    0  0.00000000000E+00  0.00000000000E+00  0.24610257479E+03  0.29072423540E+04  0.28968071437E+04 0.  0.
        1    1    3    3  502    0  0.98852254875E+03  0.10558041631E+04  0.45483497257E+02  0.14470549433E+04  0.50400001928E-02 0. -1.
       -1    1    3    3    0  502 -0.98852254875E+03 -0.10558041631E+04  0.20061907753E+03  0.14601874108E+04  0.50400001928E-02 0.  1.
</event>
<event>
 5   0  0.9950999E-07  0.2901375E+04  0.7818609E-02  0.8272468E-01
       -2   -1    0    0    0  501  0.00000000000E+00  0.00000000000E+00  0.10325263675E+04  0.10325263675E+04  0.25500000920E-02 0.  1.
        2   -1    0    0  501    0  0.00000000000E+00  0.00000000000E+00 -0.20381990681E+04  0.20381990681E+04  0.25500000920E-02 0. -1.
    10030    2    1    2    0    0  0.00000000000E+00  0.00000000000E+00 -0.10056727006E+04  0.30707254357E+04  0.29013750396E+04 0.  0.
        3    1    3    3  502    0 -0.41289827050E+03  0.64779462417E+03 -0.18052631298E+04  0.19619117806E+04  0.10100000352E+00 0. -1.
       -3    1    3    3    0  502  0.41289827050E+03 -0.64779462417E+03  0.79959042920E+03  0.11088136550E+04  0.10100000352E+00 0.  1.
</event>
<event>
 5   0  0.1031339E-06  0.2899234E+04  0.7818609E-02  0.8273105E-01
       -2   -1    0    0    0  501  0.00000000000E+00  0.00000000000E+00  0.18714407632E+04  0.18714407632E+04  0.25500000920E-02 0. -1.
        2   -1    0    0  501    0  0.00000000000E+00  0.00000000000E+00 -0.11228726064E+04  0.11228726064E+04  0.25500000920E-02 0.  1.
    10030    2    1    2    0    0  0.00000000000E+00  0.00000000000E+00  0.74856815681E+03  0.29943133696E+04  0.28992340833E+04 0.  0.
        5    1    3    3  502    0  0.77714916072E+03 -0.43614561956E+02 -0.88872891867E+03  0.11814077319E+04  0.46999998093E+01 0.  1.
       -5    1    3    3    0  502 -0.77714916072E+03  0.43614561956E+02  0.16372970755E+04  0.18129056377E+04  0.46999998093E+01 0. -1.
</event>
<event>
 5   0  0.3769563E-07  0.2897986E+04  0.7818609E-02  0.8273477E-01
        1   -1    0    0  501    0  0.00000000000E+00  0.00000000000E+00  0.13822565221E+04  0.13822565221E+04  0.50400001928E-02 0. -1.
       -1   -1    0    0    0  501  0.00000000000E+00  0.00000000000E+00 -0.15189513082E+04  0.15189513082E+04  0.50400001928E-02 0.  1.
    10030    2    1    2    0    0  0.00000000000E+00  0.00000000000E+00 -0.13669478610E+03  0.29012078303E+04  0.28979857505E+04 0.  0.
        3    1    3    3  502    0 -0.71041237090E+03  0.11037838694E+04  0.54597628061E+03  0.14216591280E+04  0.10100000352E+00 0. -1.
       -3    1    3    3    0  502  0.71041237090E+03 -0.11037838694E+04 -0.68267106671E+03  0.14795487023E+04  0.10100000352E+00 0.  1.
</event>
<event>
 5   0  0.3770467E-07  0.2903399E+04  0.7818609E-02  0.8271867E-01
        1   -1    0    0  501    0  0.00000000000E+00  0.00000000000E+00  0.97306059899E+03  0.97306059901E+03  0.50400001928E-02 0. -1.
       -1   -1    0    0    0  501  0.00000000000E+00  0.00000000000E+00 -0.21657767993E+04  0.21657767993E+04  0.50400001928E-02 0.  1.
    10030    2    1    2    0    0  0.00000000000E+00  0.00000000000E+00 -0.11927162003E+04  0.31388373983E+04  0.29033994349E+04 0.  0.
        1    1    3    3  502    0  0.78672836290E+03  0.11462755422E+04 -0.10480196979E+04  0.17410440611E+04  0.50400001928E-02 0. -1.
       -1    1    3    3    0  502 -0.78672836290E+03 -0.11462755422E+04 -0.14469650247E+03  0.13977933372E+04  0.50400001928E-02 0.  1.
</event>
<event>
 5   0  0.3769563E-07  0.2896303E+04  0.7818609E-02  0.8273978E-01
       -1   -1    0    0    0  501  0.00000000000E+00  0.00000000000E+00  0.12143483688E+04  0.12143483688E+04  0.50400001928E-02 0.  1.
        1   -1    0    0  501    0  0.00000000000E+00  0.00000000000E+00 -0.17269692446E+04  0.17269692446E+04  0.50400001928E-02 0. -1.
    10030    2    1    2    0    0  0.00000000000E+00  0.00000000000E+00 -0.51262087583E+03  0.29413176135E+04  0.28963026674E+04 0.  0.
        3    1    3    3  502    0 -0.10848294852E+04  0.91775844760E+03  0.27327238200E+02  0.14212256570E+04  0.10100000352E+00 0.  1.
       -3    1    3    3    0  502  0.10848294852E+04 -0.91775844760E+03 -0.53994811403E+03  0.15200919565E+04  0.10100000352E+00 0. -1.
</event>
<event>
 5   0  0.3770467E-07  0.2899350E+04  0.7818609E-02  0.8273071E-01
        1   -1    0    0  501    0  0.00000000000E+00  0.00000000000E+00  0.24165141597E+04  0.24165141597E+04  0.50400001928E-02 0. -1.
       -1   -1    0    0    0  501  0.00000000000E+00  0.00000000000E+00 -0.86966488493E+03  0.86966488495E+03  0.50400001928E-02 0.  1.
    10030    2    1    2    0    0  0.00000000000E+00  0.00000000000E+00  0.15468492748E+04  0.32861790447E+04  0.28993499331E+04 0.  0.
        1    1    3    3  502    0 -0.71521808678E+03  0.66024465758E+03  0.19910448637E+04  0.22162399619E+04  0.50400001928E-02 0.  1.
       -1    1    3    3    0  502  0.71521808678E+03 -0.66024465758E+03 -0.44419558893E+03  0.10699390827E+04  0.50400001928E-02 0. -1.
</event>
<event>
 5   0  0.3638028E-07  0.2901268E+04  0.7818609E-02  0.8272500E-01
        1   -1    0    0  501    0  0.00000000000E+00  0.00000000000E+00  0.13727688224E+04  0.13727688224E+04  0.50400001928E-02 0.  1.
       -1   -1    0    0    0  501  0.00000000000E+00  0.00000000000E+00 -0.15329157654E+04  0.15329157654E+04  0.50400001928E-02 0. -1.
    10030    2    1    2    0    0  0.00000000000E+00  0.00000000000E+00 -0.16014694302E+03  0.29056845878E+04  0.29012679780E+04 0.  0.
        4    1    3    3  502    0 -0.13966105176E+04  0.31889869174E+03 -0.30871915718E+03  0.14654441116E+04  0.12699999809E+01 0. -1.
       -4    1    3    3    0  502  0.13966105176E+04 -0.31889869174E+03  0.14857221415E+03  0.14402404761E+04  0.12699999809E+01 0.  1.
</event>
<event>
 5   0  0.1006893E-06  0.2906222E+04  0.7818609E-02  0.8271029E-01
        2   -1    0    0  501    0  0.00000000000E+00  0.00000000000E+00  0.20261241240E+04  0.20261241240E+04  0.25500000920E-02 0.  1.
       -2   -1    0    0    0  501  0.00000000000E+00  0.00000000000E+00 -0.10421533087E+04  0.10421533087E+04  0.25500000920E-02 0. -1.
    10030    2    1    2    0    0  0.00000000000E+00  0.00000000000E+00  0.98397081531E+03  0.30682774327E+04  0.29062222624E+04 0.  0.
        4    1    3    3  502    0 -0.56757917425E+03 -0.25399228938E+03  0.18785632471E+04  0.19788025895E+04  0.12699999809E+01 0.  1.
       -4    1    3    3    0  502  0.56757917425E+03  0.25399228938E+03 -0.89459243176E+03  0.10894748432E+04  0.12699999809E+01 0. -1.
</event>
<event>
 5   0  0.1031339E-06  0.2911767E+04  0.7818609E-02  0.8269385E-01
       -2   -1    0    0    0  501  0.00000000000E+00  0.00000000000E+00  0.16054753140E+04  0.16054753140E+04  0.25500000920E-02 0.  1.
        2   -1    0    0  501    0  0.00000000000E+00  0.00000000000E+00 -0.13202299412E+04  0.13202299412E+04  0.25500000920E-02 0. -1.
    10030    2    1    2    0    0  0.00000000000E+00  0.00000000000E+00  0.28524537285E+03  0.29257052552E+04  0.29117668721E+04 0.  0.
        5    1    3    3  502    0  0.47007867796E+03  0.10920513425E+04  0.98689748070E+03  0.15451662776E+04  0.46999998093E+01 0.  1.
       -5    1    3    3    0  502 -0.47007867796E+03 -0.10920513425E+04 -0.70165210784E+03  0.13805389776E+04  0.46999998093E+01 0. -1.
</event>
<event>
 5   0  0.3770467E-07  0.2891472E+04  0.7818609E-02  0.8275419E-01
        1   -1    0    0  501    0  0.00000000000E+00  0.00000000000E+00  0.57197572914E+03  0.57197572916E+03  0.50400001928E-02 0.  1.
       -1   -1    0    0    0  501  0.00000000000E+00  0.00000000000E+00 -0.36542677662E+04  0.36542677662E+04  0.50400001928E-02 0. -1.
    10030    2    1    2    0    0  0.00000000000E+00  0.00000000000E+00 -0.30822920371E+04  0.42262434954E+04  0.28914719228E+04 0.  0.
        1    1    3    3  502    0  0.50490805078E+03  0.12370314697E+04 -0.73397312534E+03  0.15244328603E+04  0.50400001928E-02 0.  1.
       -1    1    3    3    0  502 -0.50490805078E+03 -0.12370314697E+04 -0.23483189117E+04  0.27018106351E+04  0.50400001928E-02 0. -1.
</event>
<event>
 5   0  0.9950999E-07  0.2900551E+04  0.7818609E-02  0.8272714E-01
       -2   -1    0    0    0  501  0.00000000000E+00  0.00000000000E+00  0.10924383005E+04  0.10924383005E+04  0.25500000920E-02 0. -1.
        2   -1    0    0  501    0  0.00000000000E+00  0.00000000000E+00 -0.19253247798E+04  0.19253247798E+04  0.25500000920E-02 0.  1.
    10030    2    1    2    0    0  0.00000000000E+00  0.00000000000E+00 -0.83288647931E+03  0.30177630804E+04  0.29005506584E+04 0.  0.
        3    1    3    3  502    0  0.34208968375E+02 -0.13672852089E+04 -0.91828293489E+03  0.16473866136E+04  0.10100000352E+00 0.  1.
       -3    1    3    3    0  502 -0.34208968375E+02  0.13672852089E+04  0.85396455581E+02  0.13703764668E+04  0.10100000352E+00 0. -1.
</event>
<event>
 5   0  0.1063979E-06  0.2895726E+04  0.7818609E-02  0.8274150E-01
       -2   -1    0    0    0  501  0.00000000000E+00  0.00000000000E+00  0.87777214954E+03  0.87777214955E+03  0.25500000920E-02 0. -1.
        2   -1    0    0  501    0  0.00000000000E+00  0.00000000000E+00 -0.23882140726E+04  0.23882140726E+04  0.25500000920E-02 0.  1.
    10030    2    1    2    0    0  0.00000000000E+00  0.00000000000E+00 -0.15104419230E+04  0.32659862221E+04  0.28957263683E+04 0.  0.
        1    1    3    3  502    0 -0.11124856555E+04 -0.89904172388E+03 -0.50199736637E+03  0.15158831455E+04  0.50400001928E-02 0.  1.
       -1    1    3    3    0  502  0.11124856555E+04  0.89904172388E+03 -0.10084445567E+04  0.17501030766E+04  0.50400001928E-02 0. -1.
</event>
<event>
 5   0  0.9994311E-07  0.2906279E+04  0.7818609E-02  0.8271012E-01
        2   -1    0    0  501    0  0.00000000000E+00  0.00000000000E+00  0.16922959381E+04  0.16922959381E+04  0.25500000920E-02 0. -1.
       -2   -1    0    0    0  501  0.00000000000E+00  0.00000000000E+00 -0.12477811958E+04  0.12477811958E+04  0.25500000920E-02 0.  1.
    10030    2    1    2    0    0  0.00000000000E+00  0.00000000000E+00  0.44451474225E+03  0.29400771339E+04  0.29062794424E+04 0.  0.
        2    1    3    3  502    0 -0.34187967319E+03 -0.35765236443E+03  0.16044620503E+04  0.16790161987E+04  0.25500000920E-02 0. -1.
       -2    1    3    3    0  502  0.34187967319E+03  0.35765236443E+03 -0.11599473081E+04  0.12610609352E+04  0.25500000920E-02 0.  1.
</event>
<event>
 5   0  0.3885904E-07  0.2901582E+04  0.7818609E-02  0.8272407E-01
        1   -1    0    0  501    0  0.00000000000E+00  0.00000000000E+00  0.19940942299E+04  0.19940942299E+04  0.50400001928E-02 0.  1.
       -1   -1    0    0    0  501  0.00000000000E+00  0.00000000000E+00 -0.10555141593E+04  0.10555141593E+04  0.50400001928E-02 0. -1.
    10030    2    1    2    0    0  0.00000000000E+00  0.00000000000E+00  0.93858007063E+03  0.30496083893E+04  0.29015821165E+04 0.  0.
        2    1    3    3  502    0 -0.78854277552E+03 -0.11490550611E+04  0.45393818581E+02  0.13943413646E+04  0.25500000920E-02 0.  1.
       -2    1    3    3    0  502  0.78854277552E+03  0.11490550611E+04  0.89318625205E+03  0.16552670247E+04  0.25500000920E-02 0. -1.
</event>
<event>
 5   0  0.3638028E-07  0.2908448E+04  0.7818609E-02  0.8270368E-01
       -1   -1    0    0    0  501  0.00000000000E+00  0.00000000000E+00  0.10747360402E+04  0.10747360402E+04  0.50400001928E-02 0. -1.
        1   -1    0    0  501    0  0.00000000000E+00  0.00000000000E+00 -0.19677090976E+04  0.19677090976E+04  0.50400001928E-02 0.  1.
    10030    2    1    2    0    0  0.00000000000E+00  0.00000000000E+00 -0.89297305738E+03  0.30424451378E+04  0.29084483037E+04 0.  0.
        4    1    3    3  502    0 -0.12790033909E+04 -0.68679471241E+03 -0.53543103689E+03  0.15473282325E+04  0.12699999809E+01 0.  1.
       -4    1    3    3    0  502  0.12790033909E+04  0.68679471241E+03 -0.35754202049E+03  0.14951169052E+04  0.12699999809E+01 0. -1.
</event>
<event>
 5   0  0.1031339E-06  0.2902329E+04  0.7818609E-02  0.8272185E-01
       -2   -1    0    0    0  501  0.00000000000E+00  0.00000000000E+00  0.12356097842E+04  0.12356097842E+04  0.25500000920E-02 0.  1.
        2   -1    0    0  501    0  0.00000000000E+00  0.00000000000E+00 -0.17043226073E+04  0.17043226073E+04  0.25500000920E-02 0. -1.
    10030    2    1    2    0    0  0.00000000000E+00  0.00000000000E+00 -0.46871282312E+03  0.29399323914E+04  0.29023285058E+04 0.  0.
        5    1    3    3  502    0  0.22849826126E+03 -0.14181627899E+04 -0.44308061754E+03  0.15032430534E+04  0.46999998093E+01 0. -1.
       -5    1    3    3    0  502 -0.22849826126E+03  0.14181627899E+04 -0.25632205582E+02  0.14366893380E+04  0.46999998093E+01 0.  1.
</event>
<event>
 5   0  0.3378750E-07  0.2906341E+04  0.7818609E-02  0.8270993E-01
        4   -1    0    0  501    0  0.00000000000E+00  0.00000000000E+00  0.15716078949E+04  0.15716084080E+04  0.12699999809E+01 0. -1.
       -4   -1    0    0    0  501  0.00000000000E+00  0.00000000000E+00 -0.13436578984E+04  0.13436584986E+04  0.12699999809E+01 0.  1.
    10030    2    1    2    0    0  0.00000000000E+00  0.00000000000E+00  0.22794999645E+03  0.29152669067E+04  0.29063413317E+04 0.  0.
        5    1    3    3  502    0 -0.90581562079E+03  0.64205100837E+03 -0.82642831362E+03  0.13841016161E+04  0.46999998093E+01 0.  1.
       -5    1    3    3    0  502  0.90581562079E+03 -0.64205100837E+03  0.10543783101E+04  0.15311652905E+04  0.46999998093E+01 0. -1.
</event>
<event>
 5   0  0.3786210E-07  0.2870413E+04  0.7818609E-02  0.8281735E-01
        1   -1    0    0  501    0  0.00000000000E+00  0.00000000000E+00  0.14205432324E+04  0.14205432324E+04  0.50400001928E-02 0. -1.
       -1   -1    0    0    0  501  0.00000000000E+00  0.00000000000E+00 -0.14500212330E+04  0.14500212330E+04  0.50400001928E-02 0.  1.
    10030    2    1    2    0    0  0.00000000000E+00  0.00000000000E+00 -0.29478000665E+02  0.28705644654E+04  0.28704131057E+04 0.  0.
        5    1    3    3  502    0  0.80966604478E+03  0.10975411883E+04  0.43209547713E+03  0.14306936623E+04  0.46999998093E+01 0. -1.
       -5    1    3    3    0  502 -0.80966604478E+03 -0.10975411883E+04 -0.46157347780E+03  0.14398708031E+04  0.46999998093E+01 0.  1.
</event>
<event>
 5   0  0.3638028E-07  0.2900217E+04  0.7818609E-02  0.8272813E-01
       -1   -1    0    0    0  501  0.00000000000E+00  0.00000000000E+00  0.94859215716E+03  0.94859215717E+03  0.50400001928E-02 0.  1.
        1   -1    0    0  501    0  0.00000000000E+00  0.00000000000E+00 -0.22167745166E+04  0.22167745166E+04  0.50400001928E-02 0. -1.
    10030    2    1    2    0    0  0.00000000000E+00  0.00000000000E+00 -0.12681823594E+04  0.31653666738E+04  0.29002171785E+04 0.  0.
        4    1    3    3  502    0 -0.85689249394E+03  0.90499531197E+03 -0.14431684808E+04  0.19068345858E+04  0.12699999809E+01 0.  1.
       -4    1    3    3    0  502  0.85689249394E+03 -0.90499531197E+03  0.17498612133E+03  0.12585320880E+04  0.12699999809E+01 0. -1.
</event>
<event>
 5   0  0.3769563E-07  0.2906662E+04  0.7818609E-02  0.8270898E-01
       -1   -1    0    0    0  501  0.00000000000E+00  0.00000000000E+00  0.11795163351E+04  0.11795163352E+04  0.50400001928E-02 0. -1.
        1   -1    0    0  501    0  0.00000000000E+00  0.00000000000E+00 -0.17907097858E+04  0.17907097858E+04  0.50400001928E-02 0.  1.
    10030    2    1    2    0    0  0.00000000000E+00  0.00000000000E+00 -0.61119345067E+03  0.29702261210E+04  0.29066623085E+04 0.  0.
        3    1    3    3  502    0 -0.66497413148E+03  0.61687962484E+03  0.85477079755E+03  0.12463403201E+04  0.10100000352E+00 0. -1.
       -3    1    3    3    0  502  0.66497413148E+03 -0.61687962484E+03 -0.14659642482E+04  0.17238858008E+04  0.10100000352E+00 0.  1.
</event>
<event>
 5   0  0.3786210E-07  0.2900370E+04  0.7818609E-02  0.8272767E-01
       -1   -1    0    0    0  501  0.00000000000E+00  0.00000000000E+00  0.17763641781E+04  0.17763641781E+04  0.50400001928E-02 0. -1.
        1   -1    0    0  501    0  0.00000000000E+00  0.00000000000E+00 -0.11838995252E+04  0.11838995252E+04  0.50400001928E-02 0.  1.
    10030    2    1    2    0    0  0.00000000000E+00  0.00000000000E+00  0.59246465286E+03  0.29602637033E+04  0.29003701192E+04 0.  0.
        5    1    3    3  502    0 -0.11122357120E+04  0.92532474022E+03  0.19560395235E+03  0.14599921747E+04  0.46999998093E+01 0.  1.
       -5    1    3    3    0  502  0.11122357120E+04 -0.92532474022E+03  0.39686070051E+03  0.15002715286E+04  0.46999998093E+01 0. -1.
</event>
<event>
 5   0  0.3770467E-07  0.2897675E+04  0.7818609E-02  0.8273570E-01
        1   -1    0    0  501    0  0.00000000000E+00  0.00000000000E+00  0.20659422408E+04  0.20659422408E+04  0.50400001928E-02 0. -1.
       -1   -1    0    0    0  501  0.00000000000E+00  0.00000000000E+00 -0.10160639627E+04  0.10160639627E+04  0.50400001928E-02 0.  1.
    10030    2    1    2    0    0  0.00000000000E+00  0.00000000000E+00  0.10498782781E+04  0.30820062035E+04  0.28976745572E+04 0.  0.
        1    1    3    3  502    0  0.54315657051E+03 -0.95356607909E+03 -0.48118660075E+03  0.11982686978E+04  0.50400001928E-02 0.  1.
       -1    1    3    3    0  502 -0.54315657051E+03  0.95356607909E+03  0.15310648788E+04  0.18837375057E+04  0.50400001928E-02 0. -1.
</event>
<event>
 5   0  0.3378750E-07  0.2900294E+04  0.7818609E-02  0.8272790E-01
       -3   -1    0    0    0  501  0.00000000000E+00  0.00000000000E+00  0.16030586530E+04  0.16030586562E+04  0.10100000352E+00 0. -1.
        3   -1    0    0  501    0  0.00000000000E+00  0.00000000000E+00 -0.13118211446E+04  0.13118211485E+04  0.10100000352E+00 0.  1.
    10030    2    1    2    0    0  0.00000000000E+00  0.00000000000E+00  0.29123750840E+03  0.29148798048E+04  0.29002939489E+04 0.  0.
        5    1    3    3  502    0 -0.11584155062E+04  0.25330036850E+03 -0.69333472141E+03  0.13736166451E+04  0.46999998093E+01 0.  1.
       -5    1    3    3    0  502  0.11584155062E+04 -0.25330036850E+03  0.98457222981E+03  0.15412631597E+04  0.46999998093E+01 0. -1.
</event>
<event>
 5   0  0.1063979E-06  0.2899739E+04  0.7818609E-02  0.8272955E-01
        2   -1    0    0  501    0  0.00000000000E+00  0.00000000000E+00  0.18776104883E+04  0.18776104883E+04  0.25500000920E-02 0. -1.
       -2   -1    0    0    0  501  0.00000000000E+00  0.00000000000E+00 -0.11195728482E+04  0.11195728482E+04  0.25500000920E-02 0.  1.
    10030    2    1    2    0    0  0.00000000000E+00  0.00000000000E+00  0.75803764011E+03  0.29971833364E+04  0.28997391069E+04 0.  0.
        1    1    3    3  502    0 -0.36323387115E+03  0.57060123884E+03 -0.94649464612E+03  0.11633472113E+04  0.50400001928E-02 0.  1.
       -1    1    3    3    0  502  0.36323387115E+03 -0.57060123884E+03  0.17045322862E+04  0.18338361251E+04  0.50400001928E-02 0. -1.
</event>
<event>
 5   0  0.3770467E-07  0.2913174E+04  0.7818609E-02  0.8268968E-01
       -1   -1    0    0    0  501  0.00000000000E+00  0.00000000000E+00  0.12489448402E+04  0.12489448403E+04  0.50400001928E-02 0. -1.
        1   -1    0    0  501    0  0.00000000000E+00  0.00000000000E+00 -0.16987510523E+04  0.16987510523E+04  0.50400001928E-02 0.  1.
    10030    2    1    2    0    0  0.00000000000E+00  0.00000000000E+00 -0.44980621204E+03  0.29476958926E+04  0.29131744621E+04 0.  0.
        1    1    3    3  502    0  0.60823997317E+02  0.12812319703E+04 -0.92329333946E+03  0.15804194098E+04  0.50400001928E-02 0.  1.
       -1    1    3    3    0  502 -0.60823997317E+02 -0.12812319703E+04  0.47348712742E+03  0.13672764827E+04  0.50400001928E-02 0. -1.
</event>
<event>
 5   0  0.1006893E-06  0.2902196E+04  0.7818609E-02  0.8272224E-01
        2   -1    0    0  501    0  0.00000000000E+00  0.00000000000E+00  0.18422769385E+04  0.18422769385E+04  0.25500000920E-02 0.  1.
       -2   -1    0    0    0  501  0.00000000000E+00  0.00000000000E+00 -0.11429798351E+04  0.11429798351E+04  0.25500000920E-02 0. -1.
    10030    2    1    2    0    0  0.00000000000E+00  0.00000000000E+00  0.69929710333E+03  0.29852567736E+04  0.29021959902E+04 0.  0.
        4    1    3    3  502    0 -0.11724128798E+04 -0.85252643411E+03  0.28195865961E+03  0.14767720136E+04  0.12699999809E+01 0. -1.
       -4    1    3    3    0  502  0.11724128798E+04  0.85252643411E+03  0.41733844373E+03  0.15084847600E+04  0.12699999809E+01 0.  1.
</event>
<event>
 5   0  0.1031339E-06  0.2862460E+04  0.7818609E-02  0.8284135E-01
        2   -1    0    0  501    0  0.00000000000E+00  0.00000000000E+00  0.16129804079E+04  0.16129804079E+04  0.25500000920E-02 0. -1.
       -2   -1    0    0    0  501  0.00000000000E+00  0.00000000000E+00 -0.12699593736E+04  0.12699593736E+04  0.25500000920E-02 0.  1.
    10030    2    1    2    0    0  0.00000000000E+00  0.00000000000E+00  0.34302103426E+03  0.28829397815E+04  0.28624601925E+04 0.  0.
        5    1    3    3  502    0 -0.57833383884E+03 -0.13080548731E+04  0.11708764592E+03  0.14349944903E+04  0.46999998093E+01 0. -1.
       -5    1    3    3    0  502  0.57833383884E+03  0.13080548731E+04  0.22593338834E+03  0.14479452912E+04  0.46999998093E+01 0.  1.
</event>
<event>
 5   0  0.3885904E-07  0.2899449E+04  0.7818609E-02  0.8273041E-01
       -1   -1    0    0    0  501  0.00000000000E+00  0.00000000000E+00  0.23420124890E+04  0.23420124890E+04  0.50400001928E-02 0. -1.
        1   -1    0    0  501    0  0.00000000000E+00  0.00000000000E+00 -0.89739125981E+03  0.89739125983E+03  0.50400001928E-02 0.  1.
    10030    2    1    2    0    0  0.00000000000E+00  0.00000000000E+00  0.14446212292E+04  0.32394037489E+04  0.28994492843E+04 0.  0.
        2    1    3    3  502    0 -0.26224373412E+02 -0.50476077141E+03 -0.79576187735E+03  0.94271316929E+03  0.25500000920E-02 0.  1.
       -2    1    3    3    0  502  0.26224373412E+02  0.50476077141E+03  0.22403831066E+04  0.22966905796E+04  0.25500000920E-02 0. -1.
</event>
<event>
 5   0  0.3770467E-07  0.2898474E+04  0.7818609E-02  0.8273332E-01
       -1   -1    0    0    0  501  0.00000000000E+00  0.00000000000E+00  0.14008762557E+04  0.14008762557E+04  0.50400001928E-02 0.  1.
        1   -1    0    0  501    0  0.00000000000E+00  0.00000000000E+00 -0.14992675225E+04  0.14992675225E+04  0.50400001928E-02 0. -1.
    10030    2    1    2    0    0  0.00000000000E+00  0.00000000000E+00 -0.98391266846E+02  0.29001437782E+04  0.28984742698E+04 0.  0.
        1    1    3    3  502    0  0.13233047509E+03  0.33349871697E+03 -0.14541253089E+04  0.14977360124E+04  0.50400001928E-02 0. -1.
       -1    1    3    3    0  502 -0.13233047509E+03 -0.33349871697E+03  0.13557340420E+04  0.14024077658E+04  0.50400001928E-02 0.  1.
</event>
<event>
 5   0  0.9994311E-07  0.2910921E+04  0.7818609E-02  0.8269636E-01
        2   -1    0    0  501    0  0.00000000000E+00  0.00000000000E+00  0.11585926596E+04  0.11585926596E+04  0.25500000920E-02 0.  1.
       -2   -1    0    0    0  501  0.00000000000E+00  0.00000000000E+00 -0.18283953817E+04  0.18283953817E+04  0.25500000920E-02 0. -1.
    10030    2    1    2    0    0  0.00000000000E+00  0.00000000000E+00 -0.66980272211E+03  0.29869880414E+04  0.29109211382E+04 0.  0.
        2    1    3    3  502    0  0.70251121096E+03  0.39539354509E+03  0.90858525546E+03  0.12146543638E+04  0.25500000920E-02 0.  1.
       -2    1    3    3    0  502 -0.70251121096E+03 -0.39539354509E+03 -0.15783879776E+04  0.17723336776E+04  0.25500000920E-02 0. -1.
</event>
<event>
 5   0  0.3769563E-07  0.2955488E+04  0.7818609E-02  0.8256557E-01
       -1   -1    0    0    0  501  0.00000000000E+00  0.00000000000E+00  0.13732622936E+04  0.13732622936E+04  0.50400001928E-02 0. -1.
        1   -1    0    0  501    0  0.00000000000E+00  0.00000000000E+00 -0.15901754592E+04  0.15901754592E+04  0.50400001928E-02 0.  1.
    10030    2    1    2    0    0  0.00000000000E+00  0.00000000000E+00 -0.21691316556E+03  0.29634377528E+04  0.29554884526E+04 0.  0.
        3    1    3    3  502    0 -0.25915203521E+02 -0.86032957114E+02 -0.15874339537E+04  0.15899747907E+04  0.10100000352E+00 0.  1.
       -3    1    3    3    0  502  0.25915203521E+02  0.86032957114E+02  0.13705207881E+04  0.13734629621E+04  0.10100000352E+00 0. -1.
</event>
<event>
 5   0  0.3769563E-07  0.2901952E+04  0.7818609E-02  0.8272297E-01
       -1   -1    0    0    0  501  0.00000000000E+00  0.00000000000E+00  0.65604280087E+03  0.65604280089E+03  0.50400001928E-02 0.  1.
        1   -1    0    0  501    0  0.00000000000E+00  0.00000000000E+00 -0.32091379403E+04  0.32091379403E+04  0.50400001928E-02 0. -1.
    10030    2    1    2    0    0  0.00000000000E+00  0.00000000000E+00 -0.25530951395E+04  0.38651807412E+04  0.29019523379E+04 0.  0.
        3    1    3    3  502    0  0.88133974365E+02  0.84450641823E+03 -0.28436815035E+04  0.29677404184E+04  0.10100000352E+00 0. -1.
       -3    1    3    3    0  502 -0.88133974365E+02 -0.84450641823E+03  0.29058636398E+03  0.89744032281E+03  0.10100000352E+00 0.  1.
</event>
<event>
 5   0  0.9994311E-07  0.2898757E+04  0.7818609E-02  0.8273247E-01
       -2   -1    0    0    0  501  0.00000000000E+00  0.00000000000E+00  0.13738322161E+04  0.13738322161E+04  0.25500000920E-02 0.  1.
        2   -1    0    0  501    0  0.00000000000E+00  0.00000000000E+00 -0.15290786885E+04  0.15290786885E+04  0.25500000920E-02 0. -1.
    10030    2    1    2    0    0  0.00000000000E+00  0.00000000000E+00 -0.15524647246E+03  0.29029109046E+04  0.28987566737E+04 0.  0.
        2    1    3    3  502    0  0.60523041695E+03 -0.12464201659E+04 -0.50347432067E+03  0.14742297919E+04  0.25500000920E-02 0.  1.
       -2    1    3    3    0  502 -0.60523041695E+03  0.12464201659E+04  0.34822784820E+03  0.14286811128E+04  0.25500000920E-02 0. -1.
</event>
<event>
 5   0  0.3786210E-07  0.2893737E+04  0.7818609E-02  0.8274743E-01
        1   -1    0    0  501    0  0.00000000000E+00  0.00000000000E+00  0.20580647020E+04  0.20580647020E+04  0.50400001928E-02 0. -1.
       -1   -1    0    0    0  501  0.00000000000E+00  0.00000000000E+00 -0.10171830718E+04  0.10171830718E+04  0.50400001928E-02 0.  1.
    10030    2    1    2    0    0  0.00000000000E+00  0.00000000000E+00  0.10408816301E+04  0.30752477738E+04  0.28937370824E+04 0.  0.
        5    1    3    3  502    0  0.82509317985E+03 -0.64887732508E+03 -0.53780418380E+03  0.11794388363E+04  0.46999998093E+01 0.  1.
       -5    1    3    3    0  502 -0.82509317985E+03  0.64887732508E+03  0.15786858139E+04  0.18958089375E+04  0.46999998093E+01 0. -1.
</event>
<event>
 5   0  0.9950999E-07  0.2895627E+04  0.7818609E-02  0.8274180E-01
        2   -1    0    0  501    0  0.00000000000E+00  0.00000000000E+00  0.73678025034E+03  0.73678025035E+03  0.25500000920E-02 0. -1.
       -2   -1    0    0    0  501  0.00000000000E+00  0.00000000000E+00 -0.28450318217E+04  0.28450318217E+04  0.25500000920E-02 0.  1.
    10030    2    1    2    0    0  0.00000000000E+00  0.00000000000E+00 -0.21082515714E+04  0.35818120721E+04  0.28956265352E+04 0.  0.
        3    1    3    3  502    0 -0.66132663179E+02 -0.10594223951E+04  0.16378330177E+03  0.10740457721E+04  0.10100000352E+00 0. -1.
       -3    1    3    3    0  502  0.66132663179E+02  0.10594223951E+04 -0.22720348732E+04  0.25077663000E+04  0.10100000352E+00 0.  1.
</event>
<event>
 5   0  0.9950999E-07  0.2900732E+04  0.7818609E-02  0.8272660E-01
       -2   -1    0    0    0  501  0.00000000000E+00  0.00000000000E+00  0.12382643681E+04  0.12382643681E+04  0.25500000920E-02 0. -1.
        2   -1    0    0  501    0  0.00000000000E+00  0.00000000000E+00 -0.16987982082E+04  0.16987982082E+04  0.25500000920E-02 0.  1.
    10030    2    1    2    0    0  0.00000000000E+00  0.00000000000E+00 -0.46053384013E+03  0.29370625763E+04  0.29007318317E+04 0.  0.
        3    1    3    3  502    0 -0.15932845760E+03  0.49391165514E+03 -0.16015659213E+04  0.16835521053E+04  0.10100000352E+00 0.  1.
       -3    1    3    3    0  502  0.15932845760E+03 -0.49391165514E+03  0.11410320812E+04  0.12535104711E+04  0.10100000352E+00 0. -1.
</event>
<event>
 5   0  0.9994311E-07  0.2904221E+04  0.7818609E-02  0.8271623E-01
        2   -1    0    0  501    0  0.00000000000E+00  0.00000000000E+00  0.18395554544E+04  0.18395554544E+04  0.25500000920E-02 0.  1.
       -2   -1    0    0    0  501  0.00000000000E+00  0.00000000000E+00 -0.11462685034E+04  0.11462685034E+04  0.25500000920E-02 0. -1.
    10030    2    1    2    0    0  0.00000000000E+00  0.00000000000E+00  0.69328695108E+03  0.29858239578E+04  0.29042207062E+04 0.  0.
        2    1    3    3  502    0  0.12477725321E+04  0.57487990755E+03  0.83017901123E+03  0.16051854692E+04  0.25500000920E-02 0.  1.
       -2    1    3    3    0  502 -0.12477725321E+04 -0.57487990755E+03 -0.13689206015E+03  0.13806384886E+04  0.25500000920E-02 0. -1.
</event>
<event>
 5   0  0.3638028E-07  0.2897416E+04  0.7818609E-02  0.8273647E-01
       -1   -1    0    0    0  501  0.00000000000E+00  0.00000000000E+00  0.80688966770E+03  0.80688966772E+03  0.50400001928E-02 0. -1.
        1   -1    0    0  501    0  0.00000000000E+00  0.00000000000E+00 -0.26010437879E+04  0.26010437879E+04  0.50400001928E-02 0.  1.
    10030    2    1    2    0    0  0.00000000000E+00  0.00000000000E+00 -0.17941541202E+04  0.34079334556E+04  0.28974163372E+04 0.  0.
        4    1    3    3  502    0 -0.34262038750E+03 -0.13926031577E+04 -0.65596675654E+03  0.15770308442E+04  0.12699999809E+01 0.  1.
       -4    1    3    3    0  502  0.34262038750E+03  0.13926031577E+04 -0.11381873637E+04  0.18309026114E+04  0.12699999809E+01 0. -1.
</event>
<event>
 5   0  0.1063979E-06  0.2907802E+04  0.7818609E-02  0.8270560E-01
       -2   -1    0    0    0  501  0.00000000000E+00  0.00000000000E+00  0.13597695078E+04  0.13597695078E+04  0.25500000920E-02 0.  1.
        2   -1    0    0  501    0  0.00000000000E+00  0.00000000000E+00 -0.15545490859E+04  0.15545490859E+04  0.25500000920E-02 0. -1.
    10030    2    1    2    0    0  0.00000000000E+00  0.00000000000E+00 -0.19477957810E+03  0.29143185937E+04  0.29078022253E+04 0.  0.
        1    1    3    3  502    0  0.12846861586E+04  0.24542372547E+03  0.53899545148E+03  0.14146262502E+04  0.50400001928E-02 0.  1.
       -1    1    3    3    0  502 -0.12846861586E+04 -0.24542372547E+03 -0.73377502958E+03  0.14996923435E+04  0.50400001928E-02 0. -1.
</event>
<event>
 5   0  0.9994311E-07  0.2899731E+04  0.7818609E-02  0.8272957E-01
        2   -1    0    0  501    0  0.00000000000E+00  0.00000000000E+00  0.20464308075E+04  0.20464308075E+04  0.25500000920E-02 0. -1.
       -2   -1    0    0    0  501  0.00000000000E+00  0.00000000000E+00 -0.10272080972E+04  0.10272080972E+04  0.25500000920E-02 0.  1.
    10030    2    1    2    0    0  0.00000000000E+00  0.00000000000E+00  0.10192227104E+04  0.30736389047E+04  0.28997312260E+04 0.  0.
        2    1    3    3  502    0  0.12722411965E+04  0.50176346945E+03  0.10198828095E+04  0.17060261389E+04  0.25500000920E-02 0. -1.
       -2    1    3    3    0  502 -0.12722411965E+04 -0.50176346945E+03 -0.66009911125E+00  0.13676127658E+04  0.25500000920E-02 0.  1.
</event>
<event>
 5   0  0.1006893E-06  0.2901787E+04  0.7818609E-02  0.8272346E-01
       -2   -1    0    0    0  501  0.00000000000E+00  0.00000000000E+00  0.11134928362E+04  0.11134928362E+04  0.25500000920E-02 0. -1.
        2   -1    0    0  501    0  0.00000000000E+00  0.00000000000E+00 -0.18905296610E+04  0.18905296610E+04  0.25500000920E-02 0.  1.
    10030    2    1    2    0    0  0.00000000000E+00  0.00000000000E+00 -0.77703682487E+03  0.30040224972E+04  0.29017865077E+04 0.  0.
        4    1    3    3  502    0 -0.76320495668E+03  0.43427569165E+03 -0.15842058416E+04  0.18112942730E+04  0.12699999809E+01 0.  1.
       -4    1    3    3    0  502  0.76320495668E+03 -0.43427569165E+03  0.80716901669E+03  0.11927282241E+04  0.12699999809E+01 0. -1.
</event>
<event>
 5   0  0.9950999E-07  0.2897483E+04  0.7818609E-02  0.8273627E-01
       -2   -1    0    0    0  501  0.00000000000E+00  0.00000000000E+00  0.17929471781E+04  0.17929471781E+04  0.25500000920E-02 0.  1.
        2   -1    0    0  501    0  0.00000000000E+00  0.00000000000E+00 -0.11706155293E+04  0.11706155293E+04  0.25500000920E-02 0. -1.
    10030    2    1    2    0    0  0.00000000000E+00  0.00000000000E+00  0.62233164878E+03  0.29635627074E+04  0.28974829145E+04 0.  0.
        3    1    3    3  502    0  0.56888901193E+03  0.41136728268E+03 -0.98501383953E+03  0.12095908496E+04  0.10100000352E+00 0. -1.
       -3    1    3    3    0  502 -0.56888901193E+03 -0.41136728268E+03  0.16073454883E+04  0.17539718579E+04  0.10100000352E+00 0.  1.
</event>
<event>
 5   0  0.3885904E-07  0.2900576E+04  0.7818609E-02  0.8272706E-01
       -1   -1    0    0    0  501  0.00000000000E+00  0.00000000000E+00  0.18486856483E+04  0.18486856483E+04  0.50400001928E-02 0.  1.
        1   -1    0    0  501    0  0.00000000000E+00  0.00000000000E+00 -0.11377459360E+04  0.11377459360E+04  0.50400001928E-02 0. -1.
    10030    2    1    2    0    0  0.00000000000E+00  0.00000000000E+00  0.71093971228E+03  0.29864315843E+04  0.29005755175E+04 0.  0.
        2    1    3    3  502    0  0.11668630066E+04  0.59004903602E+03  0.10014215534E+04  0.16469888490E+04  0.25500000920E-02 0.  1.
       -2    1    3    3    0  502 -0.11668630066E+04 -0.59004903602E+03 -0.29048184117E+03  0.13394427353E+04  0.25500000920E-02 0. -1.
</event>
<event>
 5   0  0.1063979E-06  0.2894182E+04  0.7818609E-02  0.8274610E-01
       -2   -1    0    0    0  501  0.00000000000E+00  0.00000000000E+00  0.74941265643E+03  0.74941265644E+03  0.25500000920E-02 0. -1.
        2   -1    0    0  501    0  0.00000000000E+00  0.00000000000E+00 -0.27942854091E+04  0.27942854091E+04  0.25500000920E-02 0.  1.
    10030    2    1    2    0    0  0.00000000000E+00  0.00000000000E+00 -0.20448727527E+04  0.35436980655E+04  0.28941823379E+04 0.  0.
        1    1    3    3  502    0 -0.11409732609E+04  0.80178274442E+03 -0.14956989889E+04  0.20449427906E+04  0.50400001928E-02 0. -1.
       -1    1    3    3    0  502  0.11409732609E+04 -0.80178274442E+03 -0.54917376373E+03  0.14987552749E+04  0.50400001928E-02 0.  1.
</event>
<event>
 5   0  0.1006893E-06  0.2892233E+04  0.7818609E-02  0.8275192E-01
        2   -1    0    0  501    0  0.00000000000E+00  0.00000000000E+00  0.10794423077E+04  0.10794423077E+04  0.25500000920E-02 0.  1.
       -2   -1    0    0    0  501  0.00000000000E+00  0.00000000000E+00 -0.19373458971E+04  0.19373458971E+04  0.25500000920E-02 0. -1.
    10030    2    1    2    0    0  0.00000000000E+00  0.00000000000E+00 -0.85790358939E+03  0.30167882049E+04  0.28922331345E+04 0.  0.
        4    1    3    3  502    0 -0.93662787606E+03  0.95744093031E+03  0.13976910877E+03  0.13466632578E+04  0.12699999809E+01 0.  1.
       -4    1    3    3    0  502  0.93662787606E+03 -0.95744093031E+03 -0.99767269816E+03  0.16701249471E+04  0.12699999809E+01 0. -1.
</event>
<event>
 5   0  0.3770467E-07  0.2896773E+04  0.7818609E-02  0.8273838E-01
       -1   -1    0    0    0  501  0.00000000000E+00  0.00000000000E+00  0.14263958918E+04  0.14263958919E+04  0.50400001928E-02 0.  1.
        1   -1    0    0  501    0  0.00000000000E+00  0.00000000000E+00 -0.14707166267E+04  0.14707166268E+04  0.50400001928E-02 0. -1.
    10030    2    1    2    0    0  0.00000000000E+00  0.00000000000E+00 -0.44320734900E+02  0.28971125186E+04  0.28967734841E+04 0.  0.
        1    1    3    3  502    0  0.76489586594E+03 -0.87241373184E+03  0.84492019653E+03  0.14352914491E+04  0.50400001928E-02 0.  1.
       -1    1    3    3    0  502 -0.76489586594E+03  0.87241373184E+03 -0.88924093143E+03  0.14618210695E+04  0.50400001928E-02 0. -1.
</event>
<event>
 5   0  0.3885904E-07  0.2904429E+04  0.7818609E-02  0.8271561E-01
       -1   -1    0    0    0  501  0.00000000000E+00  0.00000000000E+00  0.17730200991E+04  0.17730200991E+04  0.50400001928E-02 0.  1.
        1   -1    0    0  501    0  0.00000000000E+00  0.00000000000E+00 -0.11894547738E+04  0.11894547738E+04  0.50400001928E-02 0. -1.
    10030    2    1    2    0    0  0.00000000000E+00  0.00000000000E+00  0.58356532537E+03  0.29624748729E+04  0.29044291838E+04 0.  0.
        2    1    3    3  502    0  0.10219036535E+04 -0.78957989465E+03 -0.38572384808E+03  0.13477783104E+04  0.25500000920E-02 0. -1.
       -2    1    3    3    0  502 -0.10219036535E+04  0.78957989465E+03  0.96928917345E+03  0.16146965625E+04  0.25500000920E-02 0.  1.
</event>
<event>
 5   0  0.3786210E-07  0.2900058E+04  0.7818609E-02  0.8272860E-01
       -1   -1    0    0    0  501  0.00000000000E+00  0.00000000000E+00  0.10598032864E+04  0.10598032864E+04  0.50400001928E-02 0.  1.
        1   -1    0    0  501    0  0.00000000000E+00  0.00000000000E+00 -0.19839384966E+04  0.19839384967E+04  0.50400001928E-02 0. -1.
    10030    2    1    2    0    0  0.00000000000E+00  0.00000000000E+00 -0.92413521021E+03  0.30437417831E+04  0.29000583021E+04 0.  0.
        5    1    3    3  502    0 -0.11675613348E+04 -0.75426805397E+03 -0.89536916837E+03  0.16534291050E+04  0.46999998093E+01 0. -1.
       -5    1    3    3    0  502  0.11675613348E+04  0.75426805397E+03 -0.28766041846E+02  0.13903126781E+04  0.46999998093E+01 0.  1.
</event>
<event>
 5   0  0.3378750E-07  0.2899404E+04  0.7818609E-02  0.8273055E-01
        3   -1    0    0  501    0  0.00000000000E+00  0.00000000000E+00  0.14938432501E+04  0.14938432535E+04  0.10100000352E+00 0.  1.
       -3   -1    0    0    0  501  0.00000000000E+00  0.00000000000E+00 -0.14068652606E+04  0.14068652642E+04  0.10100000352E+00 0. -1.
    10030    2    1    2    0    0  0.00000000000E+00  0.00000000000E+00  0.86977989509E+02  0.29007085178E+04  0.28994042033E+04 0.  0.
        3    1    3    3  502    0 -0.48860058837E+03 -0.78403553438E+02  0.14067312494E+04  0.14912311928E+04  0.10100000352E+00 0.  1.
       -3    1    3    3    0  502  0.48860058837E+03  0.78403553438E+02 -0.13197532599E+04  0.14094773249E+04  0.10100000352E+00 0. -1.
</event>
<event>
 5   0  0.3769563E-07  0.2895961E+04  0.7818609E-02  0.8274080E-01
        1   -1    0    0  501    0  0.00000000000E+00  0.00000000000E+00  0.12590686510E+04  0.12590686510E+04  0.50400001928E-02 0. -1.
       -1   -1    0    0    0  501  0.00000000000E+00  0.00000000000E+00 -0.16652367645E+04  0.16652367645E+04  0.50400001928E-02 0.  1.
    10030    2    1    2    0    0  0.00000000000E+00  0.00000000000E+00 -0.40616811352E+03  0.29243054155E+04  0.28959609160E+04 0.  0.
        3    1    3    3  502    0 -0.46130981069E+03 -0.71633277355E+03  0.97914739216E+03  0.12979479996E+04  0.10100000352E+00 0. -1.
       -3    1    3    3    0  502  0.46130981069E+03  0.71633277355E+03 -0.13853155057E+04  0.16263574159E+04  0.10100000352E+00 0.  1.
</event>
<event>
 5   0  0.1006893E-06  0.2877485E+04  0.7818609E-02  0.8279608E-01
       -2   -1    0    0    0  501  0.00000000000E+00  0.00000000000E+00  0.77762668102E+03  0.77762668102E+03  0.25500000920E-02 0.  1.
        2   -1    0    0  501    0  0.00000000000E+00  0.00000000000E+00 -0.26619191854E+04  0.26619191854E+04  0.25500000920E-02 0. -1.
    10030    2    1    2    0    0  0.00000000000E+00  0.00000000000E+00 -0.18842925044E+04  0.34395458664E+04  0.28774845829E+04 0.  0.
        4    1    3    3  502    0  0.28005976195E+03 -0.14017819211E+04 -0.11369218854E+04  0.18264772133E+04  0.12699999809E+01 0.  1.
       -4    1    3    3    0  502 -0.28005976195E+03  0.14017819211E+04 -0.74737061900E+03  0.16130686531E+04  0.12699999809E+01 0. -1.
</event>
<event>
 5   0  0.3770467E-07  0.2903095E+04  0.7818609E-02  0.8271957E-01
       -1   -1    0    0    0  501  0.00000000000E+00  0.00000000000E+00  0.96579440486E+03  0.96579440487E+03  0.50400001928E-02 0. -1.
        1   -1    0    0  501    0  0.00000000000E+00  0.00000000000E+00 -0.21816135795E+04  0.21816135796E+04  0.50400001928E-02 0.  1.
    10030    2    1    2    0    0  0.00000000000E+00  0.00000000000E+00 -0.12158191747E+04  0.31474079844E+04  0.29030950303E+04 0.  0.
        1    1    3    3  502    0  0.12857365502E+04  0.28441117591E+03 -0.12700280893E+04  0.18294752092E+04  0.50400001928E-02 0.  1.
       -1    1    3    3    0  502 -0.12857365502E+04 -0.28441117591E+03  0.54208914604E+02  0.13179327752E+04  0.50400001928E-02 0. -1.
</event>
<event>
 5   0  0.1031339E-06  0.2915346E+04  0.7818609E-02  0.8268326E-01
       -2   -1    0    0    0  501  0.00000000000E+00  0.00000000000E+00  0.10635645547E+04  0.10635645547E+04  0.25500000920E-02 0.  1.
        2   -1    0    0  501    0  0.00000000000E+00  0.00000000000E+00 -0.19978198007E+04  0.19978198007E+04  0.25500000920E-02 0. -1.
    10030    2    1    2    0    0  0.00000000000E+00  0.00000000000E+00 -0.93425524602E+03  0.30613843555E+04  0.29153458298E+04 0.  0.
        5    1    3    3  502    0 -0.11855652552E+04  0.30396326942E+03  0.36425802769E+03  0.12769748017E+04  0.46999998093E+01 0.  1.
       -5    1    3    3    0  502  0.11855652552E+04 -0.30396326942E+03 -0.12985132737E+04  0.17844095537E+04  0.46999998093E+01 0. -1.
</event>
<event>
 5   0  0.1031339E-06  0.2905967E+04  0.7818609E-02  0.8271104E-01
       -2   -1    0    0    0  501  0.00000000000E+00  0.00000000000E+00  0.11720963393E+04  0.11720963393E+04  0.25500000920E-02 0.  1.
        2   -1    0    0  501    0  0.00000000000E+00  0.00000000000E+00 -0.18011836038E+04  0.18011836038E+04  0.25500000920E-02 0. -1.
    10030    2    1    2    0    0  0.00000000000E+00  0.00000000000E+00 -0.62908726458E+03  0.29732799431E+04  0.29059667640E+04 0.  0.
        5    1    3    3  502    0  0.23770958190E+03 -0.69583441570E+03  0.96765950010E+03  0.12153511334E+04  0.46999998093E+01 0.  1.
       -5    1    3    3    0  502 -0.23770958190E+03  0.69583441570E+03 -0.15967467647E+04  0.17579288097E+04  0.46999998093E+01 0. -1.
</event>
<event>
 5   0  0.1031339E-06  0.2888384E+04  0.7818609E-02  0.8276342E-01
        2   -1    0    0  501    0  0.00000000000E+00  0.00000000000E+00  0.19075678271E+04  0.19075678271E+04  0.25500000920E-02 0.  1.
       -2   -1    0    0    0  501  0.00000000000E+00  0.00000000000E+00 -0.10933768518E+04  0.10933768518E+04  0.25500000920E-02 0. -1.
    10030    2    1    2    0    0  0.00000000000E+00  0.00000000000E+00  0.81419097531E+03  0.30009446789E+04  0.28883839810E+04 0.  0.
        5    1    3    3  502    0 -0.30873170524E+03 -0.55235749707E+03  0.17558589407E+04  0.18664074528E+04  0.46999998093E+01 0.  1.
       -5    1    3    3    0  502  0.30873170524E+03  0.55235749707E+03 -0.94166796536E+03  0.11345372261E+04  0.46999998093E+01 0. -1.
</event>
<event>
 5   0  0.9994311E-07  0.2897995E+04  0.7818609E-02  0.8273474E-01
       -2   -1    0    0    0  501  0.00000000000E+00  0.00000000000E+00  0.16519005955E+04  0.16519005955E+04  0.25500000920E-02 0.  1.
        2   -1    0    0  501    0  0.00000000000E+00  0.00000000000E+00 -0.12710167715E+04  0.12710167715E+04  0.25500000920E-02 0. -1.
    10030    2    1    2    0    0  0.00000000000E+00  0.00000000000E+00  0.38088382400E+03  0.29229173670E+04  0.28979947286E+04 0.  0.
        2    1    3    3  502    0 -0.66559490564E+03 -0.10891509626E+03 -0.11030513740E+04  0.12929042541E+04  0.25500000920E-02 0. -1.
       -2    1    3    3    0  502  0.66559490564E+03  0.10891509626E+03  0.14839351980E+04  0.16300131129E+04  0.25500000920E-02 0.  1.
</event>
<event>
 5   0  0.3638028E-07  0.2899189E+04  0.7818609E-02  0.8273119E-01
       -1   -1    0    0    0  501  0.00000000000E+00  0.00000000000E+00  0.11736381172E+04  0.11736381172E+04  0.50400001928E-02 0. -1.
        1   -1    0    0  501    0  0.00000000000E+00  0.00000000000E+00 -0.17904367619E+04  0.17904367619E+04  0.50400001928E-02 0.  1.
    10030    2    1    2    0    0  0.00000000000E+00  0.00000000000E+00 -0.61679864469E+03  0.29640748791E+04  0.28991894248E+04 0.  0.
        4    1    3    3  502    0 -0.13913290869E+04  0.24682383098E+03 -0.63906410328E+03  0.15508459539E+04  0.12699999809E+01 0.  1.
       -4    1    3    3    0  502  0.13913290869E+04 -0.24682383098E+03  0.22265458596E+02  0.14132289253E+04  0.12699999809E+01 0. -1.
</event>
<event>
 5   0  0.1063979E-06  0.2896807E+04  0.7818609E-02  0.8273828E-01
        2   -1    0    0  501    0  0.00000000000E+00  0.00000000000E+00  0.24004610800E+04  0.24004610800E+04  0.25500000920E-02 0. -1.
       -2   -1    0    0    0  501  0.00000000000E+00  0.00000000000E+00 -0.87394558177E+03  0.87394558177E+03  0.25500000920E-02 0.  1.
    10030    2    1    2    0    0  0.00000000000E+00  0.00000000000E+00  0.15265154983E+04  0.32744066618E+04  0.28968067627E+04 0.  0.
        1    1    3    3  502    0 -0.11628235517E+04  0.73235481353E+03  0.24604348693E+03  0.13960800775E+04  0.50400001928E-02 0.  1.
       -1    1    3    3    0  502  0.11628235517E+04 -0.73235481353E+03  0.12804720113E+04  0.18783265843E+04  0.50400001928E-02 0. -1.
</event>
<event>
 5   0  0.1031339E-06  0.2901078E+04  0.7818609E-02  0.8272557E-01
        2   -1    0    0  501    0  0.00000000000E+00  0.00000000000E+00  0.81187937130E+03  0.81187937130E+03  0.25500000920E-02 0.  1.
       -2   -1    0    0    0  501  0.00000000000E+00  0.00000000000E+00 -0.25915955370E+04  0.25915955370E+04  0.25500000920E-02 0. -1.
    10030    2    1    2    0    0  0.00000000000E+00  0.00000000000E+00 -0.17797161657E+04  0.34034749083E+04  0.29010776999E+04 0.  0.
        5    1    3    3  502    0 -0.54634638754E+03 -0.12485370049E+04 -0.30715222426E+03  0.13970338602E+04  0.46999998093E+01 0.  1.
       -5    1    3    3    0  502  0.54634638754E+03  0.12485370049E+04 -0.14725639414E+04  0.20064410480E+04  0.46999998093E+01 0. -1.
</event>
<event>
 5   0  0.1006893E-06  0.2897488E+04  0.7818609E-02  0.8273625E-01
       -2   -1    0    0    0  501  0.00000000000E+00  0.00000000000E+00  0.11307981835E+04  0.11307981835E+04  0.25500000920E-02 0. -1.
        2   -1    0    0  501    0  0.00000000000E+00  0.00000000000E+00 -0.18560865912E+04  0.18560865912E+04  0.25500000920E-02 0.  1.
    10030    2    1    2    0    0  0.00000000000E+00  0.00000000000E+00 -0.72528840775E+03  0.29868847747E+04  0.28974881161E+04 0.  0.
        4    1    3    3  502    0 -0.33600009777E+03 -0.14068757050E+04 -0.27850222162E+03  0.14730106637E+04  0.12699999809E+01 0. -1.
       -4    1    3    3    0  502  0.33600009777E+03  0.14068757050E+04 -0.44678618612E+03  0.15138741110E+04  0.12699999809E+01 0.  1.
</event>
<event>
 5   0  0.9950999E-07  0.2902155E+04  0.7818609E-02  0.8272237E-01
       -2   -1    0    0    0  501  0.00000000000E+00  0.00000000000E+00  0.12758596262E+04  0.12758596262E+04  0.25500000920E-02 0.  1.
        2   -1    0    0  501    0  0.00000000000E+00  0.00000000000E+00 -0.16503584668E+04  0.16503584668E+04  0.25500000920E-02 0. -1.
    10030    2    1    2    0    0  0.00000000000E+00  0.00000000000E+00 -0.37449884054E+03  0.29262180930E+04  0.29021548798E+04 0.  0.
        3    1    3    3  502    0  0.80100429209E+03 -0.10923734001E+04 -0.71188879079E+03  0.15302526529E+04  0.10100000352E+00 0. -1.
       -3    1    3    3    0  502 -0.80100429209E+03  0.10923734001E+04  0.33738995025E+03  0.13959654401E+04  0.10100000352E+00 0.  1.
</event>
<event>
 5   0  0.1031339E-06  0.2899150E+04  0.7818609E-02  0.8273130E-01
       -2   -1    0    0    0  501  0.00000000000E+00  0.00000000000E+00  0.12990176337E+04  0.12990176337E+04  0.25500000920E-02 0. -1.
        2   -1    0    0  501    0  0.00000000000E+00  0.00000000000E+00 -0.16175822512E+04  0.16175822512E+04  0.25500000920E-02 0.  1.
    10030    2    1    2    0    0  0.00000000000E+00  0.00000000000E+00 -0.31856461747E+03  0.29165998849E+04  0.28991501294E+04 0.  0.
        5    1    3    3  502    0 -0.17039611824E+03 -0.49565283889E+03  0.12003474075E+04  0.13097948552E+04  0.46999998093E+01 0. -1.
       -5    1    3    3    0  502  0.17039611824E+03  0.49565283889E+03 -0.15189120250E+04  0.16068050297E+04  0.46999998093E+01 0.  1.
</event>
<event>
 5   0  0.3638028E-07  0.2904149E+04  0.7818609E-02  0.8271644E-01
       -1   -1    0    0    0  501  0.00000000000E+00  0.00000000000E+00  0.75667143527E+03  0.75667143529E+03  0.50400001928E-02 0. -1.
        1   -1    0    0  501    0  0.00000000000E+00  0.00000000000E+00 -0.27865726467E+04  0.27865726467E+04  0.50400001928E-02 0.  1.
    10030    2    1    2    0    0  0.00000000000E+00  0.00000000000E+00 -0.20299012114E+04  0.35432440819E+04  0.29041487042E+04 0.  0.
        4    1    3    3  502    0  0.10472990046E+04  0.37007481269E+03 -0.21560373746E+04  0.24253431398E+04  0.12699999809E+01 0.  1.
       -4    1    3    3    0  502 -0.10472990046E+04 -0.37007481269E+03  0.12613616321E+03  0.11179009422E+04  0.12699999809E+01 0. -1.
</event>
<event>
 5   0  0.3769563E-07  0.2881764E+04  0.7818609E-02  0.8278324E-01
       -1   -1    0    0    0  501  0.00000000000E+00  0.00000000000E+00  0.11318634006E+04  0.11318634007E+04  0.50400001928E-02 0.  1.
        1   -1    0    0  501    0  0.00000000000E+00  0.00000000000E+00 -0.18342681449E+04  0.18342681449E+04  0.50400001928E-02 0. -1.
    10030    2    1    2    0    0  0.00000000000E+00  0.00000000000E+00 -0.70240474423E+03  0.29661315456E+04  0.28817640293E+04 0.  0.
        3    1    3    3  502    0  0.45970547158E+02  0.14397152462E+04 -0.31484561830E+03  0.14744561896E+04  0.10100000352E+00 0.  1.
       -3    1    3    3    0  502 -0.45970547158E+02 -0.14397152462E+04 -0.38755912593E+03  0.14916753560E+04  0.10100000352E+00 0. -1.
</event>
<event>
 5   0  0.3786210E-07  0.2872376E+04  0.7818609E-02  0.8281144E-01
       -1   -1    0    0    0  501  0.00000000000E+00  0.00000000000E+00  0.99714468492E+03  0.99714468494E+03  0.50400001928E-02 0.  1.
        1   -1    0    0  501    0  0.00000000000E+00  0.00000000000E+00 -0.20685426421E+04  0.20685426421E+04  0.50400001928E-02 0. -1.
    10030    2    1    2    0    0  0.00000000000E+00  0.00000000000E+00 -0.10713979572E+04  0.30656873271E+04  0.28723762296E+04 0.  0.
        5    1    3    3  502    0 -0.37421027513E+03  0.13527802865E+04 -0.86042206698E+03  0.16463280527E+04  0.46999998093E+01 0.  1.
       -5    1    3    3    0  502  0.37421027513E+03 -0.13527802865E+04 -0.21097589022E+03  0.14193592744E+04  0.46999998093E+01 0. -1.
</event>
<event>
 5   0  0.1063979E-06  0.2898463E+04  0.7818609E-02  0.8273335E-01
        2   -1    0    0  501    0  0.00000000000E+00  0.00000000000E+00  0.71744624369E+03  0.71744624370E+03  0.25500000920E-02 0. -1.
       -2   -1    0    0    0  501  0.00000000000E+00  0.00000000000E+00 -0.29274275711E+04  0.29274275711E+04  0.25500000920E-02 0.  1.
    10030    2    1    2    0    0  0.00000000000E+00  0.00000000000E+00 -0.22099813274E+04  0.36448738148E+04  0.28984629820E+04 0.  0.
        1    1    3    3  502    0 -0.11852936773E+03  0.31516170518E+03 -0.28775561373E+04  0.28971892300E+04  0.50400001928E-02 0.  1.
       -1    1    3    3    0  502  0.11852936773E+03 -0.31516170518E+03  0.66757480989E+03  0.74768458474E+03  0.50400001928E-02 0. -1.
</event>
<event>
 5   0  0.1031339E-06  0.2904382E+04  0.7818609E-02  0.8271575E-01
       -2   -1    0    0    0  501  0.00000000000E+00  0.00000000000E+00  0.96808158277E+03  0.96808158277E+03  0.25500000920E-02 0.  1.
        2   -1    0    0  501    0  0.00000000000E+00  0.00000000000E+00 -0.21783895783E+04  0.21783895783E+04  0.25500000920E-02 0. -1.
    10030    2    1    2    0    0  0.00000000000E+00  0.00000000000E+00 -0.12103079955E+04  0.31464711611E+04  0.29043820898E+04 0.  0.
        5    1    3    3  502    0  0.14423974714E+04 -0.14096980938E+03 -0.70476233463E+03  0.16115504928E+04  0.46999998093E+01 0. -1.
       -5    1    3    3    0  502 -0.14423974714E+04  0.14096980938E+03 -0.50554566092E+03  0.15349206683E+04  0.46999998093E+01 0.  1.
</event>
<event>
 5   0  0.3786210E-07  0.2902696E+04  0.7818609E-02  0.8272076E-01
       -1   -1    0    0    0  501  0.00000000000E+00  0.00000000000E+00  0.13233719185E+04  0.13233719185E+04  0.50400001928E-02 0. -1.
        1   -1    0    0  501    0  0.00000000000E+00  0.00000000000E+00 -0.15916996078E+04  0.15916996078E+04  0.50400001928E-02 0.  1.
    10030    2    1    2    0    0  0.00000000000E+00  0.00000000000E+00 -0.26832768930E+03  0.29150715262E+04  0.29026956875E+04 0.  0.
        5    1    3    3  502    0  0.48346452485E+03  0.95343327134E+03 -0.11199883321E+04  0.15482793364E+04  0.46999998093E+01 0. -1.
       -5    1    3    3    0  502 -0.48346452485E+03 -0.95343327134E+03  0.85166064276E+03  0.13667921898E+04  0.46999998093E+01 0.  1.
</event>
<event>
 5   0  0.3770467E-07  0.2901171E+04  0.7818609E-02  0.8272529E-01
        1   -1    0    0  501    0  0.00000000000E+00  0.00000000000E+00  0.11542830843E+04  0.11542830843E+04  0.50400001928E-02 0. -1.
       -1   -1    0    0    0  501  0.00000000000E+00  0.00000000000E+00 -0.18229475909E+04  0.18229475909E+04  0.50400001928E-02 0.  1.
    10030    2    1    2    0    0  0.00000000000E+00  0.00000000000E+00 -0.66866450660E+03  0.29772306753E+04  0.29011705002E+04 0.  0.
        1    1    3    3  502    0  0.12219704494E+04  0.65782147154E+03  0.98941282970E+02  0.13913052307E+04  0.50400001928E-02 0. -1.
       -1    1    3    3    0  502 -0.12219704494E+04 -0.65782147154E+03 -0.76760578957E+03  0.15859254446E+04  0.50400001928E-02 0.  1.
</event>
<event>
 5   0  0.9994311E-07  0.2902375E+04  0.7818609E-02  0.8272171E-01
        2   -1    0    0  501    0  0.00000000000E+00  0.00000000000E+00  0.17081343616E+04  0.17081343616E+04  0.25500000920E-02 0. -1.
       -2   -1    0    0    0  501  0.00000000000E+00  0.00000000000E+00 -0.12328923452E+04  0.12328923452E+04  0.25500000920E-02 0.  1.
    10030    2    1    2    0    0  0.00000000000E+00  0.00000000000E+00  0.47524201646E+03  0.29410267068E+04  0.29023754264E+04 0.  0.
        2    1    3    3  502    0  0.11270647027E+04 -0.45083145468E+03  0.10434610473E+04  0.16007294593E+04  0.25500000920E-02 0. -1.
       -2    1    3    3    0  502 -0.11270647027E+04  0.45083145468E+03 -0.56821903083E+03  0.13402972475E+04  0.25500000920E-02 0.  1.
</event>
<event>
 5   0  0.3770467E-07  0.2900846E+04  0.7818609E-02  0.8272626E-01
       -1   -1    0    0    0  501  0.00000000000E+00  0.00000000000E+00  0.13138229657E+04  0.13138229657E+04  0.50400001928E-02 0. -1.
        1   -1    0    0  501    0  0.00000000000E+00  0.00000000000E+00 -0.16012252186E+04  0.16012252186E+04  0.50400001928E-02 0.  1.
    10030    2    1    2    0    0  0.00000000000E+00  0.00000000000E+00 -0.28740225289E+03  0.29150481843E+04  0.29008457149E+04 0.  0.
        1    1    3    3  502    0 -0.47710956974E+02  0.67967580171E+03 -0.14303961365E+04  0.15843827309E+04  0.50400001928E-02 0.  1.
       -1    1    3    3    0  502  0.47710956974E+02 -0.67967580171E+03  0.11429938836E+04  0.13306654534E+04  0.50400001928E-02 0. -1.
</event>
<event>
 5   0  0.1006893E-06  0.2897375E+04  0.7818609E-02  0.8273659E-01
        2   -1    0    0  501    0  0.00000000000E+00  0.00000000000E+00  0.22177575258E+04  0.22177575258E+04  0.25500000920E-02 0. -1.
       -2   -1    0    0    0  501  0.00000000000E+00  0.00000000000E+00 -0.94631415014E+03  0.94631415014E+03  0.25500000920E-02 0.  1.
    10030    2    1    2    0    0  0.00000000000E+00  0.00000000000E+00  0.12714433757E+04  0.31640716760E+04  0.28973749003E+04 0.  0.
        4    1    3    3  502    0 -0.18304517070E+03 -0.24691436277E+03  0.21817394367E+04  0.22032840987E+04  0.12699999809E+01 0. -1.
       -4    1    3    3    0  502  0.18304517070E+03  0.24691436277E+03 -0.91029606100E+03  0.96078757727E+03  0.12699999809E+01 0.  1.
</event>
<event>
 5   0  0.1063979E-06  0.2871244E+04  0.7818609E-02  0.8281485E-01
       -2   -1    0    0    0  501  0.00000000000E+00  0.00000000000E+00  0.15191107417E+04  0.15191107417E+04  0.25500000920E-02 0.  1.
        2   -1    0    0  501    0  0.00000000000E+00  0.00000000000E+00 -0.13567220339E+04  0.13567220339E+04  0.25500000920E-02 0. -1.
    10030    2    1    2    0    0  0.00000000000E+00  0.00000000000E+00  0.16238870776E+03  0.28758327756E+04  0.28712443401E+04 0.  0.
        1    1    3    3  502    0  0.66870436410E+03 -0.26375213219E+03 -0.11634822974E+04  0.13676336389E+04  0.50400001928E-02 0. -1.
       -1    1    3    3    0  502 -0.66870436410E+03  0.26375213219E+03  0.13258710051E+04  0.15081991367E+04  0.50400001928E-02 0.  1.
</event>
<event>
 5   0  0.3378750E-07  0.2901513E+04  0.7818609E-02  0.8272428E-01
        4   -1    0    0  501    0  0.00000000000E+00  0.00000000000E+00  0.25298515743E+04  0.25298518930E+04  0.12699999809E+01 0.  1.
       -4   -1    0    0    0  501  0.00000000000E+00  0.00000000000E+00 -0.83194273936E+03  0.83194370872E+03  0.12699999809E+01 0. -1.
    10030    2    1    2    0    0  0.00000000000E+00  0.00000000000E+00  0.16979088349E+04  0.33617956018E+04  0.29015125808E+04 0.  0.
        1    1    3    3  502    0 -0.13113997515E+04 -0.32002028761E+03  0.14647902128E+04  0.19919318915E+04  0.50400001928E-02 0.  1.
       -1    1    3    3    0  502  0.13113997515E+04  0.32002028761E+03  0.23311862206E+03  0.13698637103E+04  0.50400001928E-02 0. -1.
</event>
<event>
 5   0  0.3770467E-07  0.2904652E+04  0.7818609E-02  0.8271495E-01
        1   -1    0    0  501    0  0.00000000000E+00  0.00000000000E+00  0.14783220493E+04  0.14783220493E+04  0.50400001928E-02 0. -1.
       -1   -1    0    0    0  501  0.00000000000E+00  0.00000000000E+00 -0.14267872808E+04  0.14267872808E+04  0.50400001928E-02 0.  1.
    10030    2    1    2    0    0  0.00000000000E+00  0.00000000000E+00  0.51534768455E+02  0.29051093301E+04  0.29046521973E+04 0.  0.
        1    1    3    3  502    0  0.52571184592E+03 -0.64783383990E+03  0.12147309316E+04  0.14736461126E+04  0.50400001928E-02 0. -1.
       -1    1    3    3    0  502 -0.52571184592E+03  0.64783383990E+03 -0.11631961631E+04  0.14314632175E+04  0.50400001928E-02 0.  1.
</event>
<event>
 5   0  0.3378750E-07  0.2906852E+04  0.7818609E-02  0.8270842E-01
       -3   -1    0    0    0  501  0.00000000000E+00  0.00000000000E+00  0.12542682981E+04  0.12542683022E+04  0.10100000352E+00 0. -1.
        3   -1    0    0  501    0  0.00000000000E+00  0.00000000000E+00 -0.16842069319E+04  0.16842069349E+04  0.10100000352E+00 0.  1.
    10030    2    1    2    0    0  0.00000000000E+00  0.00000000000E+00 -0.42993863373E+03  0.29384752371E+04  0.29068521617E+04 0.  0.
        4    1    3    3  502    0  0.12914106168E+04 -0.66636813678E+03 -0.18904101996E+03  0.14654439583E+04  0.12699999809E+01 0. -1.
       -4    1    3    3    0  502 -0.12914106168E+04  0.66636813678E+03 -0.24089761377E+03  0.14730312787E+04  0.12699999809E+01 0.  1.
</event>
<event>
 5   0  0.1006893E-06  0.2896751E+04  0.7818609E-02  0.8273845E-01
        2   -1    0    0  501    0  0.00000000000E+00  0.00000000000E+00  0.19298351676E+04  0.19298351676E+04  0.25500000920E-02 0. -1.
       -2   -1    0    0    0  501  0.00000000000E+00  0.00000000000E+00 -0.10870313326E+04  0.10870313326E+04  0.25500000920E-02 0.  1.
    10030    2    1    2    0    0  0.00000000000E+00  0.00000000000E+00  0.84280383494E+03  0.30168665002E+04  0.28967507963E+04 0.  0.
        4    1    3    3  502    0  0.70568985480E+03 -0.11677153365E+04  0.92759323440E+03  0.16498448714E+04  0.12699999809E+01 0.  1.
       -4    1    3    3    0  502 -0.70568985480E+03  0.11677153365E+04 -0.84789399461E+02  0.13670216288E+04  0.12699999809E+01 0. -1.
</event>
<event>
 5   0  0.3638028E-07  0.2897305E+04  0.7818609E-02  0.8273680E-01
       -1   -1    0    0    0  501  0.00000000000E+00  0.00000000000E+00  0.16939515446E+04  0.16939515446E+04  0.50400001928E-02 0.  1.
        1   -1    0    0  501    0  0.00000000000E+00  0.00000000000E+00 -0.12388746210E+04  0.12388746210E+04  0.50400001928E-02 0. -1.
    10030    2    1    2    0    0  0.00000000000E+00  0.00000000000E+00  0.45507692359E+03  0.29328261656E+04  0.28973046631E+04 0.  0.
        4    1    3    3  502    0 -0.90604219672E+03  0.95403209470E+03  0.84119047992E+03  0.15616314342E+04  0.12699999809E+01 0.  1.
       -4    1    3    3    0  502  0.90604219672E+03 -0.95403209470E+03 -0.38611355633E+03  0.13711947313E+04  0.12699999809E+01 0. -1.
</event>
<event>
 5   0  0.1006893E-06  0.2894161E+04  0.7818609E-02  0.8274617E-01
        2   -1    0    0  501    0  0.00000000000E+00  0.00000000000E+00  0.17443923059E+04  0.17443923059E+04  0.25500000920E-02 0. -1.
       -2   -1    0    0    0  501  0.00000000000E+00  0.00000000000E+00 -0.12004418117E+04  0.12004418117E+04  0.25500000920E-02 0.  1.
    10030    2    1    2    0    0  0.00000000000E+00  0.00000000000E+00  0.54395049417E+03  0.29448341175E+04  0.28941606451E+04 0.  0.
        4    1    3    3  502    0 -0.10692454885E+03  0.89567142490E+03  0.14233258428E+04  0.16850870091E+04  0.12699999809E+01 0. -1.
       -4    1    3    3    0  502  0.10692454885E+03 -0.89567142490E+03 -0.87937534864E+03  0.12597471084E+04  0.12699999809E+01 0.  1.
</event>
<event>
 5   0  0.3885904E-07  0.2901620E+04  0.7818609E-02  0.8272396E-01
       -1   -1    0    0    0  501  0.00000000000E+00  0.00000000000E+00  0.10518101162E+04  0.10518101162E+04  0.50400001928E-02 0. -1.
        1   -1    0    0  501    0  0.00000000000E+00  0.00000000000E+00 -0.20011685897E+04  0.20011685898E+04  0.50400001928E-02 0.  1.
    10030    2    1    2    0    0  0.00000000000E+00  0.00000000000E+00 -0.94935847355E+03  0.30529787060E+04  0.29016198007E+04 0.  0.
        2    1    3    3  502    0  0.82967201666E+03  0.26360789660E+03  0.74646736864E+03  0.11467599186E+04  0.25500000920E-02 0. -1.
       -2    1    3    3    0  502 -0.82967201666E+03 -0.26360789660E+03 -0.16958258422E+04  0.19062187874E+04  0.25500000920E-02 0.  1.
</event>
<event>
 5   0  0.1063979E-06  0.2903463E+04  0.7818609E-02  0.8271848E-01
       -2   -1    0    0    0  501  0.00000000000E+00  0.00000000000E+00  0.91789131145E+03  0.91789131146E+03  0.25500000920E-02 0. -1.
        2   -1    0    0  501    0  0.00000000000E+00  0.00000000000E+00 -0.22960502265E+04  0.22960502265E+04  0.25500000920E-02 0.  1.
    10030    2    1    2    0    0  0.00000000000E+00  0.00000000000E+00 -0.13781589150E+04  0.32139415380E+04  0.29034631415E+04 0.  0.
        1    1    3    3  502    0  0.12308894607E+03 -0.14328078571E+04 -0.46926093569E+03  0.15127111653E+04  0.50400001928E-02 0. -1.
       -1    1    3    3    0  502 -0.12308894607E+03  0.14328078571E+04 -0.90889797936E+03  0.17012303726E+04  0.50400001928E-02 0.  1.
</event>
<event>
 5   0  0.3769563E-07  0.2896827E+04  0.7818609E-02  0.8273822E-01
        1   -1    0    0  501    0  0.00000000000E+00  0.00000000000E+00  0.20634240080E+04  0.20634240080E+04  0.50400001928E-02 0. -1.
       -1   -1    0    0    0  501  0.00000000000E+00  0.00000000000E+00 -0.10167088427E+04  0.10167088428E+04  0.50400001928E-02 0.  1.
    10030    2    1    2    0    0  0.00000000000E+00  0.00000000000E+00  0.10467151653E+04  0.30801328508E+04  0.28968268401E+04 0.  0.
        3    1    3    3  502    0 -0.52511245727E+03  0.12308409241E+04  0.11126755863E+04  0.17403331416E+04  0.10100000352E+00 0. -1.
       -3    1    3    3    0  502  0.52511245727E+03 -0.12308409241E+04 -0.65960421005E+02  0.13397997092E+04  0.10100000352E+00 0.  1.
</event>
<event>
 5   0  0.3770467E-07  0.2896174E+04  0.7818609E-02  0.8274017E-01
       -1   -1    0    0    0  501  0.00000000000E+00  0.00000000000E+00  0.98299134093E+03  0.98299134095E+03  0.50400001928E-02 0.  1.
        1   -1    0    0  501    0  0.00000000000E+00  0.00000000000E+00 -0.21332401075E+04  0.21332401075E+04  0.50400001928E-02 0. -1.
    10030    2    1    2    0    0  0.00000000000E+00  0.00000000000E+00 -0.11502487665E+04  0.31162314484E+04  0.28961744104E+04 0.  0.
        1    1    3    3  502    0  0.77675901635E+03 -0.92762602619E+03  0.28101651915E+03  0.12421010015E+04  0.50400001928E-02 0.  1.
       -1    1    3    3    0  502 -0.77675901635E+03  0.92762602619E+03 -0.14312652857E+04  0.18741304469E+04  0.50400001928E-02 0. -1.
</event>
<event>
 5   0  0.3769563E-07  0.2897622E+04  0.7818609E-02  0.8273585E-01
        1   -1    0    0  501    0  0.00000000000E+00  0.00000000000E+00  0.19686115377E+04  0.19686115377E+04  0.50400001928E-02 0.  1.
       -1   -1    0    0    0  501  0.00000000000E+00  0.00000000000E+00 -0.10662611146E+04  0.10662611146E+04  0.50400001928E-02 0. -1.
    10030    2    1    2    0    0  0.00000000000E+00  0.00000000000E+00  0.90235042308E+03  0.30348726522E+04  0.28976224270E+04 0.  0.
        3    1    3    3  502    0  0.11777497966E+04 -0.40628870698E+03  0.12257229719E+04  0.17477305030E+04  0.10100000352E+00 0.  1.
       -3    1    3    3    0  502 -0.11777497966E+04  0.40628870698E+03 -0.32337254883E+03  0.12871421493E+04  0.10100000352E+00 0. -1.
</event>
<event>
 5   0  0.9950999E-07  0.2898103E+04  0.7818609E-02  0.8273442E-01
       -2   -1    0    0    0  501  0.00000000000E+00  0.00000000000E+00  0.10192797347E+04  0.10192797347E+04  0.25500000920E-02 0.  1.
        2   -1    0    0  501    0  0.00000000000E+00  0.00000000000E+00 -0.20600333166E+04  0.20600333166E+04  0.25500000920E-02 0. -1.
    10030    2    1    2    0    0  0.00000000000E+00  0.00000000000E+00 -0.10407535819E+04  0.30793130514E+04  0.28981029744E+04 0.  0.
        3    1    3    3  502    0 -0.74246443552E+03 -0.72184013581E+03 -0.15973850211E+04  0.19036663404E+04  0.10100000352E+00 0. -1.
       -3    1    3    3    0  502  0.74246443552E+03  0.72184013581E+03  0.55663143922E+03  0.11756467110E+04  0.10100000352E+00 0.  1.
</event>
<event>
 5   0  0.9994311E-07  0.2899502E+04  0.7818609E-02  0.8273026E-01
       -2   -1    0    0    0  501  0.00000000000E+00  0.00000000000E+00  0.12559867116E+04  0.12559867116E+04  0.25500000920E-02 0. -1.
        2   -1    0    0  501    0  0.00000000000E+00  0.00000000000E+00 -0.16734074257E+04  0.16734074257E+04  0.25500000920E-02 0.  1.
    10030    2    1    2    0    0  0.00000000000E+00  0.00000000000E+00 -0.41742071412E+03  0.29293941373E+04  0.28995016743E+04 0.  0.
        2    1    3    3  502    0  0.71900622556E+03  0.11319806112E+04  0.34781103898E+03  0.13853961799E+04  0.25500000920E-02 0. -1.
       -2    1    3    3    0  502 -0.71900622556E+03 -0.11319806112E+04 -0.76523175310E+03  0.15439979574E+04  0.25500000920E-02 0.  1.
</event>
<event>
 5   0  0.3638028E-07  0.2908350E+04  0.7818609E-02  0.8270397E-01
        1   -1    0    0  501    0  0.00000000000E+00  0.00000000000E+00  0.11776436707E+04  0.11776436707E+04  0.50400001928E-02 0.  1.
       -1   -1    0    0    0  501  0.00000000000E+00  0.00000000000E+00 -0.17956408832E+04  0.17956408832E+04  0.50400001928E-02 0. -1.
    10030    2    1    2    0    0  0.00000000000E+00  0.00000000000E+00 -0.61799721256E+03  0.29732845539E+04  0.29083501309E+04 0.  0.
        4    1    3    3  502    0  0.14246418820E+04  0.25691423531E+03 -0.44996889123E+03  0.15159429515E+04  0.12699999809E+01 0. -1.
       -4    1    3    3    0  502 -0.14246418820E+04 -0.25691423531E+03 -0.16802832133E+03  0.14573416024E+04  0.12699999809E+01 0.  1.
</event>
<event>
 5   0  0.1006893E-06  0.2894180E+04  0.7818609E-02  0.8274611E-01
        2   -1    0    0  501    0  0.00000000000E+00  0.00000000000E+00  0.12634189558E+04  0.12634189559E+04  0.25500000920E-02 0. -1.
       -2   -1    0    0    0  501  0.00000000000E+00  0.00000000000E+00 -0.16574627358E+04  0.16574627358E+04  0.25500000920E-02 0.  1.
    10030    2    1    2    0    0  0.00000000000E+00  0.00000000000E+00 -0.39404377999E+03  0.29208816917E+04  0.28941802564E+04 0.  0.
        4    1    3    3  502    0 -0.48900600297E+03 -0.78798278097E+03 -0.13181371906E+04  0.16116857635E+04  0.12699999809E+01 0.  1.
       -4    1    3    3    0  502  0.48900600297E+03  0.78798278097E+03  0.92409341060E+03  0.13091959282E+04  0.12699999809E+01 0. -1.
</event>
<event>
 5   0  0.1031339E-06  0.2902853E+04  0.7818609E-02  0.8272029E-01
       -2   -1    0    0    0  501  0.00000000000E+00  0.00000000000E+00  0.12232191511E+04  0.12232191511E+04  0.25500000920E-02 0.  1.
        2   -1    0    0  501    0  0.00000000000E+00  0.00000000000E+00 -0.17222087981E+04  0.17222087981E+04  0.25500000920E-02 0. -1.
    10030    2    1    2    0    0  0.00000000000E+00  0.00000000000E+00 -0.49898964705E+03  0.29454279492E+04  0.29028529305E+04 0.  0.
        5    1    3    3  502    0  0.55036922007E+03 -0.13289092054E+04 -0.44653550193E+03  0.15060949502E+04  0.46999998093E+01 0. -1.
       -5    1    3    3    0  502 -0.55036922007E+03  0.13289092054E+04 -0.52454145112E+02  0.14393329990E+04  0.46999998093E+01 0.  1.
</event>
<event>
 5   0  0.3638028E-07  0.2908239E+04  0.7818609E-02  0.8270430E-01
        1   -1    0    0  501    0  0.00000000000E+00  0.00000000000E+00  0.16793374738E+04  0.16793374738E+04  0.50400001928E-02 0.  1.
       -1   -1    0    0    0  501  0.00000000000E+00  0.00000000000E+00 -0.12591055205E+04  0.12591055205E+04  0.50400001928E-02 0. -1.
    10030    2    1    2    0    0  0.00000000000E+00  0.00000000000E+00  0.42023195330E+03  0.29384429942E+04  0.29082386999E+04 0.  0.
        4    1    3    3  502    0  0.23980681699E+03 -0.91641543892E+03  0.13248132427E+04  0.16286363336E+04  0.12699999809E+01 0.  1.
       -4    1    3    3    0  502 -0.23980681699E+03  0.91641543892E+03 -0.90458128943E+03  0.13098066606E+04  0.12699999809E+01 0. -1.
</event>
<event>
 5   0  0.1063979E-06  0.2899087E+04  0.7818609E-02  0.8273149E-01
        2   -1    0    0  501    0  0.00000000000E+00  0.00000000000E+00  0.20992550170E+04  0.20992550170E+04  0.25500000920E-02 0. -1.
       -2   -1    0    0    0  501  0.00000000000E+00  0.00000000000E+00 -0.10009151556E+04  0.10009151556E+04  0.25500000920E-02 0.  1.
    10030    2    1    2    0    0  0.00000000000E+00  0.00000000000E+00  0.10983398613E+04  0.31001701726E+04  0.28990868645E+04 0.  0.
        1    1    3    3  502    0 -0.64278405816E+03 -0.10356924341E+04  0.13880193258E+04  0.18472757813E+04  0.50400001928E-02 0. -1.
       -1    1    3    3    0  502  0.64278405816E+03  0.10356924341E+04 -0.28967946452E+03  0.12528943912E+04  0.50400001928E-02 0.  1.
</event>
<event>
 5   0  0.3770467E-07  0.2904157E+04  0.7818609E-02  0.8271642E-01
        1   -1    0    0  501    0  0.00000000000E+00  0.00000000000E+00  0.18709582972E+04  0.18709582972E+04  0.50400001928E-02 0.  1.
       -1   -1    0    0    0  501  0.00000000000E+00  0.00000000000E+00 -0.11269798063E+04  0.11269798063E+04  0.50400001928E-02 0. -1.
    10030    2    1    2    0    0  0.00000000000E+00  0.00000000000E+00  0.74397849095E+03  0.29979381035E+04  0.29041571716E+04 0.  0.
        1    1    3    3  502    0 -0.39062977422E+02 -0.51496850595E+03 -0.10289696718E+04  0.11513023338E+04  0.50400001928E-02 0. -1.
       -1    1    3    3    0  502  0.39062977422E+02  0.51496850595E+03  0.17729481627E+04  0.18466357697E+04  0.50400001928E-02 0.  1.
</event>
<event>
 5   0  0.1063979E-06  0.2901559E+04  0.7818609E-02  0.8272414E-01
        2   -1    0    0  501    0  0.00000000000E+00  0.00000000000E+00  0.13293009345E+04  0.13293009345E+04  0.25500000920E-02 0. -1.
       -2   -1    0    0    0  501  0.00000000000E+00  0.00000000000E+00 -0.15833597974E+04  0.15833597974E+04  0.25500000920E-02 0.  1.
    10030    2    1    2    0    0  0.00000000000E+00  0.00000000000E+00 -0.25405886290E+03  0.29126607320E+04  0.29015593452E+04 0.  0.
        1    1    3    3  502    0  0.85096972069E+03  0.86163291522E+02 -0.13033439455E+04  0.15589352195E+04  0.50400001928E-02 0.  1.
       -1    1    3    3    0  502 -0.85096972069E+03 -0.86163291522E+02  0.10492850826E+04  0.13537255124E+04  0.50400001928E-02 0. -1.
</event>
<event>
 5   0  0.3638028E-07  0.2899050E+04  0.7818609E-02  0.8273160E-01
        1   -1    0    0  501    0  0.00000000000E+00  0.00000000000E+00  0.15538296860E+04  0.15538296860E+04  0.50400001928E-02 0.  1.
       -1   -1    0    0    0  501  0.00000000000E+00  0.00000000000E+00 -0.13522220083E+04  0.13522220084E+04  0.50400001928E-02 0. -1.
    10030    2    1    2    0    0  0.00000000000E+00  0.00000000000E+00  0.20160767767E+03  0.29060516944E+04  0.28990499814E+04 0.  0.
        4    1    3    3  502    0 -0.56832627415E+03  0.66455563819E+03 -0.10580557973E+04  0.13726298238E+04  0.12699999809E+01 0. -1.
       -4    1    3    3    0  502  0.56832627415E+03 -0.66455563819E+03  0.12596634750E+04  0.15334218706E+04  0.12699999809E+01 0.  1.
</event>
<event>
 5   0  0.9994311E-07  0.2895873E+04  0.7818609E-02  0.8274106E-01
       -2   -1    0    0    0  501  0.00000000000E+00  0.00000000000E+00  0.11718924995E+04  0.11718924995E+04  0.25500000920E-02 0.  1.
        2   -1    0    0  501    0  0.00000000000E+00  0.00000000000E+00 -0.17890040622E+04  0.17890040622E+04  0.25500000920E-02 0. -1.
    10030    2    1    2    0    0  0.00000000000E+00  0.00000000000E+00 -0.61711156270E+03  0.29608965616E+04  0.28958732306E+04 0.  0.
        2    1    3    3  502    0 -0.77162702953E+02  0.10231085056E+04 -0.13531690258E+04  0.16981671029E+04  0.25500000920E-02 0. -1.
       -2    1    3    3    0  502  0.77162702953E+02 -0.10231085056E+04  0.73605746307E+03  0.12627294587E+04  0.25500000920E-02 0.  1.
</event>
<event>
 5   0  0.9994311E-07  0.2894447E+04  0.7818609E-02  0.8274532E-01
       -2   -1    0    0    0  501  0.00000000000E+00  0.00000000000E+00  0.24228992910E+04  0.24228992910E+04  0.25500000920E-02 0.  1.
        2   -1    0    0  501    0  0.00000000000E+00  0.00000000000E+00 -0.86444168866E+03  0.86444168866E+03  0.25500000920E-02 0. -1.
    10030    2    1    2    0    0  0.00000000000E+00  0.00000000000E+00  0.15584576023E+04  0.32873409796E+04  0.28944465133E+04 0.  0.
        2    1    3    3  502    0 -0.13979348502E+04 -0.15003266657E+03  0.11689112295E+04  0.18284105416E+04  0.25500000920E-02 0.  1.
       -2    1    3    3    0  502  0.13979348502E+04  0.15003266657E+03  0.38954637285E+03  0.14589304380E+04  0.25500000920E-02 0. -1.
</event>
<event>
 5   0  0.3638028E-07  0.2908680E+04  0.7818609E-02  0.8270300E-01
        1   -1    0    0  501    0  0.00000000000E+00  0.00000000000E+00  0.17267146277E+04  0.17267146277E+04  0.50400001928E-02 0. -1.
       -1   -1    0    0    0  501  0.00000000000E+00  0.00000000000E+00 -0.12249297531E+04  0.12249297531E+04  0.50400001928E-02 0.  1.
    10030    2    1    2    0    0  0.00000000000E+00  0.00000000000E+00  0.50178487461E+03  0.29516443807E+04  0.29086795097E+04 0.  0.
        4    1    3    3  502    0  0.56092434069E+02  0.48292317864E+03  0.16418108539E+04  0.17122808328E+04  0.12699999809E+01 0. -1.
       -4    1    3    3    0  502 -0.56092434069E+02 -0.48292317864E+03 -0.11400259793E+04  0.12393635479E+04  0.12699999809E+01 0.  1.
</event>
<event>
 5   0  0.3786210E-07  0.2926498E+04  0.7818609E-02  0.8265037E-01
       -1   -1    0    0    0  501  0.00000000000E+00  0.00000000000E+00  0.11639266020E+04  0.11639266020E+04  0.50400001928E-02 0.  1.
        1   -1    0    0  501    0  0.00000000000E+00  0.00000000000E+00 -0.18395470718E+04  0.18395470718E+04  0.50400001928E-02 0. -1.
    10030    2    1    2    0    0  0.00000000000E+00  0.00000000000E+00 -0.67562046984E+03  0.30034736738E+04  0.29264980933E+04 0.  0.
        5    1    3    3  502    0  0.37458071409E+03 -0.32987750449E+03  0.10738491827E+04  0.11841891895E+04  0.46999998093E+01 0.  1.
       -5    1    3    3    0  502 -0.37458071409E+03  0.32987750449E+03 -0.17494696526E+04  0.18192844843E+04  0.46999998093E+01 0. -1.
</event>
<event>
 5   0  0.3885904E-07  0.2924437E+04  0.7818609E-02  0.8265644E-01
       -1   -1    0    0    0  501  0.00000000000E+00  0.00000000000E+00  0.10633184750E+04  0.10633184750E+04  0.50400001928E-02 0.  1.
        1   -1    0    0  501    0  0.00000000000E+00  0.00000000000E+00 -0.20107649117E+04  0.20107649117E+04  0.50400001928E-02 0. -1.
    10030    2    1    2    0    0  0.00000000000E+00  0.00000000000E+00 -0.94744643665E+03  0.30740833867E+04  0.29244373678E+04 0.  0.
        2    1    3    3  502    0 -0.12502256317E+04 -0.42203996638E+03  0.18851578126E+03  0.13329366313E+04  0.25500000920E-02 0.  1.
       -2    1    3    3    0  502  0.12502256317E+04  0.42203996638E+03 -0.11359622179E+04  0.17411467554E+04  0.25500000920E-02 0. -1.
</event>
<event>
 5   0  0.9950999E-07  0.2902831E+04  0.7818609E-02  0.8272036E-01
        2   -1    0    0  501    0  0.00000000000E+00  0.00000000000E+00  0.15240057586E+04  0.15240057586E+04  0.25500000920E-02 0. -1.
       -2   -1    0    0    0  501  0.00000000000E+00  0.00000000000E+00 -0.13822827939E+04  0.13822827939E+04  0.25500000920E-02 0.  1.
    10030    2    1    2    0    0  0.00000000000E+00  0.00000000000E+00  0.14172296472E+03  0.29062885524E+04  0.29028309891E+04 0.  0.
        3    1    3    3  502    0 -0.84130101503E+03 -0.39346792765E+03 -0.10458156189E+04  0.13986903614E+04  0.10100000352E+00 0.  1.
       -3    1    3    3    0  502  0.84130101503E+03  0.39346792765E+03  0.11875385836E+04  0.15075981911E+04  0.10100000352E+00 0. -1.
</event>
<event>
 5   0  0.3885904E-07  0.2894460E+04  0.7818609E-02  0.8274528E-01
        1   -1    0    0  501    0  0.00000000000E+00  0.00000000000E+00  0.15461586666E+04  0.15461586666E+04  0.50400001928E-02 0. -1.
       -1   -1    0    0    0  501  0.00000000000E+00  0.00000000000E+00 -0.13546310729E+04  0.13546310730E+04  0.50400001928E-02 0.  1.
    10030    2    1    2    0    0  0.00000000000E+00  0.00000000000E+00  0.19152759362E+03  0.29007897395E+04  0.28944599313E+04 0.  0.
        2    1    3    3  502    0 -0.13198140492E+04  0.45377344199E+03 -0.28802943536E+03  0.14250545312E+04  0.25500000920E-02 0.  1.
       -2    1    3    3    0  502  0.13198140492E+04 -0.45377344199E+03  0.47955702897E+03  0.14757352084E+04  0.25500000920E-02 0. -1.
</event>
<event>
 5   0  0.3770467E-07  0.2896662E+04  0.7818609E-02  0.8273871E-01
        1   -1    0    0  501    0  0.00000000000E+00  0.00000000000E+00  0.20975330918E+04  0.20975330918E+04  0.50400001928E-02 0. -1.
       -1   -1    0    0    0  501  0.00000000000E+00  0.00000000000E+00 -0.10000619801E+04  0.10000619802E+04  0.50400001928E-02 0.  1.
    10030    2    1    2    0    0  0.00000000000E+00  0.00000000000E+00  0.10974711116E+04  0.30975950720E+04  0.28966622842E+04 0.  0.
        1    1    3    3  502    0  0.62347262732E+02 -0.74555998847E+02 -0.99657092756E+03  0.10012988524E+04  0.50400001928E-02 0.  1.
       -1    1    3    3    0  502 -0.62347262732E+02  0.74555998847E+02  0.20940420392E+04  0.20962962196E+04  0.50400001928E-02 0. -1.
</event>
<event>
 5   0  0.1063979E-06  0.2900093E+04  0.7818609E-02  0.8272850E-01
        2   -1    0    0  501    0  0.00000000000E+00  0.00000000000E+00  0.27098445154E+04  0.27098445154E+04  0.25500000920E-02 0. -1.
       -2   -1    0    0    0  501  0.00000000000E+00  0.00000000000E+00 -0.77592473281E+03  0.77592473281E+03  0.25500000920E-02 0.  1.
    10030    2    1    2    0    0  0.00000000000E+00  0.00000000000E+00  0.19339197826E+04  0.34857692482E+04  0.29000933651E+04 0.  0.
        1    1    3    3  502    0  0.12293622820E+04  0.66302891134E+03  0.49882142738E+03  0.14831593893E+04  0.50400001928E-02 0.  1.
       -1    1    3    3    0  502 -0.12293622820E+04 -0.66302891134E+03  0.14350983552E+04  0.20026098589E+04  0.50400001928E-02 0. -1.
</event>
<event>
 5   0  0.3786210E-07  0.2898223E+04  0.7818609E-02  0.8273406E-01
        1   -1    0    0  501    0  0.00000000000E+00  0.00000000000E+00  0.20682116392E+04  0.20682116393E+04  0.50400001928E-02 0.  1.
       -1   -1    0    0    0  501  0.00000000000E+00  0.00000000000E+00 -0.10153331793E+04  0.10153331793E+04  0.50400001928E-02 0. -1.
    10030    2    1    2    0    0  0.00000000000E+00  0.00000000000E+00  0.10528784599E+04  0.30835448186E+04  0.28982228342E+04 0.  0.
        5    1    3    3  502    0  0.13210148925E+03 -0.19392141660E+03  0.20478578964E+04  0.20612618400E+04  0.46999998093E+01 0.  1.
       -5    1    3    3    0  502 -0.13210148925E+03  0.19392141660E+03 -0.99497943645E+03  0.10222829786E+04  0.46999998093E+01 0. -1.
</event>
<event>
 5   0  0.3786210E-07  0.2919219E+04  0.7818609E-02  0.8267182E-01
       -1   -1    0    0    0  501  0.00000000000E+00  0.00000000000E+00  0.14126691375E+04  0.14126691375E+04  0.50400001928E-02 0.  1.
        1   -1    0    0  501    0  0.00000000000E+00  0.00000000000E+00 -0.15081099190E+04  0.15081099190E+04  0.50400001928E-02 0. -1.
    10030    2    1    2    0    0  0.00000000000E+00  0.00000000000E+00 -0.95440781510E+02  0.29207790565E+04  0.29192193056E+04 0.  0.
        5    1    3    3  502    0  0.10300172269E+04  0.91842429048E+03  0.42792774912E+03  0.14448470208E+04  0.46999998093E+01 0.  1.
       -5    1    3    3    0  502 -0.10300172269E+04 -0.91842429048E+03 -0.52336853063E+03  0.14759320357E+04  0.46999998093E+01 0. -1.
</event>
<event>
 5   0  0.9994311E-07  0.2902613E+04  0.7818609E-02  0.8272101E-01
        2   -1    0    0  501    0  0.00000000000E+00  0.00000000000E+00  0.12434230198E+04  0.12434230198E+04  0.25500000920E-02 0.  1.
       -2   -1    0    0    0  501  0.00000000000E+00  0.00000000000E+00 -0.16939449620E+04  0.16939449620E+04  0.25500000920E-02 0. -1.
    10030    2    1    2    0    0  0.00000000000E+00  0.00000000000E+00 -0.45052194217E+03  0.29373679818E+04  0.29026127265E+04 0.  0.
        2    1    3    3  502    0 -0.12878319187E+04 -0.29580213069E+03 -0.83268149827E+03  0.15618477611E+04  0.25500000920E-02 0.  1.
       -2    1    3    3    0  502  0.12878319187E+04  0.29580213069E+03  0.38215955610E+03  0.13755202207E+04  0.25500000920E-02 0. -1.
</event>
<event>
 5   0  0.9994311E-07  0.2898324E+04  0.7818609E-02  0.8273376E-01
       -2   -1    0    0    0  501  0.00000000000E+00  0.00000000000E+00  0.87157596462E+03  0.87157596462E+03  0.25500000920E-02 0.  1.
        2   -1    0    0  501    0  0.00000000000E+00  0.00000000000E+00 -0.24095096040E+04  0.24095096040E+04  0.25500000920E-02 0. -1.
    10030    2    1    2    0    0  0.00000000000E+00  0.00000000000E+00 -0.15379336394E+04  0.32810855686E+04  0.28983241071E+04 0.  0.
        2    1    3    3  502    0  0.22975093462E+03 -0.10168063974E+04  0.37065012142E+03  0.11063734696E+04  0.25500000920E-02 0.  1.
       -2    1    3    3    0  502 -0.22975093462E+03  0.10168063974E+04 -0.19085837608E+04  0.21747120991E+04  0.25500000920E-02 0. -1.
</event>
<event>
 5   0  0.3769563E-07  0.2898952E+04  0.7818609E-02  0.8273189E-01
       -1   -1    0    0    0  501  0.00000000000E+00  0.00000000000E+00  0.10331218094E+04  0.10331218094E+04  0.50400001928E-02 0.  1.
        1   -1    0    0  501    0  0.00000000000E+00  0.00000000000E+00 -0.20336240552E+04  0.20336240552E+04  0.50400001928E-02 0. -1.
    10030    2    1    2    0    0  0.00000000000E+00  0.00000000000E+00 -0.10005022459E+04  0.30667458646E+04  0.28989524753E+04 0.  0.
        3    1    3    3  502    0  0.88575882996E+03  0.26394147214E+03 -0.16814579651E+04  0.19187325775E+04  0.10100000352E+00 0. -1.
       -3    1    3    3    0  502 -0.88575882996E+03 -0.26394147214E+03  0.68095571920E+03  0.11480132871E+04  0.10100000352E+00 0.  1.
</event>
<event>
 5   0  0.1031339E-06  0.2901295E+04  0.7818609E-02  0.8272492E-01
        2   -1    0    0  501    0  0.00000000000E+00  0.00000000000E+00  0.11298721756E+04  0.11298721756E+04  0.25500000920E-02 0. -1.
       -2   -1    0    0    0  501  0.00000000000E+00  0.00000000000E+00 -0.18624921873E+04  0.18624921873E+04  0.25500000920E-02 0.  1.
    10030    2    1    2    0    0  0.00000000000E+00  0.00000000000E+00 -0.73262001168E+03  0.29923643629E+04  0.29012949521E+04 0.  0.
        5    1    3    3  502    0 -0.63704869670E+03  0.11584072187E+04 -0.98222961174E+03  0.16469776643E+04  0.46999998093E+01 0.  1.
       -5    1    3    3    0  502  0.63704869670E+03 -0.11584072187E+04  0.24960960006E+03  0.13453866986E+04  0.46999998093E+01 0. -1.
</event>
<event>
 5   0  0.3638028E-07  0.2900745E+04  0.7818609E-02  0.8272656E-01
        1   -1    0    0  501    0  0.00000000000E+00  0.00000000000E+00  0.22188801746E+04  0.22188801746E+04  0.50400001928E-02 0. -1.
       -1   -1    0    0    0  501  0.00000000000E+00  0.00000000000E+00 -0.94803710010E+03  0.94803710011E+03  0.50400001928E-02 0.  1.
    10030    2    1    2    0    0  0.00000000000E+00  0.00000000000E+00  0.12708430745E+04  0.31669172748E+04  0.29007452327E+04 0.  0.
        4    1    3    3  502    0  0.44605177111E+03 -0.95382130801E+03  0.17243620452E+04  0.20204364246E+04  0.12699999809E+01 0. -1.
       -4    1    3    3    0  502 -0.44605177111E+03  0.95382130801E+03 -0.45351897064E+03  0.11464808501E+04  0.12699999809E+01 0.  1.
</event>
<event>
 5   0  0.9994311E-07  0.2898587E+04  0.7818609E-02  0.8273298E-01
       -2   -1    0    0    0  501  0.00000000000E+00  0.00000000000E+00  0.82091598411E+03  0.82091598411E+03  0.25500000920E-02 0.  1.
        2   -1    0    0  501    0  0.00000000000E+00  0.00000000000E+00 -0.25586690709E+04  0.25586690709E+04  0.25500000920E-02 0. -1.
    10030    2    1    2    0    0  0.00000000000E+00  0.00000000000E+00 -0.17377530868E+04  0.33795850550E+04  0.28985874755E+04 0.  0.
        2    1    3    3  502    0 -0.77138546698E+03 -0.11823652497E+04 -0.12510303347E+04  0.18862926657E+04  0.25500000920E-02 0. -1.
       -2    1    3    3    0  502  0.77138546698E+03  0.11823652497E+04 -0.48672275205E+03  0.14932923892E+04  0.25500000920E-02 0.  1.
</event>
<event>
 5   0  0.3786210E-07  0.2900570E+04  0.7818609E-02  0.8272708E-01
        1   -1    0    0  501    0  0.00000000000E+00  0.00000000000E+00  0.17698768213E+04  0.17698768214E+04  0.50400001928E-02 0. -1.
       -1   -1    0    0    0  501  0.00000000000E+00  0.00000000000E+00 -0.11884026236E+04  0.11884026236E+04  0.50400001928E-02 0.  1.
    10030    2    1    2    0    0  0.00000000000E+00  0.00000000000E+00  0.58147419780E+03  0.29582794449E+04  0.29005697770E+04 0.  0.
        5    1    3    3  502    0 -0.95219817676E+03  0.53147075406E+03 -0.68440380638E+03  0.12874677435E+04  0.46999998093E+01 0.  1.
       -5    1    3    3    0  502  0.95219817676E+03 -0.53147075406E+03  0.12658780042E+04  0.16708117015E+04  0.46999998093E+01 0. -1.
</event>
<event>
 5   0  0.3786210E-07  0.2899355E+04  0.7818609E-02  0.8273069E-01
        1   -1    0    0  501    0  0.00000000000E+00  0.00000000000E+00  0.17324888985E+04  0.17324888985E+04  0.50400001928E-02 0.  1.
       -1   -1    0    0    0  501  0.00000000000E+00  0.00000000000E+00 -0.12130325683E+04  0.12130325683E+04  0.50400001928E-02 0. -1.
    10030    2    1    2    0    0  0.00000000000E+00  0.00000000000E+00  0.51945633024E+03  0.29455214668E+04  0.28993554167E+04 0.  0.
        5    1    3    3  502    0 -0.75272831885E+03  0.10650740369E+04 -0.38324807848E+03  0.13593688998E+04  0.46999998093E+01 0. -1.
       -5    1    3    3    0  502  0.75272831885E+03 -0.10650740369E+04  0.90270440872E+03  0.15861525670E+04  0.46999998093E+01 0.  1.
</event>
<event>
 5   0  0.3885904E-07  0.2900941E+04  0.7818609E-02  0.8272597E-01
       -1   -1    0    0    0  501  0.00000000000E+00  0.00000000000E+00  0.16692342572E+04  0.16692342573E+04  0.50400001928E-02 0.  1.
        1   -1    0    0  501    0  0.00000000000E+00  0.00000000000E+00 -0.12603775442E+04  0.12603775442E+04  0.50400001928E-02 0. -1.
    10030    2    1    2    0    0  0.00000000000E+00  0.00000000000E+00  0.40885671305E+03  0.29296118015E+04  0.29009414843E+04 0.  0.
        2    1    3    3  502    0 -0.61796433171E+03  0.58796190661E+03 -0.98031830646E+03  0.12994626200E+04  0.25500000920E-02 0. -1.
       -2    1    3    3    0  502  0.61796433171E+03 -0.58796190661E+03  0.13891750195E+04  0.16301491814E+04  0.25500000920E-02 0.  1.
</event>
<event>
 5   0  0.3786210E-07  0.2903850E+04  0.7818609E-02  0.8271733E-01
        1   -1    0    0  501    0  0.00000000000E+00  0.00000000000E+00  0.14307249577E+04  0.14307249577E+04  0.50400001928E-02 0. -1.
       -1   -1    0    0    0  501  0.00000000000E+00  0.00000000000E+00 -0.14734394227E+04  0.14734394227E+04  0.50400001928E-02 0.  1.
    10030    2    1    2    0    0  0.00000000000E+00  0.00000000000E+00 -0.42714465002E+02  0.29041643805E+04  0.29038502412E+04 0.  0.
        5    1    3    3  502    0 -0.43019230913E+03  0.13201684482E+04  0.40313457160E+03  0.14458387626E+04  0.46999998093E+01 0. -1.
       -5    1    3    3    0  502  0.43019230913E+03 -0.13201684482E+04 -0.44584903660E+03  0.14583256179E+04  0.46999998093E+01 0.  1.
</event>
<event>
 5   0  0.9994311E-07  0.2894437E+04  0.7818609E-02  0.8274535E-01
       -2   -1    0    0    0  501  0.00000000000E+00  0.00000000000E+00  0.20200922497E+04  0.20200922497E+04  0.25500000920E-02 0.  1.
        2   -1    0    0  501    0  0.00000000000E+00  0.00000000000E+00 -0.10368049179E+04  0.10368049179E+04  0.25500000920E-02 0. -1.
    10030    2    1    2    0    0  0.00000000000E+00  0.00000000000E+00  0.98328733185E+03  0.30568971676E+04  0.28944371329E+04 0.  0.
        2    1    3    3  502    0 -0.77712058212E+03  0.11888780428E+04  0.19840076795E+03  0.14341235179E+04  0.25500000920E-02 0. -1.
       -2    1    3    3    0  502  0.77712058212E+03 -0.11888780428E+04  0.78488656390E+03  0.16227736497E+04  0.25500000920E-02 0.  1.
</event>
<event>
 5   0  0.9994311E-07  0.2898546E+04  0.7818609E-02  0.8273310E-01
       -2   -1    0    0    0  501  0.00000000000E+00  0.00000000000E+00  0.21785430842E+04  0.21785430842E+04  0.25500000920E-02 0.  1.
        2   -1    0    0  501    0  0.00000000000E+00  0.00000000000E+00 -0.96412700969E+03  0.96412700970E+03  0.25500000920E-02 0. -1.
    10030    2    1    2    0    0  0.00000000000E+00  0.00000000000E+00  0.12144160745E+04  0.31426700939E+04  0.28985460005E+04 0.  0.
        2    1    3    3  502    0 -0.42286042102E+03 -0.12975356427E+04  0.11361294534E+04  0.17757251517E+04  0.25500000920E-02 0.  1.
       -2    1    3    3    0  502  0.42286042102E+03  0.12975356427E+04  0.78286621140E+02  0.13669449421E+04  0.25500000920E-02 0. -1.
</event>
<event>
 5   0  0.3638028E-07  0.2905067E+04  0.7818609E-02  0.8271372E-01
        1   -1    0    0  501    0  0.00000000000E+00  0.00000000000E+00  0.18494458390E+04  0.18494458390E+04  0.50400001928E-02 0.  1.
       -1   -1    0    0    0  501  0.00000000000E+00  0.00000000000E+00 -0.11408029456E+04  0.11408029456E+04  0.50400001928E-02 0. -1.
    10030    2    1    2    0    0  0.00000000000E+00  0.00000000000E+00  0.70864289342E+03  0.29902487846E+04  0.29050667881E+04 0.  0.
        4    1    3    3  502    0 -0.16543796148E+03 -0.28302813127E+03 -0.11022242883E+04  0.11499454930E+04  0.12699999809E+01 0. -1.
       -4    1    3    3    0  502  0.16543796148E+03  0.28302813127E+03  0.18108671818E+04  0.18403032916E+04  0.12699999809E+01 0.  1.
</event>
<event>
 5   0  0.1006893E-06  0.2898300E+04  0.7818609E-02  0.8273383E-01
       -2   -1    0    0    0  501  0.00000000000E+00  0.00000000000E+00  0.12464122635E+04  0.12464122635E+04  0.25500000920E-02 0. -1.
        2   -1    0    0  501    0  0.00000000000E+00  0.00000000000E+00 -0.16848646925E+04  0.16848646925E+04  0.25500000920E-02 0.  1.
    10030    2    1    2    0    0  0.00000000000E+00  0.00000000000E+00 -0.43845242898E+03  0.29312769560E+04  0.28983002019E+04 0.  0.
        4    1    3    3  502    0 -0.40317654134E+03  0.33548798057E+03 -0.15854967368E+04  0.16700015041E+04  0.12699999809E+01 0.  1.
       -4    1    3    3    0  502  0.40317654134E+03 -0.33548798057E+03  0.11470443078E+04  0.12612754519E+04  0.12699999809E+01 0. -1.
</event>
<event>
 5   0  0.3378750E-07  0.2898920E+04  0.7818609E-02  0.8273199E-01
       -3   -1    0    0    0  501  0.00000000000E+00  0.00000000000E+00  0.14464817833E+04  0.14464817869E+04  0.10100000352E+00 0. -1.
        3   -1    0    0  501    0  0.00000000000E+00  0.00000000000E+00 -0.14524446401E+04  0.14524446436E+04  0.10100000352E+00 0.  1.
    10030    2    1    2    0    0  0.00000000000E+00  0.00000000000E+00 -0.59628567376E+01  0.28989264305E+04  0.28989202979E+04 0.  0.
        1    1    3    3  502    0 -0.29618171752E+03 -0.53436919679E+01  0.14158882190E+04  0.14465447154E+04  0.50400001928E-02 0. -1.
       -1    1    3    3    0  502  0.29618171752E+03  0.53436919679E+01 -0.14218510757E+04  0.14523817151E+04  0.50400001928E-02 0.  1.
</event>
<event>
 5   0  0.3786210E-07  0.2889419E+04  0.7818609E-02  0.8276033E-01
        1   -1    0    0  501    0  0.00000000000E+00  0.00000000000E+00  0.92605802508E+03  0.92605802510E+03  0.50400001928E-02 0.  1.
       -1   -1    0    0    0  501  0.00000000000E+00  0.00000000000E+00 -0.22538383417E+04  0.22538383417E+04  0.50400001928E-02 0. -1.
    10030    2    1    2    0    0  0.00000000000E+00  0.00000000000E+00 -0.13277803166E+04  0.31798963668E+04  0.28894186845E+04 0.  0.
        5    1    3    3  502    0 -0.10516240518E+04 -0.70745612882E+03  0.99180401925E+02  0.12713245702E+04  0.46999998093E+01 0.  1.
       -5    1    3    3    0  502  0.10516240518E+04  0.70745612882E+03 -0.14269607185E+04  0.19085717966E+04  0.46999998093E+01 0. -1.
</event>
<event>
 5   0  0.3769563E-07  0.2947106E+04  0.7818609E-02  0.8258998E-01
        1   -1    0    0  501    0  0.00000000000E+00  0.00000000000E+00  0.22748507506E+04  0.22748507506E+04  0.50400001928E-02 0.  1.
       -1   -1    0    0    0  501  0.00000000000E+00  0.00000000000E+00 -0.95450584029E+03  0.95450584031E+03  0.50400001928E-02 0. -1.
    10030    2    1    2    0    0  0.00000000000E+00  0.00000000000E+00  0.13203449103E+04  0.32293565909E+04  0.29471059209E+04 0.  0.
        3    1    3    3  502    0  0.66334990644E+03  0.12516028640E+04  0.21531664141E+03  0.14327959009E+04  0.10100000352E+00 0. -1.
       -3    1    3    3    0  502 -0.66334990644E+03 -0.12516028640E+04  0.11050282689E+04  0.17965606900E+04  0.10100000352E+00 0.  1.
</event>
<event>
 5   0  0.9994311E-07  0.2898028E+04  0.7818609E-02  0.8273465E-01
       -2   -1    0    0    0  501  0.00000000000E+00  0.00000000000E+00  0.11190751023E+04  0.11190751023E+04  0.25500000920E-02 0. -1.
        2   -1    0    0  501    0  0.00000000000E+00  0.00000000000E+00 -0.18762290801E+04  0.18762290801E+04  0.25500000920E-02 0.  1.
    10030    2    1    2    0    0  0.00000000000E+00  0.00000000000E+00 -0.75715397782E+03  0.29953041823E+04  0.28980277774E+04 0.  0.
        2    1    3    3  502    0  0.27390424508E+03  0.12457543233E+04 -0.10891972180E+04  0.16772829067E+04  0.25500000920E-02 0.  1.
       -2    1    3    3    0  502 -0.27390424508E+03 -0.12457543233E+04  0.33204324017E+03  0.13180212756E+04  0.25500000920E-02 0. -1.
</event>
<event>
 5   0  0.3770467E-07  0.2897228E+04  0.7818609E-02  0.8273703E-01
        1   -1    0    0  501    0  0.00000000000E+00  0.00000000000E+00  0.27248270584E+04  0.27248270584E+04  0.50400001928E-02 0. -1.
       -1   -1    0    0    0  501  0.00000000000E+00  0.00000000000E+00 -0.77013437186E+03  0.77013437188E+03  0.50400001928E-02 0.  1.
    10030    2    1    2    0    0  0.00000000000E+00  0.00000000000E+00  0.19546926865E+04  0.34949614303E+04  0.28972283135E+04 0.  0.
        1    1    3    3  502    0  0.11100585297E+04  0.82931976590E+03  0.14869782245E+04  0.20325121042E+04  0.50400001928E-02 0. -1.
       -1    1    3    3    0  502 -0.11100585297E+04 -0.82931976590E+03  0.46771446199E+03  0.14624493261E+04  0.50400001928E-02 0.  1.
</event>
<event>
 5   0  0.9994311E-07  0.2904616E+04  0.7818609E-02  0.8271505E-01
        2   -1    0    0  501    0  0.00000000000E+00  0.00000000000E+00  0.14187742862E+04  0.14187742862E+04  0.25500000920E-02 0. -1.
       -2   -1    0    0    0  501  0.00000000000E+00  0.00000000000E+00 -0.14866341873E+04  0.14866341873E+04  0.25500000920E-02 0.  1.
    10030    2    1    2    0    0  0.00000000000E+00  0.00000000000E+00 -0.67859901097E+02  0.29054084734E+04  0.29046158836E+04 0.  0.
        2    1    3    3  502    0  0.75513243467E+03 -0.97102112066E+03  0.73835024822E+03  0.14346665465E+04  0.25500000920E-02 0. -1.
       -2    1    3    3    0  502 -0.75513243467E+03  0.97102112066E+03 -0.80621014931E+03  0.14707419269E+04  0.25500000920E-02 0.  1.
</event>
<event>
 5   0  0.9994311E-07  0.2884842E+04  0.7818609E-02  0.8277402E-01
       -2   -1    0    0    0  501  0.00000000000E+00  0.00000000000E+00  0.15983343242E+04  0.15983343242E+04  0.25500000920E-02 0.  1.
        2   -1    0    0  501    0  0.00000000000E+00  0.00000000000E+00 -0.13017170227E+04  0.13017170227E+04  0.25500000920E-02 0. -1.
    10030    2    1    2    0    0  0.00000000000E+00  0.00000000000E+00  0.29661730153E+03  0.29000513469E+04  0.28848424552E+04 0.  0.
        2    1    3    3  502    0 -0.46979625014E+03  0.25118738958E+03  0.14958139452E+04  0.15878485381E+04  0.25500000920E-02 0.  1.
       -2    1    3    3    0  502  0.46979625014E+03 -0.25118738958E+03 -0.11991966437E+04  0.13122028088E+04  0.25500000920E-02 0. -1.
</event>
<event>
 5   0  0.3769563E-07  0.2901845E+04  0.7818609E-02  0.8272329E-01
       -1   -1    0    0    0  501  0.00000000000E+00  0.00000000000E+00  0.10869870364E+04  0.10869870364E+04  0.50400001928E-02 0.  1.
        1   -1    0    0  501    0  0.00000000000E+00  0.00000000000E+00 -0.19367074350E+04  0.19367074350E+04  0.50400001928E-02 0. -1.
    10030    2    1    2    0    0  0.00000000000E+00  0.00000000000E+00 -0.84972039862E+03  0.30236944714E+04  0.29018448443E+04 0.  0.
        3    1    3    3  502    0 -0.10014208712E+04 -0.35136673168E+03  0.60606465234E+03  0.12221361276E+04  0.10100000352E+00 0.  1.
       -3    1    3    3    0  502  0.10014208712E+04  0.35136673168E+03 -0.14557850510E+04  0.18015583438E+04  0.10100000352E+00 0. -1.
</event>
<event>
 5   0  0.3770467E-07  0.2895176E+04  0.7818609E-02  0.8274314E-01
        1   -1    0    0  501    0  0.00000000000E+00  0.00000000000E+00  0.10021834369E+04  0.10021834369E+04  0.50400001928E-02 0.  1.
       -1   -1    0    0    0  501  0.00000000000E+00  0.00000000000E+00 -0.20909453041E+04  0.20909453041E+04  0.50400001928E-02 0. -1.
    10030    2    1    2    0    0  0.00000000000E+00  0.00000000000E+00 -0.10887618673E+04  0.30931287410E+04  0.28951758159E+04 0.  0.
        1    1    3    3  502    0 -0.61053407188E+03  0.36930426272E+03  0.80124932521E+03  0.10729109807E+04  0.50400001928E-02 0.  1.
       -1    1    3    3    0  502  0.61053407188E+03 -0.36930426272E+03 -0.18900111925E+04  0.20202177603E+04  0.50400001928E-02 0. -1.
</event>
<event>
 5   0  0.3769563E-07  0.2894668E+04  0.7818609E-02  0.8274466E-01
       -1   -1    0    0    0  501  0.00000000000E+00  0.00000000000E+00  0.15319615841E+04  0.15319615841E+04  0.50400001928E-02 0.  1.
        1   -1    0    0  501    0  0.00000000000E+00  0.00000000000E+00 -0.13673813254E+04  0.13673813254E+04  0.50400001928E-02 0. -1.
    10030    2    1    2    0    0  0.00000000000E+00  0.00000000000E+00  0.16458025866E+03  0.28993429095E+04  0.28946679680E+04 0.  0.
        3    1    3    3  502    0  0.45121430817E+03  0.66104858288E+02 -0.12935408333E+04  0.13715728570E+04  0.10100000352E+00 0. -1.
       -3    1    3    3    0  502 -0.45121430817E+03 -0.66104858288E+02  0.14581210920E+04  0.15277700525E+04  0.10100000352E+00 0.  1.
</event>
<event>
 5   0  0.3378750E-07  0.2902916E+04  0.7818609E-02  0.8272010E-01
       -3   -1    0    0    0  501  0.00000000000E+00  0.00000000000E+00  0.15090692632E+04  0.15090692666E+04  0.10100000352E+00 0.  1.
        3   -1    0    0  501    0  0.00000000000E+00  0.00000000000E+00 -0.13960464437E+04  0.13960464473E+04  0.10100000352E+00 0. -1.
    10030    2    1    2    0    0  0.00000000000E+00  0.00000000000E+00  0.11302281957E+03  0.29051157139E+04  0.29029163187E+04 0.  0.
        4    1    3    3  502    0  0.31307510200E+02  0.28921176459E+03 -0.13665735591E+04  0.13971930827E+04  0.12699999809E+01 0. -1.
       -4    1    3    3    0  502 -0.31307510200E+02 -0.28921176459E+03  0.14795963787E+04  0.15079226312E+04  0.12699999809E+01 0.  1.
</event>
<event>
 5   0  0.3638028E-07  0.2901091E+04  0.7818609E-02  0.8272553E-01
       -1   -1    0    0    0  501  0.00000000000E+00  0.00000000000E+00  0.14931411309E+04  0.14931411309E+04  0.50400001928E-02 0. -1.
        1   -1    0    0  501    0  0.00000000000E+00  0.00000000000E+00 -0.14091647417E+04  0.14091647417E+04  0.50400001928E-02 0.  1.
    10030    2    1    2    0    0  0.00000000000E+00  0.00000000000E+00  0.83976389214E+02  0.29023058726E+04  0.29010907163E+04 0.  0.
        4    1    3    3  502    0 -0.12474572456E+04 -0.63029785417E+03  0.43029412109E+03  0.14623883233E+04  0.12699999809E+01 0. -1.
       -4    1    3    3    0  502  0.12474572456E+04  0.63029785417E+03 -0.34631773188E+03  0.14399175493E+04  0.12699999809E+01 0.  1.
</event>
<event>
 5   0  0.3638028E-07  0.2910468E+04  0.7818609E-02  0.8269770E-01
       -1   -1    0    0    0  501  0.00000000000E+00  0.00000000000E+00  0.84172655255E+03  0.84172655256E+03  0.50400001928E-02 0.  1.
        1   -1    0    0  501    0  0.00000000000E+00  0.00000000000E+00 -0.25159073848E+04  0.25159073848E+04  0.50400001928E-02 0. -1.
    10030    2    1    2    0    0  0.00000000000E+00  0.00000000000E+00 -0.16741808323E+04  0.33576339374E+04  0.29104680377E+04 0.  0.
        4    1    3    3  502    0  0.72993701272E+03  0.91835986717E+03 -0.18305025749E+04  0.21741513696E+04  0.12699999809E+01 0. -1.
       -4    1    3    3    0  502 -0.72993701272E+03 -0.91835986717E+03  0.15632174265E+03  0.11834825678E+04  0.12699999809E+01 0.  1.
</event>
<event>
 5   0  0.1063979E-06  0.2899159E+04  0.7818609E-02  0.8273128E-01
        2   -1    0    0  501    0  0.00000000000E+00  0.00000000000E+00  0.18599537521E+04  0.18599537521E+04  0.25500000920E-02 0.  1.
       -2   -1    0    0    0  501  0.00000000000E+00  0.00000000000E+00 -0.11297486507E+04  0.11297486507E+04  0.25500000920E-02 0. -1.
    10030    2    1    2    0    0  0.00000000000E+00  0.00000000000E+00  0.73020510131E+03  0.29897024028E+04  0.28991586654E+04 0.  0.
        1    1    3    3  502    0 -0.14390232787E+04 -0.17211906527E+03  0.39547177949E+03  0.15022685837E+04  0.50400001928E-02 0. -1.
       -1    1    3    3    0  502  0.14390232787E+04  0.17211906527E+03  0.33473332183E+03  0.14874338191E+04  0.50400001928E-02 0.  1.
</event>
<event>
 5   0  0.9950999E-07  0.2899772E+04  0.7818609E-02  0.8272945E-01
       -2   -1    0    0    0  501  0.00000000000E+00  0.00000000000E+00  0.12177642145E+04  0.12177642145E+04  0.25500000920E-02 0. -1.
        2   -1    0    0  501    0  0.00000000000E+00  0.00000000000E+00 -0.17262532105E+04  0.17262532105E+04  0.25500000920E-02 0.  1.
    10030    2    1    2    0    0  0.00000000000E+00  0.00000000000E+00 -0.50848899595E+03  0.29440174250E+04  0.28997719807E+04 0.  0.
        3    1    3    3  502    0 -0.12876880012E+04 -0.63314760208E+03 -0.46514738653E+03  0.15084357381E+04  0.10100000352E+00 0.  1.
       -3    1    3    3    0  502  0.12876880012E+04  0.63314760208E+03 -0.43341609412E+02  0.14355816869E+04  0.10100000352E+00 0. -1.
</event>
<event>
 5   0  0.3786210E-07  0.2897374E+04  0.7818609E-02  0.8273659E-01
        1   -1    0    0  501    0  0.00000000000E+00  0.00000000000E+00  0.14016240571E+04  0.14016240571E+04  0.50400001928E-02 0.  1.
       -1   -1    0    0    0  501  0.00000000000E+00  0.00000000000E+00 -0.14973306478E+04  0.14973306478E+04  0.50400001928E-02 0. -1.
    10030    2    1    2    0    0  0.00000000000E+00  0.00000000000E+00 -0.95706590728E+02  0.28989547049E+04  0.28973744373E+04 0.  0.
        5    1    3    3  502    0 -0.11912312924E+04  0.81457817011E+03  0.79113434666E+02  0.14452856509E+04  0.46999998093E+01 0.  1.
       -5    1    3    3    0  502  0.11912312924E+04 -0.81457817011E+03 -0.17482002539E+03  0.14536690540E+04  0.46999998093E+01 0. -1.
</event>
<event>
 5   0  0.9994311E-07  0.2902206E+04  0.7818609E-02  0.8272221E-01
        2   -1    0    0  501    0  0.00000000000E+00  0.00000000000E+00  0.25680728838E+04  0.25680728838E+04  0.25500000920E-02 0. -1.
       -2   -1    0    0    0  501  0.00000000000E+00  0.00000000000E+00 -0.81995351167E+03  0.81995351167E+03  0.25500000920E-02 0.  1.
    10030    2    1    2    0    0  0.00000000000E+00  0.00000000000E+00  0.17481193721E+04  0.33880263954E+04  0.29022063188E+04 0.  0.
        2    1    3    3  502    0  0.27699463439E+03 -0.10026547050E+04  0.20551848488E+04  0.23034381363E+04  0.25500000920E-02 0. -1.
       -2    1    3    3    0  502 -0.27699463439E+03  0.10026547050E+04 -0.30706547672E+03  0.10845882591E+04  0.25500000920E-02 0.  1.
</event>
<event>
 5   0  0.1006893E-06  0.2902701E+04  0.7818609E-02  0.8272074E-01
        2   -1    0    0  501    0  0.00000000000E+00  0.00000000000E+00  0.80918435838E+03  0.80918435839E+03  0.25500000920E-02 0. -1.
       -2   -1    0    0    0  501  0.00000000000E+00  0.00000000000E+00 -0.26031369297E+04  0.26031369297E+04  0.25500000920E-02 0.  1.
    10030    2    1    2    0    0  0.00000000000E+00  0.00000000000E+00 -0.17939525713E+04  0.34123212880E+04  0.29027005951E+04 0.  0.
        4    1    3    3  502    0  0.30145212479E+03 -0.37410273129E+03  0.71298935994E+03  0.85975675478E+03  0.12699999809E+01 0. -1.
       -4    1    3    3    0  502 -0.30145212479E+03  0.37410273129E+03 -0.25069419312E+04  0.25525645333E+04  0.12699999809E+01 0.  1.
</event>
<event>
 5   0  0.3638028E-07  0.2899298E+04  0.7818609E-02  0.8273086E-01
       -1   -1    0    0    0  501  0.00000000000E+00  0.00000000000E+00  0.16822116027E+04  0.16822116027E+04  0.50400001928E-02 0.  1.
        1   -1    0    0  501    0  0.00000000000E+00  0.00000000000E+00 -0.12492376172E+04  0.12492376172E+04  0.50400001928E-02 0. -1.
    10030    2    1    2    0    0  0.00000000000E+00  0.00000000000E+00  0.43297398550E+03  0.29314492199E+04  0.28992978558E+04 0.  0.
        4    1    3    3  502    0 -0.10713496215E+04  0.95686762441E+03  0.19143848701E+02  0.14365770992E+04  0.12699999809E+01 0. -1.
       -4    1    3    3    0  502  0.10713496215E+04 -0.95686762441E+03  0.41383013680E+03  0.14948721207E+04  0.12699999809E+01 0.  1.
</event>
<event>
 5   0  0.1031339E-06  0.2907729E+04  0.7818609E-02  0.8270582E-01
       -2   -1    0    0    0  501  0.00000000000E+00  0.00000000000E+00  0.10257145430E+04  0.10257145430E+04  0.25500000920E-02 0.  1.
        2   -1    0    0  501    0  0.00000000000E+00  0.00000000000E+00 -0.20607313101E+04  0.20607313101E+04  0.25500000920E-02 0. -1.
    10030    2    1    2    0    0  0.00000000000E+00  0.00000000000E+00 -0.10350167671E+04  0.30864458531E+04  0.29077290617E+04 0.  0.
        5    1    3    3  502    0  0.99913319251E+02  0.14502558810E+04 -0.49436966094E+03  0.15354635272E+04  0.46999998093E+01 0. -1.
       -5    1    3    3    0  502 -0.99913319251E+02 -0.14502558810E+04 -0.54064710614E+03  0.15509823259E+04  0.46999998093E+01 0.  1.
</event>
<event>
 5   0  0.9950999E-07  0.2902484E+04  0.7818609E-02  0.8272139E-01
       -2   -1    0    0    0  501  0.00000000000E+00  0.00000000000E+00  0.23265561954E+04  0.23265561954E+04  0.25500000920E-02 0. -1.
        2   -1    0    0  501    0  0.00000000000E+00  0.00000000000E+00 -0.90524498683E+03  0.90524498684E+03  0.25500000920E-02 0.  1.
    10030    2    1    2    0    0  0.00000000000E+00  0.00000000000E+00  0.14213112086E+04  0.32318011823E+04  0.29024839931E+04 0.  0.
        3    1    3    3  502    0 -0.21728503393E+03 -0.13726073654E+04  0.11762359628E+04  0.18206577976E+04  0.10100000352E+00 0.  1.
       -3    1    3    3    0  502  0.21728503393E+03  0.13726073654E+04  0.24507524575E+03  0.14111433846E+04  0.10100000352E+00 0. -1.
</event>
<event>
 5   0  0.3638028E-07  0.2933785E+04  0.7818609E-02  0.8262896E-01
       -1   -1    0    0    0  501  0.00000000000E+00  0.00000000000E+00  0.14203237381E+04  0.14203237381E+04  0.50400001928E-02 0. -1.
        1   -1    0    0  501    0  0.00000000000E+00  0.00000000000E+00 -0.15149881192E+04  0.15149881192E+04  0.50400001928E-02 0.  1.
    10030    2    1    2    0    0  0.00000000000E+00  0.00000000000E+00 -0.94664381070E+02  0.29353118574E+04  0.29337849879E+04 0.  0.
        4    1    3    3  502    0  0.40011877682E+03 -0.13360729358E+04 -0.50208612298E+03  0.14823218319E+04  0.12699999809E+01 0.  1.
       -4    1    3    3    0  502 -0.40011877682E+03  0.13360729358E+04  0.40742174191E+03  0.14529900255E+04  0.12699999809E+01 0. -1.
</event>
<event>
 5   0  0.3769563E-07  0.2898592E+04  0.7818609E-02  0.8273296E-01
       -1   -1    0    0    0  501  0.00000000000E+00  0.00000000000E+00  0.97103128321E+03  0.97103128322E+03  0.50400001928E-02 0.  1.
        1   -1    0    0  501    0  0.00000000000E+00  0.00000000000E+00 -0.21631219533E+04  0.21631219533E+04  0.50400001928E-02 0. -1.
    10030    2    1    2    0    0  0.00000000000E+00  0.00000000000E+00 -0.11920906701E+04  0.31341532366E+04  0.28985921314E+04 0.  0.
        3    1    3    3  502    0  0.85673256955E+03  0.79321966239E+03  0.33237934733E+03  0.12139457028E+04  0.10100000352E+00 0. -1.
       -3    1    3    3    0  502 -0.85673256955E+03 -0.79321966239E+03 -0.15244700175E+04  0.19202075338E+04  0.10100000352E+00 0.  1.
</event>
<event>
 5   0  0.1006893E-06  0.2897377E+04  0.7818609E-02  0.8273658E-01
       -2   -1    0    0    0  501  0.00000000000E+00  0.00000000000E+00  0.10752321718E+04  0.10752321718E+04  0.25500000920E-02 0. -1.
        2   -1    0    0  501    0  0.00000000000E+00  0.00000000000E+00 -0.19518563003E+04  0.19518563003E+04  0.25500000920E-02 0.  1.
    10030    2    1    2    0    0  0.00000000000E+00  0.00000000000E+00 -0.87662412850E+03  0.30270884722E+04  0.28973772201E+04 0.  0.
        4    1    3    3  502    0  0.10196160867E+04  0.24947398053E+03  0.60480589072E+03  0.12114644070E+04  0.12699999809E+01 0. -1.
       -4    1    3    3    0  502 -0.10196160867E+04 -0.24947398053E+03 -0.14814300192E+04  0.18156240651E+04  0.12699999809E+01 0.  1.
</event>
<event>
 5   0  0.9950999E-07  0.2906550E+04  0.7818609E-02  0.8270931E-01
        2   -1    0    0  501    0  0.00000000000E+00  0.00000000000E+00  0.19425664342E+04  0.19425664342E+04  0.25500000920E-02 0.  1.
       -2   -1    0    0    0  501  0.00000000000E+00  0.00000000000E+00 -0.10872253979E+04  0.10872253979E+04  0.25500000920E-02 0. -1.
    10030    2    1    2    0    0  0.00000000000E+00  0.00000000000E+00  0.85534103631E+03  0.30297918321E+04  0.29065495450E+04 0.  0.
        3    1    3    3  502    0 -0.95258984130E+03  0.12487427864E+03 -0.70897104691E+03  0.11940104467E+04  0.10100000352E+00 0. -1.
       -3    1    3    3    0  502  0.95258984130E+03 -0.12487427864E+03  0.15643120832E+04  0.18357813854E+04  0.10100000352E+00 0.  1.
</event>
<event>
 5   0  0.9994311E-07  0.2906169E+04  0.7818609E-02  0.8271044E-01
        2   -1    0    0  501    0  0.00000000000E+00  0.00000000000E+00  0.16153968382E+04  0.16153968382E+04  0.25500000920E-02 0. -1.
       -2   -1    0    0    0  501  0.00000000000E+00  0.00000000000E+00 -0.13070809548E+04  0.13070809548E+04  0.25500000920E-02 0.  1.
    10030    2    1    2    0    0  0.00000000000E+00  0.00000000000E+00  0.30831588334E+03  0.29224777930E+04  0.29061689157E+04 0.  0.
        2    1    3    3  502    0 -0.10073212628E+04 -0.44760705549E+02  0.12063349181E+04  0.15722415788E+04  0.25500000920E-02 0. -1.
       -2    1    3    3    0  502  0.10073212628E+04  0.44760705549E+02 -0.89801903479E+03  0.13502362142E+04  0.25500000920E-02 0.  1.
</event>
<event>
 5   0  0.9994311E-07  0.2900302E+04  0.7818609E-02  0.8272788E-01
       -2   -1    0    0    0  501  0.00000000000E+00  0.00000000000E+00  0.14811365267E+04  0.14811365267E+04  0.25500000920E-02 0.  1.
        2   -1    0    0  501    0  0.00000000000E+00  0.00000000000E+00 -0.14198135209E+04  0.14198135209E+04  0.25500000920E-02 0. -1.
    10030    2    1    2    0    0  0.00000000000E+00  0.00000000000E+00  0.61323005861E+02  0.29009500476E+04  0.29003018235E+04 0.  0.
        2    1    3    3  502    0 -0.21126533352E+03  0.12636801367E+04 -0.64876723982E+03  0.14361126211E+04  0.25500000920E-02 0. -1.
       -2    1    3    3    0  502  0.21126533352E+03 -0.12636801367E+04  0.71009024568E+03  0.14648374265E+04  0.25500000920E-02 0.  1.
</event>
<event>
 5   0  0.1006893E-06  0.2913357E+04  0.7818609E-02  0.8268914E-01
        2   -1    0    0  501    0  0.00000000000E+00  0.00000000000E+00  0.21276201462E+04  0.21276201462E+04  0.25500000920E-02 0. -1.
       -2   -1    0    0    0  501  0.00000000000E+00  0.00000000000E+00 -0.99731750468E+03  0.99731750468E+03  0.25500000920E-02 0.  1.
    10030    2    1    2    0    0  0.00000000000E+00  0.00000000000E+00  0.11303026415E+04  0.31249376509E+04  0.29133573863E+04 0.  0.
        4    1    3    3  502    0 -0.71636269826E+03 -0.11059941877E+04  0.12311400045E+04  0.18033596375E+04  0.12699999809E+01 0. -1.
       -4    1    3    3    0  502  0.71636269826E+03  0.11059941877E+04 -0.10083736301E+03  0.13215780133E+04  0.12699999809E+01 0.  1.
</event>
<event>
 5   0  0.1031339E-06  0.2899288E+04  0.7818609E-02  0.8273089E-01
       -2   -1    0    0    0  501  0.00000000000E+00  0.00000000000E+00  0.89259094420E+03  0.89259094420E+03  0.25500000920E-02 0. -1.
        2   -1    0    0  501    0  0.00000000000E+00  0.00000000000E+00 -0.23543462690E+04  0.23543462690E+04  0.25500000920E-02 0.  1.
    10030    2    1    2    0    0  0.00000000000E+00  0.00000000000E+00 -0.14617553248E+04  0.32469372132E+04  0.28992882983E+04 0.  0.
        5    1    3    3  502    0  0.13675994542E+04  0.47897902712E+03 -0.77701046046E+03  0.16442373677E+04  0.46999998093E+01 0.  1.
       -5    1    3    3    0  502 -0.13675994542E+04 -0.47897902712E+03 -0.68474486431E+03  0.16026998455E+04  0.46999998093E+01 0. -1.
</event>
<event>
 5   0  0.1031339E-06  0.2896430E+04  0.7818609E-02  0.8273941E-01
       -2   -1    0    0    0  501  0.00000000000E+00  0.00000000000E+00  0.94060929086E+03  0.94060929086E+03  0.25500000920E-02 0.  1.
        2   -1    0    0  501    0  0.00000000000E+00  0.00000000000E+00 -0.22297526549E+04  0.22297526549E+04  0.25500000920E-02 0. -1.
    10030    2    1    2    0    0  0.00000000000E+00  0.00000000000E+00 -0.12891433640E+04  0.31703619457E+04  0.28964295700E+04 0.  0.
        5    1    3    3  502    0  0.12073628846E+04 -0.79946680035E+03 -0.66731341593E+03  0.15944282941E+04  0.46999998093E+01 0. -1.
       -5    1    3    3    0  502 -0.12073628846E+04  0.79946680035E+03 -0.62182994807E+03  0.15759336516E+04  0.46999998093E+01 0.  1.
</event>
<event>
 5   0  0.9950999E-07  0.2905552E+04  0.7818609E-02  0.8271228E-01
       -2   -1    0    0    0  501  0.00000000000E+00  0.00000000000E+00  0.10762694306E+04  0.10762694306E+04  0.25500000920E-02 0. -1.
        2   -1    0    0  501    0  0.00000000000E+00  0.00000000000E+00 -0.19609939727E+04  0.19609939727E+04  0.25500000920E-02 0.  1.
    10030    2    1    2    0    0  0.00000000000E+00  0.00000000000E+00 -0.88472454203E+03  0.30372634033E+04  0.29055518350E+04 0.  0.
        3    1    3    3  502    0 -0.60672303584E+03  0.54066384911E+03 -0.17011628711E+04  0.18853077638E+04  0.10100000352E+00 0.  1.
       -3    1    3    3    0  502  0.60672303584E+03 -0.54066384911E+03  0.81643832909E+03  0.11519556395E+04  0.10100000352E+00 0. -1.
</event>
<event>
 5   0  0.3770467E-07  0.2899329E+04  0.7818609E-02  0.8273077E-01
       -1   -1    0    0    0  501  0.00000000000E+00  0.00000000000E+00  0.13214809228E+04  0.13214809229E+04  0.50400001928E-02 0.  1.
        1   -1    0    0  501    0  0.00000000000E+00  0.00000000000E+00 -0.15902814019E+04  0.15902814019E+04  0.50400001928E-02 0. -1.
    10030    2    1    2    0    0  0.00000000000E+00  0.00000000000E+00 -0.26880047906E+03  0.29117623248E+04  0.28993285668E+04 0.  0.
        1    1    3    3  502    0 -0.13592776084E+04 -0.16063984161E+03  0.34523112244E+03  0.14116038054E+04  0.50400001928E-02 0. -1.
       -1    1    3    3    0  502  0.13592776084E+04  0.16063984161E+03 -0.61403160150E+03  0.15001585194E+04  0.50400001928E-02 0.  1.
</event>
<event>
 5   0  0.3770467E-07  0.2898483E+04  0.7818609E-02  0.8273329E-01
        1   -1    0    0  501    0  0.00000000000E+00  0.00000000000E+00  0.19912128721E+04  0.19912128721E+04  0.50400001928E-02 0. -1.
       -1   -1    0    0    0  501  0.00000000000E+00  0.00000000000E+00 -0.10547849880E+04  0.10547849880E+04  0.50400001928E-02 0.  1.
    10030    2    1    2    0    0  0.00000000000E+00  0.00000000000E+00  0.93642788409E+03  0.30459978601E+04  0.28984833588E+04 0.  0.
        1    1    3    3  502    0  0.10405613375E+04 -0.69682661077E+03  0.12346939143E+04  0.17586370531E+04  0.50400001928E-02 0. -1.
       -1    1    3    3    0  502 -0.10405613375E+04  0.69682661077E+03 -0.29826603019E+03  0.12873608070E+04  0.50400001928E-02 0.  1.
</event>
<event>
 5   0  0.9994311E-07  0.2897468E+04  0.7818609E-02  0.8273631E-01
       -2   -1    0    0    0  501  0.00000000000E+00  0.00000000000E+00  0.12858507114E+04  0.12858507114E+04  0.25500000920E-02 0.  1.
        2   -1    0    0  501    0  0.00000000000E+00  0.00000000000E+00 -0.16322506913E+04  0.16322506913E+04  0.25500000920E-02 0. -1.
    10030    2    1    2    0    0  0.00000000000E+00  0.00000000000E+00 -0.34639997990E+03  0.29181014028E+04  0.28974683520E+04 0.  0.
        2    1    3    3  502    0  0.11945215920E+04  0.80363286703E+03 -0.33597734383E+03  0.14783735639E+04  0.25500000920E-02 0.  1.
       -2    1    3    3    0  502 -0.11945215920E+04 -0.80363286703E+03 -0.10422636068E+02  0.14397278389E+04  0.25500000920E-02 0. -1.
</event>
<event>
 5   0  0.1006893E-06  0.2900148E+04  0.7818609E-02  0.8272834E-01
       -2   -1    0    0    0  501  0.00000000000E+00  0.00000000000E+00  0.14071518137E+04  0.14071518138E+04  0.25500000920E-02 0.  1.
        2   -1    0    0  501    0  0.00000000000E+00  0.00000000000E+00 -0.14943051802E+04  0.14943051802E+04  0.25500000920E-02 0. -1.
    10030    2    1    2    0    0  0.00000000000E+00  0.00000000000E+00 -0.87153366417E+02  0.29014569939E+04  0.29001477511E+04 0.  0.
        4    1    3    3  502    0 -0.14952133657E+03  0.14348601146E+04  0.10322896677E+03  0.14463187791E+04  0.12699999809E+01 0.  1.
       -4    1    3    3    0  502  0.14952133657E+03 -0.14348601146E+04 -0.19038233319E+03  0.14551382148E+04  0.12699999809E+01 0. -1.
</event>
<event>
 5   0  0.3786210E-07  0.2906001E+04  0.7818609E-02  0.8271094E-01
        1   -1    0    0  501    0  0.00000000000E+00  0.00000000000E+00  0.19548785496E+04  0.19548785496E+04  0.50400001928E-02 0.  1.
       -1   -1    0    0    0  501  0.00000000000E+00  0.00000000000E+00 -0.10799698358E+04  0.10799698358E+04  0.50400001928E-02 0. -1.
    10030    2    1    2    0    0  0.00000000000E+00  0.00000000000E+00  0.87490871379E+03  0.30348483854E+04  0.29060005961E+04 0.  0.
        5    1    3    3  502    0  0.14284639457E+04 -0.17490546019E+03  0.22836064301E+03  0.14571450983E+04  0.46999998093E+01 0. -1.
       -5    1    3    3    0  502 -0.14284639457E+04  0.17490546019E+03  0.64654807078E+03  0.15777032871E+04  0.46999998093E+01 0.  1.
</event>
<event>
 5   0  0.1006893E-06  0.2900574E+04  0.7818609E-02  0.8272707E-01
        2   -1    0    0  501    0  0.00000000000E+00  0.00000000000E+00  0.14567934968E+04  0.14567934968E+04  0.25500000920E-02 0. -1.
       -2   -1    0    0    0  501  0.00000000000E+00  0.00000000000E+00 -0.14438100459E+04  0.14438100459E+04  0.25500000920E-02 0.  1.
    10030    2    1    2    0    0  0.00000000000E+00  0.00000000000E+00  0.12983450927E+02  0.29006035426E+04  0.29005744848E+04 0.  0.
        4    1    3    3  502    0 -0.10161505634E+04  0.10256803844E+04  0.14342101238E+03  0.14509146833E+04  0.12699999809E+01 0. -1.
       -4    1    3    3    0  502  0.10161505634E+04 -0.10256803844E+04 -0.13043756145E+03  0.14496888593E+04  0.12699999809E+01 0.  1.
</event>
<event>
 5   0  0.3786210E-07  0.2900489E+04  0.7818609E-02  0.8272732E-01
        1   -1    0    0  501    0  0.00000000000E+00  0.00000000000E+00  0.20706797437E+04  0.20706797437E+04  0.50400001928E-02 0. -1.
       -1   -1    0    0    0  501  0.00000000000E+00  0.00000000000E+00 -0.10157094746E+04  0.10157094746E+04  0.50400001928E-02 0.  1.
    10030    2    1    2    0    0  0.00000000000E+00  0.00000000000E+00  0.10549702691E+04  0.30863892183E+04  0.29004889481E+04 0.  0.
        5    1    3    3  502    0  0.93037080764E+03  0.91373049756E+03 -0.14776843158E+03  0.13123836563E+04  0.46999998093E+01 0.  1.
       -5    1    3    3    0  502 -0.93037080764E+03 -0.91373049756E+03  0.12027387007E+04  0.17740055620E+04  0.46999998093E+01 0. -1.
</event>
<event>
 5   0  0.3638028E-07  0.2898190E+04  0.7818609E-02  0.8273416E-01
        1   -1    0    0  501    0  0.00000000000E+00  0.00000000000E+00  0.17606325144E+04  0.17606325144E+04  0.50400001928E-02 0.  1.
       -1   -1    0    0    0  501  0.00000000000E+00  0.00000000000E+00 -0.11926826341E+04  0.11926826341E+04  0.50400001928E-02 0. -1.
    10030    2    1    2    0    0  0.00000000000E+00  0.00000000000E+00  0.56794988030E+03  0.29533151486E+04  0.28981896591E+04 0.  0.
        4    1    3    3  502    0 -0.18749981751E+03 -0.13509151643E+04  0.78292709357E+03  0.15726106987E+04  0.12699999809E+01 0.  1.
       -4    1    3    3    0  502  0.18749981751E+03  0.13509151643E+04 -0.21497721327E+03  0.13807044499E+04  0.12699999809E+01 0. -1.
</event>
<event>
 5   0  0.3770467E-07  0.2900675E+04  0.7818609E-02  0.8272677E-01
       -1   -1    0    0    0  501  0.00000000000E+00  0.00000000000E+00  0.17153605923E+04  0.17153605923E+04  0.50400001928E-02 0. -1.
        1   -1    0    0  501    0  0.00000000000E+00  0.00000000000E+00 -0.12262602403E+04  0.12262602403E+04  0.50400001928E-02 0.  1.
    10030    2    1    2    0    0  0.00000000000E+00  0.00000000000E+00  0.48910035206E+03  0.29416208326E+04  0.29006747436E+04 0.  0.
        1    1    3    3  502    0 -0.95007949076E+03  0.51013771296E+03 -0.73897875041E+03  0.13072800459E+04  0.50400001928E-02 0.  1.
       -1    1    3    3    0  502  0.95007949076E+03 -0.51013771296E+03  0.12280791025E+04  0.16343407866E+04  0.50400001928E-02 0. -1.
</event>
<event>
 5   0  0.3770467E-07  0.2921334E+04  0.7818609E-02  0.8266558E-01
       -1   -1    0    0    0  501  0.00000000000E+00  0.00000000000E+00  0.11938514685E+04  0.11938514685E+04  0.50400001928E-02 0.  1.
        1   -1    0    0  501    0  0.00000000000E+00  0.00000000000E+00 -0.17871133219E+04  0.17871133219E+04  0.50400001928E-02 0. -1.
    10030    2    1    2    0    0  0.00000000000E+00  0.00000000000E+00 -0.59326185341E+03  0.29809647905E+04  0.29213338486E+04 0.  0.
        1    1    3    3  502    0 -0.10182943839E+04  0.55178763174E+03  0.61156738548E+03  0.13097357404E+04  0.50400001928E-02 0.  1.
       -1    1    3    3    0  502  0.10182943839E+04 -0.55178763174E+03 -0.12048292389E+04  0.16712290500E+04  0.50400001928E-02 0. -1.
</event>
<event>
 5   0  0.3770467E-07  0.2908282E+04  0.7818609E-02  0.8270418E-01
       -1   -1    0    0    0  501  0.00000000000E+00  0.00000000000E+00  0.11935998710E+04  0.11935998710E+04  0.50400001928E-02 0.  1.
        1   -1    0    0  501    0  0.00000000000E+00  0.00000000000E+00 -0.17715530084E+04  0.17715530085E+04  0.50400001928E-02 0. -1.
    10030    2    1    2    0    0  0.00000000000E+00  0.00000000000E+00 -0.57795313743E+03  0.29651528795E+04  0.29082815836E+04 0.  0.
        1    1    3    3  502    0  0.12296473806E+04 -0.20624698963E+02 -0.10800798519E+04  0.16367744333E+04  0.50400001928E-02 0. -1.
       -1    1    3    3    0  502 -0.12296473806E+04  0.20624698963E+02  0.50212671449E+03  0.13283784462E+04  0.50400001928E-02 0.  1.
</event>
<event>
 5   0  0.3885904E-07  0.2898986E+04  0.7818609E-02  0.8273179E-01
        1   -1    0    0  501    0  0.00000000000E+00  0.00000000000E+00  0.15192201056E+04  0.15192201056E+04  0.50400001928E-02 0. -1.
       -1   -1    0    0    0  501  0.00000000000E+00  0.00000000000E+00 -0.13829665073E+04  0.13829665074E+04  0.50400001928E-02 0.  1.
    10030    2    1    2    0    0  0.00000000000E+00  0.00000000000E+00  0.13625359825E+03  0.29021866130E+04  0.28989863907E+04 0.  0.
        2    1    3    3  502    0  0.44381339973E+03  0.75436278533E+03  0.12248229734E+04  0.15053985724E+04  0.25500000920E-02 0. -1.
       -2    1    3    3    0  502 -0.44381339973E+03 -0.75436278533E+03 -0.10885693751E+04  0.13967880405E+04  0.25500000920E-02 0.  1.
</event>
<event>
 5   0  0.3786210E-07  0.2864860E+04  0.7818609E-02  0.8283410E-01
       -1   -1    0    0    0  501  0.00000000000E+00  0.00000000000E+00  0.98473397038E+03  0.98473397039E+03  0.50400001928E-02 0. -1.
        1   -1    0    0  501    0  0.00000000000E+00  0.00000000000E+00 -0.20836652801E+04  0.20836652801E+04  0.50400001928E-02 0.  1.
    10030    2    1    2    0    0  0.00000000000E+00  0.00000000000E+00 -0.10989313097E+04  0.30683992505E+04  0.28648601950E+04 0.  0.
        5    1    3    3  502    0 -0.47851492053E+03  0.81204635190E+03 -0.17047265508E+04  0.19479503356E+04  0.46999998093E+01 0.  1.
       -5    1    3    3    0  502  0.47851492053E+03 -0.81204635190E+03  0.60579524110E+03  0.11204489149E+04  0.46999998093E+01 0. -1.
</event>
<event>
 5   0  0.9950999E-07  0.2902126E+04  0.7818609E-02  0.8272245E-01
       -2   -1    0    0    0  501  0.00000000000E+00  0.00000000000E+00  0.10465641786E+04  0.10465641786E+04  0.25500000920E-02 0.  1.
        2   -1    0    0  501    0  0.00000000000E+00  0.00000000000E+00 -0.20119015645E+04  0.20119015645E+04  0.25500000920E-02 0. -1.
    10030    2    1    2    0    0  0.00000000000E+00  0.00000000000E+00 -0.96533738597E+03  0.30584657431E+04  0.29021261918E+04 0.  0.
        3    1    3    3  502    0 -0.46470260694E+03 -0.13528754286E+04 -0.22589669406E+03  0.14481884424E+04  0.10100000352E+00 0.  1.
       -3    1    3    3    0  502  0.46470260694E+03  0.13528754286E+04 -0.73944069191E+03  0.16102773007E+04  0.10100000352E+00 0. -1.
</event>
<event>
 5   0  0.3769563E-07  0.2902515E+04  0.7818609E-02  0.8272130E-01
        1   -1    0    0  501    0  0.00000000000E+00  0.00000000000E+00  0.22851958377E+04  0.22851958377E+04  0.50400001928E-02 0.  1.
       -1   -1    0    0    0  501  0.00000000000E+00  0.00000000000E+00 -0.92164877692E+03  0.92164877693E+03  0.50400001928E-02 0. -1.
    10030    2    1    2    0    0  0.00000000000E+00  0.00000000000E+00  0.13635470608E+04  0.32068446146E+04  0.29025147365E+04 0.  0.
        3    1    3    3  502    0  0.82615522811E+03 -0.91212450766E+03  0.15316070331E+04  0.19647706463E+04  0.10100000352E+00 0.  1.
       -3    1    3    3    0  502 -0.82615522811E+03  0.91212450766E+03 -0.16805997230E+03  0.12420739684E+04  0.10100000352E+00 0. -1.
</event>
<event>
 5   0  0.3885904E-07  0.2898778E+04  0.7818609E-02  0.8273241E-01
        1   -1    0    0  501    0  0.00000000000E+00  0.00000000000E+00  0.11845624052E+04  0.11845624052E+04  0.50400001928E-02 0. -1.
       -1   -1    0    0    0  501  0.00000000000E+00  0.00000000000E+00 -0.17734211169E+04  0.17734211169E+04  0.50400001928E-02 0.  1.
    10030    2    1    2    0    0  0.00000000000E+00  0.00000000000E+00 -0.58885871177E+03  0.29579835221E+04  0.28987776622E+04 0.  0.
        2    1    3    3  502    0 -0.96455854419E+03 -0.10094420126E+04 -0.69145395974E+03  0.15580291847E+04  0.25500000920E-02 0.  1.
       -2    1    3    3    0  502  0.96455854419E+03  0.10094420126E+04  0.10259524797E+03  0.13999543374E+04  0.25500000920E-02 0. -1.
</event>
<event>
 5   0  0.1031339E-06  0.2898475E+04  0.7818609E-02  0.8273331E-01
       -2   -1    0    0    0  501  0.00000000000E+00  0.00000000000E+00  0.15189600947E+04  0.15189600947E+04  0.25500000920E-02 0.  1.
        2   -1    0    0  501    0  0.00000000000E+00  0.00000000000E+00 -0.13827157256E+04  0.13827157256E+04  0.25500000920E-02 0. -1.
    10030    2    1    2    0    0  0.00000000000E+00  0.00000000000E+00  0.13624436917E+03  0.29016758203E+04  0.28984754679E+04 0.  0.
        5    1    3    3  502    0 -0.29072680304E+03  0.50436351988E+03  0.13967511968E+04  0.15132219368E+04  0.46999998093E+01 0.  1.
       -5    1    3    3    0  502  0.29072680304E+03 -0.50436351988E+03 -0.12605068276E+04  0.13884538835E+04  0.46999998093E+01 0. -1.
</event>
<event>
 5   0  0.9950999E-07  0.2911088E+04  0.7818609E-02  0.8269586E-01
       -2   -1    0    0    0  501  0.00000000000E+00  0.00000000000E+00  0.15740459655E+04  0.15740459655E+04  0.25500000920E-02 0. -1.
        2   -1    0    0  501    0  0.00000000000E+00  0.00000000000E+00 -0.13459631535E+04  0.13459631535E+04  0.25500000920E-02 0.  1.
    10030    2    1    2    0    0  0.00000000000E+00  0.00000000000E+00  0.22808281200E+03  0.29200091190E+04  0.29110876809E+04 0.  0.
        3    1    3    3  502    0 -0.10911115775E+04  0.63584581466E+00  0.10803644271E+04  0.15354843484E+04  0.10100000352E+00 0. -1.
       -3    1    3    3    0  502  0.10911115775E+04 -0.63584581466E+00 -0.85228161507E+03  0.13845247706E+04  0.10100000352E+00 0.  1.
</event>
<event>
 5   0  0.3770467E-07  0.2898450E+04  0.7818609E-02  0.8273339E-01
       -1   -1    0    0    0  501  0.00000000000E+00  0.00000000000E+00  0.10408440326E+04  0.10408440326E+04  0.50400001928E-02 0. -1.
        1   -1    0    0  501    0  0.00000000000E+00  0.00000000000E+00 -0.20178366086E+04  0.20178366086E+04  0.50400001928E-02 0.  1.
    10030    2    1    2    0    0  0.00000000000E+00  0.00000000000E+00 -0.97699257599E+03  0.30586806412E+04  0.28984500636E+04 0.  0.
        1    1    3    3  502    0 -0.61926931066E+03 -0.45165421453E+03  0.80944294289E+03  0.11147573218E+04  0.50400001928E-02 0. -1.
       -1    1    3    3    0  502  0.61926931066E+03  0.45165421453E+03 -0.17864355189E+04  0.19439233194E+04  0.50400001928E-02 0.  1.
</event>
<event>
 5   0  0.1006893E-06  0.2910301E+04  0.7818609E-02  0.8269819E-01
        2   -1    0    0  501    0  0.00000000000E+00  0.00000000000E+00  0.13500036357E+04  0.13500036357E+04  0.25500000920E-02 0. -1.
       -2   -1    0    0    0  501  0.00000000000E+00  0.00000000000E+00 -0.15684874066E+04  0.15684874066E+04  0.25500000920E-02 0.  1.
    10030    2    1    2    0    0  0.00000000000E+00  0.00000000000E+00 -0.21848377086E+03  0.29184910424E+04  0.29103014975E+04 0.  0.
        4    1    3    3  502    0 -0.19417987185E+03  0.12897736739E+04  0.53774035474E+03  0.14108112045E+04  0.12699999809E+01 0. -1.
       -4    1    3    3    0  502  0.19417987185E+03 -0.12897736739E+04 -0.75622412560E+03  0.15076798379E+04  0.12699999809E+01 0.  1.
</event>
<event>
 5   0  0.1063979E-06  0.2903477E+04  0.7818609E-02  0.8271844E-01
        2   -1    0    0  501    0  0.00000000000E+00  0.00000000000E+00  0.87836941180E+03  0.87836941180E+03  0.25500000920E-02 0. -1.
       -2   -1    0    0    0  501  0.00000000000E+00  0.00000000000E+00 -0.23993834984E+04  0.23993834984E+04  0.25500000920E-02 0.  1.
    10030    2    1    2    0    0  0.00000000000E+00  0.00000000000E+00 -0.15210140866E+04  0.32777529102E+04  0.29034772754E+04 0.  0.
        1    1    3    3  502    0 -0.35238599226E+03 -0.64374397832E+03  0.65354083351E+03  0.98269925118E+03  0.50400001928E-02 0. -1.
       -1    1    3    3    0  502  0.35238599226E+03  0.64374397832E+03 -0.21745549201E+04  0.22950536590E+04  0.50400001928E-02 0.  1.
</event>
<event>
 5   0  0.9950999E-07  0.2901447E+04  0.7818609E-02  0.8272447E-01
       -2   -1    0    0    0  501  0.00000000000E+00  0.00000000000E+00  0.83570929582E+03  0.83570929582E+03  0.25500000920E-02 0.  1.
        2   -1    0    0  501    0  0.00000000000E+00  0.00000000000E+00 -0.25183389431E+04  0.25183389431E+04  0.25500000920E-02 0. -1.
    10030    2    1    2    0    0  0.00000000000E+00  0.00000000000E+00 -0.16826296473E+04  0.33540482389E+04  0.29014474076E+04 0.  0.
        3    1    3    3  502    0  0.60161768244E+03  0.58097112446E+03 -0.22116049904E+04  0.23644593308E+04  0.10100000352E+00 0. -1.
       -3    1    3    3    0  502 -0.60161768244E+03 -0.58097112446E+03  0.52897534310E+03  0.98958890813E+03  0.10100000352E+00 0.  1.
</event>
<event>
 5   0  0.3786210E-07  0.2904110E+04  0.7818609E-02  0.8271656E-01
        1   -1    0    0  501    0  0.00000000000E+00  0.00000000000E+00  0.92361341056E+03  0.92361341057E+03  0.50400001928E-02 0.  1.
       -1   -1    0    0    0  501  0.00000000000E+00  0.00000000000E+00 -0.22828417406E+04  0.22828417406E+04  0.50400001928E-02 0. -1.
    10030    2    1    2    0    0  0.00000000000E+00  0.00000000000E+00 -0.13592283301E+04  0.32064551512E+04  0.29041096714E+04 0.  0.
        5    1    3    3  502    0  0.10132673504E+02  0.50797245090E+03 -0.21814882427E+04  0.22398776138E+04  0.46999998093E+01 0. -1.
       -5    1    3    3    0  502 -0.10132673504E+02 -0.50797245090E+03  0.82225991259E+03  0.96657753740E+03  0.46999998093E+01 0.  1.
</event>
<event>
 5   0  0.3885904E-07  0.2891128E+04  0.7818609E-02  0.8275522E-01
        1   -1    0    0  501    0  0.00000000000E+00  0.00000000000E+00  0.16786099472E+04  0.16786099472E+04  0.50400001928E-02 0.  1.
       -1   -1    0    0    0  501  0.00000000000E+00  0.00000000000E+00 -0.12448720848E+04  0.12448720848E+04  0.50400001928E-02 0. -1.
    10030    2    1    2    0    0  0.00000000000E+00  0.00000000000E+00  0.43373786244E+03  0.29234820320E+04  0.28911275755E+04 0.  0.
        2    1    3    3  502    0 -0.22165698517E+03  0.12065826891E+04 -0.55633256480E+03  0.13470261792E+04  0.25500000920E-02 0. -1.
       -2    1    3    3    0  502  0.22165698517E+03 -0.12065826891E+04  0.99007042724E+03  0.15764558528E+04  0.25500000920E-02 0.  1.
</event>
<event>
 5   0  0.3770467E-07  0.2902755E+04  0.7818609E-02  0.8272058E-01
        1   -1    0    0  501    0  0.00000000000E+00  0.00000000000E+00  0.15162689931E+04  0.15162689931E+04  0.50400001928E-02 0. -1.
       -1   -1    0    0    0  501  0.00000000000E+00  0.00000000000E+00 -0.13892629387E+04  0.13892629387E+04  0.50400001928E-02 0.  1.
    10030    2    1    2    0    0  0.00000000000E+00  0.00000000000E+00  0.12700605438E+03  0.29055319319E+04  0.29027547725E+04 0.  0.
        1    1    3    3  502    0  0.10458159728E+04  0.73801093680E+03  0.74833969132E+03  0.14827014148E+04  0.50400001928E-02 0. -1.
       -1    1    3    3    0  502 -0.10458159728E+04 -0.73801093680E+03 -0.62133363694E+03  0.14228305171E+04  0.50400001928E-02 0.  1.
</event>
<event>
 5   0  0.9994311E-07  0.2897703E+04  0.7818609E-02  0.8273561E-01
        2   -1    0    0  501    0  0.00000000000E+00  0.00000000000E+00  0.23609825084E+04  0.23609825084E+04  0.25500000920E-02 0.  1.
       -2   -1    0    0    0  501  0.00000000000E+00  0.00000000000E+00 -0.88910884489E+03  0.88910884489E+03  0.25500000920E-02 0. -1.
    10030    2    1    2    0    0  0.00000000000E+00  0.00000000000E+00  0.14718736635E+04  0.32500913533E+04  0.28977028356E+04 0.  0.
        2    1    3    3  502    0 -0.12661281541E+04  0.68833801200E+03  0.90335640471E+03  0.17008652255E+04  0.25500000920E-02 0. -1.
       -2    1    3    3    0  502  0.12661281541E+04 -0.68833801200E+03  0.56851725881E+03  0.15492261278E+04  0.25500000920E-02 0.  1.
</event>
<event>
 5   0  0.1006893E-06  0.2898174E+04  0.7818609E-02  0.8273421E-01
        2   -1    0    0  501    0  0.00000000000E+00  0.00000000000E+00  0.15459261480E+04  0.15459261480E+04  0.25500000920E-02 0.  1.
       -2   -1    0    0    0  501  0.00000000000E+00  0.00000000000E+00 -0.13583136786E+04  0.13583136786E+04  0.25500000920E-02 0. -1.
    10030    2    1    2    0    0  0.00000000000E+00  0.00000000000E+00  0.18761246940E+03  0.29042398267E+04  0.28981736546E+04 0.  0.
        4    1    3    3  502    0 -0.92511209737E+02  0.10190361301E+04  0.11220426629E+04  0.15185434826E+04  0.12699999809E+01 0.  1.
       -4    1    3    3    0  502  0.92511209737E+02 -0.10190361301E+04 -0.93443019353E+03  0.13856963440E+04  0.12699999809E+01 0. -1.
</event>
<event>
 5   0  0.3885904E-07  0.2893787E+04  0.7818609E-02  0.8274728E-01
        1   -1    0    0  501    0  0.00000000000E+00  0.00000000000E+00  0.13577434559E+04  0.13577434560E+04  0.50400001928E-02 0.  1.
       -1   -1    0    0    0  501  0.00000000000E+00  0.00000000000E+00 -0.15418974702E+04  0.15418974702E+04  0.50400001928E-02 0. -1.
    10030    2    1    2    0    0  0.00000000000E+00  0.00000000000E+00 -0.18415401429E+03  0.28996409262E+04  0.28937872762E+04 0.  0.
        2    1    3    3  502    0 -0.97457572264E+03  0.44742065990E+03 -0.10653904894E+04  0.15116348703E+04  0.25500000920E-02 0. -1.
       -2    1    3    3    0  502  0.97457572264E+03 -0.44742065990E+03  0.88123647516E+03  0.13880060559E+04  0.25500000920E-02 0.  1.
</event>
<event>
 5   0  0.3786210E-07  0.2897631E+04  0.7818609E-02  0.8273583E-01
        1   -1    0    0  501    0  0.00000000000E+00  0.00000000000E+00  0.14888243083E+04  0.14888243083E+04  0.50400001928E-02 0. -1.
       -1   -1    0    0    0  501  0.00000000000E+00  0.00000000000E+00 -0.14098820606E+04  0.14098820606E+04  0.50400001928E-02 0.  1.
    10030    2    1    2    0    0  0.00000000000E+00  0.00000000000E+00  0.78942247744E+02  0.28987063689E+04  0.28976312282E+04 0.  0.
        5    1    3    3  502    0 -0.12699229507E+04 -0.26693113513E+03 -0.60504121026E+03  0.14318007849E+04  0.46999998093E+01 0.  1.
       -5    1    3    3    0  502  0.12699229507E+04  0.26693113513E+03  0.68398345800E+03  0.14669055840E+04  0.46999998093E+01 0. -1.
</event>
<event>
 5   0  0.3885904E-07  0.2899198E+04  0.7818609E-02  0.8273116E-01
        1   -1    0    0  501    0  0.00000000000E+00  0.00000000000E+00  0.18591598964E+04  0.18591598964E+04  0.50400001928E-02 0.  1.
       -1   -1    0    0    0  501  0.00000000000E+00  0.00000000000E+00 -0.11302618710E+04  0.11302618710E+04  0.50400001928E-02 0. -1.
    10030    2    1    2    0    0  0.00000000000E+00  0.00000000000E+00  0.72889802540E+03  0.29894217675E+04  0.28991981947E+04 0.  0.
        2    1    3    3  502    0  0.10000657285E+04  0.87237249071E+03 -0.23694454624E+03  0.13480756440E+04  0.25500000920E-02 0. -1.
       -2    1    3    3    0  502 -0.10000657285E+04 -0.87237249071E+03  0.96584257164E+03  0.16413461235E+04  0.25500000920E-02 0.  1.
</event>
<event>
 5   0  0.9994311E-07  0.2896136E+04  0.7818609E-02  0.8274028E-01
       -2   -1    0    0    0  501  0.00000000000E+00  0.00000000000E+00  0.96315537650E+03  0.96315537650E+03  0.25500000920E-02 0. -1.
        2   -1    0    0  501    0  0.00000000000E+00  0.00000000000E+00 -0.21771161966E+04  0.21771161966E+04  0.25500000920E-02 0.  1.
    10030    2    1    2    0    0  0.00000000000E+00  0.00000000000E+00 -0.12139608201E+04  0.31402715731E+04  0.28961361640E+04 0.  0.
        2    1    3    3  502    0 -0.25794525683E+03 -0.19204838721E+01 -0.21520033789E+04  0.21674081265E+04  0.25500000920E-02 0.  1.
       -2    1    3    3    0  502  0.25794525683E+03  0.19204838721E+01  0.93804255878E+03  0.97286344667E+03  0.25500000920E-02 0. -1.
</event>
<event>
 5   0  0.9950999E-07  0.2898500E+04  0.7818609E-02  0.8273324E-01
       -2   -1    0    0    0  501  0.00000000000E+00  0.00000000000E+00  0.11733451927E+04  0.11733451927E+04  0.25500000920E-02 0. -1.
        2   -1    0    0  501    0  0.00000000000E+00  0.00000000000E+00 -0.17900321902E+04  0.17900321902E+04  0.25500000920E-02 0.  1.
    10030    2    1    2    0    0  0.00000000000E+00  0.00000000000E+00 -0.61668699750E+03  0.29633773829E+04  0.28985000708E+04 0.  0.
        3    1    3    3  502    0  0.40465279165E+03 -0.13619532027E+04 -0.16175742085E+02  0.14208877764E+04  0.10100000352E+00 0. -1.
       -3    1    3    3    0  502 -0.40465279165E+03  0.13619532027E+04 -0.60051125541E+03  0.15424896065E+04  0.10100000352E+00 0.  1.
</event>
<event>
 5   0  0.9994311E-07  0.2899238E+04  0.7818609E-02  0.8273104E-01
        2   -1    0    0  501    0  0.00000000000E+00  0.00000000000E+00  0.22657552974E+04  0.22657552974E+04  0.25500000920E-02 0.  1.
       -2   -1    0    0    0  501  0.00000000000E+00  0.00000000000E+00 -0.92745876533E+03  0.92745876533E+03  0.25500000920E-02 0. -1.
    10030    2    1    2    0    0  0.00000000000E+00  0.00000000000E+00  0.13382965321E+04  0.31932140628E+04  0.28992375623E+04 0.  0.
        2    1    3    3  502    0 -0.12492052263E+04  0.71699407790E+03  0.48884030087E+03  0.15210388046E+04  0.25500000920E-02 0. -1.
       -2    1    3    3    0  502  0.12492052263E+04 -0.71699407790E+03  0.84945623122E+03  0.16721752582E+04  0.25500000920E-02 0.  1.
</event>
<event>
 5   0  0.3769563E-07  0.2888420E+04  0.7818609E-02  0.8276331E-01
       -1   -1    0    0    0  501  0.00000000000E+00  0.00000000000E+00  0.96298526160E+03  0.96298526162E+03  0.50400001928E-02 0. -1.
        1   -1    0    0  501    0  0.00000000000E+00  0.00000000000E+00 -0.21659139498E+04  0.21659139498E+04  0.50400001928E-02 0.  1.
    10030    2    1    2    0    0  0.00000000000E+00  0.00000000000E+00 -0.12029286882E+04  0.31288992114E+04  0.28884204760E+04 0.  0.
        3    1    3    3  502    0 -0.12633262495E+04  0.25391881404E+03  0.10496088325E+03  0.12928591470E+04  0.10100000352E+00 0. -1.
       -3    1    3    3    0  502  0.12633262495E+04 -0.25391881404E+03 -0.13078895714E+04  0.18360400644E+04  0.10100000352E+00 0.  1.
</event>
<event>
 5   0  0.3786210E-07  0.2901441E+04  0.7818609E-02  0.8272449E-01
        1   -1    0    0  501    0  0.00000000000E+00  0.00000000000E+00  0.16623888212E+04  0.16623888212E+04  0.50400001928E-02 0.  1.
       -1   -1    0    0    0  501  0.00000000000E+00  0.00000000000E+00 -0.12660037897E+04  0.12660037898E+04  0.50400001928E-02 0. -1.
    10030    2    1    2    0    0  0.00000000000E+00  0.00000000000E+00  0.39638503142E+03  0.29283926109E+04  0.29014413988E+04 0.  0.
        5    1    3    3  502    0 -0.46265738907E+03  0.65923633492E+03  0.14160174433E+04  0.16290401759E+04  0.46999998093E+01 0.  1.
       -5    1    3    3    0  502  0.46265738907E+03 -0.65923633492E+03 -0.10196324119E+04  0.12993524350E+04  0.46999998093E+01 0. -1.
</event>
<event>
 5   0  0.1031339E-06  0.2897155E+04  0.7818609E-02  0.8273724E-01
        2   -1    0    0  501    0  0.00000000000E+00  0.00000000000E+00  0.13747057653E+04  0.13747057653E+04  0.25500000920E-02 0.  1.
       -2   -1    0    0    0  501  0.00000000000E+00  0.00000000000E+00 -0.15264188689E+04  0.15264188689E+04  0.25500000920E-02 0. -1.
    10030    2    1    2    0    0  0.00000000000E+00  0.00000000000E+00 -0.15171310365E+03  0.29011246342E+04  0.28971550316E+04 0.  0.
        5    1    3    3  502    0  0.59160990953E+02 -0.12347692394E+04  0.68029372836E+03  0.14110197533E+04  0.46999998093E+01 0.  1.
       -5    1    3    3    0  502 -0.59160990953E+02  0.12347692394E+04 -0.83200683201E+03  0.14901048809E+04  0.46999998093E+01 0. -1.
</event>
<event>
 5   0  0.3786210E-07  0.2822882E+04  0.7818609E-02  0.8296199E-01
        1   -1    0    0  501    0  0.00000000000E+00  0.00000000000E+00  0.18886917136E+04  0.18886917136E+04  0.50400001928E-02 0.  1.
       -1   -1    0    0    0  501  0.00000000000E+00  0.00000000000E+00 -0.10547863790E+04  0.10547863790E+04  0.50400001928E-02 0. -1.
    10030    2    1    2    0    0  0.00000000000E+00  0.00000000000E+00  0.83390533459E+03  0.29434780926E+04  0.28228824231E+04 0.  0.
        5    1    3    3  502    0 -0.43464911555E+03 -0.44756301787E+03 -0.90319592537E+03  0.10977328811E+04  0.46999998093E+01 0. -1.
       -5    1    3    3    0  502  0.43464911555E+03  0.44756301787E+03  0.17371012600E+04  0.18457452115E+04  0.46999998093E+01 0.  1.
</event>
<event>
 5   0  0.3885904E-07  0.2877466E+04  0.7818609E-02  0.8279614E-01
        1   -1    0    0  501    0  0.00000000000E+00  0.00000000000E+00  0.23993409311E+04  0.23993409311E+04  0.50400001928E-02 0.  1.
       -1   -1    0    0    0  501  0.00000000000E+00  0.00000000000E+00 -0.86271729683E+03  0.86271729685E+03  0.50400001928E-02 0. -1.
    10030    2    1    2    0    0  0.00000000000E+00  0.00000000000E+00  0.15366236343E+04  0.32620582279E+04  0.28774661925E+04 0.  0.
        2    1    3    3  502    0  0.35965517244E+03 -0.13921955209E+04  0.71285862091E+03  0.16049073571E+04  0.25500000920E-02 0. -1.
       -2    1    3    3    0  502 -0.35965517244E+03  0.13921955209E+04  0.82376501336E+03  0.16571508708E+04  0.25500000920E-02 0.  1.
</event>
<event>
 5   0  0.1031339E-06  0.2900826E+04  0.7818609E-02  0.8272632E-01
       -2   -1    0    0    0  501  0.00000000000E+00  0.00000000000E+00  0.12404628016E+04  0.12404628016E+04  0.25500000920E-02 0. -1.
        2   -1    0    0  501    0  0.00000000000E+00  0.00000000000E+00 -0.16958976379E+04  0.16958976379E+04  0.25500000920E-02 0.  1.
    10030    2    1    2    0    0  0.00000000000E+00  0.00000000000E+00 -0.45543483626E+03  0.29363604395E+04  0.29008260446E+04 0.  0.
        5    1    3    3  502    0 -0.11417587412E+04  0.79162808431E+03  0.19378196579E+03  0.14028048999E+04  0.46999998093E+01 0. -1.
       -5    1    3    3    0  502  0.11417587412E+04 -0.79162808431E+03 -0.64921680205E+03  0.15335555396E+04  0.46999998093E+01 0.  1.
</event>
<event>
 5   0  0.3770467E-07  0.2904448E+04  0.7818609E-02  0.8271555E-01
       -1   -1    0    0    0  501  0.00000000000E+00  0.00000000000E+00  0.12430900240E+04  0.12430900240E+04  0.50400001928E-02 0. -1.
        1   -1    0    0  501    0  0.00000000000E+00  0.00000000000E+00 -0.16965420314E+04  0.16965420314E+04  0.50400001928E-02 0.  1.
    10030    2    1    2    0    0  0.00000000000E+00  0.00000000000E+00 -0.45345200741E+03  0.29396320555E+04  0.29044479508E+04 0.  0.
        1    1    3    3  502    0  0.16169965163E+03  0.13297324327E+04  0.34097817945E+03  0.13822449996E+04  0.50400001928E-02 0.  1.
       -1    1    3    3    0  502 -0.16169965163E+03 -0.13297324327E+04 -0.79443018687E+03  0.15573870559E+04  0.50400001928E-02 0. -1.
</event>
<event>
 5   0  0.9950999E-07  0.2905660E+04  0.7818609E-02  0.8271195E-01
       -2   -1    0    0    0  501  0.00000000000E+00  0.00000000000E+00  0.17301333488E+04  0.17301333488E+04  0.25500000920E-02 0. -1.
        2   -1    0    0  501    0  0.00000000000E+00  0.00000000000E+00 -0.12199726225E+04  0.12199726225E+04  0.25500000920E-02 0.  1.
    10030    2    1    2    0    0  0.00000000000E+00  0.00000000000E+00  0.51016072630E+03  0.29501059712E+04  0.29056602133E+04 0.  0.
        3    1    3    3  502    0  0.12355125814E+04 -0.76015265716E+03  0.17390802991E+03  0.14610158843E+04  0.10100000352E+00 0.  1.
       -3    1    3    3    0  502 -0.12355125814E+04  0.76015265716E+03  0.33625269639E+03  0.14890900870E+04  0.10100000352E+00 0. -1.
</event>
<event>
 5   0  0.1063979E-06  0.2883825E+04  0.7818609E-02  0.8277706E-01
        2   -1    0    0  501    0  0.00000000000E+00  0.00000000000E+00  0.20924098959E+04  0.20924098959E+04  0.25500000920E-02 0.  1.
       -2   -1    0    0    0  501  0.00000000000E+00  0.00000000000E+00 -0.99364477663E+03  0.99364477663E+03  0.25500000920E-02 0. -1.
    10030    2    1    2    0    0  0.00000000000E+00  0.00000000000E+00  0.10987651193E+04  0.30860546725E+04  0.28838253509E+04 0.  0.
        1    1    3    3  502    0  0.11143690119E+04  0.68335020684E+03  0.12006014289E+04  0.17748886137E+04  0.50400001928E-02 0.  1.
       -1    1    3    3    0  502 -0.11143690119E+04 -0.68335020684E+03 -0.10183630961E+03  0.13111660589E+04  0.50400001928E-02 0. -1.
</event>
<event>
 5   0  0.9950999E-07  0.2900817E+04  0.7818609E-02  0.8272634E-01
       -2   -1    0    0    0  501  0.00000000000E+00  0.00000000000E+00  0.18592036323E+04  0.18592036323E+04  0.25500000920E-02 0. -1.
        2   -1    0    0  501    0  0.00000000000E+00  0.00000000000E+00 -0.11314976464E+04  0.11314976464E+04  0.25500000920E-02 0.  1.
    10030    2    1    2    0    0  0.00000000000E+00  0.00000000000E+00  0.72770598582E+03  0.29907012787E+04  0.29008168051E+04 0.  0.
        3    1    3    3  502    0 -0.36555647010E+03  0.59057482571E+03 -0.94889387807E+03  0.11759293174E+04  0.10100000352E+00 0.  1.
       -3    1    3    3    0  502  0.36555647010E+03 -0.59057482571E+03  0.16765998639E+04  0.18147719613E+04  0.10100000352E+00 0. -1.
</event>
<event>
 5   0  0.3885904E-07  0.2902789E+04  0.7818609E-02  0.8272048E-01
       -1   -1    0    0    0  501  0.00000000000E+00  0.00000000000E+00  0.11174040483E+04  0.11174040483E+04  0.50400001928E-02 0. -1.
        1   -1    0    0  501    0  0.00000000000E+00  0.00000000000E+00 -0.18852146175E+04  0.18852146175E+04  0.50400001928E-02 0.  1.
    10030    2    1    2    0    0  0.00000000000E+00  0.00000000000E+00 -0.76781056923E+03  0.30026186658E+04  0.29027893107E+04 0.  0.
        2    1    3    3  502    0 -0.88925469433E+03  0.10290306143E+04  0.14034673741E+03  0.13672509365E+04  0.25500000920E-02 0. -1.
       -2    1    3    3    0  502  0.88925469433E+03 -0.10290306143E+04 -0.90815730664E+03  0.16353677294E+04  0.25500000920E-02 0.  1.
</event>
<event>
 5   0  0.1006893E-06  0.2897398E+04  0.7818609E-02  0.8273652E-01
       -2   -1    0    0    0  501  0.00000000000E+00  0.00000000000E+00  0.84465217181E+03  0.84465217181E+03  0.25500000920E-02 0.  1.
        2   -1    0    0  501    0  0.00000000000E+00  0.00000000000E+00 -0.24847258439E+04  0.24847258439E+04  0.25500000920E-02 0. -1.
    10030    2    1    2    0    0  0.00000000000E+00  0.00000000000E+00 -0.16400736721E+04  0.33293780157E+04  0.28973981987E+04 0.  0.
        4    1    3    3  502    0 -0.10694873978E+04 -0.47813309134E+03  0.15926553659E+03  0.11822781699E+04  0.12699999809E+01 0.  1.
       -4    1    3    3    0  502  0.10694873978E+04  0.47813309134E+03 -0.17993392087E+04  0.21470998458E+04  0.12699999809E+01 0. -1.
</event>
<event>
 5   0  0.3786210E-07  0.2902755E+04  0.7818609E-02  0.8272058E-01
       -1   -1    0    0    0  501  0.00000000000E+00  0.00000000000E+00  0.13941316900E+04  0.13941316900E+04  0.50400001928E-02 0. -1.
        1   -1    0    0  501    0  0.00000000000E+00  0.00000000000E+00 -0.15109738912E+04  0.15109738912E+04  0.50400001928E-02 0.  1.
    10030    2    1    2    0    0  0.00000000000E+00  0.00000000000E+00 -0.11684220124E+03  0.29051055812E+04  0.29027549566E+04 0.  0.
        5    1    3    3  502    0 -0.14184084656E+04  0.51592543387E+02  0.24502424427E+03  0.14403483384E+04  0.46999998093E+01 0.  1.
       -5    1    3    3    0  502  0.14184084656E+04 -0.51592543387E+02 -0.36186644551E+03  0.14647572427E+04  0.46999998093E+01 0. -1.
</event>
<event>
 5   0  0.3885904E-07  0.2899923E+04  0.7818609E-02  0.8272900E-01
       -1   -1    0    0    0  501  0.00000000000E+00  0.00000000000E+00  0.15673650997E+04  0.15673650997E+04  0.50400001928E-02 0.  1.
        1   -1    0    0  501    0  0.00000000000E+00  0.00000000000E+00 -0.13413524461E+04  0.13413524461E+04  0.50400001928E-02 0. -1.
    10030    2    1    2    0    0  0.00000000000E+00  0.00000000000E+00  0.22601265353E+03  0.29087175458E+04  0.28999234545E+04 0.  0.
        2    1    3    3  502    0 -0.79959734769E+03  0.80992368471E+03  0.10140939910E+04  0.15243749264E+04  0.25500000920E-02 0.  1.
       -2    1    3    3    0  502  0.79959734769E+03 -0.80992368471E+03 -0.78808133749E+03  0.13843426194E+04  0.25500000920E-02 0. -1.
</event>
<event>
 5   0  0.3378750E-07  0.2902171E+04  0.7818609E-02  0.8272232E-01
       -3   -1    0    0    0  501  0.00000000000E+00  0.00000000000E+00  0.14602209645E+04  0.14602209680E+04  0.10100000352E+00 0. -1.
        3   -1    0    0  501    0  0.00000000000E+00  0.00000000000E+00 -0.14420070981E+04  0.14420071016E+04  0.10100000352E+00 0.  1.
    10030    2    1    2    0    0  0.00000000000E+00  0.00000000000E+00  0.18213866428E+02  0.29022280696E+04  0.29021709155E+04 0.  0.
        3    1    3    3  502    0  0.67483588619E+03  0.16604533523E+03  0.12829744232E+04  0.14591086003E+04  0.10100000352E+00 0. -1.
       -3    1    3    3    0  502 -0.67483588619E+03 -0.16604533523E+03 -0.12647605567E+04  0.14431194693E+04  0.10100000352E+00 0.  1.
</event>
<event>
 5   0  0.3885904E-07  0.2899921E+04  0.7818609E-02  0.8272901E-01
        1   -1    0    0  501    0  0.00000000000E+00  0.00000000000E+00  0.25159107543E+04  0.25159107543E+04  0.50400001928E-02 0.  1.
       -1   -1    0    0    0  501  0.00000000000E+00  0.00000000000E+00 -0.83563586614E+03  0.83563586616E+03  0.50400001928E-02 0. -1.
    10030    2    1    2    0    0  0.00000000000E+00  0.00000000000E+00  0.16802748881E+04  0.33515466205E+04  0.28999208695E+04 0.  0.
        2    1    3    3  502    0 -0.64486585755E+03  0.12717273234E+04  0.11442586833E+04  0.18282424056E+04  0.25500000920E-02 0.  1.
       -2    1    3    3    0  502  0.64486585755E+03 -0.12717273234E+04  0.53601620485E+03  0.15233042149E+04  0.25500000920E-02 0. -1.
</event>
<event>
 5   0  0.3769563E-07  0.2897209E+04  0.7818609E-02  0.8273708E-01
        1   -1    0    0  501    0  0.00000000000E+00  0.00000000000E+00  0.20990511518E+04  0.20990511518E+04  0.50400001928E-02 0. -1.
       -1   -1    0    0    0  501  0.00000000000E+00  0.00000000000E+00 -0.99971616566E+03  0.99971616567E+03  0.50400001928E-02 0.  1.
    10030    2    1    2    0    0  0.00000000000E+00  0.00000000000E+00  0.10993349862E+04  0.30987673175E+04  0.28972092565E+04 0.  0.
        3    1    3    3  502    0  0.32875067423E+03  0.10493212934E+04 -0.45896748417E+03  0.11915550110E+04  0.10100000352E+00 0.  1.
       -3    1    3    3    0  502 -0.32875067423E+03 -0.10493212934E+04  0.15583024703E+04  0.19072123065E+04  0.10100000352E+00 0. -1.
</event>
<event>
 5   0  0.3786210E-07  0.2899753E+04  0.7818609E-02  0.8272951E-01
       -1   -1    0    0    0  501  0.00000000000E+00  0.00000000000E+00  0.19324559641E+04  0.19324559641E+04  0.50400001928E-02 0. -1.
        1   -1    0    0  501    0  0.00000000000E+00  0.00000000000E+00 -0.10878082970E+04  0.10878082970E+04  0.50400001928E-02 0.  1.
    10030    2    1    2    0    0  0.00000000000E+00  0.00000000000E+00  0.84464766709E+03  0.30202642611E+04  0.28997528387E+04 0.  0.
        5    1    3    3  502    0 -0.53264763745E+02  0.13594070054E+04 -0.99802845689E+02  0.13641140860E+04  0.46999998093E+01 0.  1.
       -5    1    3    3    0  502  0.53264763745E+02 -0.13594070054E+04  0.94445051277E+03  0.16561501751E+04  0.46999998093E+01 0. -1.
</event>
<event>
 5   0  0.1031339E-06  0.2900015E+04  0.7818609E-02  0.8272873E-01
        2   -1    0    0  501    0  0.00000000000E+00  0.00000000000E+00  0.91536984346E+03  0.91536984346E+03  0.25500000920E-02 0.  1.
       -2   -1    0    0    0  501  0.00000000000E+00  0.00000000000E+00 -0.22969089641E+04  0.22969089641E+04  0.25500000920E-02 0. -1.
    10030    2    1    2    0    0  0.00000000000E+00  0.00000000000E+00 -0.13815391207E+04  0.32122788076E+04  0.29000146199E+04 0.  0.
        5    1    3    3  502    0 -0.32429362688E+03 -0.95169928223E+03  0.46652804141E+03  0.11084080402E+04  0.46999998093E+01 0.  1.
       -5    1    3    3    0  502  0.32429362688E+03  0.95169928223E+03 -0.18480671621E+04  0.21038707674E+04  0.46999998093E+01 0. -1.
</event>
<event>
 5   0  0.3770467E-07  0.2896118E+04  0.7818609E-02  0.8274034E-01
        1   -1    0    0  501    0  0.00000000000E+00  0.00000000000E+00  0.15734167093E+04  0.15734167093E+04  0.50400001928E-02 0. -1.
       -1   -1    0    0    0  501  0.00000000000E+00  0.00000000000E+00 -0.13326884369E+04  0.13326884369E+04  0.50400001928E-02 0.  1.
    10030    2    1    2    0    0  0.00000000000E+00  0.00000000000E+00  0.24072827233E+03  0.29061051462E+04  0.28961175770E+04 0.  0.
        1    1    3    3  502    0 -0.43913255698E+03  0.12334187372E+04  0.74113727497E+03  0.15044745409E+04  0.50400001928E-02 0. -1.
       -1    1    3    3    0  502  0.43913255698E+03 -0.12334187372E+04 -0.50040900265E+03  0.14016306053E+04  0.50400001928E-02 0.  1.
</event>
<event>
 5   0  0.3786210E-07  0.2899820E+04  0.7818609E-02  0.8272931E-01
       -1   -1    0    0    0  501  0.00000000000E+00  0.00000000000E+00  0.16651236761E+04  0.16651236761E+04  0.50400001928E-02 0. -1.
        1   -1    0    0  501    0  0.00000000000E+00  0.00000000000E+00 -0.12625123459E+04  0.12625123459E+04  0.50400001928E-02 0.  1.
    10030    2    1    2    0    0  0.00000000000E+00  0.00000000000E+00  0.40261133024E+03  0.29276360220E+04  0.28998201313E+04 0.  0.
        5    1    3    3  502    0 -0.13917489788E+04 -0.40642532710E+03  0.19283819257E+03  0.14626535560E+04  0.46999998093E+01 0.  1.
       -5    1    3    3    0  502  0.13917489788E+04  0.40642532710E+03  0.20977313767E+03  0.14649824660E+04  0.46999998093E+01 0. -1.
</event>
<event>
 5   0  0.3638028E-07  0.2895739E+04  0.7818609E-02  0.8274146E-01
       -1   -1    0    0    0  501  0.00000000000E+00  0.00000000000E+00  0.94808634656E+03  0.94808634657E+03  0.50400001928E-02 0.  1.
        1   -1    0    0  501    0  0.00000000000E+00  0.00000000000E+00 -0.22111124279E+04  0.22111124279E+04  0.50400001928E-02 0. -1.
    10030    2    1    2    0    0  0.00000000000E+00  0.00000000000E+00 -0.12630260814E+04  0.31591987745E+04  0.28957385957E+04 0.  0.
        4    1    3    3  502    0 -0.22624106671E+03  0.12697676243E+04  0.86241252239E+02  0.12926461258E+04  0.12699999809E+01 0. -1.
       -4    1    3    3    0  502  0.22624106671E+03 -0.12697676243E+04 -0.13492673336E+04  0.18665526487E+04  0.12699999809E+01 0.  1.
</event>
<event>
 5   0  0.3885904E-07  0.2862112E+04  0.7818609E-02  0.8284240E-01
       -1   -1    0    0    0  501  0.00000000000E+00  0.00000000000E+00  0.12764755841E+04  0.12764755841E+04  0.50400001928E-02 0. -1.
        1   -1    0    0  501    0  0.00000000000E+00  0.00000000000E+00 -0.16043562383E+04  0.16043562383E+04  0.50400001928E-02 0.  1.
    10030    2    1    2    0    0  0.00000000000E+00  0.00000000000E+00 -0.32788065424E+03  0.28808318224E+04  0.28621122035E+04 0.  0.
        2    1    3    3  502    0  0.32543833218E+03 -0.23749266951E+02 -0.15664119028E+04  0.16000376198E+04  0.25500000920E-02 0.  1.
       -2    1    3    3    0  502 -0.32543833218E+03  0.23749266951E+02  0.12385312485E+04  0.12807942026E+04  0.25500000920E-02 0. -1.
</event>
<event>
 5   0  0.9994311E-07  0.2901600E+04  0.7818609E-02  0.8272402E-01
       -2   -1    0    0    0  501  0.00000000000E+00  0.00000000000E+00  0.13469938135E+04  0.13469938135E+04  0.25500000920E-02 0. -1.
        2   -1    0    0  501    0  0.00000000000E+00  0.00000000000E+00 -0.15626055356E+04  0.15626055356E+04  0.25500000920E-02 0.  1.
    10030    2    1    2    0    0  0.00000000000E+00  0.00000000000E+00 -0.21561172210E+03  0.29095993491E+04  0.29015995516E+04 0.  0.
        2    1    3    3  502    0  0.11172616863E+04  0.41617045039E+03  0.72112217500E+03  0.13933731413E+04  0.25500000920E-02 0. -1.
       -2    1    3    3    0  502 -0.11172616863E+04 -0.41617045039E+03 -0.93673389710E+03  0.15162262079E+04  0.25500000920E-02 0.  1.
</event>
<event>
 5   0  0.9950999E-07  0.2911362E+04  0.7818609E-02  0.8269505E-01
        2   -1    0    0  501    0  0.00000000000E+00  0.00000000000E+00  0.14141790113E+04  0.14141790113E+04  0.25500000920E-02 0.  1.
       -2   -1    0    0    0  501  0.00000000000E+00  0.00000000000E+00 -0.14984009135E+04  0.14984009135E+04  0.25500000920E-02 0. -1.
    10030    2    1    2    0    0  0.00000000000E+00  0.00000000000E+00 -0.84221902124E+02  0.29125799248E+04  0.29113619647E+04 0.  0.
        3    1    3    3  502    0 -0.37720854154E+03 -0.10064013807E+04  0.94007219300E+03  0.14278885675E+04  0.10100000352E+00 0.  1.
       -3    1    3    3    0  502  0.37720854154E+03  0.10064013807E+04 -0.10242940951E+04  0.14846913573E+04  0.10100000352E+00 0. -1.
</event>
<event>
 5   0  0.1006893E-06  0.2898243E+04  0.7818609E-02  0.8273400E-01
       -2   -1    0    0    0  501  0.00000000000E+00  0.00000000000E+00  0.18450933793E+04  0.18450933793E+04  0.25500000920E-02 0.  1.
        2   -1    0    0  501    0  0.00000000000E+00  0.00000000000E+00 -0.11381282789E+04  0.11381282789E+04  0.25500000920E-02 0. -1.
    10030    2    1    2    0    0  0.00000000000E+00  0.00000000000E+00  0.70696510044E+03  0.29832216582E+04  0.28982428830E+04 0.  0.
        4    1    3    3  502    0 -0.99481406369E+03  0.50475057303E+02  0.14368389359E+04  0.17483450728E+04  0.12699999809E+01 0.  1.
       -4    1    3    3    0  502  0.99481406369E+03 -0.50475057303E+02 -0.72987383550E+03  0.12348765855E+04  0.12699999809E+01 0. -1.
</event>
<event>
 5   0  0.3786210E-07  0.2893190E+04  0.7818609E-02  0.8274907E-01
        1   -1    0    0  501    0  0.00000000000E+00  0.00000000000E+00  0.17133741998E+04  0.17133741998E+04  0.50400001928E-02 0. -1.
       -1   -1    0    0    0  501  0.00000000000E+00  0.00000000000E+00 -0.12213541491E+04  0.12213541491E+04  0.50400001928E-02 0.  1.
    10030    2    1    2    0    0  0.00000000000E+00  0.00000000000E+00  0.49202005066E+03  0.29347283489E+04  0.28931897192E+04 0.  0.
        5    1    3    3  502    0  0.11209047079E+04 -0.25244906045E+03 -0.64550377005E+03  0.13178979852E+04  0.46999998093E+01 0.  1.
       -5    1    3    3    0  502 -0.11209047079E+04  0.25244906045E+03  0.11375238207E+04  0.16168303637E+04  0.46999998093E+01 0. -1.
</event>
<event>
 5   0  0.1063979E-06  0.2904817E+04  0.7818609E-02  0.8271446E-01
        2   -1    0    0  501    0  0.00000000000E+00  0.00000000000E+00  0.17239448273E+04  0.17239448273E+04  0.25500000920E-02 0.  1.
       -2   -1    0    0    0  501  0.00000000000E+00  0.00000000000E+00 -0.12236411180E+04  0.12236411180E+04  0.25500000920E-02 0. -1.
    10030    2    1    2    0    0  0.00000000000E+00  0.00000000000E+00  0.50030370926E+03  0.29475859453E+04  0.29048165352E+04 0.  0.
        1    1    3    3  502    0 -0.28612513203E+03  0.13171338183E+04 -0.29890710588E+03  0.13805993424E+04  0.50400001928E-02 0. -1.
       -1    1    3    3    0  502  0.28612513203E+03 -0.13171338183E+04  0.79921081513E+03  0.15669866028E+04  0.50400001928E-02 0.  1.
</event>
<event>
 5   0  0.1031339E-06  0.2902753E+04  0.7818609E-02  0.8272059E-01
        2   -1    0    0  501    0  0.00000000000E+00  0.00000000000E+00  0.16045800669E+04  0.16045800669E+04  0.25500000920E-02 0. -1.
       -2   -1    0    0    0  501  0.00000000000E+00  0.00000000000E+00 -0.13128009302E+04  0.13128009302E+04  0.25500000920E-02 0.  1.
    10030    2    1    2    0    0  0.00000000000E+00  0.00000000000E+00  0.29177913667E+03  0.29173809971E+04  0.29027533167E+04 0.  0.
        5    1    3    3  502    0  0.56436616867E+01 -0.89346024751E+03 -0.10036262574E+04  0.13437227465E+04  0.46999998093E+01 0.  1.
       -5    1    3    3    0  502 -0.56436616867E+01  0.89346024751E+03  0.12954053941E+04  0.15736582507E+04  0.46999998093E+01 0. -1.
</event>
<event>
 5   0  0.3638028E-07  0.2908986E+04  0.7818609E-02  0.8270209E-01
        1   -1    0    0  501    0  0.00000000000E+00  0.00000000000E+00  0.13109934465E+04  0.13109934465E+04  0.50400001928E-02 0.  1.
       -1   -1    0    0    0  501  0.00000000000E+00  0.00000000000E+00 -0.16137000282E+04  0.16137000282E+04  0.50400001928E-02 0. -1.
    10030    2    1    2    0    0  0.00000000000E+00  0.00000000000E+00 -0.30270658165E+03  0.29246934747E+04  0.29089861888E+04 0.  0.
        4    1    3    3  502    0  0.92541026855E+03 -0.11191381578E+04 -0.69093618175E+02  0.14538328386E+04  0.12699999809E+01 0. -1.
       -4    1    3    3    0  502 -0.92541026855E+03  0.11191381578E+04 -0.23361296347E+03  0.14708606362E+04  0.12699999809E+01 0.  1.
</event>
<event>
 5   0  0.3885904E-07  0.2898182E+04  0.7818609E-02  0.8273419E-01
        1   -1    0    0  501    0  0.00000000000E+00  0.00000000000E+00  0.16926268609E+04  0.16926268609E+04  0.50400001928E-02 0.  1.
       -1   -1    0    0    0  501  0.00000000000E+00  0.00000000000E+00 -0.12405948029E+04  0.12405948029E+04  0.50400001928E-02 0. -1.
    10030    2    1    2    0    0  0.00000000000E+00  0.00000000000E+00  0.45203205808E+03  0.29332216638E+04  0.28981815587E+04 0.  0.
        2    1    3    3  502    0  0.20363744473E+03 -0.10285853454E+04  0.12383128835E+04  0.16226135766E+04  0.25500000920E-02 0.  1.
       -2    1    3    3    0  502 -0.20363744473E+03  0.10285853454E+04 -0.78628082538E+03  0.13106080872E+04  0.25500000920E-02 0. -1.
</event>
<event>
 5   0  0.3885904E-07  0.2898540E+04  0.7818609E-02  0.8273312E-01
       -1   -1    0    0    0  501  0.00000000000E+00  0.00000000000E+00  0.94888972258E+03  0.94888972260E+03  0.50400001928E-02 0. -1.
        1   -1    0    0  501    0  0.00000000000E+00  0.00000000000E+00 -0.22135172393E+04  0.22135172393E+04  0.50400001928E-02 0.  1.
    10030    2    1    2    0    0  0.00000000000E+00  0.00000000000E+00 -0.12646275167E+04  0.31624069619E+04  0.28985401561E+04 0.  0.
        2    1    3    3  502    0  0.22747237946E+03  0.49273737477E+03  0.83383915390E+03  0.99489775278E+03  0.25500000920E-02 0. -1.
       -2    1    3    3    0  502 -0.22747237946E+03 -0.49273737477E+03 -0.20984666706E+04  0.21675092091E+04  0.25500000920E-02 0.  1.
</event>
<event>
 5   0  0.3769563E-07  0.2902474E+04  0.7818609E-02  0.8272142E-01
       -1   -1    0    0    0  501  0.00000000000E+00  0.00000000000E+00  0.10985804147E+04  0.10985804148E+04  0.50400001928E-02 0. -1.
        1   -1    0    0  501    0  0.00000000000E+00  0.00000000000E+00 -0.19171003093E+04  0.19171003093E+04  0.50400001928E-02 0.  1.
    10030    2    1    2    0    0  0.00000000000E+00  0.00000000000E+00 -0.81851989456E+03  0.30156807241E+04  0.29024740157E+04 0.  0.
        3    1    3    3  502    0 -0.17796388464E+03 -0.20146395315E+03  0.10724880243E+04  0.11056624445E+04  0.10100000352E+00 0. -1.
       -3    1    3    3    0  502  0.17796388464E+03  0.20146395315E+03 -0.18910079189E+04  0.19100182796E+04  0.10100000352E+00 0.  1.
</event>
<event>
 5   0  0.3885904E-07  0.2896891E+04  0.7818609E-02  0.8273803E-01
        1   -1    0    0  501    0  0.00000000000E+00  0.00000000000E+00  0.21751137604E+04  0.21751137604E+04  0.50400001928E-02 0.  1.
       -1   -1    0    0    0  501  0.00000000000E+00  0.00000000000E+00 -0.96454434859E+03  0.96454434861E+03  0.50400001928E-02 0. -1.
    10030    2    1    2    0    0  0.00000000000E+00  0.00000000000E+00  0.12105694118E+04  0.31396581091E+04  0.28968905297E+04 0.  0.
        2    1    3    3  502    0 -0.11667037586E+04  0.17213966606E+03  0.15166874548E+04  0.19212419318E+04  0.25500000920E-02 0.  1.
       -2    1    3    3    0  502  0.11667037586E+04 -0.17213966606E+03 -0.30611804291E+03  0.12184161773E+04  0.25500000920E-02 0. -1.
</event>
<event>
 5   0  0.9994311E-07  0.2889464E+04  0.7818609E-02  0.8276019E-01
       -2   -1    0    0    0  501  0.00000000000E+00  0.00000000000E+00  0.15103723418E+04  0.15103723419E+04  0.25500000920E-02 0. -1.
        2   -1    0    0  501    0  0.00000000000E+00  0.00000000000E+00 -0.13819448201E+04  0.13819448201E+04  0.25500000920E-02 0.  1.
    10030    2    1    2    0    0  0.00000000000E+00  0.00000000000E+00  0.12842752174E+03  0.28923171620E+04  0.28894644724E+04 0.  0.
        2    1    3    3  502    0 -0.12711033743E+04 -0.28768106571E+03 -0.55992973793E+03  0.14184447452E+04  0.25500000920E-02 0.  1.
       -2    1    3    3    0  502  0.12711033743E+04  0.28768106571E+03  0.68835725967E+03  0.14738724167E+04  0.25500000920E-02 0. -1.
</event>
<event>
 5   0  0.9994311E-07  0.2897129E+04  0.7818609E-02  0.8273732E-01
        2   -1    0    0  501    0  0.00000000000E+00  0.00000000000E+00  0.12855143619E+04  0.12855143619E+04  0.25500000920E-02 0.  1.
       -2   -1    0    0    0  501  0.00000000000E+00  0.00000000000E+00 -0.16322948962E+04  0.16322948962E+04  0.25500000920E-02 0. -1.
    10030    2    1    2    0    0  0.00000000000E+00  0.00000000000E+00 -0.34678053429E+03  0.29178092581E+04  0.28971286005E+04 0.  0.
        2    1    3    3  502    0  0.26252141104E+03  0.50323672247E+03  0.11688549322E+04  0.12993792913E+04  0.25500000920E-02 0.  1.
       -2    1    3    3    0  502 -0.26252141104E+03 -0.50323672247E+03 -0.15156354665E+04  0.16184299668E+04  0.25500000920E-02 0. -1.
</event>
<event>
 5   0  0.9950999E-07  0.2905436E+04  0.7818609E-02  0.8271262E-01
        2   -1    0    0  501    0  0.00000000000E+00  0.00000000000E+00  0.14997467615E+04  0.14997467615E+04  0.25500000920E-02 0.  1.
       -2   -1    0    0    0  501  0.00000000000E+00  0.00000000000E+00 -0.14071642356E+04  0.14071642356E+04  0.25500000920E-02 0. -1.
    10030    2    1    2    0    0  0.00000000000E+00  0.00000000000E+00  0.92582525925E+02  0.29069109971E+04  0.29054362875E+04 0.  0.
        3    1    3    3  502    0 -0.81169924439E+03  0.87840697784E+03  0.87129181844E+03  0.14797310314E+04  0.10100000352E+00 0.  1.
       -3    1    3    3    0  502  0.81169924439E+03 -0.87840697784E+03 -0.77870929252E+03  0.14271799657E+04  0.10100000352E+00 0. -1.
</event>
<event>
 5   0  0.3770467E-07  0.2900836E+04  0.7818609E-02  0.8272629E-01
       -1   -1    0    0    0  501  0.00000000000E+00  0.00000000000E+00  0.10012550893E+04  0.10012550893E+04  0.50400001928E-02 0.  1.
        1   -1    0    0  501    0  0.00000000000E+00  0.00000000000E+00 -0.21010756929E+04  0.21010756929E+04  0.50400001928E-02 0. -1.
    10030    2    1    2    0    0  0.00000000000E+00  0.00000000000E+00 -0.10998206036E+04  0.31023307822E+04  0.29008362453E+04 0.  0.
        1    1    3    3  502    0  0.89234606387E+02 -0.10418201156E+04  0.52507648157E+03  0.11700672117E+04  0.50400001928E-02 0.  1.
       -1    1    3    3    0  502 -0.89234606387E+02  0.10418201156E+04 -0.16248970852E+04  0.19322635705E+04  0.50400001928E-02 0. -1.
</event>
<event>
 5   0  0.3885904E-07  0.2912006E+04  0.7818609E-02  0.8269314E-01
       -1   -1    0    0    0  501  0.00000000000E+00  0.00000000000E+00  0.85502338970E+03  0.85502338971E+03  0.50400001928E-02 0. -1.
        1   -1    0    0  501    0  0.00000000000E+00  0.00000000000E+00 -0.24794000613E+04  0.24794000613E+04  0.50400001928E-02 0.  1.
    10030    2    1    2    0    0  0.00000000000E+00  0.00000000000E+00 -0.16243766716E+04  0.33344234510E+04  0.29120062121E+04 0.  0.
        2    1    3    3  502    0  0.24908235542E+03  0.45020648321E+03 -0.23718335951E+04  0.24269986609E+04  0.25500000920E-02 0.  1.
       -2    1    3    3    0  502 -0.24908235542E+03 -0.45020648321E+03  0.74745692346E+03  0.90742479013E+03  0.25500000920E-02 0. -1.
</event>
<event>
 5   0  0.3885904E-07  0.2902057E+04  0.7818609E-02  0.8272266E-01
        1   -1    0    0  501    0  0.00000000000E+00  0.00000000000E+00  0.20607466945E+04  0.20607466945E+04  0.50400001928E-02 0. -1.
       -1   -1    0    0    0  501  0.00000000000E+00  0.00000000000E+00 -0.10217092633E+04  0.10217092633E+04  0.50400001928E-02 0.  1.
    10030    2    1    2    0    0  0.00000000000E+00  0.00000000000E+00  0.10390374312E+04  0.30824559579E+04  0.29020571925E+04 0.  0.
        2    1    3    3  502    0 -0.97162539302E+03  0.65540030050E+03  0.14281975584E+04  0.18475263798E+04  0.25500000920E-02 0. -1.
       -2    1    3    3    0  502  0.97162539302E+03 -0.65540030050E+03 -0.38916012713E+03  0.12349295781E+04  0.25500000920E-02 0.  1.
</event>
<event>
 5   0  0.9950999E-07  0.2897206E+04  0.7818609E-02  0.8273709E-01
       -2   -1    0    0    0  501  0.00000000000E+00  0.00000000000E+00  0.72592414731E+03  0.72592414731E+03  0.25500000920E-02 0.  1.
        2   -1    0    0  501    0  0.00000000000E+00  0.00000000000E+00 -0.28907307399E+04  0.28907307399E+04  0.25500000920E-02 0. -1.
    10030    2    1    2    0    0  0.00000000000E+00  0.00000000000E+00 -0.21648065925E+04  0.36166548872E+04  0.28972064113E+04 0.  0.
        3    1    3    3  502    0  0.21330089147E+03  0.11317584072E+04  0.14473637231E+02  0.11517742222E+04  0.10100000352E+00 0. -1.
       -3    1    3    3    0  502 -0.21330089147E+03 -0.11317584072E+04 -0.21792802298E+04  0.24648806650E+04  0.10100000352E+00 0.  1.
</event>
<event>
 5   0  0.9994311E-07  0.2902760E+04  0.7818609E-02  0.8272057E-01
       -2   -1    0    0    0  501  0.00000000000E+00  0.00000000000E+00  0.83656629961E+03  0.83656629962E+03  0.25500000920E-02 0.  1.
        2   -1    0    0  501    0  0.00000000000E+00  0.00000000000E+00 -0.25180358701E+04  0.25180358701E+04  0.25500000920E-02 0. -1.
    10030    2    1    2    0    0  0.00000000000E+00  0.00000000000E+00 -0.16814695705E+04  0.33546021697E+04  0.29027600315E+04 0.  0.
        2    1    3    3  502    0  0.14371107307E+04 -0.18658161218E+03 -0.74825314011E+03  0.16309453430E+04  0.25500000920E-02 0. -1.
       -2    1    3    3    0  502 -0.14371107307E+04  0.18658161218E+03 -0.93321643039E+03  0.17236568267E+04  0.25500000920E-02 0.  1.
</event>
<event>
 5   0  0.9994311E-07  0.2890781E+04  0.7818609E-02  0.8275626E-01
        2   -1    0    0  501    0  0.00000000000E+00  0.00000000000E+00  0.13395675756E+04  0.13395675756E+04  0.25500000920E-02 0.  1.
       -2   -1    0    0    0  501  0.00000000000E+00  0.00000000000E+00 -0.15595727526E+04  0.15595727526E+04  0.25500000920E-02 0. -1.
    10030    2    1    2    0    0  0.00000000000E+00  0.00000000000E+00 -0.22000517701E+03  0.28991403281E+04  0.28907805804E+04 0.  0.
        2    1    3    3  502    0  0.12638735061E+04  0.26738241095E+03 -0.76017012018E+03  0.14989090048E+04  0.25500000920E-02 0.  1.
       -2    1    3    3    0  502 -0.12638735061E+04 -0.26738241095E+03  0.54016494318E+03  0.14002313233E+04  0.25500000920E-02 0. -1.
</event>
<event>
 5   0  0.3638028E-07  0.2897572E+04  0.7818609E-02  0.8273600E-01
        1   -1    0    0  501    0  0.00000000000E+00  0.00000000000E+00  0.15458263589E+04  0.15458263589E+04  0.50400001928E-02 0. -1.
       -1   -1    0    0    0  501  0.00000000000E+00  0.00000000000E+00 -0.13578373323E+04  0.13578373323E+04  0.50400001928E-02 0.  1.
    10030    2    1    2    0    0  0.00000000000E+00  0.00000000000E+00  0.18798902653E+03  0.29036636912E+04  0.28975719072E+04 0.  0.
        4    1    3    3  502    0 -0.21493438447E+02 -0.63494439415E+03  0.13987929063E+04  0.15363071175E+04  0.12699999809E+01 0.  1.
       -4    1    3    3    0  502  0.21493438447E+02  0.63494439415E+03 -0.12108038798E+04  0.13673565737E+04  0.12699999809E+01 0. -1.
</event>
<event>
 5   0  0.3378750E-07  0.2900277E+04  0.7818609E-02  0.8272795E-01
       -3   -1    0    0    0  501  0.00000000000E+00  0.00000000000E+00  0.11079229041E+04  0.11079229087E+04  0.10100000352E+00 0. -1.
        3   -1    0    0  501    0  0.00000000000E+00  0.00000000000E+00 -0.18980572777E+04  0.18980572804E+04  0.10100000352E+00 0.  1.
    10030    2    1    2    0    0  0.00000000000E+00  0.00000000000E+00 -0.79013437360E+03  0.30059801890E+04  0.29002766366E+04 0.  0.
        4    1    3    3  502    0  0.11221611942E+04  0.65374638474E+03 -0.10637712444E+04  0.16787617325E+04  0.12699999809E+01 0.  1.
       -4    1    3    3    0  502 -0.11221611942E+04 -0.65374638474E+03  0.27363687077E+03  0.13272184565E+04  0.12699999809E+01 0. -1.
</event>
<event>
 5   0  0.1063979E-06  0.2899397E+04  0.7818609E-02  0.8273057E-01
        2   -1    0    0  501    0  0.00000000000E+00  0.00000000000E+00  0.15654061383E+04  0.15654061383E+04  0.25500000920E-02 0.  1.
       -2   -1    0    0    0  501  0.00000000000E+00  0.00000000000E+00 -0.13425431636E+04  0.13425431636E+04  0.25500000920E-02 0. -1.
    10030    2    1    2    0    0  0.00000000000E+00  0.00000000000E+00  0.22286297470E+03  0.29079493019E+04  0.28993967022E+04 0.  0.
        1    1    3    3  502    0 -0.12508681928E+04 -0.40559466157E+03 -0.50065311684E+03  0.14070649625E+04  0.50400001928E-02 0. -1.
       -1    1    3    3    0  502  0.12508681928E+04  0.40559466157E+03  0.72351609154E+03  0.15008843393E+04  0.50400001928E-02 0.  1.
</event>
<event>
 5   0  0.9950999E-07  0.2906299E+04  0.7818609E-02  0.8271006E-01
        2   -1    0    0  501    0  0.00000000000E+00  0.00000000000E+00  0.24435625417E+04  0.24435625417E+04  0.25500000920E-02 0.  1.
       -2   -1    0    0    0  501  0.00000000000E+00  0.00000000000E+00 -0.86416609074E+03  0.86416609074E+03  0.25500000920E-02 0. -1.
    10030    2    1    2    0    0  0.00000000000E+00  0.00000000000E+00  0.15793964510E+04  0.33077286325E+04  0.29062992889E+04 0.  0.
        3    1    3    3  502    0 -0.21962947853E+03 -0.24085397622E+03  0.24014183311E+04  0.24234392414E+04  0.10100000352E+00 0.  1.
       -3    1    3    3    0  502  0.21962947853E+03  0.24085397622E+03 -0.82202188007E+03  0.88428939110E+03  0.10100000352E+00 0. -1.
</event>
<event>
 5   0  0.3885904E-07  0.2903394E+04  0.7818609E-02  0.8271868E-01
        1   -1    0    0  501    0  0.00000000000E+00  0.00000000000E+00  0.21086545124E+04  0.21086545125E+04  0.50400001928E-02 0.  1.
       -1   -1    0    0    0  501  0.00000000000E+00  0.00000000000E+00 -0.99941670900E+03  0.99941670901E+03  0.50400001928E-02 0. -1.
    10030    2    1    2    0    0  0.00000000000E+00  0.00000000000E+00  0.11092378034E+04  0.31080712215E+04  0.29033942573E+04 0.  0.
        2    1    3    3  502    0  0.10543122173E+04  0.89944618548E+03  0.91888693841E+02  0.13888920851E+04  0.25500000920E-02 0.  1.
       -2    1    3    3    0  502 -0.10543122173E+04 -0.89944618548E+03  0.10173491096E+04  0.17191791363E+04  0.25500000920E-02 0. -1.
</event>
<event>
 5   0  0.9950999E-07  0.2897718E+04  0.7818609E-02  0.8273557E-01
       -2   -1    0    0    0  501  0.00000000000E+00  0.00000000000E+00  0.91955630672E+03  0.91955630673E+03  0.25500000920E-02 0.  1.
        2   -1    0    0  501    0  0.00000000000E+00  0.00000000000E+00 -0.22828312766E+04  0.22828312766E+04  0.25500000920E-02 0. -1.
    10030    2    1    2    0    0  0.00000000000E+00  0.00000000000E+00 -0.13632749698E+04  0.32023875833E+04  0.28977176519E+04 0.  0.
        3    1    3    3  502    0 -0.41546669122E+03 -0.16013636028E+03  0.84206977193E+03  0.95254277405E+03  0.10100000352E+00 0.  1.
       -3    1    3    3    0  502  0.41546669122E+03  0.16013636028E+03 -0.22053447418E+04  0.22498448092E+04  0.10100000352E+00 0. -1.
</event>
<event>
 5   0  0.9994311E-07  0.2851689E+04  0.7818609E-02  0.8287398E-01
        2   -1    0    0  501    0  0.00000000000E+00  0.00000000000E+00  0.21764289165E+04  0.21764289165E+04  0.25500000920E-02 0.  1.
       -2   -1    0    0    0  501  0.00000000000E+00  0.00000000000E+00 -0.93411419778E+03  0.93411419779E+03  0.25500000920E-02 0. -1.
    10030    2    1    2    0    0  0.00000000000E+00  0.00000000000E+00  0.12423147187E+04  0.31105431143E+04  0.28516894301E+04 0.  0.
        2    1    3    3  502    0  0.12558257510E+04  0.59777630920E+03  0.27865090976E+03  0.14184784673E+04  0.25500000920E-02 0. -1.
       -2    1    3    3    0  502 -0.12558257510E+04 -0.59777630920E+03  0.96366380896E+03  0.16920646470E+04  0.25500000920E-02 0.  1.
</event>
<event>
 5   0  0.9950999E-07  0.2909420E+04  0.7818609E-02  0.8270080E-01
        2   -1    0    0  501    0  0.00000000000E+00  0.00000000000E+00  0.15745425108E+04  0.15745425108E+04  0.25500000920E-02 0.  1.
       -2   -1    0    0    0  501  0.00000000000E+00  0.00000000000E+00 -0.13439979328E+04  0.13439979328E+04  0.25500000920E-02 0. -1.
    10030    2    1    2    0    0  0.00000000000E+00  0.00000000000E+00  0.23054457792E+03  0.29185404436E+04  0.29094204781E+04 0.  0.
        3    1    3    3  502    0 -0.12464934959E+04 -0.66018668264E+03  0.47218158363E+03  0.14874635960E+04  0.10100000352E+00 0.  1.
       -3    1    3    3    0  502  0.12464934959E+04  0.66018668264E+03 -0.24163700571E+03  0.14310768477E+04  0.10100000352E+00 0. -1.
</event>
<event>
 5   0  0.3786210E-07  0.2890243E+04  0.7818609E-02  0.8275786E-01
       -1   -1    0    0    0  501  0.00000000000E+00  0.00000000000E+00  0.11683787906E+04  0.11683787906E+04  0.50400001928E-02 0. -1.
        1   -1    0    0  501    0  0.00000000000E+00  0.00000000000E+00 -0.17874136972E+04  0.17874136972E+04  0.50400001928E-02 0.  1.
    10030    2    1    2    0    0  0.00000000000E+00  0.00000000000E+00 -0.61903490668E+03  0.29557924878E+04  0.28902430720E+04 0.  0.
        5    1    3    3  502    0 -0.50781107848E+03  0.10246114753E+04 -0.12131018008E+04  0.16671349183E+04  0.46999998093E+01 0.  1.
       -5    1    3    3    0  502  0.50781107848E+03 -0.10246114753E+04  0.59406689413E+03  0.12886575695E+04  0.46999998093E+01 0. -1.
</event>
<event>
 5   0  0.3786210E-07  0.2897904E+04  0.7818609E-02  0.8273501E-01
       -1   -1    0    0    0  501  0.00000000000E+00  0.00000000000E+00  0.11795612128E+04  0.11795612129E+04  0.50400001928E-02 0.  1.
        1   -1    0    0  501    0  0.00000000000E+00  0.00000000000E+00 -0.17798665925E+04  0.17798665925E+04  0.50400001928E-02 0. -1.
    10030    2    1    2    0    0  0.00000000000E+00  0.00000000000E+00 -0.60030537967E+03  0.29594278054E+04  0.28979037918E+04 0.  0.
        5    1    3    3  502    0 -0.55805092512E+02 -0.37295873529E+03 -0.17288637106E+04  0.17695209087E+04  0.46999998093E+01 0. -1.
       -5    1    3    3    0  502  0.55805092512E+02  0.37295873529E+03  0.11285583309E+04  0.11899068967E+04  0.46999998093E+01 0.  1.
</event>
<event>
 5   0  0.1063979E-06  0.2900295E+04  0.7818609E-02  0.8272790E-01
        2   -1    0    0  501    0  0.00000000000E+00  0.00000000000E+00  0.19749258024E+04  0.19749258024E+04  0.25500000920E-02 0. -1.
       -2   -1    0    0    0  501  0.00000000000E+00  0.00000000000E+00 -0.10648133491E+04  0.10648133491E+04  0.25500000920E-02 0.  1.
    10030    2    1    2    0    0  0.00000000000E+00  0.00000000000E+00  0.91011245334E+03  0.30397391515E+04  0.29002947146E+04 0.  0.
        1    1    3    3  502    0 -0.13580432251E+04 -0.32010849372E+03  0.40863907109E+02  0.13958584125E+04  0.50400001928E-02 0.  1.
       -1    1    3    3    0  502  0.13580432251E+04  0.32010849372E+03  0.86924854624E+03  0.16438807390E+04  0.50400001928E-02 0. -1.
</event>
<event>
 5   0  0.3638028E-07  0.2893250E+04  0.7818609E-02  0.8274889E-01
        1   -1    0    0  501    0  0.00000000000E+00  0.00000000000E+00  0.21747877129E+04  0.21747877129E+04  0.50400001928E-02 0. -1.
       -1   -1    0    0    0  501  0.00000000000E+00  0.00000000000E+00 -0.96226602788E+03  0.96226602789E+03  0.50400001928E-02 0.  1.
    10030    2    1    2    0    0  0.00000000000E+00  0.00000000000E+00  0.12125216850E+04  0.31370537408E+04  0.28932503065E+04 0.  0.
        4    1    3    3  502    0 -0.10869211569E+04 -0.33982644555E+03 -0.36101352740E+03  0.11946597818E+04  0.12699999809E+01 0.  1.
       -4    1    3    3    0  502  0.10869211569E+04  0.33982644555E+03  0.15735352124E+04  0.19423939590E+04  0.12699999809E+01 0. -1.
</event>
<event>
 5   0  0.9994311E-07  0.2876825E+04  0.7818609E-02  0.8279806E-01
       -2   -1    0    0    0  501  0.00000000000E+00  0.00000000000E+00  0.13493196791E+04  0.13493196791E+04  0.25500000920E-02 0.  1.
        2   -1    0    0  501    0  0.00000000000E+00  0.00000000000E+00 -0.15333882124E+04  0.15333882124E+04  0.25500000920E-02 0. -1.
    10030    2    1    2    0    0  0.00000000000E+00  0.00000000000E+00 -0.18406853329E+03  0.28827078916E+04  0.28768252577E+04 0.  0.
        2    1    3    3  502    0 -0.93754047255E+03 -0.21128927852E+03  0.98039042297E+03  0.13728767892E+04  0.25500000920E-02 0.  1.
       -2    1    3    3    0  502  0.93754047255E+03  0.21128927852E+03 -0.11644589563E+04  0.15098311024E+04  0.25500000920E-02 0. -1.
</event>
<event>
 5   0  0.3770467E-07  0.2898012E+04  0.7818609E-02  0.8273469E-01
        1   -1    0    0  501    0  0.00000000000E+00  0.00000000000E+00  0.20450741242E+04  0.20450741242E+04  0.50400001928E-02 0.  1.
       -1   -1    0    0    0  501  0.00000000000E+00  0.00000000000E+00 -0.10266710160E+04  0.10266710160E+04  0.50400001928E-02 0. -1.
    10030    2    1    2    0    0  0.00000000000E+00  0.00000000000E+00  0.10184031082E+04  0.30717451402E+04  0.28980119592E+04 0.  0.
        1    1    3    3  502    0  0.15355817445E+02  0.26858718438E+03 -0.99996773768E+03  0.10355241925E+04  0.50400001928E-02 0. -1.
       -1    1    3    3    0  502 -0.15355817445E+02 -0.26858718438E+03  0.20183708459E+04  0.20362209478E+04  0.50400001928E-02 0.  1.
</event>
<event>
 5   0  0.1006893E-06  0.2891867E+04  0.7818609E-02  0.8275301E-01
        2   -1    0    0  501    0  0.00000000000E+00  0.00000000000E+00  0.17306963267E+04  0.17306963267E+04  0.25500000920E-02 0.  1.
       -2   -1    0    0    0  501  0.00000000000E+00  0.00000000000E+00 -0.12080243237E+04  0.12080243237E+04  0.25500000920E-02 0. -1.
    10030    2    1    2    0    0  0.00000000000E+00  0.00000000000E+00  0.52267200306E+03  0.29387206504E+04  0.28918667048E+04 0.  0.
        4    1    3    3  502    0 -0.75398648775E+03 -0.28247163683E+03 -0.95913728920E+03  0.12522906219E+04  0.12699999809E+01 0. -1.
       -4    1    3    3    0  502  0.75398648775E+03  0.28247163683E+03  0.14818092923E+04  0.16864300284E+04  0.12699999809E+01 0.  1.
</event>
<event>
 5   0  0.3638028E-07  0.2902709E+04  0.7818609E-02  0.8272072E-01
        1   -1    0    0  501    0  0.00000000000E+00  0.00000000000E+00  0.21519715236E+04  0.21519715236E+04  0.50400001928E-02 0.  1.
       -1   -1    0    0    0  501  0.00000000000E+00  0.00000000000E+00 -0.97883737414E+03  0.97883737415E+03  0.50400001928E-02 0. -1.
    10030    2    1    2    0    0  0.00000000000E+00  0.00000000000E+00  0.11731341495E+04  0.31308088978E+04  0.29027091865E+04 0.  0.
        4    1    3    3  502    0 -0.47653282762E+02 -0.12904118585E+04  0.13011996198E+04  0.18331818413E+04  0.12699999809E+01 0.  1.
       -4    1    3    3    0  502  0.47653282762E+02  0.12904118585E+04 -0.12806547036E+03  0.12976270564E+04  0.12699999809E+01 0. -1.
</event>
<event>
 5   0  0.1031339E-06  0.2904631E+04  0.7818609E-02  0.8271501E-01
        2   -1    0    0  501    0  0.00000000000E+00  0.00000000000E+00  0.26109878659E+04  0.26109878659E+04  0.25500000920E-02 0.  1.
       -2   -1    0    0    0  501  0.00000000000E+00  0.00000000000E+00 -0.80782455159E+03  0.80782455160E+03  0.25500000920E-02 0. -1.
    10030    2    1    2    0    0  0.00000000000E+00  0.00000000000E+00  0.18031633143E+04  0.34188124175E+04  0.29046308557E+04 0.  0.
        5    1    3    3  502    0 -0.11207487327E+04  0.86460533618E+03  0.51913502429E+03  0.15076947213E+04  0.46999998093E+01 0. -1.
       -5    1    3    3    0  502  0.11207487327E+04 -0.86460533618E+03  0.12840282900E+04  0.19111176962E+04  0.46999998093E+01 0.  1.
</event>
<event>
 5   0  0.3638028E-07  0.2899533E+04  0.7818609E-02  0.8273016E-01
       -1   -1    0    0    0  501  0.00000000000E+00  0.00000000000E+00  0.90690321543E+03  0.90690321544E+03  0.50400001928E-02 0.  1.
        1   -1    0    0  501    0  0.00000000000E+00  0.00000000000E+00 -0.23175827245E+04  0.23175827245E+04  0.50400001928E-02 0. -1.
    10030    2    1    2    0    0  0.00000000000E+00  0.00000000000E+00 -0.14106795090E+04  0.32244859399E+04  0.28995332210E+04 0.  0.
        4    1    3    3  502    0  0.57694645197E+03 -0.93332548789E+03  0.34840690703E+03  0.11512396191E+04  0.12699999809E+01 0.  1.
       -4    1    3    3    0  502 -0.57694645197E+03  0.93332548789E+03 -0.17590864161E+04  0.20732463208E+04  0.12699999809E+01 0. -1.
</event>
<event>
 5   0  0.3786210E-07  0.2896436E+04  0.7818609E-02  0.8273939E-01
       -1   -1    0    0    0  501  0.00000000000E+00  0.00000000000E+00  0.15351023720E+04  0.15351023720E+04  0.50400001928E-02 0. -1.
        1   -1    0    0  501    0  0.00000000000E+00  0.00000000000E+00 -0.13662512911E+04  0.13662512911E+04  0.50400001928E-02 0.  1.
    10030    2    1    2    0    0  0.00000000000E+00  0.00000000000E+00  0.16885108086E+03  0.29013536632E+04  0.28964361535E+04 0.  0.
        5    1    3    3  502    0 -0.87998928753E+02 -0.13694486179E+04 -0.37915623017E+03  0.14236976032E+04  0.46999998093E+01 0.  1.
       -5    1    3    3    0  502  0.87998928753E+02  0.13694486179E+04  0.54800731103E+03  0.14776560599E+04  0.46999998093E+01 0. -1.
</event>
<event>
 5   0  0.1063979E-06  0.2899084E+04  0.7818609E-02  0.8273150E-01
       -2   -1    0    0    0  501  0.00000000000E+00  0.00000000000E+00  0.11808383274E+04  0.11808383274E+04  0.25500000920E-02 0. -1.
        2   -1    0    0  501    0  0.00000000000E+00  0.00000000000E+00 -0.17793902591E+04  0.17793902591E+04  0.25500000920E-02 0.  1.
    10030    2    1    2    0    0  0.00000000000E+00  0.00000000000E+00 -0.59855193161E+03  0.29602285865E+04  0.28990841432E+04 0.  0.
        1    1    3    3  502    0 -0.82157968563E+02 -0.12660770911E+04  0.41655983300E+03  0.13353738154E+04  0.50400001928E-02 0. -1.
       -1    1    3    3    0  502  0.82157968563E+02  0.12660770911E+04 -0.10151117646E+04  0.16248547711E+04  0.50400001928E-02 0.  1.
</event>
<event>
 5   0  0.3769563E-07  0.2901451E+04  0.7818609E-02  0.8272446E-01
       -1   -1    0    0    0  501  0.00000000000E+00  0.00000000000E+00  0.91598096379E+03  0.91598096380E+03  0.50400001928E-02 0.  1.
        1   -1    0    0  501    0  0.00000000000E+00  0.00000000000E+00 -0.22976503361E+04  0.22976503361E+04  0.50400001928E-02 0. -1.
    10030    2    1    2    0    0  0.00000000000E+00  0.00000000000E+00 -0.13816693723E+04  0.32136312999E+04  0.29014506505E+04 0.  0.
        3    1    3    3  502    0 -0.55856087094E+03 -0.34918162530E+03  0.74078698781E+03  0.99130390169E+03  0.10100000352E+00 0.  1.
       -3    1    3    3    0  502  0.55856087094E+03  0.34918162530E+03 -0.21224563601E+04  0.22223273982E+04  0.10100000352E+00 0. -1.
</event>
<event>
 5   0  0.1063979E-06  0.2898773E+04  0.7818609E-02  0.8273243E-01
        2   -1    0    0  501    0  0.00000000000E+00  0.00000000000E+00  0.13414656859E+04  0.13414656859E+04  0.25500000920E-02 0. -1.
       -2   -1    0    0    0  501  0.00000000000E+00  0.00000000000E+00 -0.15659897820E+04  0.15659897820E+04  0.25500000920E-02 0.  1.
    10030    2    1    2    0    0  0.00000000000E+00  0.00000000000E+00 -0.22452409604E+03  0.29074554679E+04  0.28987732281E+04 0.  0.
        1    1    3    3  502    0 -0.25303766549E+03  0.19000498847E+03 -0.15309211555E+04  0.15632816574E+04  0.50400001928E-02 0.  1.
       -1    1    3    3    0  502  0.25303766549E+03 -0.19000498847E+03  0.13063970595E+04  0.13441738105E+04  0.50400001928E-02 0. -1.
</event>
<event>
 5   0  0.3769563E-07  0.2892602E+04  0.7818609E-02  0.8275082E-01
        1   -1    0    0  501    0  0.00000000000E+00  0.00000000000E+00  0.19742026425E+04  0.19742026425E+04  0.50400001928E-02 0.  1.
       -1   -1    0    0    0  501  0.00000000000E+00  0.00000000000E+00 -0.10595599803E+04  0.10595599803E+04  0.50400001928E-02 0. -1.
    10030    2    1    2    0    0  0.00000000000E+00  0.00000000000E+00  0.91464266221E+03  0.30337626227E+04  0.28926016752E+04 0.  0.
        3    1    3    3  502    0 -0.14017044009E+04 -0.19424479274E+02  0.84099207988E+02  0.14043593646E+04  0.10100000352E+00 0.  1.
       -3    1    3    3    0  502  0.14017044009E+04  0.19424479274E+02  0.83054345422E+03  0.16294032581E+04  0.10100000352E+00 0. -1.
</event>
<event>
 5   0  0.3786210E-07  0.2898552E+04  0.7818609E-02  0.8273309E-01
       -1   -1    0    0    0  501  0.00000000000E+00  0.00000000000E+00  0.15787334479E+04  0.15787334479E+04  0.50400001928E-02 0. -1.
        1   -1    0    0  501    0  0.00000000000E+00  0.00000000000E+00 -0.13304339362E+04  0.13304339362E+04  0.50400001928E-02 0.  1.
    10030    2    1    2    0    0  0.00000000000E+00  0.00000000000E+00  0.24829951168E+03  0.29091673841E+04  0.28985517454E+04 0.  0.
        5    1    3    3  502    0  0.45415561127E+03  0.12984365797E+04 -0.33379269428E+03  0.14154979772E+04  0.46999998093E+01 0.  1.
       -5    1    3    3    0  502 -0.45415561127E+03 -0.12984365797E+04  0.58209220596E+03  0.14936694068E+04  0.46999998093E+01 0. -1.
</event>
<event>
 5   0  0.1006893E-06  0.2924560E+04  0.7818609E-02  0.8265607E-01
        2   -1    0    0  501    0  0.00000000000E+00  0.00000000000E+00  0.17576500353E+04  0.17576500353E+04  0.25500000920E-02 0. -1.
       -2   -1    0    0    0  501  0.00000000000E+00  0.00000000000E+00 -0.12165462759E+04  0.12165462759E+04  0.25500000920E-02 0.  1.
    10030    2    1    2    0    0  0.00000000000E+00  0.00000000000E+00  0.54110375944E+03  0.29741963112E+04  0.29245598676E+04 0.  0.
        4    1    3    3  502    0 -0.83424388969E+03  0.71029256276E+03  0.12553794534E+04  0.16662705594E+04  0.12699999809E+01 0. -1.
       -4    1    3    3    0  502  0.83424388969E+03 -0.71029256276E+03 -0.71427569399E+03  0.13079257518E+04  0.12699999809E+01 0.  1.
</event>
<event>
 5   0  0.9994311E-07  0.2900448E+04  0.7818609E-02  0.8272744E-01
       -2   -1    0    0    0  501  0.00000000000E+00  0.00000000000E+00  0.11363107581E+04  0.11363107581E+04  0.25500000920E-02 0. -1.
        2   -1    0    0  501    0  0.00000000000E+00  0.00000000000E+00 -0.18508576547E+04  0.18508576547E+04  0.25500000920E-02 0.  1.
    10030    2    1    2    0    0  0.00000000000E+00  0.00000000000E+00 -0.71454689665E+03  0.29871684128E+04  0.29004478721E+04 0.  0.
        2    1    3    3  502    0 -0.30380187003E+03  0.80606650749E+03  0.84427521207E+03  0.12061672456E+04  0.25500000920E-02 0. -1.
       -2    1    3    3    0  502  0.30380187003E+03 -0.80606650749E+03 -0.15588221087E+04  0.17810011671E+04  0.25500000920E-02 0.  1.
</event>
<event>
 5   0  0.3638028E-07  0.2901114E+04  0.7818609E-02  0.8272546E-01
       -1   -1    0    0    0  501  0.00000000000E+00  0.00000000000E+00  0.18841306928E+04  0.18841306928E+04  0.50400001928E-02 0. -1.
        1   -1    0    0  501    0  0.00000000000E+00  0.00000000000E+00 -0.11167565099E+04  0.11167565099E+04  0.50400001928E-02 0.  1.
    10030    2    1    2    0    0  0.00000000000E+00  0.00000000000E+00  0.76737418292E+03  0.30008872027E+04  0.29011137287E+04 0.  0.
        4    1    3    3  502    0 -0.85772995395E+03  0.11607940618E+04  0.23389636729E+03  0.14621397509E+04  0.12699999809E+01 0. -1.
       -4    1    3    3    0  502  0.85772995395E+03 -0.11607940618E+04  0.53347781563E+03  0.15387474518E+04  0.12699999809E+01 0.  1.
</event>
<event>
 5   0  0.1031339E-06  0.2900852E+04  0.7818609E-02  0.8272624E-01
       -2   -1    0    0    0  501  0.00000000000E+00  0.00000000000E+00  0.17256572723E+04  0.17256572723E+04  0.25500000920E-02 0. -1.
        2   -1    0    0  501    0  0.00000000000E+00  0.00000000000E+00 -0.12190922225E+04  0.12190922225E+04  0.25500000920E-02 0.  1.
    10030    2    1    2    0    0  0.00000000000E+00  0.00000000000E+00  0.50656504978E+03  0.29447494948E+04  0.29008518468E+04 0.  0.
        5    1    3    3  502    0 -0.91999911895E+03 -0.44977334292E+03  0.12959670129E+04  0.16517406053E+04  0.46999998093E+01 0. -1.
       -5    1    3    3    0  502  0.91999911895E+03  0.44977334292E+03 -0.78940196307E+03  0.12930088894E+04  0.46999998093E+01 0.  1.
</event>
<event>
 5   0  0.3770467E-07  0.2888256E+04  0.7818609E-02  0.8276380E-01
       -1   -1    0    0    0  501  0.00000000000E+00  0.00000000000E+00  0.18258455928E+04  0.18258455928E+04  0.50400001928E-02 0.  1.
        1   -1    0    0  501    0  0.00000000000E+00  0.00000000000E+00 -0.11422136324E+04  0.11422136324E+04  0.50400001928E-02 0. -1.
    10030    2    1    2    0    0  0.00000000000E+00  0.00000000000E+00  0.68363196037E+03  0.29680592252E+04  0.28882560321E+04 0.  0.
        1    1    3    3  502    0 -0.93276978160E+03 -0.10927244925E+04  0.49214337347E+03  0.15186544643E+04  0.50400001928E-02 0.  1.
       -1    1    3    3    0  502  0.93276978160E+03  0.10927244925E+04  0.19148858690E+03  0.14494047609E+04  0.50400001928E-02 0. -1.
</event>
<event>
 5   0  0.1006893E-06  0.2887629E+04  0.7818609E-02  0.8276568E-01
        2   -1    0    0  501    0  0.00000000000E+00  0.00000000000E+00  0.82406764883E+03  0.82406764883E+03  0.25500000920E-02 0. -1.
       -2   -1    0    0    0  501  0.00000000000E+00  0.00000000000E+00 -0.25296478673E+04  0.25296478673E+04  0.25500000920E-02 0.  1.
    10030    2    1    2    0    0  0.00000000000E+00  0.00000000000E+00 -0.17055802185E+04  0.33537155161E+04  0.28876294571E+04 0.  0.
        4    1    3    3  502    0  0.36470511290E+03  0.61910473446E+03 -0.23072413648E+04  0.24165398445E+04  0.12699999809E+01 0.  1.
       -4    1    3    3    0  502 -0.36470511290E+03 -0.61910473446E+03  0.60166114634E+03  0.93717567164E+03  0.12699999809E+01 0. -1.
</event>
<event>
 5   0  0.3885904E-07  0.2898431E+04  0.7818609E-02  0.8273344E-01
       -1   -1    0    0    0  501  0.00000000000E+00  0.00000000000E+00  0.22871519037E+04  0.22871519037E+04  0.50400001928E-02 0.  1.
        1   -1    0    0  501    0  0.00000000000E+00  0.00000000000E+00 -0.91827120925E+03  0.91827120927E+03  0.50400001928E-02 0. -1.
    10030    2    1    2    0    0  0.00000000000E+00  0.00000000000E+00  0.13688806944E+04  0.32054231130E+04  0.28984311235E+04 0.  0.
        2    1    3    3  502    0 -0.24536324102E+03 -0.11423864642E+04 -0.26367002271E+03  0.11978196168E+04  0.25500000920E-02 0. -1.
       -2    1    3    3    0  502  0.24536324102E+03  0.11423864642E+04  0.16325507171E+04  0.20076034961E+04  0.25500000920E-02 0.  1.
</event>
<event>
 5   0  0.3885904E-07  0.2903666E+04  0.7818609E-02  0.8271788E-01
        1   -1    0    0  501    0  0.00000000000E+00  0.00000000000E+00  0.16364795831E+04  0.16364795831E+04  0.50400001928E-02 0.  1.
       -1   -1    0    0    0  501  0.00000000000E+00  0.00000000000E+00 -0.12880204600E+04  0.12880204600E+04  0.50400001928E-02 0. -1.
    10030    2    1    2    0    0  0.00000000000E+00  0.00000000000E+00  0.34845912314E+03  0.29245000431E+04  0.29036660865E+04 0.  0.
        2    1    3    3  502    0 -0.10275416918E+04 -0.97530436361E+03 -0.14547301866E+03  0.14241569188E+04  0.25500000920E-02 0. -1.
       -2    1    3    3    0  502  0.10275416918E+04  0.97530436361E+03  0.49393214181E+03  0.15003431244E+04  0.25500000920E-02 0.  1.
</event>
<event>
 5   0  0.9994311E-07  0.2899372E+04  0.7818609E-02  0.8273064E-01
       -2   -1    0    0    0  501  0.00000000000E+00  0.00000000000E+00  0.73317702608E+03  0.73317702609E+03  0.25500000920E-02 0.  1.
        2   -1    0    0  501    0  0.00000000000E+00  0.00000000000E+00 -0.28664140594E+04  0.28664140594E+04  0.25500000920E-02 0. -1.
    10030    2    1    2    0    0  0.00000000000E+00  0.00000000000E+00 -0.21332370333E+04  0.35995910855E+04  0.28993716117E+04 0.  0.
        2    1    3    3  502    0 -0.25909746380E+02  0.77881719647E+03 -0.25842876627E+04  0.26992166019E+04  0.25500000920E-02 0. -1.
       -2    1    3    3    0  502  0.25909746380E+02 -0.77881719647E+03  0.45105062935E+03  0.90037448360E+03  0.25500000920E-02 0.  1.
</event>
<event>
 5   0  0.3786210E-07  0.2896476E+04  0.7818609E-02  0.8273927E-01
        1   -1    0    0  501    0  0.00000000000E+00  0.00000000000E+00  0.11601269121E+04  0.11601269121E+04  0.50400001928E-02 0. -1.
       -1   -1    0    0    0  501  0.00000000000E+00  0.00000000000E+00 -0.18078997016E+04  0.18078997016E+04  0.50400001928E-02 0.  1.
    10030    2    1    2    0    0  0.00000000000E+00  0.00000000000E+00 -0.64777278946E+03  0.29680266137E+04  0.28964758575E+04 0.  0.
        5    1    3    3  502    0  0.64772186582E+03  0.29039474521E+03 -0.16174079735E+04  0.17663248190E+04  0.46999998093E+01 0.  1.
       -5    1    3    3    0  502 -0.64772186582E+03 -0.29039474521E+03  0.96963518399E+03  0.12017017948E+04  0.46999998093E+01 0. -1.
</event>
<event>
 5   0  0.3638028E-07  0.2900191E+04  0.7818609E-02  0.8272821E-01
       -1   -1    0    0    0  501  0.00000000000E+00  0.00000000000E+00  0.10830149479E+04  0.10830149479E+04  0.50400001928E-02 0. -1.
        1   -1    0    0  501    0  0.00000000000E+00  0.00000000000E+00 -0.19415948989E+04  0.19415948989E+04  0.50400001928E-02 0.  1.
    10030    2    1    2    0    0  0.00000000000E+00  0.00000000000E+00 -0.85857995098E+03  0.30246098468E+04  0.29001905443E+04 0.  0.
        4    1    3    3  502    0  0.26846722805E+03  0.50020594834E+03  0.96230576847E+03  0.11172800223E+04  0.12699999809E+01 0. -1.
       -4    1    3    3    0  502 -0.26846722805E+03 -0.50020594834E+03 -0.18208857195E+04  0.19073298245E+04  0.12699999809E+01 0.  1.
</event>
<event>
 5   0  0.3786210E-07  0.2884966E+04  0.7818609E-02  0.8277365E-01
       -1   -1    0    0    0  501  0.00000000000E+00  0.00000000000E+00  0.10729892348E+04  0.10729892348E+04  0.50400001928E-02 0. -1.
        1   -1    0    0  501    0  0.00000000000E+00  0.00000000000E+00 -0.19392151539E+04  0.19392151539E+04  0.50400001928E-02 0.  1.
    10030    2    1    2    0    0  0.00000000000E+00  0.00000000000E+00 -0.86622591914E+03  0.30122043888E+04  0.28849658467E+04 0.  0.
        5    1    3    3  502    0  0.12624279605E+04 -0.38710863854E+03  0.17314874320E+03  0.13317582479E+04  0.46999998093E+01 0. -1.
       -5    1    3    3    0  502 -0.12624279605E+04  0.38710863854E+03 -0.10393746623E+04  0.16804461409E+04  0.46999998093E+01 0.  1.
</event>
<event>
 5   0  0.9994311E-07  0.2916146E+04  0.7818609E-02  0.8268090E-01
       -2   -1    0    0    0  501  0.00000000000E+00  0.00000000000E+00  0.87572394883E+03  0.87572394884E+03  0.25500000920E-02 0.  1.
        2   -1    0    0  501    0  0.00000000000E+00  0.00000000000E+00 -0.24276786792E+04  0.24276786792E+04  0.25500000920E-02 0. -1.
    10030    2    1    2    0    0  0.00000000000E+00  0.00000000000E+00 -0.15519547304E+04  0.33034026281E+04  0.29161456476E+04 0.  0.
        2    1    3    3  502    0  0.13838906142E+04  0.30485308571E+02 -0.12949591036E+04  0.18955214760E+04  0.25500000920E-02 0. -1.
       -2    1    3    3    0  502 -0.13838906142E+04 -0.30485308571E+02 -0.25699562682E+03  0.14078811521E+04  0.25500000920E-02 0.  1.
</event>
<event>
 5   0  0.9994311E-07  0.2898733E+04  0.7818609E-02  0.8273255E-01
       -2   -1    0    0    0  501  0.00000000000E+00  0.00000000000E+00  0.14994560484E+04  0.14994560484E+04  0.25500000920E-02 0. -1.
        2   -1    0    0  501    0  0.00000000000E+00  0.00000000000E+00 -0.14009498077E+04  0.14009498077E+04  0.25500000920E-02 0.  1.
    10030    2    1    2    0    0  0.00000000000E+00  0.00000000000E+00  0.98506240678E+02  0.29004058561E+04  0.28987325938E+04 0.  0.
        2    1    3    3  502    0  0.66806161703E+03 -0.12280494120E+04  0.43190161767E+03  0.14631987868E+04  0.25500000920E-02 0. -1.
       -2    1    3    3    0  502 -0.66806161703E+03  0.12280494120E+04 -0.33339537699E+03  0.14372070692E+04  0.25500000920E-02 0.  1.
</event>
<event>
 5   0  0.3770467E-07  0.2900441E+04  0.7818609E-02  0.8272746E-01
        1   -1    0    0  501    0  0.00000000000E+00  0.00000000000E+00  0.17105354248E+04  0.17105354248E+04  0.50400001928E-02 0. -1.
       -1   -1    0    0    0  501  0.00000000000E+00  0.00000000000E+00 -0.12295208045E+04  0.12295208045E+04  0.50400001928E-02 0.  1.
    10030    2    1    2    0    0  0.00000000000E+00  0.00000000000E+00  0.48101462028E+03  0.29400562293E+04  0.29004405815E+04 0.  0.
        1    1    3    3  502    0  0.83708575069E+03  0.83046223873E+02  0.14379678186E+04  0.16659413785E+04  0.50400001928E-02 0. -1.
       -1    1    3    3    0  502 -0.83708575069E+03 -0.83046223873E+02 -0.95695319831E+03  0.12741148508E+04  0.50400001928E-02 0.  1.
</event>
<event>
 5   0  0.9950999E-07  0.2911418E+04  0.7818609E-02  0.8269488E-01
        2   -1    0    0  501    0  0.00000000000E+00  0.00000000000E+00  0.15905771900E+04  0.15905771900E+04  0.25500000920E-02 0.  1.
       -2   -1    0    0    0  501  0.00000000000E+00  0.00000000000E+00 -0.13322765629E+04  0.13322765629E+04  0.25500000920E-02 0. -1.
    10030    2    1    2    0    0  0.00000000000E+00  0.00000000000E+00  0.25830062710E+03  0.29228537528E+04  0.29114180130E+04 0.  0.
        3    1    3    3  502    0  0.20150972759E+03  0.55533248744E+03  0.14648228431E+04  0.15794639324E+04  0.10100000352E+00 0.  1.
       -3    1    3    3    0  502 -0.20150972759E+03 -0.55533248744E+03 -0.12065222160E+04  0.13433898205E+04  0.10100000352E+00 0. -1.
</event>
<event>
 5   0  0.9950999E-07  0.2900185E+04  0.7818609E-02  0.8272823E-01
       -2   -1    0    0    0  501  0.00000000000E+00  0.00000000000E+00  0.19809994052E+04  0.19809994052E+04  0.25500000920E-02 0.  1.
        2   -1    0    0  501    0  0.00000000000E+00  0.00000000000E+00 -0.10614681493E+04  0.10614681493E+04  0.25500000920E-02 0. -1.
    10030    2    1    2    0    0  0.00000000000E+00  0.00000000000E+00  0.91953125585E+03  0.30424675545E+04  0.29001846647E+04 0.  0.
        3    1    3    3  502    0 -0.13504594367E+04  0.45851217550E+03  0.73491878627E+03  0.16043938849E+04  0.10100000352E+00 0. -1.
       -3    1    3    3    0  502  0.13504594367E+04 -0.45851217550E+03  0.18461246958E+03  0.14380736696E+04  0.10100000352E+00 0.  1.
</event>
<event>
 5   0  0.1006893E-06  0.2899482E+04  0.7818609E-02  0.8273032E-01
        2   -1    0    0  501    0  0.00000000000E+00  0.00000000000E+00  0.11761300613E+04  0.11761300613E+04  0.25500000920E-02 0.  1.
       -2   -1    0    0    0  501  0.00000000000E+00  0.00000000000E+00 -0.17870041701E+04  0.17870041701E+04  0.25500000920E-02 0. -1.
    10030    2    1    2    0    0  0.00000000000E+00  0.00000000000E+00 -0.61087410878E+03  0.29631342314E+04  0.28994822463E+04 0.  0.
        4    1    3    3  502    0 -0.13087977650E+04 -0.58796919740E+03 -0.51757129600E+03  0.15253003069E+04  0.12699999809E+01 0.  1.
       -4    1    3    3    0  502  0.13087977650E+04  0.58796919740E+03 -0.93302812776E+02  0.14378339245E+04  0.12699999809E+01 0. -1.
</event>
<event>
 5   0  0.3638028E-07  0.2901939E+04  0.7818609E-02  0.8272301E-01
       -1   -1    0    0    0  501  0.00000000000E+00  0.00000000000E+00  0.25123482711E+04  0.25123482712E+04  0.50400001928E-02 0. -1.
        1   -1    0    0  501    0  0.00000000000E+00  0.00000000000E+00 -0.83798602493E+03  0.83798602494E+03  0.50400001928E-02 0.  1.
    10030    2    1    2    0    0  0.00000000000E+00  0.00000000000E+00  0.16743622462E+04  0.33503342961E+04  0.29019391730E+04 0.  0.
        4    1    3    3  502    0 -0.34176730485E+03 -0.96253463395E+03  0.20269672712E+04  0.22697743816E+04  0.12699999809E+01 0. -1.
       -4    1    3    3    0  502  0.34176730485E+03  0.96253463395E+03 -0.35260502496E+03  0.10805599145E+04  0.12699999809E+01 0.  1.
</event>
<event>
 5   0  0.3638028E-07  0.2906764E+04  0.7818609E-02  0.8270868E-01
        1   -1    0    0  501    0  0.00000000000E+00  0.00000000000E+00  0.13047028813E+04  0.13047028813E+04  0.50400001928E-02 0. -1.
       -1   -1    0    0    0  501  0.00000000000E+00  0.00000000000E+00 -0.16190038756E+04  0.16190038756E+04  0.50400001928E-02 0.  1.
    10030    2    1    2    0    0  0.00000000000E+00  0.00000000000E+00 -0.31430099426E+03  0.29237067569E+04  0.29067638510E+04 0.  0.
        4    1    3    3  502    0 -0.10003712637E+04  0.80218957032E+03 -0.84529224115E+03  0.15358292086E+04  0.12699999809E+01 0.  1.
       -4    1    3    3    0  502  0.10003712637E+04 -0.80218957032E+03  0.53099124688E+03  0.13878775483E+04  0.12699999809E+01 0. -1.
</event>
<event>
 5   0  0.1031339E-06  0.2899000E+04  0.7818609E-02  0.8273175E-01
        2   -1    0    0  501    0  0.00000000000E+00  0.00000000000E+00  0.11796007391E+04  0.11796007391E+04  0.25500000920E-02 0. -1.
       -2   -1    0    0    0  501  0.00000000000E+00  0.00000000000E+00 -0.17811542326E+04  0.17811542326E+04  0.25500000920E-02 0.  1.
    10030    2    1    2    0    0  0.00000000000E+00  0.00000000000E+00 -0.60155349346E+03  0.29607549718E+04  0.28990004135E+04 0.  0.
        5    1    3    3  502    0  0.34969024732E+03 -0.90869633905E+03  0.79588309969E+03  0.12575628430E+04  0.46999998093E+01 0. -1.
       -5    1    3    3    0  502 -0.34969024732E+03  0.90869633905E+03 -0.13974365932E+04  0.17031921288E+04  0.46999998093E+01 0.  1.
</event>
<event>
 5   0  0.3638028E-07  0.2901005E+04  0.7818609E-02  0.8272578E-01
       -1   -1    0    0    0  501  0.00000000000E+00  0.00000000000E+00  0.13500683016E+04  0.13500683016E+04  0.50400001928E-02 0. -1.
        1   -1    0    0  501    0  0.00000000000E+00  0.00000000000E+00 -0.15584083295E+04  0.15584083295E+04  0.50400001928E-02 0.  1.
    10030    2    1    2    0    0  0.00000000000E+00  0.00000000000E+00 -0.20834002791E+03  0.29084766311E+04  0.29010051269E+04 0.  0.
        4    1    3    3  502    0  0.83222611215E+03  0.46574612623E+03 -0.11998874747E+04  0.15327267600E+04  0.12699999809E+01 0.  1.
       -4    1    3    3    0  502 -0.83222611215E+03 -0.46574612623E+03  0.99154744680E+03  0.13757498712E+04  0.12699999809E+01 0. -1.
</event>
<event>
 5   0  0.9950999E-07  0.2897282E+04  0.7818609E-02  0.8273687E-01
        2   -1    0    0  501    0  0.00000000000E+00  0.00000000000E+00  0.15323290184E+04  0.15323290184E+04  0.25500000920E-02 0. -1.
       -2   -1    0    0    0  501  0.00000000000E+00  0.00000000000E+00 -0.13695234762E+04  0.13695234762E+04  0.25500000920E-02 0.  1.
    10030    2    1    2    0    0  0.00000000000E+00  0.00000000000E+00  0.16280554227E+03  0.29018524946E+04  0.28972818737E+04 0.  0.
        3    1    3    3  502    0 -0.75937069473E+03  0.45271087861E+03  0.12308061046E+04  0.15154123759E+04  0.10100000352E+00 0. -1.
       -3    1    3    3    0  502  0.75937069473E+03 -0.45271087861E+03 -0.10680005623E+04  0.13864401188E+04  0.10100000352E+00 0.  1.
</event>
<event>
 5   0  0.9950999E-07  0.2901555E+04  0.7818609E-02  0.8272415E-01
       -2   -1    0    0    0  501  0.00000000000E+00  0.00000000000E+00  0.18610458404E+04  0.18610458404E+04  0.25500000920E-02 0. -1.
        2   -1    0    0  501    0  0.00000000000E+00  0.00000000000E+00 -0.11309533451E+04  0.11309533451E+04  0.25500000920E-02 0.  1.
    10030    2    1    2    0    0  0.00000000000E+00  0.00000000000E+00  0.73009249527E+03  0.29919991855E+04  0.29015554578E+04 0.  0.
        3    1    3    3  502    0  0.80610654955E+03 -0.11509346079E+04  0.73726571444E+03  0.15868267028E+04  0.10100000352E+00 0. -1.
       -3    1    3    3    0  502 -0.80610654955E+03  0.11509346079E+04 -0.71732191728E+01  0.14051724827E+04  0.10100000352E+00 0.  1.
</event>
<event>
 5   0  0.3638028E-07  0.2895233E+04  0.7818609E-02  0.8274297E-01
        1   -1    0    0  501    0  0.00000000000E+00  0.00000000000E+00  0.23452701304E+04  0.23452701304E+04  0.50400001928E-02 0. -1.
       -1   -1    0    0    0  501  0.00000000000E+00  0.00000000000E+00 -0.89354019091E+03  0.89354019092E+03  0.50400001928E-02 0.  1.
    10030    2    1    2    0    0  0.00000000000E+00  0.00000000000E+00  0.14517299395E+04  0.32388103214E+04  0.28952327161E+04 0.  0.
        4    1    3    3  502    0  0.45774011873E+02 -0.55981304557E+03 -0.76667139170E+03  0.95040651403E+03  0.12699999809E+01 0.  1.
       -4    1    3    3    0  502 -0.45774011873E+02  0.55981304557E+03  0.22184013312E+04  0.22884038073E+04  0.12699999809E+01 0. -1.
</event>
<event>
 5   0  0.3769563E-07  0.2898202E+04  0.7818609E-02  0.8273412E-01
       -1   -1    0    0    0  501  0.00000000000E+00  0.00000000000E+00  0.14707312016E+04  0.14707312017E+04  0.50400001928E-02 0. -1.
        1   -1    0    0  501    0  0.00000000000E+00  0.00000000000E+00 -0.14277893853E+04  0.14277893853E+04  0.50400001928E-02 0.  1.
    10030    2    1    2    0    0  0.00000000000E+00  0.00000000000E+00  0.42941816372E+02  0.28985205869E+04  0.28982024762E+04 0.  0.
        3    1    3    3  502    0 -0.13782921029E+04 -0.37313366303E+03  0.26843228832E+03  0.14529190462E+04  0.10100000352E+00 0. -1.
       -3    1    3    3    0  502  0.13782921029E+04  0.37313366303E+03 -0.22549047194E+03  0.14456015407E+04  0.10100000352E+00 0.  1.
</event>
<event>
 5   0  0.3638028E-07  0.2901998E+04  0.7818609E-02  0.8272283E-01
        1   -1    0    0  501    0  0.00000000000E+00  0.00000000000E+00  0.20510745474E+04  0.20510745474E+04  0.50400001928E-02 0. -1.
       -1   -1    0    0    0  501  0.00000000000E+00  0.00000000000E+00 -0.10264851902E+04  0.10264851903E+04  0.50400001928E-02 0.  1.
    10030    2    1    2    0    0  0.00000000000E+00  0.00000000000E+00  0.10245893571E+04  0.30775597376E+04  0.29019976892E+04 0.  0.
        4    1    3    3  502    0 -0.47793197530E+03  0.13344980060E+04  0.18355407620E+03  0.14293346748E+04  0.12699999809E+01 0.  1.
       -4    1    3    3    0  502  0.47793197530E+03 -0.13344980060E+04  0.84103528091E+03  0.16482250628E+04  0.12699999809E+01 0. -1.
</event>
<event>
 5   0  0.1031339E-06  0.2898527E+04  0.7818609E-02  0.8273316E-01
        2   -1    0    0  501    0  0.00000000000E+00  0.00000000000E+00  0.17756691562E+04  0.17756691562E+04  0.25500000920E-02 0. -1.
       -2   -1    0    0    0  501  0.00000000000E+00  0.00000000000E+00 -0.11828580790E+04  0.11828580790E+04  0.25500000920E-02 0.  1.
    10030    2    1    2    0    0  0.00000000000E+00  0.00000000000E+00  0.59281107719E+03  0.29585272352E+04  0.28985269411E+04 0.  0.
        5    1    3    3  502    0 -0.80678739175E+03 -0.42436639251E+03  0.14463818316E+04  0.17096886334E+04  0.46999998093E+01 0. -1.
       -5    1    3    3    0  502  0.80678739175E+03  0.42436639251E+03 -0.85357075441E+03  0.12488386018E+04  0.46999998093E+01 0.  1.
</event>
<event>
 5   0  0.3638028E-07  0.2952128E+04  0.7818609E-02  0.8257535E-01
        1   -1    0    0  501    0  0.00000000000E+00  0.00000000000E+00  0.25193257835E+04  0.25193257835E+04  0.50400001928E-02 0. -1.
       -1   -1    0    0    0  501  0.00000000000E+00  0.00000000000E+00 -0.86482040769E+03  0.86482040771E+03  0.50400001928E-02 0.  1.
    10030    2    1    2    0    0  0.00000000000E+00  0.00000000000E+00  0.16545053758E+04  0.33841461912E+04  0.29521276065E+04 0.  0.
        4    1    3    3  502    0  0.70795756630E+03 -0.71096746947E+03  0.20683143882E+04  0.22988268050E+04  0.12699999809E+01 0. -1.
       -4    1    3    3    0  502 -0.70795756630E+03  0.71096746947E+03 -0.41380901239E+03  0.10853193862E+04  0.12699999809E+01 0.  1.
</event>
<event>
 5   0  0.3885904E-07  0.2896439E+04  0.7818609E-02  0.8273938E-01
        1   -1    0    0  501    0  0.00000000000E+00  0.00000000000E+00  0.20377858598E+04  0.20377858598E+04  0.50400001928E-02 0.  1.
       -1   -1    0    0    0  501  0.00000000000E+00  0.00000000000E+00 -0.10292245763E+04  0.10292245763E+04  0.50400001928E-02 0. -1.
    10030    2    1    2    0    0  0.00000000000E+00  0.00000000000E+00  0.10085612835E+04  0.30670104360E+04  0.28964387016E+04 0.  0.
        2    1    3    3  502    0 -0.79288338674E+03 -0.36300250348E+02  0.17869622931E+04  0.19553045824E+04  0.25500000920E-02 0.  1.
       -2    1    3    3    0  502  0.79288338674E+03  0.36300250348E+02 -0.77840100960E+03  0.11117058536E+04  0.25500000920E-02 0. -1.
</event>
<event>
 5   0  0.3786210E-07  0.2898147E+04  0.7818609E-02  0.8273429E-01
        1   -1    0    0  501    0  0.00000000000E+00  0.00000000000E+00  0.26046367975E+04  0.26046367975E+04  0.50400001928E-02 0. -1.
       -1   -1    0    0    0  501  0.00000000000E+00  0.00000000000E+00 -0.80618298747E+03  0.80618298748E+03  0.50400001928E-02 0.  1.
    10030    2    1    2    0    0  0.00000000000E+00  0.00000000000E+00  0.17984538100E+04  0.34108197850E+04  0.28981469077E+04 0.  0.
        5    1    3    3  502    0 -0.53193127864E+03  0.12900595204E+04  0.13589513732E+04  0.19478129725E+04  0.46999998093E+01 0. -1.
       -5    1    3    3    0  502  0.53193127864E+03 -0.12900595204E+04  0.43950243685E+03  0.14630068125E+04  0.46999998093E+01 0.  1.
</event>
<event>
 5   0  0.9994311E-07  0.2901160E+04  0.7818609E-02  0.8272533E-01
        2   -1    0    0  501    0  0.00000000000E+00  0.00000000000E+00  0.17595498888E+04  0.17595498888E+04  0.25500000920E-02 0.  1.
       -2   -1    0    0    0  501  0.00000000000E+00  0.00000000000E+00 -0.11958636884E+04  0.11958636884E+04  0.25500000920E-02 0. -1.
    10030    2    1    2    0    0  0.00000000000E+00  0.00000000000E+00  0.56368620038E+03  0.29554135772E+04  0.29011596440E+04 0.  0.
        2    1    3    3  502    0 -0.13188932540E+04  0.36882844969E+03 -0.20529187665E+03  0.13847955067E+04  0.25500000920E-02 0. -1.
       -2    1    3    3    0  502  0.13188932540E+04 -0.36882844969E+03  0.76897807703E+03  0.15706180706E+04  0.25500000920E-02 0.  1.
</event>
<event>
 5   0  0.1006893E-06  0.2897332E+04  0.7818609E-02  0.8273672E-01
        2   -1    0    0  501    0  0.00000000000E+00  0.00000000000E+00  0.12002826706E+04  0.12002826706E+04  0.25500000920E-02 0. -1.
       -2   -1    0    0    0  501  0.00000000000E+00  0.00000000000E+00 -0.17484496358E+04  0.17484496358E+04  0.25500000920E-02 0.  1.
    10030    2    1    2    0    0  0.00000000000E+00  0.00000000000E+00 -0.54816696519E+03  0.29487323064E+04  0.28973324271E+04 0.  0.
        4    1    3    3  502    0  0.12804920140E+04 -0.67728626349E+03 -0.25780902863E+03  0.14713407453E+04  0.12699999809E+01 0.  1.
       -4    1    3    3    0  502 -0.12804920140E+04  0.67728626349E+03 -0.29035793656E+03  0.14773915611E+04  0.12699999809E+01 0. -1.
</event>
<event>
 5   0  0.9950999E-07  0.2902741E+04  0.7818609E-02  0.8272063E-01
       -2   -1    0    0    0  501  0.00000000000E+00  0.00000000000E+00  0.79168226463E+03  0.79168226463E+03  0.25500000920E-02 0. -1.
        2   -1    0    0  501    0  0.00000000000E+00  0.00000000000E+00 -0.26607592650E+04  0.26607592650E+04  0.25500000920E-02 0.  1.
    10030    2    1    2    0    0  0.00000000000E+00  0.00000000000E+00 -0.18690770004E+04  0.34524415296E+04  0.29027407191E+04 0.  0.
        3    1    3    3  502    0 -0.46047564324E+02  0.12151182962E+04 -0.18769566368E+04  0.22364255138E+04  0.10100000352E+00 0.  1.
       -3    1    3    3    0  502  0.46047564324E+02 -0.12151182962E+04  0.78796364922E+01  0.12160160158E+04  0.10100000352E+00 0. -1.
</event>
<event>
 5   0  0.3770467E-07  0.2888618E+04  0.7818609E-02  0.8276272E-01
       -1   -1    0    0    0  501  0.00000000000E+00  0.00000000000E+00  0.13650921161E+04  0.13650921161E+04  0.50400001928E-02 0. -1.
        1   -1    0    0  501    0  0.00000000000E+00  0.00000000000E+00 -0.15281224844E+04  0.15281224844E+04  0.50400001928E-02 0.  1.
    10030    2    1    2    0    0  0.00000000000E+00  0.00000000000E+00 -0.16303036827E+03  0.28932146005E+04  0.28886176320E+04 0.  0.
        1    1    3    3  502    0  0.60357469488E+03 -0.70515247503E+03 -0.11898409229E+04  0.15090605843E+04  0.50400001928E-02 0.  1.
       -1    1    3    3    0  502 -0.60357469488E+03  0.70515247503E+03  0.10268105547E+04  0.13841540162E+04  0.50400001928E-02 0. -1.
</event>
<event>
 5   0  0.3769563E-07  0.2890400E+04  0.7818609E-02  0.8275739E-01
       -1   -1    0    0    0  501  0.00000000000E+00  0.00000000000E+00  0.14487482215E+04  0.14487482215E+04  0.50400001928E-02 0. -1.
        1   -1    0    0  501    0  0.00000000000E+00  0.00000000000E+00 -0.14416605223E+04  0.14416605223E+04  0.50400001928E-02 0.  1.
    10030    2    1    2    0    0  0.00000000000E+00  0.00000000000E+00  0.70876991985E+01  0.28904087439E+04  0.28904000538E+04 0.  0.
        3    1    3    3  502    0  0.10205823728E+03 -0.22516890542E+02 -0.14378765286E+04  0.14416698012E+04  0.10100000352E+00 0.  1.
       -3    1    3    3    0  502 -0.10205823728E+03  0.22516890542E+02  0.14449642278E+04  0.14487389426E+04  0.10100000352E+00 0. -1.
</event>
<event>
 5   0  0.3786210E-07  0.2897181E+04  0.7818609E-02  0.8273717E-01
       -1   -1    0    0    0  501  0.00000000000E+00  0.00000000000E+00  0.17037687658E+04  0.17037687658E+04  0.50400001928E-02 0.  1.
        1   -1    0    0  501    0  0.00000000000E+00  0.00000000000E+00 -0.12316311193E+04  0.12316311194E+04  0.50400001928E-02 0. -1.
    10030    2    1    2    0    0  0.00000000000E+00  0.00000000000E+00  0.47213764643E+03  0.29353998851E+04  0.28971811349E+04 0.  0.
        5    1    3    3  502    0  0.93493234712E+03  0.10637674654E+04  0.54454007106E+03  0.15173152913E+04  0.46999998093E+01 0.  1.
       -5    1    3    3    0  502 -0.93493234712E+03 -0.10637674654E+04 -0.72402424632E+02  0.14180845938E+04  0.46999998093E+01 0. -1.
</event>
<event>
 5   0  0.3786210E-07  0.2890130E+04  0.7818609E-02  0.8275820E-01
       -1   -1    0    0    0  501  0.00000000000E+00  0.00000000000E+00  0.22180424868E+04  0.22180424868E+04  0.50400001928E-02 0. -1.
        1   -1    0    0  501    0  0.00000000000E+00  0.00000000000E+00 -0.94146688992E+03  0.94146688993E+03  0.50400001928E-02 0.  1.
    10030    2    1    2    0    0  0.00000000000E+00  0.00000000000E+00  0.12765755969E+04  0.31595093768E+04  0.28901304897E+04 0.  0.
        5    1    3    3  502    0 -0.10070250314E+04 -0.56777458637E+02  0.17695681499E+04  0.20368398613E+04  0.46999998093E+01 0. -1.
       -5    1    3    3    0  502  0.10070250314E+04  0.56777458637E+02 -0.49299255299E+03  0.11226695154E+04  0.46999998093E+01 0.  1.
</event>
<event>
 5   0  0.9994311E-07  0.2898993E+04  0.7818609E-02  0.8273177E-01
        2   -1    0    0  501    0  0.00000000000E+00  0.00000000000E+00  0.21211978581E+04  0.21211978581E+04  0.25500000920E-02 0.  1.
       -2   -1    0    0    0  501  0.00000000000E+00  0.00000000000E+00 -0.99049704489E+03  0.99049704490E+03  0.25500000920E-02 0. -1.
    10030    2    1    2    0    0  0.00000000000E+00  0.00000000000E+00  0.11307008133E+04  0.31116949030E+04  0.28989930736E+04 0.  0.
        2    1    3    3  502    0  0.24016468630E+03 -0.44018074282E+03  0.20251356848E+04  0.20862916154E+04  0.25500000920E-02 0.  1.
       -2    1    3    3    0  502 -0.24016468630E+03  0.44018074282E+03 -0.89443487150E+03  0.10254032876E+04  0.25500000920E-02 0. -1.
</event>
<event>
 5   0  0.9994311E-07  0.2912637E+04  0.7818609E-02  0.8269127E-01
       -2   -1    0    0    0  501  0.00000000000E+00  0.00000000000E+00  0.20001475102E+04  0.20001475102E+04  0.25500000920E-02 0. -1.
        2   -1    0    0  501    0  0.00000000000E+00  0.00000000000E+00 -0.10603538603E+04  0.10603538603E+04  0.25500000920E-02 0.  1.
    10030    2    1    2    0    0  0.00000000000E+00  0.00000000000E+00  0.93979364987E+03  0.30605013705E+04  0.29126373847E+04 0.  0.
        2    1    3    3  502    0  0.96411256053E+03 -0.10522171507E+04  0.77478238608E+03  0.16238724418E+04  0.25500000920E-02 0. -1.
       -2    1    3    3    0  502 -0.96411256053E+03  0.10522171507E+04  0.16501126379E+03  0.14366289287E+04  0.25500000920E-02 0.  1.
</event>
<event>
 5   0  0.3769563E-07  0.2901053E+04  0.7818609E-02  0.8272564E-01
        1   -1    0    0  501    0  0.00000000000E+00  0.00000000000E+00  0.11351298688E+04  0.11351298688E+04  0.50400001928E-02 0. -1.
       -1   -1    0    0    0  501  0.00000000000E+00  0.00000000000E+00 -0.18535567917E+04  0.18535567917E+04  0.50400001928E-02 0.  1.
    10030    2    1    2    0    0  0.00000000000E+00  0.00000000000E+00 -0.71842692284E+03  0.29886866605E+04  0.29010533796E+04 0.  0.
        3    1    3    3  502    0 -0.28164848382E+02  0.35112444394E+03 -0.18088240139E+04  0.18428038304E+04  0.10100000352E+00 0.  1.
       -3    1    3    3    0  502  0.28164848382E+02 -0.35112444394E+03  0.10903970911E+04  0.11458828301E+04  0.10100000352E+00 0. -1.
</event>
<event>
 5   0  0.3770467E-07  0.2907269E+04  0.7818609E-02  0.8270718E-01
        1   -1    0    0  501    0  0.00000000000E+00  0.00000000000E+00  0.13428835216E+04  0.13428835216E+04  0.50400001928E-02 0.  1.
       -1   -1    0    0    0  501  0.00000000000E+00  0.00000000000E+00 -0.15735199159E+04  0.15735199160E+04  0.50400001928E-02 0. -1.
    10030    2    1    2    0    0  0.00000000000E+00  0.00000000000E+00 -0.23063639438E+03  0.29164034375E+04  0.29072694860E+04 0.  0.
        1    1    3    3  502    0 -0.88915207790E+03 -0.27412404054E+02  0.10379507049E+04  0.13669983626E+04  0.50400001928E-02 0.  1.
       -1    1    3    3    0  502  0.88915207790E+03  0.27412404054E+02 -0.12685870993E+04  0.15494050749E+04  0.50400001928E-02 0. -1.
</event>
<event>
 5   0  0.1063979E-06  0.2904888E+04  0.7818609E-02  0.8271425E-01
       -2   -1    0    0    0  501  0.00000000000E+00  0.00000000000E+00  0.22991474936E+04  0.22991474936E+04  0.25500000920E-02 0. -1.
        2   -1    0    0  501    0  0.00000000000E+00  0.00000000000E+00 -0.91755484902E+03  0.91755484903E+03  0.25500000920E-02 0.  1.
    10030    2    1    2    0    0  0.00000000000E+00  0.00000000000E+00  0.13815926446E+04  0.32167023426E+04  0.29048882466E+04 0.  0.
        1    1    3    3  502    0  0.27449407859E+03 -0.75419325185E+03 -0.64969926413E+03  0.10326004039E+04  0.50400001928E-02 0.  1.
       -1    1    3    3    0  502 -0.27449407859E+03  0.75419325185E+03  0.20312919087E+04  0.21841019387E+04  0.50400001928E-02 0. -1.
</event>
<event>
 5   0  0.1031339E-06  0.2897993E+04  0.7818609E-02  0.8273475E-01
       -2   -1    0    0    0  501  0.00000000000E+00  0.00000000000E+00  0.11116630960E+04  0.11116630960E+04  0.25500000920E-02 0. -1.
        2   -1    0    0  501    0  0.00000000000E+00  0.00000000000E+00 -0.18886937270E+04  0.18886937270E+04  0.25500000920E-02 0.  1.
    10030    2    1    2    0    0  0.00000000000E+00  0.00000000000E+00 -0.77703063095E+03  0.30003568230E+04  0.28979931787E+04 0.  0.
        5    1    3    3  502    0 -0.89146114259E+02 -0.29760662711E+03  0.10767682943E+04  0.11207001311E+04  0.46999998093E+01 0. -1.
       -5    1    3    3    0  502  0.89146114259E+02  0.29760662711E+03 -0.18537989253E+04  0.18796566919E+04  0.46999998093E+01 0.  1.
</event>
<event>
 5   0  0.3885904E-07  0.2902996E+04  0.7818609E-02  0.8271987E-01
       -1   -1    0    0    0  501  0.00000000000E+00  0.00000000000E+00  0.15660475294E+04  0.15660475294E+04  0.50400001928E-02 0.  1.
        1   -1    0    0  501    0  0.00000000000E+00  0.00000000000E+00 -0.13453271130E+04  0.13453271130E+04  0.50400001928E-02 0. -1.
    10030    2    1    2    0    0  0.00000000000E+00  0.00000000000E+00  0.22072041646E+03  0.29113746424E+04  0.29029958329E+04 0.  0.
        2    1    3    3  502    0  0.90580954906E+03 -0.11287960485E+04  0.22101789500E+03  0.14640766265E+04  0.25500000920E-02 0. -1.
       -2    1    3    3    0  502 -0.90580954906E+03  0.11287960485E+04 -0.29747853683E+00  0.14472980159E+04  0.25500000920E-02 0.  1.
</event>
<event>
 5   0  0.3885904E-07  0.2898850E+04  0.7818609E-02  0.8273220E-01
       -1   -1    0    0    0  501  0.00000000000E+00  0.00000000000E+00  0.32199057760E+04  0.32199057760E+04  0.50400001928E-02 0. -1.
        1   -1    0    0  501    0  0.00000000000E+00  0.00000000000E+00 -0.65245172972E+03  0.65245172974E+03  0.50400001928E-02 0.  1.
    10030    2    1    2    0    0  0.00000000000E+00  0.00000000000E+00  0.25674540463E+04  0.38723575058E+04  0.28988501811E+04 0.  0.
        2    1    3    3  502    0 -0.74981356352E+03 -0.23436448273E+03  0.29108511121E+04  0.30149960676E+04  0.25500000920E-02 0. -1.
       -2    1    3    3    0  502  0.74981356352E+03  0.23436448273E+03 -0.34339706581E+03  0.85736143815E+03  0.25500000920E-02 0.  1.
</event>
<event>
 5   0  0.3769563E-07  0.2898741E+04  0.7818609E-02  0.8273252E-01
       -1   -1    0    0    0  501  0.00000000000E+00  0.00000000000E+00  0.19775275141E+04  0.19775275141E+04  0.50400001928E-02 0. -1.
        1   -1    0    0  501    0  0.00000000000E+00  0.00000000000E+00 -0.10622736013E+04  0.10622736013E+04  0.50400001928E-02 0.  1.
    10030    2    1    2    0    0  0.00000000000E+00  0.00000000000E+00  0.91525391279E+03  0.30398011154E+04  0.28987412952E+04 0.  0.
        3    1    3    3  502    0  0.38155680947E+03 -0.75868464035E+03  0.16892975223E+04  0.18907443274E+04  0.10100000352E+00 0. -1.
       -3    1    3    3    0  502 -0.38155680947E+03  0.75868464035E+03 -0.77404360956E+03  0.11490567880E+04  0.10100000352E+00 0.  1.
</event>
<event>
 5   0  0.9950999E-07  0.2908595E+04  0.7818609E-02  0.8270325E-01
       -2   -1    0    0    0  501  0.00000000000E+00  0.00000000000E+00  0.97015969564E+03  0.97015969564E+03  0.25500000920E-02 0. -1.
        2   -1    0    0  501    0  0.00000000000E+00  0.00000000000E+00 -0.21800344704E+04  0.21800344704E+04  0.25500000920E-02 0.  1.
    10030    2    1    2    0    0  0.00000000000E+00  0.00000000000E+00 -0.12098747748E+04  0.31501941660E+04  0.29085952474E+04 0.  0.
        3    1    3    3  502    0 -0.97621024781E+03 -0.31466598877E+03 -0.17215863541E+04  0.20039612564E+04  0.10100000352E+00 0.  1.
       -3    1    3    3    0  502  0.97621024781E+03  0.31466598877E+03  0.51171157936E+03  0.11462329096E+04  0.10100000352E+00 0. -1.
</event>
<event>
 5   0  0.3786210E-07  0.2904088E+04  0.7818609E-02  0.8271662E-01
       -1   -1    0    0    0  501  0.00000000000E+00  0.00000000000E+00  0.17837551671E+04  0.17837551671E+04  0.50400001928E-02 0.  1.
        1   -1    0    0  501    0  0.00000000000E+00  0.00000000000E+00 -0.11820187274E+04  0.11820187274E+04  0.50400001928E-02 0. -1.
    10030    2    1    2    0    0  0.00000000000E+00  0.00000000000E+00  0.60173643972E+03  0.29657738944E+04  0.29040881616E+04 0.  0.
        5    1    3    3  502    0  0.11852660254E+04 -0.81451742603E+03  0.96324752233E+02  0.14413863938E+04  0.46999998093E+01 0. -1.
       -5    1    3    3    0  502 -0.11852660254E+04  0.81451742603E+03  0.50541168749E+03  0.15243875007E+04  0.46999998093E+01 0.  1.
</event>
<event>
 5   0  0.3885904E-07  0.2896084E+04  0.7818609E-02  0.8274043E-01
       -1   -1    0    0    0  501  0.00000000000E+00  0.00000000000E+00  0.10532041259E+04  0.10532041260E+04  0.50400001928E-02 0. -1.
        1   -1    0    0  501    0  0.00000000000E+00  0.00000000000E+00 -0.19909017549E+04  0.19909017549E+04  0.50400001928E-02 0.  1.
    10030    2    1    2    0    0  0.00000000000E+00  0.00000000000E+00 -0.93769762899E+03  0.30441058809E+04  0.28960842133E+04 0.  0.
        2    1    3    3  502    0 -0.10116754770E+04 -0.34921999202E+02  0.61950496466E+03  0.11867995695E+04  0.25500000920E-02 0. -1.
       -2    1    3    3    0  502  0.10116754770E+04  0.34921999202E+02 -0.15572025936E+04  0.18573063114E+04  0.25500000920E-02 0.  1.
</event>
<event>
 5   0  0.9950999E-07  0.2901062E+04  0.7818609E-02  0.8272562E-01
        2   -1    0    0  501    0  0.00000000000E+00  0.00000000000E+00  0.17382328332E+04  0.17382328332E+04  0.25500000920E-02 0.  1.
       -2   -1    0    0    0  501  0.00000000000E+00  0.00000000000E+00 -0.12104478706E+04  0.12104478706E+04  0.25500000920E-02 0. -1.
    10030    2    1    2    0    0  0.00000000000E+00  0.00000000000E+00  0.52778496263E+03  0.29486807038E+04  0.29010620342E+04 0.  0.
        3    1    3    3  502    0 -0.10590854064E+03 -0.90472401791E+03 -0.88348478881E+03  0.12689710595E+04  0.10100000352E+00 0. -1.
       -3    1    3    3    0  502  0.10590854064E+03  0.90472401791E+03  0.14112697514E+04  0.16797096443E+04  0.10100000352E+00 0.  1.
</event>
<event>
 5   0  0.1031339E-06  0.2896340E+04  0.7818609E-02  0.8273967E-01
       -2   -1    0    0    0  501  0.00000000000E+00  0.00000000000E+00  0.12140700274E+04  0.12140700274E+04  0.25500000920E-02 0. -1.
        2   -1    0    0  501    0  0.00000000000E+00  0.00000000000E+00 -0.17274093085E+04  0.17274093085E+04  0.25500000920E-02 0.  1.
    10030    2    1    2    0    0  0.00000000000E+00  0.00000000000E+00 -0.51333928102E+03  0.29414793359E+04  0.28963396669E+04 0.  0.
        5    1    3    3  502    0  0.13898605408E+03  0.14383628427E+04 -0.16048892940E+03  0.14539544618E+04  0.46999998093E+01 0. -1.
       -5    1    3    3    0  502 -0.13898605408E+03 -0.14383628427E+04 -0.35285035162E+03  0.14875248741E+04  0.46999998093E+01 0.  1.
</event>
<event>
 5   0  0.1031339E-06  0.2900423E+04  0.7818609E-02  0.8272752E-01
       -2   -1    0    0    0  501  0.00000000000E+00  0.00000000000E+00  0.98399648308E+03  0.98399648308E+03  0.25500000920E-02 0. -1.
        2   -1    0    0  501    0  0.00000000000E+00  0.00000000000E+00 -0.21373180832E+04  0.21373180832E+04  0.25500000920E-02 0.  1.
    10030    2    1    2    0    0  0.00000000000E+00  0.00000000000E+00 -0.11533216002E+04  0.31213145663E+04  0.29004230568E+04 0.  0.
        5    1    3    3  502    0 -0.91415438526E+03 -0.99059142823E+03 -0.99978472086E+00  0.13479513001E+04  0.46999998093E+01 0.  1.
       -5    1    3    3    0  502  0.91415438526E+03  0.99059142823E+03 -0.11523218154E+04  0.17733632663E+04  0.46999998093E+01 0. -1.
</event>
<event>
 5   0  0.1031339E-06  0.2898730E+04  0.7818609E-02  0.8273255E-01
        2   -1    0    0  501    0  0.00000000000E+00  0.00000000000E+00  0.13448526734E+04  0.13448526734E+04  0.25500000920E-02 0.  1.
       -2   -1    0    0    0  501  0.00000000000E+00  0.00000000000E+00 -0.15619991505E+04  0.15619991505E+04  0.25500000920E-02 0. -1.
    10030    2    1    2    0    0  0.00000000000E+00  0.00000000000E+00 -0.21714647714E+03  0.29068518239E+04  0.28987298828E+04 0.  0.
        5    1    3    3  502    0  0.13403347481E+02 -0.11601204789E+04 -0.97967133167E+03  0.15184983317E+04  0.46999998093E+01 0. -1.
       -5    1    3    3    0  502 -0.13403347481E+02  0.11601204789E+04  0.76252485453E+03  0.13883534921E+04  0.46999998093E+01 0.  1.
</event>
<event>
 5   0  0.9994311E-07  0.2899756E+04  0.7818609E-02  0.8272950E-01
       -2   -1    0    0    0  501  0.00000000000E+00  0.00000000000E+00  0.83209757913E+03  0.83209757913E+03  0.25500000920E-02 0. -1.
        2   -1    0    0  501    0  0.00000000000E+00  0.00000000000E+00 -0.25263214176E+04  0.25263214176E+04  0.25500000920E-02 0.  1.
    10030    2    1    2    0    0  0.00000000000E+00  0.00000000000E+00 -0.16942238384E+04  0.33584189967E+04  0.28997558074E+04 0.  0.
        2    1    3    3  502    0  0.61695242306E+03  0.96065474577E+03 -0.18821442170E+04  0.22013529219E+04  0.25500000920E-02 0.  1.
       -2    1    3    3    0  502 -0.61695242306E+03 -0.96065474577E+03  0.18792037857E+03  0.11570660749E+04  0.25500000920E-02 0. -1.
</event>
<event>
 5   0  0.1006893E-06  0.2899919E+04  0.7818609E-02  0.8272902E-01
       -2   -1    0    0    0  501  0.00000000000E+00  0.00000000000E+00  0.12156846247E+04  0.12156846247E+04  0.25500000920E-02 0. -1.
        2   -1    0    0  501    0  0.00000000000E+00  0.00000000000E+00 -0.17293813904E+04  0.17293813904E+04  0.25500000920E-02 0.  1.
    10030    2    1    2    0    0  0.00000000000E+00  0.00000000000E+00 -0.51369676572E+03  0.29450660150E+04  0.28999188723E+04 0.  0.
        4    1    3    3  502    0  0.11492072353E+04  0.55049353529E+03 -0.95947227497E+03  0.15950890450E+04  0.12699999809E+01 0.  1.
       -4    1    3    3    0  502 -0.11492072353E+04 -0.55049353529E+03  0.44577550925E+03  0.13499769701E+04  0.12699999809E+01 0. -1.
</event>
<event>
 5   0  0.9950999E-07  0.2895484E+04  0.7818609E-02  0.8274222E-01
       -2   -1    0    0    0  501  0.00000000000E+00  0.00000000000E+00  0.87345545532E+03  0.87345545533E+03  0.25500000920E-02 0.  1.
        2   -1    0    0  501    0  0.00000000000E+00  0.00000000000E+00 -0.23996144774E+04  0.23996144774E+04  0.25500000920E-02 0. -1.
    10030    2    1    2    0    0  0.00000000000E+00  0.00000000000E+00 -0.15261590220E+04  0.32730699327E+04  0.28954836252E+04 0.  0.
        3    1    3    3  502    0  0.44580294964E+03 -0.54070566932E+03  0.66894965116E+03  0.96881192020E+03  0.10100000352E+00 0.  1.
       -3    1    3    3    0  502 -0.44580294964E+03  0.54070566932E+03 -0.21951086732E+04  0.23042580125E+04  0.10100000352E+00 0. -1.
</event>
<event>
 5   0  0.1031339E-06  0.2903171E+04  0.7818609E-02  0.8271935E-01
       -2   -1    0    0    0  501  0.00000000000E+00  0.00000000000E+00  0.10157930419E+04  0.10157930419E+04  0.25500000920E-02 0. -1.
        2   -1    0    0  501    0  0.00000000000E+00  0.00000000000E+00 -0.20743406879E+04  0.20743406879E+04  0.25500000920E-02 0.  1.
    10030    2    1    2    0    0  0.00000000000E+00  0.00000000000E+00 -0.10585476460E+04  0.30901337298E+04  0.29031712574E+04 0.  0.
        5    1    3    3  502    0 -0.89932852300E+02 -0.12057470678E+04 -0.13842223412E+04  0.18379356598E+04  0.46999998093E+01 0.  1.
       -5    1    3    3    0  502  0.89932852300E+02  0.12057470678E+04  0.32567469526E+03  0.12521980701E+04  0.46999998093E+01 0. -1.
</event>
<event>
 5   0  0.1006893E-06  0.2886831E+04  0.7818609E-02  0.8276806E-01
       -2   -1    0    0    0  501  0.00000000000E+00  0.00000000000E+00  0.23364081650E+04  0.23364081650E+04  0.25500000920E-02 0. -1.
        2   -1    0    0  501    0  0.00000000000E+00  0.00000000000E+00 -0.89173131397E+03  0.89173131398E+03  0.25500000920E-02 0.  1.
    10030    2    1    2    0    0  0.00000000000E+00  0.00000000000E+00  0.14446768510E+04  0.32281394790E+04  0.28868310120E+04 0.  0.
        4    1    3    3  502    0 -0.13648127405E+04  0.22360021905E+03  0.11843929964E+04  0.18208512453E+04  0.12699999809E+01 0. -1.
       -4    1    3    3    0  502  0.13648127405E+04 -0.22360021905E+03  0.26028385462E+03  0.14072882337E+04  0.12699999809E+01 0.  1.
</event>
<event>
 5   0  0.3378750E-07  0.2909313E+04  0.7818609E-02  0.8270112E-01
       -3   -1    0    0    0  501  0.00000000000E+00  0.00000000000E+00  0.25075312269E+04  0.25075312290E+04  0.10100000352E+00 0. -1.
        3   -1    0    0  501    0  0.00000000000E+00  0.00000000000E+00 -0.84386832090E+03  0.84386832695E+03  0.10100000352E+00 0.  1.
    10030    2    1    2    0    0  0.00000000000E+00  0.00000000000E+00  0.16636629060E+04  0.33513995559E+04  0.29093134445E+04 0.  0.
        3    1    3    3  502    0  0.10497698444E+03  0.68798210418E+03  0.23033104610E+04  0.24061543244E+04  0.10100000352E+00 0. -1.
       -3    1    3    3    0  502 -0.10497698444E+03 -0.68798210418E+03 -0.63964755496E+03  0.94524523151E+03  0.10100000352E+00 0.  1.
</event>
<event>
 5   0  0.1063979E-06  0.2887172E+04  0.7818609E-02  0.8276704E-01
        2   -1    0    0  501    0  0.00000000000E+00  0.00000000000E+00  0.15637170591E+04  0.15637170591E+04  0.25500000920E-02 0. -1.
       -2   -1    0    0    0  501  0.00000000000E+00  0.00000000000E+00 -0.13326843508E+04  0.13326843508E+04  0.25500000920E-02 0.  1.
    10030    2    1    2    0    0  0.00000000000E+00  0.00000000000E+00  0.23103270822E+03  0.28964014099E+04  0.28871724949E+04 0.  0.
        1    1    3    3  502    0  0.93315919549E+03  0.60919555032E+03  0.10360747338E+04  0.15216294413E+04  0.50400001928E-02 0. -1.
       -1    1    3    3    0  502 -0.93315919549E+03 -0.60919555032E+03 -0.80504202557E+03  0.13747719686E+04  0.50400001928E-02 0.  1.
</event>
<event>
 5   0  0.3885904E-07  0.2899215E+04  0.7818609E-02  0.8273111E-01
        1   -1    0    0  501    0  0.00000000000E+00  0.00000000000E+00  0.16379785617E+04  0.16379785617E+04  0.50400001928E-02 0. -1.
       -1   -1    0    0    0  501  0.00000000000E+00  0.00000000000E+00 -0.12828996208E+04  0.12828996208E+04  0.50400001928E-02 0.  1.
    10030    2    1    2    0    0  0.00000000000E+00  0.00000000000E+00  0.35507894085E+03  0.29208781825E+04  0.28992151184E+04 0.  0.
        2    1    3    3  502    0 -0.95317727935E+02 -0.91655103235E+03 -0.94984417053E+03  0.13233877786E+04  0.25500000920E-02 0.  1.
       -2    1    3    3    0  502  0.95317727935E+02  0.91655103235E+03  0.13049231114E+04  0.15974904040E+04  0.25500000920E-02 0. -1.
</event>
<event>
 5   0  0.9950999E-07  0.2900752E+04  0.7818609E-02  0.8272654E-01
        2   -1    0    0  501    0  0.00000000000E+00  0.00000000000E+00  0.15484278975E+04  0.15484278975E+04  0.25500000920E-02 0. -1.
       -2   -1    0    0    0  501  0.00000000000E+00  0.00000000000E+00 -0.13585329501E+04  0.13585329501E+04  0.25500000920E-02 0.  1.
    10030    2    1    2    0    0  0.00000000000E+00  0.00000000000E+00  0.18989494740E+03  0.29069608475E+04  0.29007518470E+04 0.  0.
        3    1    3    3  502    0  0.10814759274E+04  0.77651830137E+03 -0.48162693854E+03  0.14158161505E+04  0.10100000352E+00 0.  1.
       -3    1    3    3    0  502 -0.10814759274E+04 -0.77651830137E+03  0.67152188595E+03  0.14911446970E+04  0.10100000352E+00 0. -1.
</event>
<event>
 5   0  0.3638028E-07  0.2913385E+04  0.7818609E-02  0.8268906E-01
        1   -1    0    0  501    0  0.00000000000E+00  0.00000000000E+00  0.18148810430E+04  0.18148810430E+04  0.50400001928E-02 0. -1.
       -1   -1    0    0    0  501  0.00000000000E+00  0.00000000000E+00 -0.11691965190E+04  0.11691965190E+04  0.50400001928E-02 0.  1.
    10030    2    1    2    0    0  0.00000000000E+00  0.00000000000E+00  0.64568452404E+03  0.29840775620E+04  0.29133846968E+04 0.  0.
        4    1    3    3  502    0  0.13140116742E+04 -0.66338503403E+02 -0.31756782847E+03  0.13534690301E+04  0.12699999809E+01 0.  1.
       -4    1    3    3    0  502 -0.13140116742E+04  0.66338503403E+02  0.96325235251E+03  0.16306085319E+04  0.12699999809E+01 0. -1.
</event>
<event>
 5   0  0.3770467E-07  0.2900350E+04  0.7818609E-02  0.8272773E-01
        1   -1    0    0  501    0  0.00000000000E+00  0.00000000000E+00  0.21194707245E+04  0.21194707245E+04  0.50400001928E-02 0. -1.
       -1   -1    0    0    0  501  0.00000000000E+00  0.00000000000E+00 -0.99223244398E+03  0.99223244399E+03  0.50400001928E-02 0.  1.
    10030    2    1    2    0    0  0.00000000000E+00  0.00000000000E+00  0.11272382805E+04  0.31117031685E+04  0.29003500595E+04 0.  0.
        1    1    3    3  502    0  0.30271687038E+03  0.17308030359E+03 -0.94658370059E+03  0.10087690505E+04  0.50400001928E-02 0.  1.
       -1    1    3    3    0  502 -0.30271687038E+03 -0.17308030359E+03  0.20738219811E+04  0.21029341179E+04  0.50400001928E-02 0. -1.
</event>
<event>
 5   0  0.3786210E-07  0.2897880E+04  0.7818609E-02  0.8273508E-01
        1   -1    0    0  501    0  0.00000000000E+00  0.00000000000E+00  0.10558103265E+04  0.10558103265E+04  0.50400001928E-02 0.  1.
       -1   -1    0    0    0  501  0.00000000000E+00  0.00000000000E+00 -0.19884511026E+04  0.19884511026E+04  0.50400001928E-02 0. -1.
    10030    2    1    2    0    0  0.00000000000E+00  0.00000000000E+00 -0.93264077606E+03  0.30442614292E+04  0.28978800582E+04 0.  0.
        5    1    3    3  502    0 -0.54639363054E+03 -0.79002919191E+03 -0.16058793832E+04  0.18712463245E+04  0.46999998093E+01 0. -1.
       -5    1    3    3    0  502  0.54639363054E+03  0.79002919191E+03  0.67323860715E+03  0.11730151046E+04  0.46999998093E+01 0.  1.
</event>
<event>
 5   0  0.1006893E-06  0.2900928E+04  0.7818609E-02  0.8272601E-01
       -2   -1    0    0    0  501  0.00000000000E+00  0.00000000000E+00  0.10934976334E+04  0.10934976334E+04  0.25500000920E-02 0. -1.
        2   -1    0    0  501    0  0.00000000000E+00  0.00000000000E+00 -0.19239604526E+04  0.19239604526E+04  0.25500000920E-02 0.  1.
    10030    2    1    2    0    0  0.00000000000E+00  0.00000000000E+00 -0.83046281927E+03  0.30174580860E+04  0.29009282664E+04 0.  0.
        4    1    3    3  502    0  0.10961191316E+04  0.11985605117E+02  0.57277870829E+03  0.12368095516E+04  0.12699999809E+01 0. -1.
       -4    1    3    3    0  502 -0.10961191316E+04 -0.11985605117E+02 -0.14032415276E+04  0.17806485344E+04  0.12699999809E+01 0.  1.
</event>
<event>
 5   0  0.3885904E-07  0.2901323E+04  0.7818609E-02  0.8272484E-01
       -1   -1    0    0    0  501  0.00000000000E+00  0.00000000000E+00  0.11781182940E+04  0.11781182940E+04  0.50400001928E-02 0.  1.
        1   -1    0    0  501    0  0.00000000000E+00  0.00000000000E+00 -0.17862545187E+04  0.17862545187E+04  0.50400001928E-02 0. -1.
    10030    2    1    2    0    0  0.00000000000E+00  0.00000000000E+00 -0.60813622472E+03  0.29643728127E+04  0.29013232335E+04 0.  0.
        2    1    3    3  502    0 -0.83591045612E+03  0.11438591450E+04  0.14573001143E+02  0.14168177041E+04  0.25500000920E-02 0.  1.
       -2    1    3    3    0  502  0.83591045612E+03 -0.11438591450E+04 -0.62270922586E+03  0.15475551086E+04  0.25500000920E-02 0. -1.
</event>
<event>
 5   0  0.9994311E-07  0.2894993E+04  0.7818609E-02  0.8274369E-01
       -2   -1    0    0    0  501  0.00000000000E+00  0.00000000000E+00  0.21677776612E+04  0.21677776612E+04  0.25500000920E-02 0. -1.
        2   -1    0    0  501    0  0.00000000000E+00  0.00000000000E+00 -0.96654105288E+03  0.96654105288E+03  0.25500000920E-02 0.  1.
    10030    2    1    2    0    0  0.00000000000E+00  0.00000000000E+00  0.12012366083E+04  0.31343187141E+04  0.28949929900E+04 0.  0.
        2    1    3    3  502    0 -0.19344599272E+03  0.14154596040E+04  0.85290305261E+03  0.16638482082E+04  0.25500000920E-02 0.  1.
       -2    1    3    3    0  502  0.19344599272E+03 -0.14154596040E+04  0.34833355571E+03  0.14704705059E+04  0.25500000920E-02 0. -1.
</event>
<event>
 5   0  0.1063979E-06  0.2896629E+04  0.7818609E-02  0.8273881E-01
        2   -1    0    0  501    0  0.00000000000E+00  0.00000000000E+00  0.29729585971E+04  0.29729585971E+04  0.25500000920E-02 0.  1.
       -2   -1    0    0    0  501  0.00000000000E+00  0.00000000000E+00 -0.70556472428E+03  0.70556472428E+03  0.25500000920E-02 0. -1.
    10030    2    1    2    0    0  0.00000000000E+00  0.00000000000E+00  0.22673938728E+04  0.36785233214E+04  0.28966288771E+04 0.  0.
        1    1    3    3  502    0  0.10514042709E+04 -0.91360963924E+03  0.62973815840E+03  0.15286280326E+04  0.50400001928E-02 0. -1.
       -1    1    3    3    0  502 -0.10514042709E+04  0.91360963924E+03  0.16376557144E+04  0.21498952888E+04  0.50400001928E-02 0.  1.
</event>
<event>
 5   0  0.1031339E-06  0.2895423E+04  0.7818609E-02  0.8274241E-01
       -2   -1    0    0    0  501  0.00000000000E+00  0.00000000000E+00  0.14916497368E+04  0.14916497368E+04  0.25500000920E-02 0. -1.
        2   -1    0    0  501    0  0.00000000000E+00  0.00000000000E+00 -0.14050675539E+04  0.14050675539E+04  0.25500000920E-02 0.  1.
    10030    2    1    2    0    0  0.00000000000E+00  0.00000000000E+00  0.86582182909E+02  0.28967172907E+04  0.28954230413E+04 0.  0.
        5    1    3    3  502    0  0.68813127462E+03  0.11902276796E+04 -0.41043117475E+03  0.14347969960E+04  0.46999998093E+01 0. -1.
       -5    1    3    3    0  502 -0.68813127462E+03 -0.11902276796E+04  0.49701335766E+03  0.14619202947E+04  0.46999998093E+01 0.  1.
</event>
<event>
 5   0  0.3885904E-07  0.2901088E+04  0.7818609E-02  0.8272554E-01
        1   -1    0    0  501    0  0.00000000000E+00  0.00000000000E+00  0.13692385684E+04  0.13692385684E+04  0.50400001928E-02 0. -1.
       -1   -1    0    0    0  501  0.00000000000E+00  0.00000000000E+00 -0.15366775366E+04  0.15366775366E+04  0.50400001928E-02 0.  1.
    10030    2    1    2    0    0  0.00000000000E+00  0.00000000000E+00 -0.16743896825E+03  0.29059161050E+04  0.29010881753E+04 0.  0.
        2    1    3    3  502    0  0.26075652377E+03  0.11767266220E+03 -0.15081399487E+04  0.15350332000E+04  0.25500000920E-02 0.  1.
       -2    1    3    3    0  502 -0.26075652377E+03 -0.11767266220E+03  0.13407009805E+04  0.13708829050E+04  0.25500000920E-02 0. -1.
</event>
<event>
 5   0  0.3638028E-07  0.2898369E+04  0.7818609E-02  0.8273363E-01
        1   -1    0    0  501    0  0.00000000000E+00  0.00000000000E+00  0.15559386330E+04  0.15559386330E+04  0.50400001928E-02 0. -1.
       -1   -1    0    0    0  501  0.00000000000E+00  0.00000000000E+00 -0.13497547351E+04  0.13497547351E+04  0.50400001928E-02 0.  1.
    10030    2    1    2    0    0  0.00000000000E+00  0.00000000000E+00  0.20618389789E+03  0.29056933681E+04  0.28983688774E+04 0.  0.
        4    1    3    3  502    0  0.11351716774E+04 -0.63493911435E+03 -0.53756249309E+03  0.14073867496E+04  0.12699999809E+01 0.  1.
       -4    1    3    3    0  502 -0.11351716774E+04  0.63493911435E+03  0.74374639097E+03  0.14983066185E+04  0.12699999809E+01 0. -1.
</event>
<event>
 5   0  0.1006893E-06  0.2898662E+04  0.7818609E-02  0.8273276E-01
        2   -1    0    0  501    0  0.00000000000E+00  0.00000000000E+00  0.11111272507E+04  0.11111272507E+04  0.25500000920E-02 0.  1.
       -2   -1    0    0    0  501  0.00000000000E+00  0.00000000000E+00 -0.18904769547E+04  0.18904769547E+04  0.25500000920E-02 0. -1.
    10030    2    1    2    0    0  0.00000000000E+00  0.00000000000E+00 -0.77934970400E+03  0.30016042054E+04  0.28986620784E+04 0.  0.
        4    1    3    3  502    0  0.95971328053E+03  0.47481088393E+03 -0.14011251951E+04  0.17634195138E+04  0.12699999809E+01 0. -1.
       -4    1    3    3    0  502 -0.95971328053E+03 -0.47481088393E+03  0.62177549109E+03  0.12381846916E+04  0.12699999809E+01 0.  1.
</event>
<event>
 5   0  0.9950999E-07  0.2898589E+04  0.7818609E-02  0.8273297E-01
        2   -1    0    0  501    0  0.00000000000E+00  0.00000000000E+00  0.24679191319E+04  0.24679191319E+04  0.25500000920E-02 0. -1.
       -2   -1    0    0    0  501  0.00000000000E+00  0.00000000000E+00 -0.85110376577E+03  0.85110376577E+03  0.25500000920E-02 0.  1.
    10030    2    1    2    0    0  0.00000000000E+00  0.00000000000E+00  0.16168153661E+04  0.33190228977E+04  0.28985894961E+04 0.  0.
        3    1    3    3  502    0 -0.94576572700E+03 -0.66803293113E+03  0.18064494760E+04  0.21456934839E+04  0.10100000352E+00 0. -1.
       -3    1    3    3    0  502  0.94576572700E+03  0.66803293113E+03 -0.18963410981E+03  0.11733294138E+04  0.10100000352E+00 0.  1.
</event>
<event>
 5   0  0.3770467E-07  0.2892676E+04  0.7818609E-02  0.8275060E-01
       -1   -1    0    0    0  501  0.00000000000E+00  0.00000000000E+00  0.11384611634E+04  0.11384611634E+04  0.50400001928E-02 0.  1.
        1   -1    0    0  501    0  0.00000000000E+00  0.00000000000E+00 -0.18374747371E+04  0.18374747371E+04  0.50400001928E-02 0. -1.
    10030    2    1    2    0    0  0.00000000000E+00  0.00000000000E+00 -0.69901357374E+03  0.29759359005E+04  0.28926760115E+04 0.  0.
        1    1    3    3  502    0  0.11145453279E+04  0.83735520488E+03 -0.74598032048E+03  0.15810950843E+04  0.50400001928E-02 0. -1.
       -1    1    3    3    0  502 -0.11145453279E+04 -0.83735520488E+03  0.46966746743E+02  0.13948408162E+04  0.50400001928E-02 0.  1.
</event>
<event>
 5   0  0.3769563E-07  0.2900685E+04  0.7818609E-02  0.8272674E-01
       -1   -1    0    0    0  501  0.00000000000E+00  0.00000000000E+00  0.11881553553E+04  0.11881553554E+04  0.50400001928E-02 0.  1.
        1   -1    0    0  501    0  0.00000000000E+00  0.00000000000E+00 -0.17703862991E+04  0.17703862991E+04  0.50400001928E-02 0. -1.
    10030    2    1    2    0    0  0.00000000000E+00  0.00000000000E+00 -0.58223094375E+03  0.29585416545E+04  0.29006854103E+04 0.  0.
        3    1    3    3  502    0  0.85318014971E+03 -0.67198368600E+03 -0.12715456899E+04  0.16722161624E+04  0.10100000352E+00 0. -1.
       -3    1    3    3    0  502 -0.85318014971E+03  0.67198368600E+03  0.68931474613E+03  0.12863254921E+04  0.10100000352E+00 0.  1.
</event>
<event>
 5   0  0.3885904E-07  0.2899103E+04  0.7818609E-02  0.8273145E-01
        1   -1    0    0  501    0  0.00000000000E+00  0.00000000000E+00  0.74141822986E+03  0.74141822987E+03  0.50400001928E-02 0. -1.
       -1   -1    0    0    0  501  0.00000000000E+00  0.00000000000E+00 -0.28340267366E+04  0.28340267366E+04  0.50400001928E-02 0.  1.
    10030    2    1    2    0    0  0.00000000000E+00  0.00000000000E+00 -0.20926085067E+04  0.35754449665E+04  0.28991026794E+04 0.  0.
        2    1    3    3  502    0 -0.66691721992E+03 -0.10637867973E+04 -0.15288691627E+03  0.12648301615E+04  0.25500000920E-02 0. -1.
       -2    1    3    3    0  502  0.66691721992E+03  0.10637867973E+04 -0.19397215904E+04  0.23106148049E+04  0.25500000920E-02 0.  1.
</event>
<event>
 5   0  0.3885904E-07  0.2873991E+04  0.7818609E-02  0.8280658E-01
        1   -1    0    0  501    0  0.00000000000E+00  0.00000000000E+00  0.22946945407E+04  0.22946945407E+04  0.50400001928E-02 0. -1.
       -1   -1    0    0    0  501  0.00000000000E+00  0.00000000000E+00 -0.89988280574E+03  0.89988280576E+03  0.50400001928E-02 0.  1.
    10030    2    1    2    0    0  0.00000000000E+00  0.00000000000E+00  0.13948117350E+04  0.31945773465E+04  0.28739910658E+04 0.  0.
        2    1    3    3  502    0 -0.10334260430E+04  0.27950577556E+03 -0.36809411297E+03  0.11320716147E+04  0.25500000920E-02 0. -1.
       -2    1    3    3    0  502  0.10334260430E+04 -0.27950577556E+03  0.17629058479E+04  0.20625057317E+04  0.25500000920E-02 0.  1.
</event>
<event>
 5   0  0.1031339E-06  0.2901896E+04  0.7818609E-02  0.8272314E-01
       -2   -1    0    0    0  501  0.00000000000E+00  0.00000000000E+00  0.73042613180E+03  0.73042613181E+03  0.25500000920E-02 0.  1.
        2   -1    0    0  501    0  0.00000000000E+00  0.00000000000E+00 -0.28822213681E+04  0.28822213681E+04  0.25500000920E-02 0. -1.
    10030    2    1    2    0    0  0.00000000000E+00  0.00000000000E+00 -0.21517952363E+04  0.36126474999E+04  0.29018957975E+04 0.  0.
        5    1    3    3  502    0  0.93125347409E+03  0.15648928251E+03  0.29550413412E+03  0.98947799966E+03  0.46999998093E+01 0. -1.
       -5    1    3    3    0  502 -0.93125347409E+03 -0.15648928251E+03 -0.24472993704E+04  0.26231695002E+04  0.46999998093E+01 0.  1.
</event>
<event>
 5   0  0.3786210E-07  0.2893797E+04  0.7818609E-02  0.8274725E-01
        1   -1    0    0  501    0  0.00000000000E+00  0.00000000000E+00  0.12597165633E+04  0.12597165633E+04  0.50400001928E-02 0.  1.
       -1   -1    0    0    0  501  0.00000000000E+00  0.00000000000E+00 -0.16618943799E+04  0.16618943799E+04  0.50400001928E-02 0. -1.
    10030    2    1    2    0    0  0.00000000000E+00  0.00000000000E+00 -0.40217781666E+03  0.29216109432E+04  0.28937974198E+04 0.  0.
        5    1    3    3  502    0  0.70493946786E+03 -0.71969434631E+03  0.84744696628E+03  0.13164680232E+04  0.46999998093E+01 0.  1.
       -5    1    3    3    0  502 -0.70493946786E+03  0.71969434631E+03 -0.12496247829E+04  0.16051429200E+04  0.46999998093E+01 0. -1.
</event>
<event>
 5   0  0.3769563E-07  0.2888666E+04  0.7818609E-02  0.8276258E-01
        1   -1    0    0  501    0  0.00000000000E+00  0.00000000000E+00  0.12715745919E+04  0.12715745919E+04  0.50400001928E-02 0.  1.
       -1   -1    0    0    0  501  0.00000000000E+00  0.00000000000E+00 -0.16405632020E+04  0.16405632020E+04  0.50400001928E-02 0. -1.
    10030    2    1    2    0    0  0.00000000000E+00  0.00000000000E+00 -0.36898861011E+03  0.29121377940E+04  0.28886664634E+04 0.  0.
        3    1    3    3  502    0 -0.70933702758E+03  0.12438856619E+04 -0.37494173333E+03  0.14801999433E+04  0.10100000352E+00 0. -1.
       -3    1    3    3    0  502  0.70933702758E+03 -0.12438856619E+04  0.59531232205E+01  0.14319378507E+04  0.10100000352E+00 0.  1.
</event>
<event>
 5   0  0.3786210E-07  0.2900201E+04  0.7818609E-02  0.8272818E-01
       -1   -1    0    0    0  501  0.00000000000E+00  0.00000000000E+00  0.72636986920E+03  0.72636986921E+03  0.50400001928E-02 0.  1.
        1   -1    0    0  501    0  0.00000000000E+00  0.00000000000E+00 -0.28949324727E+04  0.28949324727E+04  0.50400001928E-02 0. -1.
    10030    2    1    2    0    0  0.00000000000E+00  0.00000000000E+00 -0.21685626035E+04  0.36213023419E+04  0.29002011803E+04 0.  0.
        5    1    3    3  502    0  0.63317755235E+03  0.11985635687E+04 -0.17274223956E+04  0.21957865707E+04  0.46999998093E+01 0. -1.
       -5    1    3    3    0  502 -0.63317755235E+03 -0.11985635687E+04 -0.44114020789E+03  0.14255157712E+04  0.46999998093E+01 0.  1.
</event>
<event>
 5   0  0.3770467E-07  0.2899953E+04  0.7818609E-02  0.8272891E-01
       -1   -1    0    0    0  501  0.00000000000E+00  0.00000000000E+00  0.23276606207E+04  0.23276606207E+04  0.50400001928E-02 0. -1.
        1   -1    0    0  501    0  0.00000000000E+00  0.00000000000E+00 -0.90323806324E+03  0.90323806326E+03  0.50400001928E-02 0.  1.
    10030    2    1    2    0    0  0.00000000000E+00  0.00000000000E+00  0.14244225574E+04  0.32308986839E+04  0.28999528761E+04 0.  0.
        1    1    3    3  502    0  0.96147804077E+03 -0.77063851240E+03 -0.13927754179E+03  0.12400491818E+04  0.50400001928E-02 0.  1.
       -1    1    3    3    0  502 -0.96147804077E+03  0.77063851240E+03  0.15637000992E+04  0.19908495021E+04  0.50400001928E-02 0. -1.
</event>
<event>
 5   0  0.9994311E-07  0.2844568E+04  0.7818609E-02  0.8289564E-01
       -2   -1    0    0    0  501  0.00000000000E+00  0.00000000000E+00  0.10196604250E+04  0.10196604250E+04  0.25500000920E-02 0. -1.
        2   -1    0    0  501    0  0.00000000000E+00  0.00000000000E+00 -0.19838883149E+04  0.19838883150E+04  0.25500000920E-02 0.  1.
    10030    2    1    2    0    0  0.00000000000E+00  0.00000000000E+00 -0.96422788999E+03  0.30035487399E+04  0.28445684399E+04 0.  0.
        2    1    3    3  502    0 -0.12364861194E+03  0.13769296381E+04 -0.12926969527E+03  0.13885009405E+04  0.25500000920E-02 0. -1.
       -2    1    3    3    0  502  0.12364861194E+03 -0.13769296381E+04 -0.83495819472E+03  0.16150477994E+04  0.25500000920E-02 0.  1.
</event>
<event>
 5   0  0.1063979E-06  0.2885081E+04  0.7818609E-02  0.8277330E-01
        2   -1    0    0  501    0  0.00000000000E+00  0.00000000000E+00  0.18330682492E+04  0.18330682492E+04  0.25500000920E-02 0. -1.
       -2   -1    0    0    0  501  0.00000000000E+00  0.00000000000E+00 -0.11352130348E+04  0.11352130348E+04  0.25500000920E-02 0.  1.
    10030    2    1    2    0    0  0.00000000000E+00  0.00000000000E+00  0.69785521438E+03  0.29682812840E+04  0.28850809141E+04 0.  0.
        1    1    3    3  502    0  0.10393606946E+04  0.58917731653E+03 -0.48279268431E+03  0.12885997593E+04  0.50400001928E-02 0. -1.
       -1    1    3    3    0  502 -0.10393606946E+04 -0.58917731653E+03  0.11806478987E+04  0.16796815247E+04  0.50400001928E-02 0.  1.
</event>
<event>
 5   0  0.3786210E-07  0.2899740E+04  0.7818609E-02  0.8272955E-01
        1   -1    0    0  501    0  0.00000000000E+00  0.00000000000E+00  0.15603773350E+04  0.15603773350E+04  0.50400001928E-02 0.  1.
       -1   -1    0    0    0  501  0.00000000000E+00  0.00000000000E+00 -0.13471886355E+04  0.13471886355E+04  0.50400001928E-02 0. -1.
    10030    2    1    2    0    0  0.00000000000E+00  0.00000000000E+00  0.21318869954E+03  0.29075659705E+04  0.28997397213E+04 0.  0.
        5    1    3    3  502    0 -0.39772671435E+03 -0.48621490637E+02  0.15037501625E+04  0.15562253146E+04  0.46999998093E+01 0.  1.
       -5    1    3    3    0  502  0.39772671435E+03  0.48621490637E+02 -0.12905614629E+04  0.13513406559E+04  0.46999998093E+01 0. -1.
</event>
<event>
 5   0  0.3885904E-07  0.2897475E+04  0.7818609E-02  0.8273629E-01
        1   -1    0    0  501    0  0.00000000000E+00  0.00000000000E+00  0.16018983021E+04  0.16018983021E+04  0.50400001928E-02 0. -1.
       -1   -1    0    0    0  501  0.00000000000E+00  0.00000000000E+00 -0.13102207186E+04  0.13102207186E+04  0.50400001928E-02 0.  1.
    10030    2    1    2    0    0  0.00000000000E+00  0.00000000000E+00  0.29167758356E+03  0.29121190207E+04  0.28974750004E+04 0.  0.
        2    1    3    3  502    0 -0.23483738490E+03  0.71441393864E+03 -0.10986862065E+04  0.13314079966E+04  0.25500000920E-02 0.  1.
       -2    1    3    3    0  502  0.23483738490E+03 -0.71441393864E+03  0.13903637901E+04  0.15807110241E+04  0.25500000920E-02 0. -1.
</event>
<event>
 5   0  0.3769563E-07  0.2895019E+04  0.7818609E-02  0.8274361E-01
       -1   -1    0    0    0  501  0.00000000000E+00  0.00000000000E+00  0.93900919912E+03  0.93900919913E+03  0.50400001928E-02 0. -1.
        1   -1    0    0  501    0  0.00000000000E+00  0.00000000000E+00 -0.22313778908E+04  0.22313778908E+04  0.50400001928E-02 0.  1.
    10030    2    1    2    0    0  0.00000000000E+00  0.00000000000E+00 -0.12923686916E+04  0.31703870899E+04  0.28950194239E+04 0.  0.
        3    1    3    3  502    0  0.17697448902E+03  0.20030335559E+03  0.91175022057E+03  0.95012098121E+03  0.10100000352E+00 0. -1.
       -3    1    3    3    0  502 -0.17697448902E+03 -0.20030335559E+03 -0.22041189122E+04  0.22202661087E+04  0.10100000352E+00 0.  1.
</event>
<event>
 5   0  0.9994311E-07  0.2919577E+04  0.7818609E-02  0.8267077E-01
       -2   -1    0    0    0  501  0.00000000000E+00  0.00000000000E+00  0.95018153097E+03  0.95018153097E+03  0.25500000920E-02 0. -1.
        2   -1    0    0  501    0  0.00000000000E+00  0.00000000000E+00 -0.22427106315E+04  0.22427106315E+04  0.25500000920E-02 0.  1.
    10030    2    1    2    0    0  0.00000000000E+00  0.00000000000E+00 -0.12925291006E+04  0.31928921625E+04  0.29195768333E+04 0.  0.
        2    1    3    3  502    0  0.13016110348E+04  0.57639747149E+03 -0.29264141446E+03  0.14532943021E+04  0.25500000920E-02 0.  1.
       -2    1    3    3    0  502 -0.13016110348E+04 -0.57639747149E+03 -0.99988768612E+03  0.17395978604E+04  0.25500000920E-02 0. -1.
</event>
<event>
 5   0  0.1063979E-06  0.2900367E+04  0.7818609E-02  0.8272768E-01
       -2   -1    0    0    0  501  0.00000000000E+00  0.00000000000E+00  0.14960671931E+04  0.14960671931E+04  0.25500000920E-02 0.  1.
        2   -1    0    0  501    0  0.00000000000E+00  0.00000000000E+00 -0.14057067405E+04  0.14057067405E+04  0.25500000920E-02 0. -1.
    10030    2    1    2    0    0  0.00000000000E+00  0.00000000000E+00  0.90360452649E+02  0.29017739336E+04  0.29003666923E+04 0.  0.
        1    1    3    3  502    0  0.12567179699E+04 -0.55234907150E+03 -0.42259575129E+03  0.14363205498E+04  0.50400001928E-02 0. -1.
       -1    1    3    3    0  502 -0.12567179699E+04  0.55234907150E+03  0.51295620393E+03  0.14654533838E+04  0.50400001928E-02 0.  1.
</event>
<event>
 5   0  0.3770467E-07  0.2899305E+04  0.7818609E-02  0.8273084E-01
       -1   -1    0    0    0  501  0.00000000000E+00  0.00000000000E+00  0.20150240493E+04  0.20150240493E+04  0.50400001928E-02 0.  1.
        1   -1    0    0  501    0  0.00000000000E+00  0.00000000000E+00 -0.10429114929E+04  0.10429114929E+04  0.50400001928E-02 0. -1.
    10030    2    1    2    0    0  0.00000000000E+00  0.00000000000E+00  0.97211255645E+03  0.30579355422E+04  0.28993045645E+04 0.  0.
        1    1    3    3  502    0  0.10032286388E+04  0.32348878085E+03  0.15356837989E+04  0.18626425914E+04  0.50400001928E-02 0.  1.
       -1    1    3    3    0  502 -0.10032286388E+04 -0.32348878085E+03 -0.56357124245E+03  0.11952929508E+04  0.50400001928E-02 0. -1.
</event>
<event>
 5   0  0.9994311E-07  0.2934512E+04  0.7818609E-02  0.8262682E-01
       -2   -1    0    0    0  501  0.00000000000E+00  0.00000000000E+00  0.18517234678E+04  0.18517234678E+04  0.25500000920E-02 0.  1.
        2   -1    0    0  501    0  0.00000000000E+00  0.00000000000E+00 -0.11626145628E+04  0.11626145628E+04  0.25500000920E-02 0. -1.
    10030    2    1    2    0    0  0.00000000000E+00  0.00000000000E+00  0.68910890494E+03  0.30143380306E+04  0.29345123411E+04 0.  0.
        2    1    3    3  502    0  0.14400023114E+03 -0.13246136270E+04 -0.28657204383E+03  0.13628869592E+04  0.25500000920E-02 0. -1.
       -2    1    3    3    0  502 -0.14400023114E+03  0.13246136270E+04  0.97568094877E+03  0.16514510714E+04  0.25500000920E-02 0.  1.
</event>
<event>
 5   0  0.3638028E-07  0.2896824E+04  0.7818609E-02  0.8273823E-01
        1   -1    0    0  501    0  0.00000000000E+00  0.00000000000E+00  0.16221473596E+04  0.16221473596E+04  0.50400001928E-02 0.  1.
       -1   -1    0    0    0  501  0.00000000000E+00  0.00000000000E+00 -0.12932844407E+04  0.12932844407E+04  0.50400001928E-02 0. -1.
    10030    2    1    2    0    0  0.00000000000E+00  0.00000000000E+00  0.32886291886E+03  0.29154318003E+04  0.28968244273E+04 0.  0.
        4    1    3    3  502    0 -0.66192643059E+03  0.55424333194E+01  0.14610075140E+04  0.16039706628E+04  0.12699999809E+01 0.  1.
       -4    1    3    3    0  502  0.66192643059E+03 -0.55424333194E+01 -0.11321445951E+04  0.13114611376E+04  0.12699999809E+01 0. -1.
</event>
<event>
 5   0  0.3769563E-07  0.2899438E+04  0.7818609E-02  0.8273045E-01
       -1   -1    0    0    0  501  0.00000000000E+00  0.00000000000E+00  0.12605655159E+04  0.12605655159E+04  0.50400001928E-02 0.  1.
        1   -1    0    0  501    0  0.00000000000E+00  0.00000000000E+00 -0.16672553537E+04  0.16672553537E+04  0.50400001928E-02 0. -1.
    10030    2    1    2    0    0  0.00000000000E+00  0.00000000000E+00 -0.40668983782E+03  0.29278208696E+04  0.28994376042E+04 0.  0.
        3    1    3    3  502    0  0.67727262778E+03 -0.13438620009E+03 -0.14905496479E+04  0.16427099946E+04  0.10100000352E+00 0. -1.
       -3    1    3    3    0  502 -0.67727262778E+03  0.13438620009E+03  0.10838598101E+04  0.12851108751E+04  0.10100000352E+00 0.  1.
</event>
<event>
 5   0  0.1031339E-06  0.2899425E+04  0.7818609E-02  0.8273048E-01
        2   -1    0    0  501    0  0.00000000000E+00  0.00000000000E+00  0.12488735965E+04  0.12488735965E+04  0.25500000920E-02 0. -1.
       -2   -1    0    0    0  501  0.00000000000E+00  0.00000000000E+00 -0.16828500174E+04  0.16828500174E+04  0.25500000920E-02 0.  1.
    10030    2    1    2    0    0  0.00000000000E+00  0.00000000000E+00 -0.43397642087E+03  0.29317236139E+04  0.28994254284E+04 0.  0.
        5    1    3    3  502    0  0.12400446133E+04 -0.20274272616E+02 -0.97603224628E+03  0.15782213802E+04  0.46999998093E+01 0.  1.
       -5    1    3    3    0  502 -0.12400446133E+04  0.20274272616E+02  0.54205582541E+03  0.13535022338E+04  0.46999998093E+01 0. -1.
</event>
<event>
 5   0  0.9994311E-07  0.2891372E+04  0.7818609E-02  0.8275449E-01
        2   -1    0    0  501    0  0.00000000000E+00  0.00000000000E+00  0.20581562785E+04  0.20581562785E+04  0.25500000920E-02 0.  1.
       -2   -1    0    0    0  501  0.00000000000E+00  0.00000000000E+00 -0.10154756257E+04  0.10154756257E+04  0.25500000920E-02 0. -1.
    10030    2    1    2    0    0  0.00000000000E+00  0.00000000000E+00  0.10426806528E+04  0.30736319042E+04  0.28913716708E+04 0.  0.
        2    1    3    3  502    0 -0.68332413342E+03 -0.12631846146E+04  0.34524724053E+03  0.14770791783E+04  0.25500000920E-02 0. -1.
       -2    1    3    3    0  502  0.68332413342E+03  0.12631846146E+04  0.69743341230E+03  0.15965527259E+04  0.25500000920E-02 0.  1.
</event>
<event>
 5   0  0.3378750E-07  0.2892083E+04  0.7818609E-02  0.8275237E-01
       -3   -1    0    0    0  501  0.00000000000E+00  0.00000000000E+00  0.11570647135E+04  0.11570647179E+04  0.10100000352E+00 0. -1.
        3   -1    0    0  501    0  0.00000000000E+00  0.00000000000E+00 -0.18071907436E+04  0.18071907464E+04  0.10100000352E+00 0.  1.
    10030    2    1    2    0    0  0.00000000000E+00  0.00000000000E+00 -0.65012603015E+03  0.29642554643E+04  0.28920834363E+04 0.  0.
        4    1    3    3  502    0  0.12000683205E+04  0.76240686970E+03 -0.59547798823E+03  0.15414356478E+04  0.12699999809E+01 0.  1.
       -4    1    3    3    0  502 -0.12000683205E+04 -0.76240686970E+03 -0.54648041917E+02  0.14228198165E+04  0.12699999809E+01 0. -1.
</event>
<event>
 5   0  0.3786210E-07  0.2892035E+04  0.7818609E-02  0.8275251E-01
        1   -1    0    0  501    0  0.00000000000E+00  0.00000000000E+00  0.93691086154E+03  0.93691086156E+03  0.50400001928E-02 0.  1.
       -1   -1    0    0    0  501  0.00000000000E+00  0.00000000000E+00 -0.22317664631E+04  0.22317664631E+04  0.50400001928E-02 0. -1.
    10030    2    1    2    0    0  0.00000000000E+00  0.00000000000E+00 -0.12948556016E+04  0.31686773247E+04  0.28920347438E+04 0.  0.
        5    1    3    3  502    0 -0.13282777511E+04  0.21450098835E+03 -0.12278277835E+04  0.18215146484E+04  0.46999998093E+01 0. -1.
       -5    1    3    3    0  502  0.13282777511E+04 -0.21450098835E+03 -0.67027818074E+02  0.13471626764E+04  0.46999998093E+01 0.  1.
</event>
<event>
 5   0  0.3885904E-07  0.2895226E+04  0.7818609E-02  0.8274299E-01
        1   -1    0    0  501    0  0.00000000000E+00  0.00000000000E+00  0.11557847645E+04  0.11557847645E+04  0.50400001928E-02 0.  1.
       -1   -1    0    0    0  501  0.00000000000E+00  0.00000000000E+00 -0.18131262605E+04  0.18131262605E+04  0.50400001928E-02 0. -1.
    10030    2    1    2    0    0  0.00000000000E+00  0.00000000000E+00 -0.65734149605E+03  0.29689110250E+04  0.28952262143E+04 0.  0.
        2    1    3    3  502    0 -0.10235036381E+04 -0.52433424993E+03  0.57296649850E+03  0.12848255568E+04  0.25500000920E-02 0.  1.
       -2    1    3    3    0  502  0.10235036381E+04  0.52433424993E+03 -0.12303079945E+04  0.16840854682E+04  0.25500000920E-02 0. -1.
</event>
<event>
 5   0  0.3770467E-07  0.2899248E+04  0.7818609E-02  0.8273101E-01
        1   -1    0    0  501    0  0.00000000000E+00  0.00000000000E+00  0.18852380150E+04  0.18852380150E+04  0.50400001928E-02 0.  1.
       -1   -1    0    0    0  501  0.00000000000E+00  0.00000000000E+00 -0.11146653841E+04  0.11146653841E+04  0.50400001928E-02 0. -1.
    10030    2    1    2    0    0  0.00000000000E+00  0.00000000000E+00  0.77057263083E+03  0.29999033991E+04  0.28992478722E+04 0.  0.
        1    1    3    3  502    0 -0.10551302745E+03 -0.11989521693E+04 -0.45071845108E+03  0.12852106541E+04  0.50400001928E-02 0. -1.
       -1    1    3    3    0  502  0.10551302745E+03  0.11989521693E+04  0.12212910819E+04  0.17146927450E+04  0.50400001928E-02 0.  1.
</event>
<event>
 5   0  0.9994311E-07  0.2900278E+04  0.7818609E-02  0.8272795E-01
        2   -1    0    0  501    0  0.00000000000E+00  0.00000000000E+00  0.20698075336E+04  0.20698075336E+04  0.25500000920E-02 0. -1.
       -2   -1    0    0    0  501  0.00000000000E+00  0.00000000000E+00 -0.10159894554E+04  0.10159894554E+04  0.25500000920E-02 0.  1.
    10030    2    1    2    0    0  0.00000000000E+00  0.00000000000E+00  0.10538180781E+04  0.30857969890E+04  0.29002776618E+04 0.  0.
        2    1    3    3  502    0 -0.35889572536E+03 -0.13973319463E+04  0.37068374966E+03  0.14895466263E+04  0.25500000920E-02 0.  1.
       -2    1    3    3    0  502  0.35889572536E+03  0.13973319463E+04  0.68313432848E+03  0.15962503627E+04  0.25500000920E-02 0. -1.
</event>
<event>
 5   0  0.3770467E-07  0.2899788E+04  0.7818609E-02  0.8272940E-01
        1   -1    0    0  501    0  0.00000000000E+00  0.00000000000E+00  0.19290555199E+04  0.19290555199E+04  0.50400001928E-02 0.  1.
       -1   -1    0    0    0  501  0.00000000000E+00  0.00000000000E+00 -0.10897524916E+04  0.10897524916E+04  0.50400001928E-02 0. -1.
    10030    2    1    2    0    0  0.00000000000E+00  0.00000000000E+00  0.83930302825E+03  0.30188080115E+04  0.28997883090E+04 0.  0.
        1    1    3    3  502    0 -0.23223056833E+03  0.11010173882E+04 -0.53221980831E+03  0.12447603185E+04  0.50400001928E-02 0. -1.
       -1    1    3    3    0  502  0.23223056833E+03 -0.11010173882E+04  0.13715228366E+04  0.17740476931E+04  0.50400001928E-02 0.  1.
</event>
<event>
 5   0  0.1031339E-06  0.2905094E+04  0.7818609E-02  0.8271363E-01
       -2   -1    0    0    0  501  0.00000000000E+00  0.00000000000E+00  0.13402425645E+04  0.13402425645E+04  0.25500000920E-02 0.  1.
        2   -1    0    0  501    0  0.00000000000E+00  0.00000000000E+00 -0.15742621359E+04  0.15742621359E+04  0.25500000920E-02 0. -1.
    10030    2    1    2    0    0  0.00000000000E+00  0.00000000000E+00 -0.23401957141E+03  0.29145047004E+04  0.29050942306E+04 0.  0.
        5    1    3    3  502    0  0.24331835732E+03 -0.13947207514E+04 -0.44274790564E+03  0.14834074273E+04  0.46999998093E+01 0. -1.
       -5    1    3    3    0  502 -0.24331835732E+03  0.13947207514E+04  0.20872833423E+03  0.14310972731E+04  0.46999998093E+01 0.  1.
</event>
<event>
 5   0  0.3769563E-07  0.2918185E+04  0.7818609E-02  0.8267487E-01
        1   -1    0    0  501    0  0.00000000000E+00  0.00000000000E+00  0.19470939115E+04  0.19470939115E+04  0.50400001928E-02 0. -1.
       -1   -1    0    0    0  501  0.00000000000E+00  0.00000000000E+00 -0.10933994183E+04  0.10933994183E+04  0.50400001928E-02 0.  1.
    10030    2    1    2    0    0  0.00000000000E+00  0.00000000000E+00  0.85369449321E+03  0.30404933298E+04  0.29181852924E+04 0.  0.
        3    1    3    3  502    0  0.45590080105E+03  0.16939428122E+03 -0.10064589085E+04  0.11178101393E+04  0.10100000352E+00 0.  1.
       -3    1    3    3    0  502 -0.45590080105E+03 -0.16939428122E+03  0.18601534017E+04  0.19226831905E+04  0.10100000352E+00 0. -1.
</event>
<event>
 5   0  0.3378750E-07  0.2876790E+04  0.7818609E-02  0.8279817E-01
       -3   -1    0    0    0  501  0.00000000000E+00  0.00000000000E+00  0.12447154923E+04  0.12447154964E+04  0.10100000352E+00 0. -1.
        3   -1    0    0  501    0  0.00000000000E+00  0.00000000000E+00 -0.16622113258E+04  0.16622113289E+04  0.10100000352E+00 0.  1.
    10030    2    1    2    0    0  0.00000000000E+00  0.00000000000E+00 -0.41749583349E+03  0.29069268253E+04  0.28767900161E+04 0.  0.
        4    1    3    3  502    0  0.25515236386E+03  0.89082786489E+03 -0.13204098532E+04  0.16131214483E+04  0.12699999809E+01 0.  1.
       -4    1    3    3    0  502 -0.25515236386E+03 -0.89082786489E+03  0.90291401973E+03  0.12938053770E+04  0.12699999809E+01 0. -1.
</event>
<event>
 5   0  0.3786210E-07  0.2898642E+04  0.7818609E-02  0.8273282E-01
       -1   -1    0    0    0  501  0.00000000000E+00  0.00000000000E+00  0.11598451021E+04  0.11598451021E+04  0.50400001928E-02 0. -1.
        1   -1    0    0  501    0  0.00000000000E+00  0.00000000000E+00 -0.18110448193E+04  0.18110448194E+04  0.50400001928E-02 0.  1.
    10030    2    1    2    0    0  0.00000000000E+00  0.00000000000E+00 -0.65119971723E+03  0.29708899215E+04  0.28986420707E+04 0.  0.
        5    1    3    3  502    0 -0.80228910332E+03 -0.12004610563E+04 -0.19703482594E+03  0.14572643431E+04  0.46999998093E+01 0.  1.
       -5    1    3    3    0  502  0.80228910332E+03  0.12004610563E+04 -0.45416489130E+03  0.15136255784E+04  0.46999998093E+01 0. -1.
</event>
<event>
 5   0  0.9994311E-07  0.2898348E+04  0.7818609E-02  0.8273369E-01
       -2   -1    0    0    0  501  0.00000000000E+00  0.00000000000E+00  0.15624675903E+04  0.15624675903E+04  0.25500000920E-02 0. -1.
        2   -1    0    0  501    0  0.00000000000E+00  0.00000000000E+00 -0.13440954151E+04  0.13440954151E+04  0.25500000920E-02 0.  1.
    10030    2    1    2    0    0  0.00000000000E+00  0.00000000000E+00  0.21837217519E+03  0.29065630054E+04  0.28983481671E+04 0.  0.
        2    1    3    3  502    0 -0.49951470995E+03  0.68462127968E+03 -0.10696814964E+04  0.13647123308E+04  0.25500000920E-02 0.  1.
       -2    1    3    3    0  502  0.49951470995E+03 -0.68462127968E+03  0.12880536716E+04  0.15418506746E+04  0.25500000920E-02 0. -1.
</event>
<event>
 5   0  0.3378750E-07  0.2901095E+04  0.7818609E-02  0.8272552E-01
        3   -1    0    0  501    0  0.00000000000E+00  0.00000000000E+00  0.11791568229E+04  0.11791568273E+04  0.10100000352E+00 0. -1.
       -3   -1    0    0    0  501  0.00000000000E+00  0.00000000000E+00 -0.17843999278E+04  0.17843999307E+04  0.10100000352E+00 0.  1.
    10030    2    1    2    0    0  0.00000000000E+00  0.00000000000E+00 -0.60524310490E+03  0.29635567580E+04  0.29010945248E+04 0.  0.
        4    1    3    3  502    0 -0.28863277936E+03 -0.19208807630E+03 -0.17414498285E+04  0.17756282912E+04  0.12699999809E+01 0.  1.
       -4    1    3    3    0  502  0.28863277936E+03  0.19208807630E+03  0.11362067236E+04  0.11879284668E+04  0.12699999809E+01 0. -1.
</event>
<event>
 5   0  0.3770467E-07  0.2898072E+04  0.7818609E-02  0.8273451E-01
        1   -1    0    0  501    0  0.00000000000E+00  0.00000000000E+00  0.26455424227E+04  0.26455424227E+04  0.50400001928E-02 0.  1.
       -1   -1    0    0    0  501  0.00000000000E+00  0.00000000000E+00 -0.79367642498E+03  0.79367642499E+03  0.50400001928E-02 0. -1.
    10030    2    1    2    0    0  0.00000000000E+00  0.00000000000E+00  0.18518659977E+04  0.34392188477E+04  0.28980715327E+04 0.  0.
        1    1    3    3  502    0  0.55449920652E+03  0.88038987773E+03 -0.27092599538E+03  0.10751542223E+04  0.50400001928E-02 0. -1.
       -1    1    3    3    0  502 -0.55449920652E+03 -0.88038987773E+03  0.21227919931E+04  0.23640646253E+04  0.50400001928E-02 0.  1.
</event>
<event>
 5   0  0.9994311E-07  0.2897494E+04  0.7818609E-02  0.8273624E-01
        2   -1    0    0  501    0  0.00000000000E+00  0.00000000000E+00  0.27179678540E+04  0.27179678540E+04  0.25500000920E-02 0. -1.
       -2   -1    0    0    0  501  0.00000000000E+00  0.00000000000E+00 -0.77221946594E+03  0.77221946594E+03  0.25500000920E-02 0.  1.
    10030    2    1    2    0    0  0.00000000000E+00  0.00000000000E+00  0.19457483880E+04  0.34901873199E+04  0.28974938720E+04 0.  0.
        2    1    3    3  502    0 -0.63219377400E+03  0.39676572367E+03 -0.52279932752E+03  0.91126897468E+03  0.25500000920E-02 0.  1.
       -2    1    3    3    0  502  0.63219377400E+03 -0.39676572367E+03  0.24685477156E+04  0.25789183452E+04  0.25500000920E-02 0. -1.
</event>
<event>
 5   0  0.3885904E-07  0.2900115E+04  0.7818609E-02  0.8272843E-01
       -1   -1    0    0    0  501  0.00000000000E+00  0.00000000000E+00  0.99605271387E+03  0.99605271389E+03  0.50400001928E-02 0.  1.
        1   -1    0    0  501    0  0.00000000000E+00  0.00000000000E+00 -0.21109994869E+04  0.21109994869E+04  0.50400001928E-02 0. -1.
    10030    2    1    2    0    0  0.00000000000E+00  0.00000000000E+00 -0.11149467730E+04  0.31070522008E+04  0.29001150101E+04 0.  0.
        2    1    3    3  502    0 -0.85212562450E+03 -0.10047784358E+04  0.91531561499E+02  0.13206346246E+04  0.25500000920E-02 0.  1.
       -2    1    3    3    0  502  0.85212562450E+03  0.10047784358E+04 -0.12064783345E+04  0.17864175762E+04  0.25500000920E-02 0. -1.
</event>
<event>
 5   0  0.3885904E-07  0.2885208E+04  0.7818609E-02  0.8277292E-01
       -1   -1    0    0    0  501  0.00000000000E+00  0.00000000000E+00  0.10484917020E+04  0.10484917020E+04  0.50400001928E-02 0. -1.
        1   -1    0    0  501    0  0.00000000000E+00  0.00000000000E+00 -0.19848565612E+04  0.19848565612E+04  0.50400001928E-02 0.  1.
    10030    2    1    2    0    0  0.00000000000E+00  0.00000000000E+00 -0.93636485916E+03  0.30333482632E+04  0.28852075378E+04 0.  0.
        2    1    3    3  502    0  0.71997001137E+03  0.12500417738E+04 -0.45554963238E+03  0.15127745110E+04  0.25500000920E-02 0. -1.
       -2    1    3    3    0  502 -0.71997001137E+03 -0.12500417738E+04 -0.48081522678E+03  0.15205737522E+04  0.25500000920E-02 0.  1.
</event>
<event>
 5   0  0.3638028E-07  0.2913142E+04  0.7818609E-02  0.8268978E-01
        1   -1    0    0  501    0  0.00000000000E+00  0.00000000000E+00  0.13898658920E+04  0.13898658920E+04  0.50400001928E-02 0. -1.
       -1   -1    0    0    0  501  0.00000000000E+00  0.00000000000E+00 -0.15264771362E+04  0.15264771362E+04  0.50400001928E-02 0.  1.
    10030    2    1    2    0    0  0.00000000000E+00  0.00000000000E+00 -0.13661124417E+03  0.29163430283E+04  0.29131416077E+04 0.  0.
        4    1    3    3  502    0 -0.66764652201E+03  0.11454321769E+03 -0.13591895846E+04  0.15186408288E+04  0.12699999809E+01 0.  1.
       -4    1    3    3    0  502  0.66764652201E+03 -0.11454321769E+03  0.12225783404E+04  0.13977021995E+04  0.12699999809E+01 0. -1.
</event>
<event>
 5   0  0.3638028E-07  0.2898576E+04  0.7818609E-02  0.8273301E-01
        1   -1    0    0  501    0  0.00000000000E+00  0.00000000000E+00  0.17821258745E+04  0.17821258745E+04  0.50400001928E-02 0.  1.
       -1   -1    0    0    0  501  0.00000000000E+00  0.00000000000E+00 -0.11786124659E+04  0.11786124659E+04  0.50400001928E-02 0. -1.
    10030    2    1    2    0    0  0.00000000000E+00  0.00000000000E+00  0.60351340857E+03  0.29607383404E+04  0.28985760446E+04 0.  0.
        4    1    3    3  502    0  0.93295069604E+03 -0.92070291853E+03 -0.32984321713E+03  0.13516245878E+04  0.12699999809E+01 0. -1.
       -4    1    3    3    0  502 -0.93295069604E+03  0.92070291853E+03  0.93335662570E+03  0.16091137527E+04  0.12699999809E+01 0.  1.
</event>
<event>
 5   0  0.3786210E-07  0.2885423E+04  0.7818609E-02  0.8277228E-01
       -1   -1    0    0    0  501  0.00000000000E+00  0.00000000000E+00  0.10832415998E+04  0.10832415998E+04  0.50400001928E-02 0. -1.
        1   -1    0    0  501    0  0.00000000000E+00  0.00000000000E+00 -0.19214701875E+04  0.19214701876E+04  0.50400001928E-02 0.  1.
    10030    2    1    2    0    0  0.00000000000E+00  0.00000000000E+00 -0.83822858775E+03  0.30047117874E+04  0.28854229776E+04 0.  0.
        5    1    3    3  502    0 -0.32293653221E+03  0.13216672766E+04  0.80623445697E+02  0.13629433678E+04  0.46999998093E+01 0.  1.
       -5    1    3    3    0  502  0.32293653221E+03 -0.13216672766E+04 -0.91885203345E+03  0.16417684195E+04  0.46999998093E+01 0. -1.
</event>
<event>
 5   0  0.3769563E-07  0.2899444E+04  0.7818609E-02  0.8273043E-01
       -1   -1    0    0    0  501  0.00000000000E+00  0.00000000000E+00  0.15892005241E+04  0.15892005241E+04  0.50400001928E-02 0.  1.
        1   -1    0    0  501    0  0.00000000000E+00  0.00000000000E+00 -0.13224849533E+04  0.13224849533E+04  0.50400001928E-02 0. -1.
    10030    2    1    2    0    0  0.00000000000E+00  0.00000000000E+00  0.26671557077E+03  0.29116854774E+04  0.28994439335E+04 0.  0.
        3    1    3    3  502    0  0.46777794289E+03  0.13188627734E+04  0.51374265803E+03  0.14906866699E+04  0.10100000352E+00 0. -1.
       -3    1    3    3    0  502 -0.46777794289E+03 -0.13188627734E+04 -0.24702708726E+03  0.14209988075E+04  0.10100000352E+00 0.  1.
</event>
<event>
 5   0  0.1031339E-06  0.2876376E+04  0.7818609E-02  0.8279941E-01
        2   -1    0    0  501    0  0.00000000000E+00  0.00000000000E+00  0.18814631868E+04  0.18814631868E+04  0.25500000920E-02 0.  1.
       -2   -1    0    0    0  501  0.00000000000E+00  0.00000000000E+00 -0.10993486476E+04  0.10993486476E+04  0.25500000920E-02 0. -1.
    10030    2    1    2    0    0  0.00000000000E+00  0.00000000000E+00  0.78211453916E+03  0.29808118345E+04  0.28763755040E+04 0.  0.
        5    1    3    3  502    0 -0.67195438700E+03  0.53875834024E+03 -0.80253359373E+03  0.11772278906E+04  0.46999998093E+01 0. -1.
       -5    1    3    3    0  502  0.67195438700E+03 -0.53875834024E+03  0.15846481329E+04  0.18035839438E+04  0.46999998093E+01 0.  1.
</event>
<event>
 5   0  0.3786210E-07  0.2897890E+04  0.7818609E-02  0.8273505E-01
        1   -1    0    0  501    0  0.00000000000E+00  0.00000000000E+00  0.13998502259E+04  0.13998502259E+04  0.50400001928E-02 0.  1.
       -1   -1    0    0    0  501  0.00000000000E+00  0.00000000000E+00 -0.14997619641E+04  0.14997619641E+04  0.50400001928E-02 0. -1.
    10030    2    1    2    0    0  0.00000000000E+00  0.00000000000E+00 -0.99911738196E+02  0.28996121901E+04  0.28978903529E+04 0.  0.
        5    1    3    3  502    0  0.20439550870E+03  0.14240633118E+04 -0.22235506314E+03  0.14557464422E+04  0.46999998093E+01 0.  1.
       -5    1    3    3    0  502 -0.20439550870E+03 -0.14240633118E+04  0.12244332494E+03  0.14438657478E+04  0.46999998093E+01 0. -1.
</event>
<event>
 5   0  0.1063979E-06  0.2889294E+04  0.7818609E-02  0.8276070E-01
       -2   -1    0    0    0  501  0.00000000000E+00  0.00000000000E+00  0.82602265729E+03  0.82602265729E+03  0.25500000920E-02 0.  1.
        2   -1    0    0  501    0  0.00000000000E+00  0.00000000000E+00 -0.25265713280E+04  0.25265713280E+04  0.25500000920E-02 0. -1.
    10030    2    1    2    0    0  0.00000000000E+00  0.00000000000E+00 -0.17005486707E+04  0.33525939853E+04  0.28892941437E+04 0.  0.
        1    1    3    3  502    0  0.11979613956E+04  0.80739032699E+03 -0.84585329581E+03  0.16740544924E+04  0.50400001928E-02 0.  1.
       -1    1    3    3    0  502 -0.11979613956E+04 -0.80739032699E+03 -0.85469537493E+03  0.16785394929E+04  0.50400001928E-02 0. -1.
</event>
<event>
 5   0  0.3769563E-07  0.2910123E+04  0.7818609E-02  0.8269872E-01
       -1   -1    0    0    0  501  0.00000000000E+00  0.00000000000E+00  0.10150694574E+04  0.10150694574E+04  0.50400001928E-02 0.  1.
        1   -1    0    0  501    0  0.00000000000E+00  0.00000000000E+00 -0.20857721156E+04  0.20857721156E+04  0.50400001928E-02 0. -1.
    10030    2    1    2    0    0  0.00000000000E+00  0.00000000000E+00 -0.10707026582E+04  0.31008415731E+04  0.29101227258E+04 0.  0.
        3    1    3    3  502    0 -0.97900233649E+03 -0.46183814640E+03 -0.15714250536E+04  0.19081710504E+04  0.10100000352E+00 0. -1.
       -3    1    3    3    0  502  0.97900233649E+03  0.46183814640E+03  0.50072239535E+03  0.11926705227E+04  0.10100000352E+00 0.  1.
</event>
<event>
 5   0  0.3638028E-07  0.2901893E+04  0.7818609E-02  0.8272314E-01
        1   -1    0    0  501    0  0.00000000000E+00  0.00000000000E+00  0.19235822034E+04  0.19235822034E+04  0.50400001928E-02 0. -1.
       -1   -1    0    0    0  501  0.00000000000E+00  0.00000000000E+00 -0.10944404652E+04  0.10944404652E+04  0.50400001928E-02 0.  1.
    10030    2    1    2    0    0  0.00000000000E+00  0.00000000000E+00  0.82914173825E+03  0.30180226686E+04  0.29018933140E+04 0.  0.
        4    1    3    3  502    0 -0.70030148552E+03 -0.12702479628E+04  0.37718034435E+03  0.14987390308E+04  0.12699999809E+01 0. -1.
       -4    1    3    3    0  502  0.70030148552E+03  0.12702479628E+04  0.45196139389E+03  0.15192836378E+04  0.12699999809E+01 0.  1.
</event>
<event>
 5   0  0.1063979E-06  0.2884338E+04  0.7818609E-02  0.8277553E-01
       -2   -1    0    0    0  501  0.00000000000E+00  0.00000000000E+00  0.19365503934E+04  0.19365503934E+04  0.25500000920E-02 0.  1.
        2   -1    0    0  501    0  0.00000000000E+00  0.00000000000E+00 -0.10739980415E+04  0.10739980415E+04  0.25500000920E-02 0. -1.
    10030    2    1    2    0    0  0.00000000000E+00  0.00000000000E+00  0.86255235196E+03  0.30105484349E+04  0.28843379342E+04 0.  0.
        1    1    3    3  502    0 -0.10989455050E+04  0.77218269285E+02  0.14027037643E+04  0.17835979745E+04  0.50400001928E-02 0.  1.
       -1    1    3    3    0  502  0.10989455050E+04 -0.77218269285E+02 -0.54015141237E+03  0.12269504604E+04  0.50400001928E-02 0. -1.
</event>
<event>
 5   0  0.9950999E-07  0.2899144E+04  0.7818609E-02  0.8273132E-01
        2   -1    0    0  501    0  0.00000000000E+00  0.00000000000E+00  0.85181348144E+03  0.85181348144E+03  0.25500000920E-02 0. -1.
       -2   -1    0    0    0  501  0.00000000000E+00  0.00000000000E+00 -0.24668064268E+04  0.24668064268E+04  0.25500000920E-02 0.  1.
    10030    2    1    2    0    0  0.00000000000E+00  0.00000000000E+00 -0.16149929453E+04  0.33186199082E+04  0.28991439912E+04 0.  0.
        3    1    3    3  502    0  0.12078127996E+04  0.12894989970E+03  0.98052920145E+02  0.12186280076E+04  0.10100000352E+00 0. -1.
       -3    1    3    3    0  502 -0.12078127996E+04 -0.12894989970E+03 -0.17130458655E+04  0.20999919007E+04  0.10100000352E+00 0.  1.
</event>
<event>
 5   0  0.1063979E-06  0.2897771E+04  0.7818609E-02  0.8273541E-01
        2   -1    0    0  501    0  0.00000000000E+00  0.00000000000E+00  0.24748436759E+04  0.24748436759E+04  0.25500000920E-02 0.  1.
       -2   -1    0    0    0  501  0.00000000000E+00  0.00000000000E+00 -0.84824322267E+03  0.84824322268E+03  0.25500000920E-02 0. -1.
    10030    2    1    2    0    0  0.00000000000E+00  0.00000000000E+00  0.16266004533E+04  0.33230868986E+04  0.28977711264E+04 0.  0.
        1    1    3    3  502    0 -0.37272825296E+03 -0.13113392182E+04  0.25064162577E+03  0.13861306289E+04  0.50400001928E-02 0. -1.
       -1    1    3    3    0  502  0.37272825296E+03  0.13113392182E+04  0.13759588275E+04  0.19369562697E+04  0.50400001928E-02 0.  1.
</event>
<event>
 5   0  0.9950999E-07  0.2899558E+04  0.7818609E-02  0.8273009E-01
        2   -1    0    0  501    0  0.00000000000E+00  0.00000000000E+00  0.19952926425E+04  0.19952926425E+04  0.25500000920E-02 0. -1.
       -2   -1    0    0    0  501  0.00000000000E+00  0.00000000000E+00 -0.10534089882E+04  0.10534089883E+04  0.25500000920E-02 0.  1.
    10030    2    1    2    0    0  0.00000000000E+00  0.00000000000E+00  0.94188365423E+03  0.30487016307E+04  0.28995580379E+04 0.  0.
        3    1    3    3  502    0  0.51371801933E+03  0.65809447202E+02 -0.95282226340E+03  0.10844848374E+04  0.10100000352E+00 0.  1.
       -3    1    3    3    0  502 -0.51371801933E+03 -0.65809447202E+02  0.18947059176E+04  0.19642167933E+04  0.10100000352E+00 0. -1.
</event>
<event>
 5   0  0.9994311E-07  0.2894225E+04  0.7818609E-02  0.8274598E-01
        2   -1    0    0  501    0  0.00000000000E+00  0.00000000000E+00  0.15191891110E+04  0.15191891110E+04  0.25500000920E-02 0. -1.
       -2   -1    0    0    0  501  0.00000000000E+00  0.00000000000E+00 -0.13784556054E+04  0.13784556054E+04  0.25500000920E-02 0.  1.
    10030    2    1    2    0    0  0.00000000000E+00  0.00000000000E+00  0.14073350566E+03  0.28976447164E+04  0.28942251092E+04 0.  0.
        2    1    3    3  502    0 -0.75299780000E+03  0.94049707873E+03 -0.73220018323E+03  0.14098430942E+04  0.25500000920E-02 0.  1.
       -2    1    3    3    0  502  0.75299780000E+03 -0.94049707873E+03  0.87293368889E+03  0.14878016222E+04  0.25500000920E-02 0. -1.
</event>
<event>
 5   0  0.1063979E-06  0.2904907E+04  0.7818609E-02  0.8271419E-01
       -2   -1    0    0    0  501  0.00000000000E+00  0.00000000000E+00  0.16413040313E+04  0.16413040313E+04  0.25500000920E-02 0. -1.
        2   -1    0    0  501    0  0.00000000000E+00  0.00000000000E+00 -0.12853327418E+04  0.12853327418E+04  0.25500000920E-02 0.  1.
    10030    2    1    2    0    0  0.00000000000E+00  0.00000000000E+00  0.35597128944E+03  0.29266367731E+04  0.29049074414E+04 0.  0.
        1    1    3    3  502    0 -0.14787847573E+03  0.92511634635E+03  0.12962040484E+04  0.15993289946E+04  0.50400001928E-02 0. -1.
       -1    1    3    3    0  502  0.14787847573E+03 -0.92511634635E+03 -0.94023275896E+03  0.13273077785E+04  0.50400001928E-02 0.  1.
</event>
<event>
 5   0  0.3786210E-07  0.2899658E+04  0.7818609E-02  0.8272979E-01
        1   -1    0    0  501    0  0.00000000000E+00  0.00000000000E+00  0.19173774935E+04  0.19173774935E+04  0.50400001928E-02 0. -1.
       -1   -1    0    0    0  501  0.00000000000E+00  0.00000000000E+00 -0.10962914476E+04  0.10962914477E+04  0.50400001928E-02 0.  1.
    10030    2    1    2    0    0  0.00000000000E+00  0.00000000000E+00  0.82108604586E+03  0.30136689412E+04  0.28996582889E+04 0.  0.
        5    1    3    3  502    0  0.13278956417E+04  0.45345265417E+03  0.78965409115E+03  0.16101247835E+04  0.46999998093E+01 0. -1.
       -5    1    3    3    0  502 -0.13278956417E+04 -0.45345265417E+03  0.31431954710E+02  0.14035441577E+04  0.46999998093E+01 0.  1.
</event>
<event>
 5   0  0.3786210E-07  0.2913803E+04  0.7818609E-02  0.8268782E-01
        1   -1    0    0  501    0  0.00000000000E+00  0.00000000000E+00  0.13787698877E+04  0.13787698877E+04  0.50400001928E-02 0.  1.
       -1   -1    0    0    0  501  0.00000000000E+00  0.00000000000E+00 -0.15394608782E+04  0.15394608782E+04  0.50400001928E-02 0. -1.
    10030    2    1    2    0    0  0.00000000000E+00  0.00000000000E+00 -0.16069099045E+03  0.29182307659E+04  0.29138032206E+04 0.  0.
        5    1    3    3  502    0  0.13440834489E+04  0.54019673612E+03 -0.23604033012E+03  0.14676886451E+04  0.46999998093E+01 0. -1.
       -5    1    3    3    0  502 -0.13440834489E+04 -0.54019673612E+03  0.75349339669E+02  0.14505421208E+04  0.46999998093E+01 0.  1.
</event>
<event>
 5   0  0.9994311E-07  0.2898330E+04  0.7818609E-02  0.8273375E-01
        2   -1    0    0  501    0  0.00000000000E+00  0.00000000000E+00  0.25413290967E+04  0.25413290967E+04  0.25500000920E-02 0.  1.
       -2   -1    0    0    0  501  0.00000000000E+00  0.00000000000E+00 -0.82637024630E+03  0.82637024631E+03  0.25500000920E-02 0. -1.
    10030    2    1    2    0    0  0.00000000000E+00  0.00000000000E+00  0.17149588504E+04  0.33676993430E+04  0.28983296925E+04 0.  0.
        2    1    3    3  502    0  0.14034688728E+04 -0.19232937386E+03  0.12125164062E+04  0.18646478220E+04  0.25500000920E-02 0.  1.
       -2    1    3    3    0  502 -0.14034688728E+04  0.19232937386E+03  0.50244244421E+03  0.15030515210E+04  0.25500000920E-02 0. -1.
</event>
<event>
 5   0  0.3769563E-07  0.2897589E+04  0.7818609E-02  0.8273595E-01
       -1   -1    0    0    0  501  0.00000000000E+00  0.00000000000E+00  0.22269342482E+04  0.22269342482E+04  0.50400001928E-02 0. -1.
        1   -1    0    0  501    0  0.00000000000E+00  0.00000000000E+00 -0.94255362810E+03  0.94255362811E+03  0.50400001928E-02 0.  1.
    10030    2    1    2    0    0  0.00000000000E+00  0.00000000000E+00  0.12843806201E+04  0.31694878763E+04  0.28975886217E+04 0.  0.
        3    1    3    3  502    0 -0.12963767436E+04  0.17718362795E+03 -0.38293954692E+02  0.13089893570E+04  0.10100000352E+00 0.  1.
       -3    1    3    3    0  502  0.12963767436E+04 -0.17718362795E+03  0.13226745748E+04  0.18604985193E+04  0.10100000352E+00 0. -1.
</event>
<event>
 5   0  0.3786210E-07  0.2901032E+04  0.7818609E-02  0.8272570E-01
        1   -1    0    0  501    0  0.00000000000E+00  0.00000000000E+00  0.19779938554E+04  0.19779938555E+04  0.50400001928E-02 0. -1.
       -1   -1    0    0    0  501  0.00000000000E+00  0.00000000000E+00 -0.10637024848E+04  0.10637024848E+04  0.50400001928E-02 0.  1.
    10030    2    1    2    0    0  0.00000000000E+00  0.00000000000E+00  0.91429137066E+03  0.30416963403E+04  0.29010322156E+04 0.  0.
        5    1    3    3  502    0 -0.11396167897E+04  0.88867410274E+03  0.32658139707E+03  0.14816023715E+04  0.46999998093E+01 0. -1.
       -5    1    3    3    0  502  0.11396167897E+04 -0.88867410274E+03  0.58770997359E+03  0.15600939688E+04  0.46999998093E+01 0.  1.
</event>
<event>
 5   0  0.1031339E-06  0.2898223E+04  0.7818609E-02  0.8273406E-01
       -2   -1    0    0    0  501  0.00000000000E+00  0.00000000000E+00  0.10643617190E+04  0.10643617190E+04  0.25500000920E-02 0. -1.
        2   -1    0    0  501    0  0.00000000000E+00  0.00000000000E+00 -0.19729420601E+04  0.19729420601E+04  0.25500000920E-02 0.  1.
    10030    2    1    2    0    0  0.00000000000E+00  0.00000000000E+00 -0.90858034111E+03  0.30373037791E+04  0.28982229055E+04 0.  0.
        5    1    3    3  502    0  0.44680534444E+03  0.84730202250E+03  0.68524772467E+03  0.11777700401E+04  0.46999998093E+01 0. -1.
       -5    1    3    3    0  502 -0.44680534444E+03 -0.84730202250E+03 -0.15938280658E+04  0.18595337390E+04  0.46999998093E+01 0.  1.
</event>
<event>
 5   0  0.9950999E-07  0.2916447E+04  0.7818609E-02  0.8268001E-01
       -2   -1    0    0    0  501  0.00000000000E+00  0.00000000000E+00  0.13024139696E+04  0.13024139696E+04  0.25500000920E-02 0. -1.
        2   -1    0    0  501    0  0.00000000000E+00  0.00000000000E+00 -0.16326731086E+04  0.16326731086E+04  0.25500000920E-02 0.  1.
    10030    2    1    2    0    0  0.00000000000E+00  0.00000000000E+00 -0.33025913910E+03  0.29350870782E+04  0.29164473350E+04 0.  0.
        3    1    3    3  502    0  0.54682830686E+03 -0.73090757650E+03  0.97931436938E+03  0.13387694823E+04  0.10100000352E+00 0. -1.
       -3    1    3    3    0  502 -0.54682830686E+03  0.73090757650E+03 -0.13095735085E+04  0.15963175959E+04  0.10100000352E+00 0.  1.
</event>
<event>
 5   0  0.3786210E-07  0.2900306E+04  0.7818609E-02  0.8272786E-01
       -1   -1    0    0    0  501  0.00000000000E+00  0.00000000000E+00  0.13943457013E+04  0.13943457013E+04  0.50400001928E-02 0.  1.
        1   -1    0    0  501    0  0.00000000000E+00  0.00000000000E+00 -0.15081940051E+04  0.15081940052E+04  0.50400001928E-02 0. -1.
    10030    2    1    2    0    0  0.00000000000E+00  0.00000000000E+00 -0.11384830387E+03  0.29025397064E+04  0.29003060720E+04 0.  0.
        5    1    3    3  502    0 -0.76628161293E+03  0.11666226091E+04 -0.45057923896E+03  0.14667104564E+04  0.46999998093E+01 0. -1.
       -5    1    3    3    0  502  0.76628161293E+03 -0.11666226091E+04  0.33673093509E+03  0.14358292500E+04  0.46999998093E+01 0.  1.
</event>
<event>
 5   0  0.9994311E-07  0.2897564E+04  0.7818609E-02  0.8273603E-01
       -2   -1    0    0    0  501  0.00000000000E+00  0.00000000000E+00  0.13723346043E+04  0.13723346043E+04  0.25500000920E-02 0.  1.
        2   -1    0    0  501    0  0.00000000000E+00  0.00000000000E+00 -0.15294878081E+04  0.15294878081E+04  0.25500000920E-02 0. -1.
    10030    2    1    2    0    0  0.00000000000E+00  0.00000000000E+00 -0.15715320381E+03  0.29018224124E+04  0.28975638360E+04 0.  0.
        2    1    3    3  502    0 -0.93633466988E+03 -0.63834415532E+03 -0.98254555108E+03  0.14998672057E+04  0.25500000920E-02 0.  1.
       -2    1    3    3    0  502  0.93633466988E+03  0.63834415532E+03  0.82539234728E+03  0.14019552067E+04  0.25500000920E-02 0. -1.
</event>
<event>
 5   0  0.3770467E-07  0.2897750E+04  0.7818609E-02  0.8273547E-01
       -1   -1    0    0    0  501  0.00000000000E+00  0.00000000000E+00  0.86364083124E+03  0.86364083126E+03  0.50400001928E-02 0.  1.
        1   -1    0    0  501    0  0.00000000000E+00  0.00000000000E+00 -0.24306852577E+04  0.24306852577E+04  0.50400001928E-02 0. -1.
    10030    2    1    2    0    0  0.00000000000E+00  0.00000000000E+00 -0.15670444265E+04  0.32943260890E+04  0.28977501869E+04 0.  0.
        1    1    3    3  502    0 -0.95691480143E+02  0.11548620676E+03  0.85479216102E+03  0.86784996508E+03  0.50400001928E-02 0.  1.
       -1    1    3    3    0  502  0.95691480143E+02 -0.11548620676E+03 -0.24218365875E+04  0.24264761239E+04  0.50400001928E-02 0. -1.
</event>
<event>
 5   0  0.9950999E-07  0.2888590E+04  0.7818609E-02  0.8276281E-01
        2   -1    0    0  501    0  0.00000000000E+00  0.00000000000E+00  0.17827929361E+04  0.17827929361E+04  0.25500000920E-02 0. -1.
       -2   -1    0    0    0  501  0.00000000000E+00  0.00000000000E+00 -0.11700671244E+04  0.11700671244E+04  0.25500000920E-02 0.  1.
    10030    2    1    2    0    0  0.00000000000E+00  0.00000000000E+00  0.61272581172E+03  0.29528600605E+04  0.28885895549E+04 0.  0.
        3    1    3    3  502    0  0.89023988919E+03 -0.63935531153E+03 -0.65514174741E+03  0.12769154217E+04  0.10100000352E+00 0.  1.
       -3    1    3    3    0  502 -0.89023988919E+03  0.63935531153E+03  0.12678675591E+04  0.16759446388E+04  0.10100000352E+00 0. -1.
</event>
<event>
 5   0  0.3885904E-07  0.2898157E+04  0.7818609E-02  0.8273426E-01
       -1   -1    0    0    0  501  0.00000000000E+00  0.00000000000E+00  0.92653786329E+03  0.92653786330E+03  0.50400001928E-02 0.  1.
        1   -1    0    0  501    0  0.00000000000E+00  0.00000000000E+00 -0.22663171098E+04  0.22663171098E+04  0.50400001928E-02 0. -1.
    10030    2    1    2    0    0  0.00000000000E+00  0.00000000000E+00 -0.13397792465E+04  0.31928549731E+04  0.28981570782E+04 0.  0.
        2    1    3    3  502    0 -0.12913964321E+04 -0.51556625653E+03 -0.11191761316E+04  0.17849561685E+04  0.25500000920E-02 0. -1.
       -2    1    3    3    0  502  0.12913964321E+04  0.51556625653E+03 -0.22060311485E+03  0.14078988046E+04  0.25500000920E-02 0.  1.
</event>
<event>
 5   0  0.3769563E-07  0.2905226E+04  0.7818609E-02  0.8271324E-01
        1   -1    0    0  501    0  0.00000000000E+00  0.00000000000E+00  0.17251464831E+04  0.17251464831E+04  0.50400001928E-02 0.  1.
       -1   -1    0    0    0  501  0.00000000000E+00  0.00000000000E+00 -0.12231337357E+04  0.12231337357E+04  0.50400001928E-02 0. -1.
    10030    2    1    2    0    0  0.00000000000E+00  0.00000000000E+00  0.50201274740E+03  0.29482802187E+04  0.29052262304E+04 0.  0.
        3    1    3    3  502    0 -0.45110507964E+03  0.12785316796E+03 -0.11442293207E+04  0.12365690333E+04  0.10100000352E+00 0. -1.
       -3    1    3    3    0  502  0.45110507964E+03 -0.12785316796E+03  0.16462420681E+04  0.17117111855E+04  0.10100000352E+00 0.  1.
</event>
<event>
 5   0  0.3786210E-07  0.2904301E+04  0.7818609E-02  0.8271599E-01
       -1   -1    0    0    0  501  0.00000000000E+00  0.00000000000E+00  0.10039693859E+04  0.10039693859E+04  0.50400001928E-02 0.  1.
        1   -1    0    0  501    0  0.00000000000E+00  0.00000000000E+00 -0.21004034367E+04  0.21004034367E+04  0.50400001928E-02 0. -1.
    10030    2    1    2    0    0  0.00000000000E+00  0.00000000000E+00 -0.10964340509E+04  0.31043728226E+04  0.29043007754E+04 0.  0.
        5    1    3    3  502    0 -0.12049948989E+04  0.80245652146E+03 -0.42743037287E+03  0.15095257496E+04  0.46999998093E+01 0. -1.
       -5    1    3    3    0  502  0.12049948989E+04 -0.80245652146E+03 -0.66900367800E+03  0.15948470730E+04  0.46999998093E+01 0.  1.
</event>
<event>
 5   0  0.3885904E-07  0.2904615E+04  0.7818609E-02  0.8271506E-01
       -1   -1    0    0    0  501  0.00000000000E+00  0.00000000000E+00  0.23369620038E+04  0.23369620038E+04  0.50400001928E-02 0.  1.
        1   -1    0    0  501    0  0.00000000000E+00  0.00000000000E+00 -0.90253787309E+03  0.90253787310E+03  0.50400001928E-02 0. -1.
    10030    2    1    2    0    0  0.00000000000E+00  0.00000000000E+00  0.14344241307E+04  0.32394998769E+04  0.29046147534E+04 0.  0.
        2    1    3    3  502    0 -0.70575639043E+03  0.12592350868E+04  0.89507134354E+03  0.16985045766E+04  0.25500000920E-02 0.  1.
       -2    1    3    3    0  502  0.70575639043E+03 -0.12592350868E+04  0.53935278712E+03  0.15409953003E+04  0.25500000920E-02 0. -1.
</event>
<event>
 5   0  0.1006893E-06  0.2901699E+04  0.7818609E-02  0.8272372E-01
       -2   -1    0    0    0  501  0.00000000000E+00  0.00000000000E+00  0.80093403438E+03  0.80093403438E+03  0.25500000920E-02 0. -1.
        2   -1    0    0  501    0  0.00000000000E+00  0.00000000000E+00 -0.26281365026E+04  0.26281365026E+04  0.25500000920E-02 0.  1.
    10030    2    1    2    0    0  0.00000000000E+00  0.00000000000E+00 -0.18272024682E+04  0.34290705370E+04  0.29016987934E+04 0.  0.
        4    1    3    3  502    0 -0.12607274893E+04  0.52312099230E+03 -0.33241171884E+03  0.14048446671E+04  0.12699999809E+01 0. -1.
       -4    1    3    3    0  502  0.12607274893E+04 -0.52312099230E+03 -0.14947907494E+04  0.20242258699E+04  0.12699999809E+01 0.  1.
</event>
<event>
 5   0  0.3638028E-07  0.2899215E+04  0.7818609E-02  0.8273111E-01
        1   -1    0    0  501    0  0.00000000000E+00  0.00000000000E+00  0.21145546966E+04  0.21145546966E+04  0.50400001928E-02 0.  1.
       -1   -1    0    0    0  501  0.00000000000E+00  0.00000000000E+00 -0.99376068795E+03  0.99376068796E+03  0.50400001928E-02 0. -1.
    10030    2    1    2    0    0  0.00000000000E+00  0.00000000000E+00  0.11207940086E+04  0.31083153846E+04  0.28992146040E+04 0.  0.
        4    1    3    3  502    0 -0.94458067201E+03 -0.37144863796E+03  0.16700072664E+04  0.19542601207E+04  0.12699999809E+01 0.  1.
       -4    1    3    3    0  502  0.94458067201E+03  0.37144863796E+03 -0.54921325779E+03  0.11540552638E+04  0.12699999809E+01 0. -1.
</event>
<event>
 5   0  0.3786210E-07  0.2896996E+04  0.7818609E-02  0.8273772E-01
        1   -1    0    0  501    0  0.00000000000E+00  0.00000000000E+00  0.18849727237E+04  0.18849727237E+04  0.50400001928E-02 0.  1.
       -1   -1    0    0    0  501  0.00000000000E+00  0.00000000000E+00 -0.11130912879E+04  0.11130912879E+04  0.50400001928E-02 0. -1.
    10030    2    1    2    0    0  0.00000000000E+00  0.00000000000E+00  0.77188143579E+03  0.29980640117E+04  0.28969961800E+04 0.  0.
        5    1    3    3  502    0 -0.28994965413E+02  0.11938216447E+04  0.12343422832E+04  0.17174614376E+04  0.46999998093E+01 0.  1.
       -5    1    3    3    0  502  0.28994965413E+02 -0.11938216447E+04 -0.46246084741E+03  0.12806025741E+04  0.46999998093E+01 0. -1.
</event>
<event>
 5   0  0.3885904E-07  0.2904619E+04  0.7818609E-02  0.8271505E-01
        1   -1    0    0  501    0  0.00000000000E+00  0.00000000000E+00  0.13850347327E+04  0.13850347327E+04  0.50400001928E-02 0.  1.
       -1   -1    0    0    0  501  0.00000000000E+00  0.00000000000E+00 -0.15228516781E+04  0.15228516781E+04  0.50400001928E-02 0. -1.
    10030    2    1    2    0    0  0.00000000000E+00  0.00000000000E+00 -0.13781694539E+03  0.29078864108E+04  0.29046187130E+04 0.  0.
        2    1    3    3  502    0 -0.65774997164E+03  0.82226235951E+03  0.93244278356E+03  0.14064849653E+04  0.25500000920E-02 0.  1.
       -2    1    3    3    0  502  0.65774997164E+03 -0.82226235951E+03 -0.10702597290E+04  0.15014014455E+04  0.25500000920E-02 0. -1.
</event>
<event>
 5   0  0.1063979E-06  0.2901720E+04  0.7818609E-02  0.8272366E-01
       -2   -1    0    0    0  501  0.00000000000E+00  0.00000000000E+00  0.14308578617E+04  0.14308578618E+04  0.25500000920E-02 0. -1.
        2   -1    0    0  501    0  0.00000000000E+00  0.00000000000E+00 -0.14711418720E+04  0.14711418720E+04  0.25500000920E-02 0.  1.
    10030    2    1    2    0    0  0.00000000000E+00  0.00000000000E+00 -0.40284010258E+02  0.29019997338E+04  0.29017201197E+04 0.  0.
        1    1    3    3  502    0  0.12682430489E+04  0.47207714051E+03 -0.54335363161E+03  0.14582628112E+04  0.50400001928E-02 0. -1.
       -1    1    3    3    0  502 -0.12682430489E+04 -0.47207714051E+03  0.50306962135E+03  0.14437369225E+04  0.50400001928E-02 0.  1.
</event>
<event>
 5   0  0.9950999E-07  0.2898065E+04  0.7818609E-02  0.8273453E-01
       -2   -1    0    0    0  501  0.00000000000E+00  0.00000000000E+00  0.11453734003E+04  0.11453734003E+04  0.25500000920E-02 0. -1.
        2   -1    0    0  501    0  0.00000000000E+00  0.00000000000E+00 -0.18331975870E+04  0.18331975870E+04  0.25500000920E-02 0.  1.
    10030    2    1    2    0    0  0.00000000000E+00  0.00000000000E+00 -0.68782418672E+03  0.29785709873E+04  0.28980653917E+04 0.  0.
        3    1    3    3  502    0  0.13000225969E+04  0.91342090323E+02  0.30716272492E+03  0.13389365481E+04  0.10100000352E+00 0. -1.
       -3    1    3    3    0  502 -0.13000225969E+04 -0.91342090323E+02 -0.99498691164E+03  0.16396344393E+04  0.10100000352E+00 0.  1.
</event>
<event>
 5   0  0.9950999E-07  0.2898078E+04  0.7818609E-02  0.8273449E-01
        2   -1    0    0  501    0  0.00000000000E+00  0.00000000000E+00  0.13604376919E+04  0.13604376919E+04  0.25500000920E-02 0. -1.
       -2   -1    0    0    0  501  0.00000000000E+00  0.00000000000E+00 -0.15434109320E+04  0.15434109320E+04  0.25500000920E-02 0.  1.
    10030    2    1    2    0    0  0.00000000000E+00  0.00000000000E+00 -0.18297324007E+03  0.29038486239E+04  0.28980782640E+04 0.  0.
        3    1    3    3  502    0 -0.82555273599E+03  0.33518431537E+03  0.10535172205E+04  0.13797769346E+04  0.10100000352E+00 0. -1.
       -3    1    3    3    0  502  0.82555273599E+03 -0.33518431537E+03 -0.12364904605E+04  0.15240716894E+04  0.10100000352E+00 0.  1.
</event>
<event>
 5   0  0.3638028E-07  0.2897441E+04  0.7818609E-02  0.8273639E-01
       -1   -1    0    0    0  501  0.00000000000E+00  0.00000000000E+00  0.66305863310E+03  0.66305863312E+03  0.50400001928E-02 0. -1.
        1   -1    0    0  501    0  0.00000000000E+00  0.00000000000E+00 -0.31653181482E+04  0.31653181482E+04  0.50400001928E-02 0.  1.
    10030    2    1    2    0    0  0.00000000000E+00  0.00000000000E+00 -0.25022595151E+04  0.38283767813E+04  0.28974413021E+04 0.  0.
        4    1    3    3  502    0 -0.90123753803E+03 -0.16691827478E+03 -0.27335146769E+04  0.28830877392E+04  0.12699999809E+01 0.  1.
       -4    1    3    3    0  502  0.90123753803E+03  0.16691827478E+03  0.23125516178E+03  0.94528904212E+03  0.12699999809E+01 0. -1.
</event>
<event>
 5   0  0.1063979E-06  0.2882770E+04  0.7818609E-02  0.8278022E-01
        2   -1    0    0  501    0  0.00000000000E+00  0.00000000000E+00  0.18789774862E+04  0.18789774862E+04  0.25500000920E-02 0. -1.
       -2   -1    0    0    0  501  0.00000000000E+00  0.00000000000E+00 -0.11057028674E+04  0.11057028675E+04  0.25500000920E-02 0.  1.
    10030    2    1    2    0    0  0.00000000000E+00  0.00000000000E+00  0.77327461877E+03  0.29846803537E+04  0.28827700528E+04 0.  0.
        1    1    3    3  502    0 -0.42715843769E+03  0.12288599344E+04  0.10290808319E+04  0.16587852266E+04  0.50400001928E-02 0. -1.
       -1    1    3    3    0  502  0.42715843769E+03 -0.12288599344E+04 -0.25580621310E+03  0.13258951271E+04  0.50400001928E-02 0.  1.
</event>
<event>
 5   0  0.3885904E-07  0.2895332E+04  0.7818609E-02  0.8274268E-01
        1   -1    0    0  501    0  0.00000000000E+00  0.00000000000E+00  0.17492293277E+04  0.17492293277E+04  0.50400001928E-02 0. -1.
       -1   -1    0    0    0  501  0.00000000000E+00  0.00000000000E+00 -0.11980912843E+04  0.11980912843E+04  0.50400001928E-02 0.  1.
    10030    2    1    2    0    0  0.00000000000E+00  0.00000000000E+00  0.55113804342E+03  0.29473206120E+04  0.28953316989E+04 0.  0.
        2    1    3    3  502    0 -0.48699201682E+03  0.18359645743E+03 -0.10995640530E+04  0.12165155118E+04  0.25500000920E-02 0.  1.
       -2    1    3    3    0  502  0.48699201682E+03 -0.18359645743E+03  0.16507020965E+04  0.17308051002E+04  0.25500000920E-02 0. -1.
</event>
<event>
 5   0  0.3770467E-07  0.2899385E+04  0.7818609E-02  0.8273060E-01
        1   -1    0    0  501    0  0.00000000000E+00  0.00000000000E+00  0.15785595817E+04  0.15785595817E+04  0.50400001928E-02 0.  1.
       -1   -1    0    0    0  501  0.00000000000E+00  0.00000000000E+00 -0.13313455430E+04  0.13313455431E+04  0.50400001928E-02 0. -1.
    10030    2    1    2    0    0  0.00000000000E+00  0.00000000000E+00  0.24721403863E+03  0.29099051247E+04  0.28993849441E+04 0.  0.
        1    1    3    3  502    0  0.10686449636E+04  0.14669369388E+03  0.10956703201E+04  0.15375352185E+04  0.50400001928E-02 0.  1.
       -1    1    3    3    0  502 -0.10686449636E+04 -0.14669369388E+03 -0.84845628142E+03  0.13723699062E+04  0.50400001928E-02 0. -1.
</event>
<event>
 5   0  0.3786210E-07  0.2899509E+04  0.7818609E-02  0.8273023E-01
        1   -1    0    0  501    0  0.00000000000E+00  0.00000000000E+00  0.16985414889E+04  0.16985414889E+04  0.50400001928E-02 0.  1.
       -1   -1    0    0    0  501  0.00000000000E+00  0.00000000000E+00 -0.12374079083E+04  0.12374079083E+04  0.50400001928E-02 0. -1.
    10030    2    1    2    0    0  0.00000000000E+00  0.00000000000E+00  0.46113358067E+03  0.29359493972E+04  0.28995093868E+04 0.  0.
        5    1    3    3  502    0 -0.46432668582E+03  0.13088661067E+04  0.65177159386E+03  0.15341310429E+04  0.46999998093E+01 0.  1.
       -5    1    3    3    0  502  0.46432668582E+03 -0.13088661067E+04 -0.19063801318E+03  0.14018183543E+04  0.46999998093E+01 0. -1.
</event>
<event>
 5   0  0.9994311E-07  0.2907968E+04  0.7818609E-02  0.8270511E-01
        2   -1    0    0  501    0  0.00000000000E+00  0.00000000000E+00  0.91940750305E+03  0.91940750306E+03  0.25500000920E-02 0. -1.
       -2   -1    0    0    0  501  0.00000000000E+00  0.00000000000E+00 -0.22993818776E+04  0.22993818776E+04  0.25500000920E-02 0.  1.
    10030    2    1    2    0    0  0.00000000000E+00  0.00000000000E+00 -0.13799743746E+04  0.32187893807E+04  0.29079676413E+04 0.  0.
        2    1    3    3  502    0  0.22614105708E+03  0.13910691914E+04 -0.10857755310E+04  0.17790789124E+04  0.25500000920E-02 0. -1.
       -2    1    3    3    0  502 -0.22614105708E+03 -0.13910691914E+04 -0.29419884357E+03  0.14397104683E+04  0.25500000920E-02 0.  1.
</event>
<event>
 5   0  0.1063979E-06  0.2898551E+04  0.7818609E-02  0.8273309E-01
       -2   -1    0    0    0  501  0.00000000000E+00  0.00000000000E+00  0.68008119872E+03  0.68008119872E+03  0.25500000920E-02 0.  1.
        2   -1    0    0  501    0  0.00000000000E+00  0.00000000000E+00 -0.30884535302E+04  0.30884535302E+04  0.25500000920E-02 0. -1.
    10030    2    1    2    0    0  0.00000000000E+00  0.00000000000E+00 -0.24083723315E+04  0.37685347289E+04  0.28985507958E+04 0.  0.
        1    1    3    3  502    0  0.22357625305E+03 -0.12134483350E+04 -0.21577194362E+03  0.12525975947E+04  0.50400001928E-02 0.  1.
       -1    1    3    3    0  502 -0.22357625305E+03  0.12134483350E+04 -0.21926003878E+04  0.25159371342E+04  0.50400001928E-02 0. -1.
</event>
<event>
 5   0  0.9950999E-07  0.2907321E+04  0.7818609E-02  0.8270703E-01
        2   -1    0    0  501    0  0.00000000000E+00  0.00000000000E+00  0.14989957130E+04  0.14989957130E+04  0.25500000920E-02 0.  1.
       -2   -1    0    0    0  501  0.00000000000E+00  0.00000000000E+00 -0.14096962997E+04  0.14096962997E+04  0.25500000920E-02 0. -1.
    10030    2    1    2    0    0  0.00000000000E+00  0.00000000000E+00  0.89299413235E+02  0.29086920127E+04  0.29073209041E+04 0.  0.
        3    1    3    3  502    0 -0.84096117808E+03 -0.68971312768E+03  0.10095778844E+04  0.14839701535E+04  0.10100000352E+00 0.  1.
       -3    1    3    3    0  502  0.84096117808E+03  0.68971312768E+03 -0.92027847113E+03  0.14247218592E+04  0.10100000352E+00 0. -1.
</event>
<event>
 5   0  0.3378750E-07  0.2904047E+04  0.7818609E-02  0.8271674E-01
        3   -1    0    0  501    0  0.00000000000E+00  0.00000000000E+00  0.27141670818E+04  0.27141670837E+04  0.10100000352E+00 0.  1.
       -3   -1    0    0    0  501  0.00000000000E+00  0.00000000000E+00 -0.77680282921E+03  0.77680283578E+03  0.10100000352E+00 0. -1.
    10030    2    1    2    0    0  0.00000000000E+00  0.00000000000E+00  0.19373642526E+04  0.34909699194E+04  0.29040473018E+04 0.  0.
        3    1    3    3  502    0 -0.97715138717E+03 -0.49675128216E+02  0.22584014783E+04  0.24612333695E+04  0.10100000352E+00 0.  1.
       -3    1    3    3    0  502  0.97715138717E+03  0.49675128216E+02 -0.32103722570E+03  0.10297365499E+04  0.10100000352E+00 0. -1.
</event>
<event>
 5   0  0.3378750E-07  0.2917841E+04  0.7818609E-02  0.8267589E-01
       -4   -1    0    0    0  501  0.00000000000E+00  0.00000000000E+00  0.15502653137E+04  0.15502658339E+04  0.12699999809E+01 0. -1.
        4   -1    0    0  501    0  0.00000000000E+00  0.00000000000E+00 -0.13729568849E+04  0.13729574723E+04  0.12699999809E+01 0.  1.
    10030    2    1    2    0    0  0.00000000000E+00  0.00000000000E+00  0.17730842881E+03  0.29232233063E+04  0.29178410202E+04 0.  0.
        5    1    3    3  502    0  0.87133579314E+03  0.66473423195E+03 -0.87610149720E+03  0.14030942901E+04  0.46999998093E+01 0.  1.
       -5    1    3    3    0  502 -0.87133579314E+03 -0.66473423195E+03  0.10534099260E+04  0.15201290161E+04  0.46999998093E+01 0. -1.
</event>
<event>
 5   0  0.1006893E-06  0.2899918E+04  0.7818609E-02  0.8272902E-01
       -2   -1    0    0    0  501  0.00000000000E+00  0.00000000000E+00  0.15568905497E+04  0.15568905497E+04  0.25500000920E-02 0.  1.
        2   -1    0    0  501    0  0.00000000000E+00  0.00000000000E+00 -0.13503715939E+04  0.13503715939E+04  0.25500000920E-02 0. -1.
    10030    2    1    2    0    0  0.00000000000E+00  0.00000000000E+00  0.20651895584E+03  0.29072621436E+04  0.28999177734E+04 0.  0.
        4    1    3    3  502    0 -0.93270388996E+03 -0.43792343146E+03 -0.91945434538E+03  0.13809820362E+04  0.12699999809E+01 0. -1.
       -4    1    3    3    0  502  0.93270388996E+03  0.43792343146E+03  0.11259733012E+04  0.15262801074E+04  0.12699999809E+01 0.  1.
</event>
<event>
 5   0  0.1063979E-06  0.2892493E+04  0.7818609E-02  0.8275114E-01
        2   -1    0    0  501    0  0.00000000000E+00  0.00000000000E+00  0.13362298091E+04  0.13362298091E+04  0.25500000920E-02 0.  1.
       -2   -1    0    0    0  501  0.00000000000E+00  0.00000000000E+00 -0.15653217753E+04  0.15653217753E+04  0.25500000920E-02 0. -1.
    10030    2    1    2    0    0  0.00000000000E+00  0.00000000000E+00 -0.22909196620E+03  0.29015515844E+04  0.28924934690E+04 0.  0.
        1    1    3    3  502    0 -0.54107666377E+03  0.37637998766E+03  0.11768096600E+04  0.13488168248E+04  0.50400001928E-02 0.  1.
       -1    1    3    3    0  502  0.54107666377E+03 -0.37637998766E+03 -0.14059016262E+04  0.15527347596E+04  0.50400001928E-02 0. -1.
</event>
<event>
 5   0  0.3770467E-07  0.2902993E+04  0.7818609E-02  0.8271988E-01
       -1   -1    0    0    0  501  0.00000000000E+00  0.00000000000E+00  0.89032232411E+03  0.89032232413E+03  0.50400001928E-02 0. -1.
        1   -1    0    0  501    0  0.00000000000E+00  0.00000000000E+00 -0.23663813767E+04  0.23663813767E+04  0.50400001928E-02 0.  1.
    10030    2    1    2    0    0  0.00000000000E+00  0.00000000000E+00 -0.14760590526E+04  0.32567037009E+04  0.29029930534E+04 0.  0.
        1    1    3    3  502    0  0.95834270114E+03  0.80615431087E+03 -0.15612949727E+04  0.20014863221E+04  0.50400001928E-02 0.  1.
       -1    1    3    3    0  502 -0.95834270114E+03 -0.80615431087E+03  0.85235920107E+02  0.12552173787E+04  0.50400001928E-02 0. -1.
</event>
<event>
 5   0  0.3786210E-07  0.2970578E+04  0.7818609E-02  0.8252183E-01
        1   -1    0    0  501    0  0.00000000000E+00  0.00000000000E+00  0.18091616044E+04  0.18091616044E+04  0.50400001928E-02 0. -1.
       -1   -1    0    0    0  501  0.00000000000E+00  0.00000000000E+00 -0.12193953449E+04  0.12193953449E+04  0.50400001928E-02 0.  1.
    10030    2    1    2    0    0  0.00000000000E+00  0.00000000000E+00  0.58976625946E+03  0.30285569493E+04  0.29705778822E+04 0.  0.
        5    1    3    3  502    0  0.10940718132E+04 -0.61975681647E+03 -0.51109677665E+03  0.13573259185E+04  0.46999998093E+01 0.  1.
       -5    1    3    3    0  502 -0.10940718132E+04  0.61975681647E+03  0.11008630361E+04  0.16712310308E+04  0.46999998093E+01 0. -1.
</event>
<event>
 5   0  0.1031339E-06  0.2900243E+04  0.7818609E-02  0.8272805E-01
       -2   -1    0    0    0  501  0.00000000000E+00  0.00000000000E+00  0.10843896495E+04  0.10843896495E+04  0.25500000920E-02 0. -1.
        2   -1    0    0  501    0  0.00000000000E+00  0.00000000000E+00 -0.19392031428E+04  0.19392031428E+04  0.25500000920E-02 0.  1.
    10030    2    1    2    0    0  0.00000000000E+00  0.00000000000E+00 -0.85481349332E+03  0.30235927923E+04  0.29002426218E+04 0.  0.
        5    1    3    3  502    0 -0.14188837401E+04 -0.28743208794E+03 -0.34029797555E+03  0.14871694844E+04  0.46999998093E+01 0.  1.
       -5    1    3    3    0  502  0.14188837401E+04  0.28743208794E+03 -0.51451551777E+03  0.15364233079E+04  0.46999998093E+01 0. -1.
</event>
<event>
 5   0  0.1031339E-06  0.2901529E+04  0.7818609E-02  0.8272423E-01
       -2   -1    0    0    0  501  0.00000000000E+00  0.00000000000E+00  0.12587343292E+04  0.12587343292E+04  0.25500000920E-02 0.  1.
        2   -1    0    0  501    0  0.00000000000E+00  0.00000000000E+00 -0.16720900284E+04  0.16720900284E+04  0.25500000920E-02 0. -1.
    10030    2    1    2    0    0  0.00000000000E+00  0.00000000000E+00 -0.41335569915E+03  0.29308243576E+04  0.29015286456E+04 0.  0.
        5    1    3    3  502    0 -0.48433182436E+03  0.13650015886E+04 -0.12284361698E+03  0.14535884208E+04  0.46999998093E+01 0. -1.
       -5    1    3    3    0  502  0.48433182436E+03 -0.13650015886E+04 -0.29051208216E+03  0.14772359368E+04  0.46999998093E+01 0.  1.
</event>
<event>
 5   0  0.1031339E-06  0.2893280E+04  0.7818609E-02  0.8274880E-01
        2   -1    0    0  501    0  0.00000000000E+00  0.00000000000E+00  0.15442325313E+04  0.15442325313E+04  0.25500000920E-02 0. -1.
       -2   -1    0    0    0  501  0.00000000000E+00  0.00000000000E+00 -0.13552152280E+04  0.13552152280E+04  0.25500000920E-02 0.  1.
    10030    2    1    2    0    0  0.00000000000E+00  0.00000000000E+00  0.18901730326E+03  0.28994477593E+04  0.28932801053E+04 0.  0.
        5    1    3    3  502    0  0.78324865783E+02 -0.12880163812E+04 -0.56081528381E+03  0.14070027916E+04  0.46999998093E+01 0.  1.
       -5    1    3    3    0  502 -0.78324865783E+02  0.12880163812E+04  0.74983258707E+03  0.14924449677E+04  0.46999998093E+01 0. -1.
</event>
<event>
 5   0  0.1006893E-06  0.2943643E+04  0.7818609E-02  0.8260010E-01
       -2   -1    0    0    0  501  0.00000000000E+00  0.00000000000E+00  0.16744812024E+04  0.16744812024E+04  0.25500000920E-02 0.  1.
        2   -1    0    0  501    0  0.00000000000E+00  0.00000000000E+00 -0.12936890678E+04  0.12936890678E+04  0.25500000920E-02 0. -1.
    10030    2    1    2    0    0  0.00000000000E+00  0.00000000000E+00  0.38079213460E+03  0.29681702703E+04  0.29436426589E+04 0.  0.
        4    1    3    3  502    0  0.10518531387E+04 -0.99626037180E+03  0.45203191935E+03  0.15176508896E+04  0.12699999809E+01 0.  1.
       -4    1    3    3    0  502 -0.10518531387E+04  0.99626037180E+03 -0.71239784748E+02  0.14505193806E+04  0.12699999809E+01 0. -1.
</event>
<event>
 5   0  0.1006893E-06  0.2905955E+04  0.7818609E-02  0.8271108E-01
       -2   -1    0    0    0  501  0.00000000000E+00  0.00000000000E+00  0.16506163580E+04  0.16506163580E+04  0.25500000920E-02 0.  1.
        2   -1    0    0  501    0  0.00000000000E+00  0.00000000000E+00 -0.12790035950E+04  0.12790035950E+04  0.25500000920E-02 0. -1.
    10030    2    1    2    0    0  0.00000000000E+00  0.00000000000E+00  0.37161276305E+03  0.29296199530E+04  0.29059554407E+04 0.  0.
        4    1    3    3  502    0  0.97682669251E+03  0.98091257405E+03  0.63071960542E+03  0.15212457720E+04  0.12699999809E+01 0. -1.
       -4    1    3    3    0  502 -0.97682669251E+03 -0.98091257405E+03 -0.25910684237E+03  0.14083741810E+04  0.12699999809E+01 0.  1.
</event>
<event>
 5   0  0.3786210E-07  0.2900524E+04  0.7818609E-02  0.8272722E-01
       -1   -1    0    0    0  501  0.00000000000E+00  0.00000000000E+00  0.10748295799E+04  0.10748295799E+04  0.50400001928E-02 0. -1.
        1   -1    0    0  501    0  0.00000000000E+00  0.00000000000E+00 -0.19568313141E+04  0.19568313141E+04  0.50400001928E-02 0.  1.
    10030    2    1    2    0    0  0.00000000000E+00  0.00000000000E+00 -0.88200173423E+03  0.30316608940E+04  0.29005242142E+04 0.  0.
        5    1    3    3  502    0  0.12517672450E+04 -0.55904258660E+03  0.53449560348E+02  0.13719798813E+04  0.46999998093E+01 0. -1.
       -5    1    3    3    0  502 -0.12517672450E+04  0.55904258660E+03 -0.93545129457E+03  0.16596810127E+04  0.46999998093E+01 0.  1.
</event>
<event>
 5   0  0.9950999E-07  0.2898218E+04  0.7818609E-02  0.8273408E-01
       -2   -1    0    0    0  501  0.00000000000E+00  0.00000000000E+00  0.12919869964E+04  0.12919869964E+04  0.25500000920E-02 0.  1.
        2   -1    0    0  501    0  0.00000000000E+00  0.00000000000E+00 -0.16253391229E+04  0.16253391230E+04  0.25500000920E-02 0. -1.
    10030    2    1    2    0    0  0.00000000000E+00  0.00000000000E+00 -0.33335212659E+03  0.29173261193E+04  0.28982180812E+04 0.  0.
        3    1    3    3  502    0 -0.14008445198E+03  0.14331445572E+04 -0.31549533016E+01  0.14399781038E+04  0.10100000352E+00 0.  1.
       -3    1    3    3    0  502  0.14008445198E+03 -0.14331445572E+04 -0.33019717328E+03  0.14773480155E+04  0.10100000352E+00 0. -1.
</event>
<event>
 5   0  0.9994311E-07  0.2898970E+04  0.7818609E-02  0.8273184E-01
        2   -1    0    0  501    0  0.00000000000E+00  0.00000000000E+00  0.10355630706E+04  0.10355630706E+04  0.25500000920E-02 0.  1.
       -2   -1    0    0    0  501  0.00000000000E+00  0.00000000000E+00 -0.20288544322E+04  0.20288544322E+04  0.25500000920E-02 0. -1.
    10030    2    1    2    0    0  0.00000000000E+00  0.00000000000E+00 -0.99329136157E+03  0.30644175028E+04  0.28989699727E+04 0.  0.
        2    1    3    3  502    0 -0.32453602965E+02  0.55559328618E+03  0.91812057817E+03  0.10736305380E+04  0.25500000920E-02 0.  1.
       -2    1    3    3    0  502  0.32453602965E+02 -0.55559328618E+03 -0.19114119397E+04  0.19907869648E+04  0.25500000920E-02 0. -1.
</event>
<event>
 5   0  0.3769563E-07  0.2907628E+04  0.7818609E-02  0.8270611E-01
       -1   -1    0    0    0  501  0.00000000000E+00  0.00000000000E+00  0.12510081912E+04  0.12510081912E+04  0.50400001928E-02 0.  1.
        1   -1    0    0  501    0  0.00000000000E+00  0.00000000000E+00 -0.16894979363E+04  0.16894979363E+04  0.50400001928E-02 0. -1.
    10030    2    1    2    0    0  0.00000000000E+00  0.00000000000E+00 -0.43848974505E+03  0.29405061275E+04  0.29076284201E+04 0.  0.
        3    1    3    3  502    0  0.20201818929E+03  0.11222044584E+04  0.69285211451E+03  0.13342407047E+04  0.10100000352E+00 0.  1.
       -3    1    3    3    0  502 -0.20201818929E+03 -0.11222044584E+04 -0.11313418596E+04  0.16062654229E+04  0.10100000352E+00 0. -1.
</event>
<event>
 5   0  0.1031339E-06  0.2895696E+04  0.7818609E-02  0.8274159E-01
        2   -1    0    0  501    0  0.00000000000E+00  0.00000000000E+00  0.19725977480E+04  0.19725977480E+04  0.25500000920E-02 0.  1.
       -2   -1    0    0    0  501  0.00000000000E+00  0.00000000000E+00 -0.10626922025E+04  0.10626922025E+04  0.25500000920E-02 0. -1.
    10030    2    1    2    0    0  0.00000000000E+00  0.00000000000E+00  0.90990554550E+03  0.30352899505E+04  0.28956962862E+04 0.  0.
        5    1    3    3  502    0 -0.49275210986E+03 -0.11094890970E+04  0.12819554128E+04  0.17655601005E+04  0.46999998093E+01 0.  1.
       -5    1    3    3    0  502  0.49275210986E+03  0.11094890970E+04 -0.37204986729E+03  0.12697298500E+04  0.46999998093E+01 0. -1.
</event>
<event>
 5   0  0.9994311E-07  0.2898834E+04  0.7818609E-02  0.8273224E-01
        2   -1    0    0  501    0  0.00000000000E+00  0.00000000000E+00  0.19236900609E+04  0.19236900609E+04  0.25500000920E-02 0.  1.
       -2   -1    0    0    0  501  0.00000000000E+00  0.00000000000E+00 -0.10920729558E+04  0.10920729558E+04  0.25500000920E-02 0. -1.
    10030    2    1    2    0    0  0.00000000000E+00  0.00000000000E+00  0.83161710510E+03  0.30157630168E+04  0.28988341732E+04 0.  0.
        2    1    3    3  502    0  0.16805490249E+03 -0.38376370932E+03 -0.10277095624E+04  0.11098215981E+04  0.25500000920E-02 0. -1.
       -2    1    3    3    0  502 -0.16805490249E+03  0.38376370932E+03  0.18593266675E+04  0.19059414187E+04  0.25500000920E-02 0.  1.
</event>
<event>
 5   0  0.3770467E-07  0.2906991E+04  0.7818609E-02  0.8270800E-01
       -1   -1    0    0    0  501  0.00000000000E+00  0.00000000000E+00  0.84498603596E+03  0.84498603597E+03  0.50400001928E-02 0.  1.
        1   -1    0    0  501    0  0.00000000000E+00  0.00000000000E+00 -0.25002185529E+04  0.25002185529E+04  0.50400001928E-02 0. -1.
    10030    2    1    2    0    0  0.00000000000E+00  0.00000000000E+00 -0.16552325170E+04  0.33452045889E+04  0.29069914098E+04 0.  0.
        1    1    3    3  502    0  0.21490602124E+03 -0.18095847591E+03 -0.24686761433E+04  0.24846111302E+04  0.50400001928E-02 0. -1.
       -1    1    3    3    0  502 -0.21490602124E+03  0.18095847591E+03  0.81344362630E+03  0.86059345870E+03  0.50400001928E-02 0.  1.
</event>
<event>
 5   0  0.1031339E-06  0.2897879E+04  0.7818609E-02  0.8273509E-01
        2   -1    0    0  501    0  0.00000000000E+00  0.00000000000E+00  0.15775526145E+04  0.15775526145E+04  0.25500000920E-02 0.  1.
       -2   -1    0    0    0  501  0.00000000000E+00  0.00000000000E+00 -0.13308121807E+04  0.13308121807E+04  0.25500000920E-02 0. -1.
    10030    2    1    2    0    0  0.00000000000E+00  0.00000000000E+00  0.24674043377E+03  0.29083647952E+04  0.28978793868E+04 0.  0.
        5    1    3    3  502    0 -0.14123918874E+04 -0.31096963789E+03  0.34442692757E+02  0.14466379465E+04  0.46999998093E+01 0.  1.
       -5    1    3    3    0  502  0.14123918874E+04  0.31096963789E+03  0.21229774101E+03  0.14617268487E+04  0.46999998093E+01 0. -1.
</event>
<event>
 5   0  0.1031339E-06  0.2900214E+04  0.7818609E-02  0.8272814E-01
        2   -1    0    0  501    0  0.00000000000E+00  0.00000000000E+00  0.13842509885E+04  0.13842509885E+04  0.25500000920E-02 0.  1.
       -2   -1    0    0    0  501  0.00000000000E+00  0.00000000000E+00 -0.15190965413E+04  0.15190965413E+04  0.25500000920E-02 0. -1.
    10030    2    1    2    0    0  0.00000000000E+00  0.00000000000E+00 -0.13484555283E+03  0.29033475299E+04  0.29002143983E+04 0.  0.
        5    1    3    3  502    0 -0.11447189700E+04 -0.76824946514E+03  0.38272958850E+03  0.14307665040E+04  0.46999998093E+01 0. -1.
       -5    1    3    3    0  502  0.11447189700E+04  0.76824946514E+03 -0.51757514132E+03  0.14725810259E+04  0.46999998093E+01 0.  1.
</event>
<event>
 5   0  0.9950999E-07  0.2916028E+04  0.7818609E-02  0.8268124E-01
       -2   -1    0    0    0  501  0.00000000000E+00  0.00000000000E+00  0.10287879977E+04  0.10287879977E+04  0.25500000920E-02 0. -1.
        2   -1    0    0  501    0  0.00000000000E+00  0.00000000000E+00 -0.20663201428E+04  0.20663201428E+04  0.25500000920E-02 0.  1.
    10030    2    1    2    0    0  0.00000000000E+00  0.00000000000E+00 -0.10375321451E+04  0.30951081404E+04  0.29160283690E+04 0.  0.
        3    1    3    3  502    0 -0.86089133098E+03  0.23785571078E+03 -0.17419699193E+04  0.19575925094E+04  0.10100000352E+00 0.  1.
       -3    1    3    3    0  502  0.86089133098E+03 -0.23785571078E+03  0.70443777420E+03  0.11375156310E+04  0.10100000352E+00 0. -1.
</event>
<event>
 5   0  0.3885904E-07  0.2904505E+04  0.7818609E-02  0.8271538E-01
        1   -1    0    0  501    0  0.00000000000E+00  0.00000000000E+00  0.30512467363E+04  0.30512467363E+04  0.50400001928E-02 0.  1.
       -1   -1    0    0    0  501  0.00000000000E+00  0.00000000000E+00 -0.69120512254E+03  0.69120512256E+03  0.50400001928E-02 0. -1.
    10030    2    1    2    0    0  0.00000000000E+00  0.00000000000E+00  0.23600416137E+04  0.37424518588E+04  0.29045050348E+04 0.  0.
        2    1    3    3  502    0  0.93430879880E+01  0.30422433146E+03  0.30096883275E+04  0.30250394322E+04  0.25500000920E-02 0.  1.
       -2    1    3    3    0  502 -0.93430879880E+01 -0.30422433146E+03 -0.64964671382E+03  0.71741242666E+03  0.25500000920E-02 0. -1.
</event>
<event>
 5   0  0.3786210E-07  0.2900943E+04  0.7818609E-02  0.8272597E-01
        1   -1    0    0  501    0  0.00000000000E+00  0.00000000000E+00  0.13391019279E+04  0.13391019279E+04  0.50400001928E-02 0.  1.
       -1   -1    0    0    0  501  0.00000000000E+00  0.00000000000E+00 -0.15711032567E+04  0.15711032567E+04  0.50400001928E-02 0. -1.
    10030    2    1    2    0    0  0.00000000000E+00  0.00000000000E+00 -0.23200132885E+03  0.29102051846E+04  0.29009428812E+04 0.  0.
        5    1    3    3  502    0 -0.68386930992E+03  0.11920620441E+04  0.34932962690E+03  0.14180064980E+04  0.46999998093E+01 0.  1.
       -5    1    3    3    0  502  0.68386930992E+03 -0.11920620441E+04 -0.58133095575E+03  0.14921986866E+04  0.46999998093E+01 0. -1.
</event>
<event>
 5   0  0.9994311E-07  0.2902923E+04  0.7818609E-02  0.8272008E-01
       -2   -1    0    0    0  501  0.00000000000E+00  0.00000000000E+00  0.12204278253E+04  0.12204278253E+04  0.25500000920E-02 0. -1.
        2   -1    0    0  501    0  0.00000000000E+00  0.00000000000E+00 -0.17262310070E+04  0.17262310070E+04  0.25500000920E-02 0.  1.
    10030    2    1    2    0    0  0.00000000000E+00  0.00000000000E+00 -0.50580318170E+03  0.29466588323E+04  0.29029229090E+04 0.  0.
        2    1    3    3  502    0 -0.58265845754E+03  0.12298982564E+04 -0.76508244881E+03  0.15612468583E+04  0.25500000920E-02 0.  1.
       -2    1    3    3    0  502  0.58265845754E+03 -0.12298982564E+04  0.25927926710E+03  0.13854119740E+04  0.25500000920E-02 0. -1.
</event>
<event>
 5   0  0.1063979E-06  0.2899689E+04  0.7818609E-02  0.8272970E-01
       -2   -1    0    0    0  501  0.00000000000E+00  0.00000000000E+00  0.12381617784E+04  0.12381617784E+04  0.25500000920E-02 0.  1.
        2   -1    0    0  501    0  0.00000000000E+00  0.00000000000E+00 -0.16977176026E+04  0.16977176026E+04  0.25500000920E-02 0. -1.
    10030    2    1    2    0    0  0.00000000000E+00  0.00000000000E+00 -0.45955582414E+03  0.29358793810E+04  0.28996889806E+04 0.  0.
        1    1    3    3  502    0  0.75197128822E+02  0.13896104612E+04  0.18196356024E+03  0.14034894298E+04  0.50400001928E-02 0. -1.
       -1    1    3    3    0  502 -0.75197128822E+02 -0.13896104612E+04 -0.64151938438E+03  0.15323899513E+04  0.50400001928E-02 0.  1.
</event>
<event>
 5   0  0.3638028E-07  0.2913178E+04  0.7818609E-02  0.8268967E-01
       -1   -1    0    0    0  501  0.00000000000E+00  0.00000000000E+00  0.11996472190E+04  0.11996472191E+04  0.50400001928E-02 0.  1.
        1   -1    0    0  501    0  0.00000000000E+00  0.00000000000E+00 -0.17685633305E+04  0.17685633305E+04  0.50400001928E-02 0. -1.
    10030    2    1    2    0    0  0.00000000000E+00  0.00000000000E+00 -0.56891611147E+03  0.29682105496E+04  0.29131783888E+04 0.  0.
        4    1    3    3  502    0  0.58412113825E+03 -0.78576528896E+03  0.81435121081E+03  0.12734968005E+04  0.12699999809E+01 0.  1.
       -4    1    3    3    0  502 -0.58412113825E+03  0.78576528896E+03 -0.13832673223E+04  0.16947137491E+04  0.12699999809E+01 0. -1.
</event>
<event>
 5   0  0.3769563E-07  0.2899181E+04  0.7818609E-02  0.8273121E-01
       -1   -1    0    0    0  501  0.00000000000E+00  0.00000000000E+00  0.15171203259E+04  0.15171203259E+04  0.50400001928E-02 0.  1.
        1   -1    0    0  501    0  0.00000000000E+00  0.00000000000E+00 -0.13850664820E+04  0.13850664821E+04  0.50400001928E-02 0. -1.
    10030    2    1    2    0    0  0.00000000000E+00  0.00000000000E+00  0.13205384382E+03  0.29021868079E+04  0.28991809275E+04 0.  0.
        3    1    3    3  502    0 -0.32615113932E+03  0.13969546819E+04 -0.14264916630E+03  0.14415983296E+04  0.10100000352E+00 0.  1.
       -3    1    3    3    0  502  0.32615113932E+03 -0.13969546819E+04  0.27470301013E+03  0.14605884783E+04  0.10100000352E+00 0. -1.
</event>
<event>
 5   0  0.9994311E-07  0.2904206E+04  0.7818609E-02  0.8271627E-01
        2   -1    0    0  501    0  0.00000000000E+00  0.00000000000E+00  0.13158241081E+04  0.13158241081E+04  0.25500000920E-02 0. -1.
       -2   -1    0    0    0  501  0.00000000000E+00  0.00000000000E+00 -0.16024961305E+04  0.16024961305E+04  0.25500000920E-02 0.  1.
    10030    2    1    2    0    0  0.00000000000E+00  0.00000000000E+00 -0.28667202236E+03  0.29183202386E+04  0.29042059443E+04 0.  0.
        2    1    3    3  502    0  0.10908671150E+04 -0.88746583991E+03  0.22038492919E+03  0.14234311352E+04  0.25500000920E-02 0. -1.
       -2    1    3    3    0  502 -0.10908671150E+04  0.88746583991E+03 -0.50705695155E+03  0.14948891035E+04  0.25500000920E-02 0.  1.
</event>
<event>
 5   0  0.3770467E-07  0.2896672E+04  0.7818609E-02  0.8273868E-01
       -1   -1    0    0    0  501  0.00000000000E+00  0.00000000000E+00  0.94906269912E+03  0.94906269913E+03  0.50400001928E-02 0. -1.
        1   -1    0    0  501    0  0.00000000000E+00  0.00000000000E+00 -0.22102625915E+04  0.22102625915E+04  0.50400001928E-02 0.  1.
    10030    2    1    2    0    0  0.00000000000E+00  0.00000000000E+00 -0.12611998924E+04  0.31593252906E+04  0.28966724225E+04 0.  0.
        1    1    3    3  502    0  0.90431489180E+03 -0.11152462329E+04 -0.42331966314E+03  0.14969165376E+04  0.50400001928E-02 0. -1.
       -1    1    3    3    0  502 -0.90431489180E+03  0.11152462329E+04 -0.83788022924E+03  0.16624087530E+04  0.50400001928E-02 0.  1.
</event>
<event>
 5   0  0.3770467E-07  0.2896057E+04  0.7818609E-02  0.8274052E-01
       -1   -1    0    0    0  501  0.00000000000E+00  0.00000000000E+00  0.11488521451E+04  0.11488521452E+04  0.50400001928E-02 0.  1.
        1   -1    0    0  501    0  0.00000000000E+00  0.00000000000E+00 -0.18251141231E+04  0.18251141231E+04  0.50400001928E-02 0. -1.
    10030    2    1    2    0    0  0.00000000000E+00  0.00000000000E+00 -0.67626197798E+03  0.29739662683E+04  0.28960568196E+04 0.  0.
        1    1    3    3  502    0  0.54819659377E+03  0.97913012934E+03 -0.12779403480E+04  0.17006901095E+04  0.50400001928E-02 0. -1.
       -1    1    3    3    0  502 -0.54819659377E+03 -0.97913012934E+03  0.60167836998E+03  0.12732761588E+04  0.50400001928E-02 0.  1.
</event>
<event>
 5   0  0.3885904E-07  0.2898667E+04  0.7818609E-02  0.8273274E-01
       -1   -1    0    0    0  501  0.00000000000E+00  0.00000000000E+00  0.71485573664E+03  0.71485573666E+03  0.50400001928E-02 0.  1.
        1   -1    0    0  501    0  0.00000000000E+00  0.00000000000E+00 -0.29384487713E+04  0.29384487713E+04  0.50400001928E-02 0. -1.
    10030    2    1    2    0    0  0.00000000000E+00  0.00000000000E+00 -0.22235930346E+04  0.36533045079E+04  0.28986665631E+04 0.  0.
        2    1    3    3  502    0 -0.99221770020E+03 -0.40237386373E+03  0.11932137183E+03  0.10773292350E+04  0.25500000920E-02 0.  1.
       -2    1    3    3    0  502  0.99221770020E+03  0.40237386373E+03 -0.23429144065E+04  0.25759752729E+04  0.25500000920E-02 0. -1.
</event>
<event>
 5   0  0.1006893E-06  0.2881418E+04  0.7818609E-02  0.8278428E-01
       -2   -1    0    0    0  501  0.00000000000E+00  0.00000000000E+00  0.12105589288E+04  0.12105589288E+04  0.25500000920E-02 0. -1.
        2   -1    0    0  501    0  0.00000000000E+00  0.00000000000E+00 -0.17146149885E+04  0.17146149885E+04  0.25500000920E-02 0.  1.
    10030    2    1    2    0    0  0.00000000000E+00  0.00000000000E+00 -0.50405605973E+03  0.29251739173E+04  0.28814180424E+04 0.  0.
        4    1    3    3  502    0  0.10761189206E+03  0.11017054828E+04  0.68409501334E+03  0.13012774072E+04  0.12699999809E+01 0. -1.
       -4    1    3    3    0  502 -0.10761189206E+03 -0.11017054828E+04 -0.11881510731E+04  0.16238965101E+04  0.12699999809E+01 0.  1.
</event>
<event>
 5   0  0.1031339E-06  0.2906885E+04  0.7818609E-02  0.8270832E-01
       -2   -1    0    0    0  501  0.00000000000E+00  0.00000000000E+00  0.14093925332E+04  0.14093925332E+04  0.25500000920E-02 0. -1.
        2   -1    0    0  501    0  0.00000000000E+00  0.00000000000E+00 -0.14988693092E+04  0.14988693092E+04  0.25500000920E-02 0.  1.
    10030    2    1    2    0    0  0.00000000000E+00  0.00000000000E+00 -0.89476775931E+02  0.29082618424E+04  0.29068850769E+04 0.  0.
        5    1    3    3  502    0  0.94206714464E+03 -0.46433006881E+03 -0.10498933815E+04  0.14850559317E+04  0.46999998093E+01 0.  1.
       -5    1    3    3    0  502 -0.94206714464E+03  0.46433006881E+03  0.96041660560E+03  0.14232059107E+04  0.46999998093E+01 0. -1.
</event>
<event>
 5   0  0.1006893E-06  0.2900048E+04  0.7818609E-02  0.8272863E-01
       -2   -1    0    0    0  501  0.00000000000E+00  0.00000000000E+00  0.11758722338E+04  0.11758722338E+04  0.25500000920E-02 0.  1.
        2   -1    0    0  501    0  0.00000000000E+00  0.00000000000E+00 -0.17880935712E+04  0.17880935712E+04  0.25500000920E-02 0. -1.
    10030    2    1    2    0    0  0.00000000000E+00  0.00000000000E+00 -0.61222133741E+03  0.29639658051E+04  0.29000479871E+04 0.  0.
        4    1    3    3  502    0  0.11846667743E+04  0.75145722506E+03  0.68637702545E+02  0.14045768310E+04  0.12699999809E+01 0.  1.
       -4    1    3    3    0  502 -0.11846667743E+04 -0.75145722506E+03 -0.68085903996E+03  0.15593889740E+04  0.12699999809E+01 0. -1.
</event>
<event>
 5   0  0.1063979E-06  0.2901942E+04  0.7818609E-02  0.8272300E-01
        2   -1    0    0  501    0  0.00000000000E+00  0.00000000000E+00  0.21650056561E+04  0.21650056561E+04  0.25500000920E-02 0. -1.
       -2   -1    0    0    0  501  0.00000000000E+00  0.00000000000E+00 -0.97243008588E+03  0.97243008588E+03  0.25500000920E-02 0.  1.
    10030    2    1    2    0    0  0.00000000000E+00  0.00000000000E+00  0.11925755703E+04  0.31374357420E+04  0.29019418575E+04 0.  0.
        1    1    3    3  502    0  0.14018242629E+04 -0.10900868820E+03  0.20899669855E+03  0.14215040549E+04  0.50400001928E-02 0. -1.
       -1    1    3    3    0  502 -0.14018242629E+04  0.10900868820E+03  0.98357887172E+03  0.17159316871E+04  0.50400001928E-02 0.  1.
</event>
<event>
 5   0  0.1031339E-06  0.2900903E+04  0.7818609E-02  0.8272609E-01
       -2   -1    0    0    0  501  0.00000000000E+00  0.00000000000E+00  0.81213782558E+03  0.81213782558E+03  0.25500000920E-02 0.  1.
        2   -1    0    0  501    0  0.00000000000E+00  0.00000000000E+00 -0.25904579196E+04  0.25904579196E+04  0.25500000920E-02 0. -1.
    10030    2    1    2    0    0  0.00000000000E+00  0.00000000000E+00 -0.17783200940E+04  0.34025957452E+04  0.29009025231E+04 0.  0.
        5    1    3    3  502    0 -0.40190323006E+03 -0.36118129775E+03  0.68966272408E+03  0.87614776104E+03  0.46999998093E+01 0.  1.
       -5    1    3    3    0  502  0.40190323006E+03  0.36118129775E+03 -0.24679828181E+04  0.25264479842E+04  0.46999998093E+01 0. -1.
</event>
<event>
 5   0  0.9950999E-07  0.2902174E+04  0.7818609E-02  0.8272231E-01
        2   -1    0    0  501    0  0.00000000000E+00  0.00000000000E+00  0.16808225651E+04  0.16808225651E+04  0.25500000920E-02 0. -1.
       -2   -1    0    0    0  501  0.00000000000E+00  0.00000000000E+00 -0.12527521156E+04  0.12527521156E+04  0.25500000920E-02 0.  1.
    10030    2    1    2    0    0  0.00000000000E+00  0.00000000000E+00  0.42807044951E+03  0.29335746806E+04  0.29021743740E+04 0.  0.
        3    1    3    3  502    0  0.13209596486E+04 -0.13387628976E+03 -0.37778799406E+03  0.13804278442E+04  0.10100000352E+00 0.  1.
       -3    1    3    3    0  502 -0.13209596486E+04  0.13387628976E+03  0.80585844358E+03  0.15531468365E+04  0.10100000352E+00 0. -1.
</event>
<event>
 5   0  0.1006893E-06  0.2905542E+04  0.7818609E-02  0.8271230E-01
        2   -1    0    0  501    0  0.00000000000E+00  0.00000000000E+00  0.14247225103E+04  0.14247225103E+04  0.25500000920E-02 0. -1.
       -2   -1    0    0    0  501  0.00000000000E+00  0.00000000000E+00 -0.14813716903E+04  0.14813716903E+04  0.25500000920E-02 0.  1.
    10030    2    1    2    0    0  0.00000000000E+00  0.00000000000E+00 -0.56649179949E+02  0.29060942006E+04  0.29055420102E+04 0.  0.
        4    1    3    3  502    0  0.11869362657E+04  0.62870469938E+03  0.52536410904E+03  0.14422539158E+04  0.12699999809E+01 0. -1.
       -4    1    3    3    0  502 -0.11869362657E+04 -0.62870469938E+03 -0.58201328899E+03  0.14638402847E+04  0.12699999809E+01 0.  1.
</event>
<event>
 5   0  0.3769563E-07  0.2897313E+04  0.7818609E-02  0.8273677E-01
        1   -1    0    0  501    0  0.00000000000E+00  0.00000000000E+00  0.16612722706E+04  0.16612722706E+04  0.50400001928E-02 0.  1.
       -1   -1    0    0    0  501  0.00000000000E+00  0.00000000000E+00 -0.12632518138E+04  0.12632518138E+04  0.50400001928E-02 0. -1.
    10030    2    1    2    0    0  0.00000000000E+00  0.00000000000E+00  0.39802045684E+03  0.29245240844E+04  0.28973126921E+04 0.  0.
        3    1    3    3  502    0  0.27784746481E+03  0.51924108761E+03  0.15349947750E+04  0.16440862174E+04  0.10100000352E+00 0.  1.
       -3    1    3    3    0  502 -0.27784746481E+03 -0.51924108761E+03 -0.11369743182E+04  0.12804378670E+04  0.10100000352E+00 0. -1.
</event>
<event>
 5   0  0.3885904E-07  0.2905053E+04  0.7818609E-02  0.8271376E-01
       -1   -1    0    0    0  501  0.00000000000E+00  0.00000000000E+00  0.10983971360E+04  0.10983971360E+04  0.50400001928E-02 0.  1.
        1   -1    0    0  501    0  0.00000000000E+00  0.00000000000E+00 -0.19208295619E+04  0.19208295619E+04  0.50400001928E-02 0. -1.
    10030    2    1    2    0    0  0.00000000000E+00  0.00000000000E+00 -0.82243242591E+03  0.30192266979E+04  0.29050533141E+04 0.  0.
        2    1    3    3  502    0 -0.65255229857E+03 -0.32081277603E+03 -0.17180479873E+04  0.18655921919E+04  0.25500000920E-02 0. -1.
       -2    1    3    3    0  502  0.65255229857E+03  0.32081277603E+03  0.89561556140E+03  0.11536345060E+04  0.25500000920E-02 0.  1.
</event>
<event>
 5   0  0.3786210E-07  0.2880651E+04  0.7818609E-02  0.8278658E-01
       -1   -1    0    0    0  501  0.00000000000E+00  0.00000000000E+00  0.78630943905E+03  0.78630943907E+03  0.50400001928E-02 0.  1.
        1   -1    0    0  501    0  0.00000000000E+00  0.00000000000E+00 -0.26383212756E+04  0.26383212756E+04  0.50400001928E-02 0. -1.
    10030    2    1    2    0    0  0.00000000000E+00  0.00000000000E+00 -0.18520118366E+04  0.34246307147E+04  0.28806505670E+04 0.  0.
        5    1    3    3  502    0 -0.12723383074E+04 -0.28963107942E+03 -0.20112201194E+03  0.13203041636E+04  0.46999998093E+01 0.  1.
       -5    1    3    3    0  502  0.12723383074E+04  0.28963107942E+03 -0.16508898246E+04  0.21043265511E+04  0.46999998093E+01 0. -1.
</event>
<event>
 5   0  0.1006893E-06  0.2868520E+04  0.7818609E-02  0.8282306E-01
        2   -1    0    0  501    0  0.00000000000E+00  0.00000000000E+00  0.16850285362E+04  0.16850285362E+04  0.25500000920E-02 0. -1.
       -2   -1    0    0    0  501  0.00000000000E+00  0.00000000000E+00 -0.12208109187E+04  0.12208109187E+04  0.25500000920E-02 0.  1.
    10030    2    1    2    0    0  0.00000000000E+00  0.00000000000E+00  0.46421761748E+03  0.29058394549E+04  0.28685196428E+04 0.  0.
        4    1    3    3  502    0  0.95788626959E+03 -0.35715003362E+03  0.12511775494E+04  0.16157193832E+04  0.12699999809E+01 0. -1.
       -4    1    3    3    0  502 -0.95788626959E+03  0.35715003362E+03 -0.78695993197E+03  0.12901200717E+04  0.12699999809E+01 0.  1.
</event>
<event>
 5   0  0.3770467E-07  0.2898959E+04  0.7818609E-02  0.8273187E-01
       -1   -1    0    0    0  501  0.00000000000E+00  0.00000000000E+00  0.84169733408E+03  0.84169733409E+03  0.50400001928E-02 0.  1.
        1   -1    0    0  501    0  0.00000000000E+00  0.00000000000E+00 -0.24961351638E+04  0.24961351638E+04  0.50400001928E-02 0. -1.
    10030    2    1    2    0    0  0.00000000000E+00  0.00000000000E+00 -0.16544378297E+04  0.33378324979E+04  0.28989586495E+04 0.  0.
        1    1    3    3  502    0  0.28269735841E+03  0.12714692725E+04 -0.15594509289E+04  0.20318560744E+04  0.50400001928E-02 0. -1.
       -1    1    3    3    0  502 -0.28269735841E+03 -0.12714692725E+04 -0.94986900760E+02  0.13059764235E+04  0.50400001928E-02 0.  1.
</event>
<event>
 5   0  0.3786210E-07  0.2899943E+04  0.7818609E-02  0.8272894E-01
       -1   -1    0    0    0  501  0.00000000000E+00  0.00000000000E+00  0.10887830937E+04  0.10887830937E+04  0.50400001928E-02 0.  1.
        1   -1    0    0  501    0  0.00000000000E+00  0.00000000000E+00 -0.19309791718E+04  0.19309791718E+04  0.50400001928E-02 0. -1.
    10030    2    1    2    0    0  0.00000000000E+00  0.00000000000E+00 -0.84219607808E+03  0.30197622656E+04  0.28999430868E+04 0.  0.
        5    1    3    3  502    0 -0.30690265981E+03 -0.18347664651E+03 -0.18843412517E+04  0.19179720971E+04  0.46999998093E+01 0. -1.
       -5    1    3    3    0  502  0.30690265981E+03  0.18347664651E+03  0.10421451736E+04  0.11017901685E+04  0.46999998093E+01 0.  1.
</event>
<event>
 5   0  0.3770467E-07  0.2897337E+04  0.7818609E-02  0.8273670E-01
       -1   -1    0    0    0  501  0.00000000000E+00  0.00000000000E+00  0.10613487709E+04  0.10613487709E+04  0.50400001928E-02 0.  1.
        1   -1    0    0  501    0  0.00000000000E+00  0.00000000000E+00 -0.19773333901E+04  0.19773333901E+04  0.50400001928E-02 0. -1.
    10030    2    1    2    0    0  0.00000000000E+00  0.00000000000E+00 -0.91598461915E+03  0.30386821610E+04  0.28973369589E+04 0.  0.
        1    1    3    3  502    0 -0.13148274966E+04  0.45556116139E+03 -0.35430991746E+02  0.13919636033E+04  0.50400001928E-02 0.  1.
       -1    1    3    3    0  502  0.13148274966E+04 -0.45556116139E+03 -0.88055362741E+03  0.16467185577E+04  0.50400001928E-02 0. -1.
</event>
<event>
 5   0  0.3885904E-07  0.2895440E+04  0.7818609E-02  0.8274235E-01
       -1   -1    0    0    0  501  0.00000000000E+00  0.00000000000E+00  0.22031732619E+04  0.22031732619E+04  0.50400001928E-02 0. -1.
        1   -1    0    0  501    0  0.00000000000E+00  0.00000000000E+00 -0.95130666149E+03  0.95130666151E+03  0.50400001928E-02 0.  1.
    10030    2    1    2    0    0  0.00000000000E+00  0.00000000000E+00  0.12518666004E+04  0.31544799234E+04  0.28954401396E+04 0.  0.
        2    1    3    3  502    0 -0.40155481753E+03  0.11652967717E+04 -0.20143649171E+03  0.12488953110E+04  0.25500000920E-02 0.  1.
       -2    1    3    3    0  502  0.40155481753E+03 -0.11652967717E+04  0.14533030921E+04  0.19055846124E+04  0.25500000920E-02 0. -1.
</event>
<event>
 5   0  0.1031339E-06  0.2897871E+04  0.7818609E-02  0.8273511E-01
        2   -1    0    0  501    0  0.00000000000E+00  0.00000000000E+00  0.17233526008E+04  0.17233526008E+04  0.25500000920E-02 0. -1.
       -2   -1    0    0    0  501  0.00000000000E+00  0.00000000000E+00 -0.12182149976E+04  0.12182149976E+04  0.25500000920E-02 0.  1.
    10030    2    1    2    0    0  0.00000000000E+00  0.00000000000E+00  0.50513760327E+03  0.29415675984E+04  0.28978709319E+04 0.  0.
        5    1    3    3  502    0  0.12564835687E+04 -0.49316530928E+03  0.78722629176E+03  0.15625972946E+04  0.46999998093E+01 0. -1.
       -5    1    3    3    0  502 -0.12564835687E+04  0.49316530928E+03 -0.28208868849E+03  0.13789703038E+04  0.46999998093E+01 0.  1.
</event>
<event>
 5   0  0.1006893E-06  0.2826930E+04  0.7818609E-02  0.8294956E-01
       -2   -1    0    0    0  501  0.00000000000E+00  0.00000000000E+00  0.93792763982E+03  0.93792763982E+03  0.25500000920E-02 0. -1.
        2   -1    0    0  501    0  0.00000000000E+00  0.00000000000E+00 -0.21301041861E+04  0.21301041861E+04  0.25500000920E-02 0.  1.
    10030    2    1    2    0    0  0.00000000000E+00  0.00000000000E+00 -0.11921765463E+04  0.30680318259E+04  0.28269302021E+04 0.  0.
        4    1    3    3  502    0  0.10199392812E+02 -0.12652002853E+04 -0.12799452638E+04  0.17997492272E+04  0.12699999809E+01 0.  1.
       -4    1    3    3    0  502 -0.10199392812E+02  0.12652002853E+04  0.87768717508E+02  0.12682825987E+04  0.12699999809E+01 0. -1.
</event>
<event>
 5   0  0.3769563E-07  0.2855872E+04  0.7818609E-02  0.8286129E-01
        1   -1    0    0  501    0  0.00000000000E+00  0.00000000000E+00  0.20891006878E+04  0.20891006878E+04  0.50400001928E-02 0. -1.
       -1   -1    0    0    0  501  0.00000000000E+00  0.00000000000E+00 -0.97601873005E+03  0.97601873007E+03  0.50400001928E-02 0.  1.
    10030    2    1    2    0    0  0.00000000000E+00  0.00000000000E+00  0.11130819578E+04  0.30651194179E+04  0.28558721262E+04 0.  0.
        3    1    3    3  502    0 -0.70995060799E+03 -0.10389395781E+04  0.12809587524E+04  0.17956282044E+04  0.10100000352E+00 0. -1.
       -3    1    3    3    0  502  0.70995060799E+03  0.10389395781E+04 -0.16787679465E+03  0.12694912135E+04  0.10100000352E+00 0.  1.
</event>
<event>
 5   0  0.3885904E-07  0.2897796E+04  0.7818609E-02  0.8273534E-01
        1   -1    0    0  501    0  0.00000000000E+00  0.00000000000E+00  0.13286832658E+04  0.13286832658E+04  0.50400001928E-02 0.  1.
       -1   -1    0    0    0  501  0.00000000000E+00  0.00000000000E+00 -0.15799892383E+04  0.15799892383E+04  0.50400001928E-02 0. -1.
    10030    2    1    2    0    0  0.00000000000E+00  0.00000000000E+00 -0.25130597251E+03  0.29086725041E+04  0.28977958941E+04 0.  0.
        2    1    3    3  502    0  0.42923384567E+02 -0.14482609741E+04 -0.12391590697E+03  0.14541861704E+04  0.25500000920E-02 0.  1.
       -2    1    3    3    0  502 -0.42923384567E+02  0.14482609741E+04 -0.12739006554E+03  0.14544863337E+04  0.25500000920E-02 0. -1.
</event>
<event>
 5   0  0.1006893E-06  0.2900286E+04  0.7818609E-02  0.8272793E-01
       -2   -1    0    0    0  501  0.00000000000E+00  0.00000000000E+00  0.17103238716E+04  0.17103238716E+04  0.25500000920E-02 0. -1.
        2   -1    0    0  501    0  0.00000000000E+00  0.00000000000E+00 -0.12295414235E+04  0.12295414235E+04  0.25500000920E-02 0.  1.
    10030    2    1    2    0    0  0.00000000000E+00  0.00000000000E+00  0.48078244807E+03  0.29398652951E+04  0.29002855362E+04 0.  0.
        4    1    3    3  502    0  0.11703759626E+03 -0.53431765964E+02  0.17045267062E+04  0.17093758093E+04  0.12699999809E+01 0. -1.
       -4    1    3    3    0  502 -0.11703759626E+03  0.53431765964E+02 -0.12237442581E+04  0.12304894858E+04  0.12699999809E+01 0.  1.
</event>
<event>
 5   0  0.3770467E-07  0.2899822E+04  0.7818609E-02  0.8272930E-01
        1   -1    0    0  501    0  0.00000000000E+00  0.00000000000E+00  0.18118390012E+04  0.18118390012E+04  0.50400001928E-02 0. -1.
       -1   -1    0    0    0  501  0.00000000000E+00  0.00000000000E+00 -0.11602809829E+04  0.11602809829E+04  0.50400001928E-02 0.  1.
    10030    2    1    2    0    0  0.00000000000E+00  0.00000000000E+00  0.65155801832E+03  0.29721199840E+04  0.28998222960E+04 0.  0.
        1    1    3    3  502    0 -0.69873224647E+03  0.93823667732E+03 -0.55215598062E+03  0.12935961665E+04  0.50400001928E-02 0.  1.
       -1    1    3    3    0  502  0.69873224647E+03 -0.93823667732E+03  0.12037139989E+04  0.16785238176E+04  0.50400001928E-02 0. -1.
</event>
<event>
 5   0  0.1006893E-06  0.2858140E+04  0.7818609E-02  0.8285442E-01
        2   -1    0    0  501    0  0.00000000000E+00  0.00000000000E+00  0.17647883447E+04  0.17647883447E+04  0.25500000920E-02 0.  1.
       -2   -1    0    0    0  501  0.00000000000E+00  0.00000000000E+00 -0.11572161099E+04  0.11572161099E+04  0.25500000920E-02 0. -1.
    10030    2    1    2    0    0  0.00000000000E+00  0.00000000000E+00  0.60757223485E+03  0.29220044546E+04  0.28581403066E+04 0.  0.
        4    1    3    3  502    0 -0.83014468098E+03  0.10706251777E+04 -0.16119689627E+03  0.13643183334E+04  0.12699999809E+01 0. -1.
       -4    1    3    3    0  502  0.83014468098E+03 -0.10706251777E+04  0.76876913112E+03  0.15576861212E+04  0.12699999809E+01 0.  1.
</event>
<event>
 5   0  0.3770467E-07  0.2900682E+04  0.7818609E-02  0.8272675E-01
        1   -1    0    0  501    0  0.00000000000E+00  0.00000000000E+00  0.14200040322E+04  0.14200040322E+04  0.50400001928E-02 0. -1.
       -1   -1    0    0    0  501  0.00000000000E+00  0.00000000000E+00 -0.14813261683E+04  0.14813261683E+04  0.50400001928E-02 0.  1.
    10030    2    1    2    0    0  0.00000000000E+00  0.00000000000E+00 -0.61322136127E+02  0.29013302005E+04  0.29006820798E+04 0.  0.
        1    1    3    3  502    0  0.11327597601E+04 -0.68453403458E+03  0.56256302323E+03  0.14381267934E+04  0.50400001928E-02 0. -1.
       -1    1    3    3    0  502 -0.11327597601E+04  0.68453403458E+03 -0.62388515936E+03  0.14632034072E+04  0.50400001928E-02 0.  1.
</event>
<event>
 5   0  0.3770467E-07  0.2897032E+04  0.7818609E-02  0.8273761E-01
        1   -1    0    0  501    0  0.00000000000E+00  0.00000000000E+00  0.21064107426E+04  0.21064107426E+04  0.50400001928E-02 0.  1.
       -1   -1    0    0    0  501  0.00000000000E+00  0.00000000000E+00 -0.99610137716E+03  0.99610137718E+03  0.50400001928E-02 0. -1.
    10030    2    1    2    0    0  0.00000000000E+00  0.00000000000E+00  0.11103093654E+04  0.31025121197E+04  0.28970320271E+04 0.  0.
        1    1    3    3  502    0 -0.10889858751E+04  0.61529103653E+03  0.13375371397E+04  0.18312506371E+04  0.50400001928E-02 0.  1.
       -1    1    3    3    0  502  0.10889858751E+04 -0.61529103653E+03 -0.22722777429E+03  0.12712614826E+04  0.50400001928E-02 0. -1.
</event>
<event>
 5   0  0.9950999E-07  0.2899345E+04  0.7818609E-02  0.8273072E-01
        2   -1    0    0  501    0  0.00000000000E+00  0.00000000000E+00  0.16270743808E+04  0.16270743808E+04  0.25500000920E-02 0.  1.
       -2   -1    0    0    0  501  0.00000000000E+00  0.00000000000E+00 -0.12916127632E+04  0.12916127633E+04  0.25500000920E-02 0. -1.
    10030    2    1    2    0    0  0.00000000000E+00  0.00000000000E+00  0.33546161757E+03  0.29186871441E+04  0.28993447791E+04 0.  0.
        3    1    3    3  502    0  0.75851574081E+03 -0.12341210832E+04  0.22422157335E+03  0.14658363828E+04  0.10100000352E+00 0. -1.
       -3    1    3    3    0  502 -0.75851574081E+03  0.12341210832E+04  0.11124004422E+03  0.14528507613E+04  0.10100000352E+00 0.  1.
</event>
<event>
 5   0  0.3786210E-07  0.2896844E+04  0.7818609E-02  0.8273817E-01
       -1   -1    0    0    0  501  0.00000000000E+00  0.00000000000E+00  0.13491251487E+04  0.13491251487E+04  0.50400001928E-02 0. -1.
        1   -1    0    0  501    0  0.00000000000E+00  0.00000000000E+00 -0.15550273588E+04  0.15550273588E+04  0.50400001928E-02 0.  1.
    10030    2    1    2    0    0  0.00000000000E+00  0.00000000000E+00 -0.20590221004E+03  0.29041525075E+04  0.28968441565E+04 0.  0.
        5    1    3    3  502    0  0.17672890113E+03  0.43870953048E+03  0.12695189087E+04  0.13547691708E+04  0.46999998093E+01 0. -1.
       -5    1    3    3    0  502 -0.17672890113E+03 -0.43870953048E+03 -0.14754211187E+04  0.15493833367E+04  0.46999998093E+01 0.  1.
</event>
<event>
 5   0  0.9950999E-07  0.2902425E+04  0.7818609E-02  0.8272156E-01
        2   -1    0    0  501    0  0.00000000000E+00  0.00000000000E+00  0.13815165770E+04  0.13815165770E+04  0.25500000920E-02 0.  1.
       -2   -1    0    0    0  501  0.00000000000E+00  0.00000000000E+00 -0.15244242140E+04  0.15244242140E+04  0.25500000920E-02 0. -1.
    10030    2    1    2    0    0  0.00000000000E+00  0.00000000000E+00 -0.14290763706E+03  0.29059407910E+04  0.29024247257E+04 0.  0.
        3    1    3    3  502    0  0.33222149549E+02  0.35561615328E+03  0.13368242573E+04  0.13837144448E+04  0.10100000352E+00 0.  1.
       -3    1    3    3    0  502 -0.33222149549E+02 -0.35561615328E+03 -0.14797318944E+04  0.15222263462E+04  0.10100000352E+00 0. -1.
</event>
<event>
 5   0  0.1006893E-06  0.2900015E+04  0.7818609E-02  0.8272873E-01
       -2   -1    0    0    0  501  0.00000000000E+00  0.00000000000E+00  0.12067449700E+04  0.12067449700E+04  0.25500000920E-02 0. -1.
        2   -1    0    0  501    0  0.00000000000E+00  0.00000000000E+00 -0.17423083173E+04  0.17423083173E+04  0.25500000920E-02 0.  1.
    10030    2    1    2    0    0  0.00000000000E+00  0.00000000000E+00 -0.53556334721E+03  0.29490532873E+04  0.29000150331E+04 0.  0.
        4    1    3    3  502    0 -0.12190096750E+04  0.78505727882E+03 -0.25267563993E+03  0.14717833097E+04  0.12699999809E+01 0.  1.
       -4    1    3    3    0  502  0.12190096750E+04 -0.78505727882E+03 -0.28288770729E+03  0.14772699776E+04  0.12699999809E+01 0. -1.
</event>
<event>
 5   0  0.9950999E-07  0.2913341E+04  0.7818609E-02  0.8268919E-01
        2   -1    0    0  501    0  0.00000000000E+00  0.00000000000E+00  0.26564955211E+04  0.26564955211E+04  0.25500000920E-02 0. -1.
       -2   -1    0    0    0  501  0.00000000000E+00  0.00000000000E+00 -0.79875506946E+03  0.79875506946E+03  0.25500000920E-02 0.  1.
    10030    2    1    2    0    0  0.00000000000E+00  0.00000000000E+00  0.18577404516E+04  0.34552505905E+04  0.29133412189E+04 0.  0.
        3    1    3    3  502    0  0.25948309170E+03 -0.53828165287E+03  0.25044385948E+04  0.25747410157E+04  0.10100000352E+00 0. -1.
       -3    1    3    3    0  502 -0.25948309170E+03  0.53828165287E+03 -0.64669814321E+03  0.88050957480E+03  0.10100000352E+00 0.  1.
</event>
<event>
 5   0  0.1063979E-06  0.2909833E+04  0.7818609E-02  0.8269958E-01
        2   -1    0    0  501    0  0.00000000000E+00  0.00000000000E+00  0.82578678934E+03  0.82578678934E+03  0.25500000920E-02 0. -1.
       -2   -1    0    0    0  501  0.00000000000E+00  0.00000000000E+00 -0.25633521014E+04  0.25633521014E+04  0.25500000920E-02 0.  1.
    10030    2    1    2    0    0  0.00000000000E+00  0.00000000000E+00 -0.17375653121E+04  0.33891388907E+04  0.29098331923E+04 0.  0.
        1    1    3    3  502    0 -0.17040627045E+03  0.12536514873E+03 -0.25453424225E+04  0.25541187845E+04  0.50400001928E-02 0.  1.
       -1    1    3    3    0  502  0.17040627045E+03 -0.12536514873E+03  0.80777711048E+03  0.83502010620E+03  0.50400001928E-02 0. -1.
</event>
<event>
 5   0  0.3885904E-07  0.2904339E+04  0.7818609E-02  0.8271588E-01
       -1   -1    0    0    0  501  0.00000000000E+00  0.00000000000E+00  0.14016658141E+04  0.14016658141E+04  0.50400001928E-02 0.  1.
        1   -1    0    0  501    0  0.00000000000E+00  0.00000000000E+00 -0.15044925972E+04  0.15044925972E+04  0.50400001928E-02 0. -1.
    10030    2    1    2    0    0  0.00000000000E+00  0.00000000000E+00 -0.10282678315E+03  0.29061584113E+04  0.29043387137E+04 0.  0.
        2    1    3    3  502    0 -0.53311311667E+03 -0.75665014749E+03 -0.11710723767E+04  0.14926953983E+04  0.25500000920E-02 0. -1.
       -2    1    3    3    0  502  0.53311311667E+03  0.75665014749E+03  0.10682455935E+04  0.14134630129E+04  0.25500000920E-02 0.  1.
</event>
<event>
 5   0  0.3638028E-07  0.2893906E+04  0.7818609E-02  0.8274693E-01
        1   -1    0    0  501    0  0.00000000000E+00  0.00000000000E+00  0.14093432162E+04  0.14093432162E+04  0.50400001928E-02 0.  1.
       -1   -1    0    0    0  501  0.00000000000E+00  0.00000000000E+00 -0.14855662741E+04  0.14855662741E+04  0.50400001928E-02 0. -1.
    10030    2    1    2    0    0  0.00000000000E+00  0.00000000000E+00 -0.76223057817E+02  0.28949094903E+04  0.28939058386E+04 0.  0.
        4    1    3    3  502    0 -0.13612771141E+04 -0.20121853253E+03  0.40937666426E+03  0.14356723670E+04  0.12699999809E+01 0.  1.
       -4    1    3    3    0  502  0.13612771141E+04  0.20121853253E+03 -0.48559972208E+03  0.14592371233E+04  0.12699999809E+01 0. -1.
</event>
<event>
 5   0  0.1031339E-06  0.2906203E+04  0.7818609E-02  0.8271034E-01
       -2   -1    0    0    0  501  0.00000000000E+00  0.00000000000E+00  0.16611166350E+04  0.16611166350E+04  0.25500000920E-02 0.  1.
        2   -1    0    0  501    0  0.00000000000E+00  0.00000000000E+00 -0.12711350654E+04  0.12711350654E+04  0.25500000920E-02 0. -1.
    10030    2    1    2    0    0  0.00000000000E+00  0.00000000000E+00  0.38998156967E+03  0.29322517004E+04  0.29062027475E+04 0.  0.
        5    1    3    3  502    0  0.64970981691E+03 -0.48230045662E+03  0.14127659032E+04  0.16280866574E+04  0.46999998093E+01 0.  1.
       -5    1    3    3    0  502 -0.64970981691E+03  0.48230045662E+03 -0.10227843335E+04  0.13041650431E+04  0.46999998093E+01 0. -1.
</event>
<event>
 5   0  0.3770467E-07  0.2897674E+04  0.7818609E-02  0.8273570E-01
        1   -1    0    0  501    0  0.00000000000E+00  0.00000000000E+00  0.14021727122E+04  0.14021727122E+04  0.50400001928E-02 0. -1.
       -1   -1    0    0    0  501  0.00000000000E+00  0.00000000000E+00 -0.14970542173E+04  0.14970542173E+04  0.50400001928E-02 0.  1.
    10030    2    1    2    0    0  0.00000000000E+00  0.00000000000E+00 -0.94881505148E+02  0.28992269295E+04  0.28976739445E+04 0.  0.
        1    1    3    3  502    0 -0.53681423991E+03 -0.11672677839E+04  0.62257848183E+03  0.14276860907E+04  0.50400001928E-02 0. -1.
       -1    1    3    3    0  502  0.53681423991E+03  0.11672677839E+04 -0.71745998698E+03  0.14715408388E+04  0.50400001928E-02 0.  1.
</event>
<event>
 5   0  0.3638028E-07  0.2899969E+04  0.7818609E-02  0.8272887E-01
       -1   -1    0    0    0  501  0.00000000000E+00  0.00000000000E+00  0.80945949977E+03  0.80945949978E+03  0.50400001928E-02 0.  1.
        1   -1    0    0  501    0  0.00000000000E+00  0.00000000000E+00 -0.25973559732E+04  0.25973559732E+04  0.50400001928E-02 0. -1.
    10030    2    1    2    0    0  0.00000000000E+00  0.00000000000E+00 -0.17878964734E+04  0.34068154730E+04  0.28999685976E+04 0.  0.
        4    1    3    3  502    0 -0.45356054338E+03  0.11911672901E+04 -0.81858696399E+02  0.12772232141E+04  0.12699999809E+01 0.  1.
       -4    1    3    3    0  502  0.45356054338E+03 -0.11911672901E+04 -0.17060377770E+04  0.21295922589E+04  0.12699999809E+01 0. -1.
</event>
<event>
 5   0  0.3786210E-07  0.2898702E+04  0.7818609E-02  0.8273264E-01
       -1   -1    0    0    0  501  0.00000000000E+00  0.00000000000E+00  0.10347795304E+04  0.10347795304E+04  0.50400001928E-02 0.  1.
        1   -1    0    0  501    0  0.00000000000E+00  0.00000000000E+00 -0.20300149471E+04  0.20300149471E+04  0.50400001928E-02 0. -1.
    10030    2    1    2    0    0  0.00000000000E+00  0.00000000000E+00 -0.99523541671E+03  0.30647944774E+04  0.28987017188E+04 0.  0.
        5    1    3    3  502    0  0.41023957215E+03 -0.21043870095E+03  0.95516457044E+03  0.10606330186E+04  0.46999998093E+01 0.  1.
       -5    1    3    3    0  502 -0.41023957215E+03  0.21043870095E+03 -0.19503999872E+04  0.20041614589E+04  0.46999998093E+01 0. -1.
</event>
<event>
 5   0  0.1006893E-06  0.2902991E+04  0.7818609E-02  0.8271988E-01
        2   -1    0    0  501    0  0.00000000000E+00  0.00000000000E+00  0.15092774352E+04  0.15092774353E+04  0.25500000920E-02 0. -1.
       -2   -1    0    0    0  501  0.00000000000E+00  0.00000000000E+00 -0.13959253760E+04  0.13959253760E+04  0.25500000920E-02 0.  1.
    10030    2    1    2    0    0  0.00000000000E+00  0.00000000000E+00  0.11335205924E+03  0.29052028113E+04  0.29029906450E+04 0.  0.
        4    1    3    3  502    0  0.56192375658E+03 -0.12305216061E+04 -0.46993340159E+03  0.14320547287E+04  0.12699999809E+01 0.  1.
       -4    1    3    3    0  502 -0.56192375658E+03  0.12305216061E+04  0.58328546084E+03  0.14731480825E+04  0.12699999809E+01 0. -1.
</event>
<event>
 5   0  0.3770467E-07  0.2894626E+04  0.7818609E-02  0.8274478E-01
       -1   -1    0    0    0  501  0.00000000000E+00  0.00000000000E+00  0.14339112735E+04  0.14339112735E+04  0.50400001928E-02 0. -1.
        1   -1    0    0  501    0  0.00000000000E+00  0.00000000000E+00 -0.14608400999E+04  0.14608400999E+04  0.50400001928E-02 0.  1.
    10030    2    1    2    0    0  0.00000000000E+00  0.00000000000E+00 -0.26928826463E+02  0.28947513734E+04  0.28946261161E+04 0.  0.
        1    1    3    3  502    0 -0.10522036524E+03 -0.55002902838E+03  0.13211763549E+04  0.14349600057E+04  0.50400001928E-02 0. -1.
       -1    1    3    3    0  502  0.10522036524E+03  0.55002902838E+03 -0.13481051813E+04  0.14597913677E+04  0.50400001928E-02 0.  1.
</event>
<event>
 5   0  0.9994311E-07  0.2903851E+04  0.7818609E-02  0.8271732E-01
        2   -1    0    0  501    0  0.00000000000E+00  0.00000000000E+00  0.13679220373E+04  0.13679220373E+04  0.25500000920E-02 0.  1.
       -2   -1    0    0    0  501  0.00000000000E+00  0.00000000000E+00 -0.15410880502E+04  0.15410880502E+04  0.25500000920E-02 0. -1.
    10030    2    1    2    0    0  0.00000000000E+00  0.00000000000E+00 -0.17316601290E+03  0.29090100875E+04  0.29038514462E+04 0.  0.
        2    1    3    3  502    0  0.35221231143E+03 -0.11768235210E+04  0.68882123714E+03  0.14083471903E+04  0.25500000920E-02 0.  1.
       -2    1    3    3    0  502 -0.35221231143E+03  0.11768235210E+04 -0.86198725004E+03  0.15006628972E+04  0.25500000920E-02 0. -1.
</event>
<event>
 5   0  0.1031339E-06  0.2903044E+04  0.7818609E-02  0.8271972E-01
        2   -1    0    0  501    0  0.00000000000E+00  0.00000000000E+00  0.11796571260E+04  0.11796571260E+04  0.25500000920E-02 0.  1.
       -2   -1    0    0    0  501  0.00000000000E+00  0.00000000000E+00 -0.17860410537E+04  0.17860410537E+04  0.25500000920E-02 0. -1.
    10030    2    1    2    0    0  0.00000000000E+00  0.00000000000E+00 -0.60638392771E+03  0.29656981796E+04  0.29030439585E+04 0.  0.
        5    1    3    3  502    0  0.53787846009E+03  0.12460331508E+04  0.22268194036E+03  0.13753258477E+04  0.46999998093E+01 0.  1.
       -5    1    3    3    0  502 -0.53787846009E+03 -0.12460331508E+04 -0.82906586807E+03  0.15903723320E+04  0.46999998093E+01 0. -1.
</event>
<event>
 5   0  0.3769563E-07  0.2899240E+04  0.7818609E-02  0.8273104E-01
       -1   -1    0    0    0  501  0.00000000000E+00  0.00000000000E+00  0.11429367156E+04  0.11429367156E+04  0.50400001928E-02 0. -1.
        1   -1    0    0  501    0  0.00000000000E+00  0.00000000000E+00 -0.18385950857E+04  0.18385950858E+04  0.50400001928E-02 0.  1.
    10030    2    1    2    0    0  0.00000000000E+00  0.00000000000E+00 -0.69565837012E+03  0.29815318014E+04  0.28992397822E+04 0.  0.
        3    1    3    3  502    0 -0.43503817155E+03  0.46463382450E+03  0.99154178994E+03  0.11782605539E+04  0.10100000352E+00 0. -1.
       -3    1    3    3    0  502  0.43503817155E+03 -0.46463382450E+03 -0.16872001601E+04  0.18032712474E+04  0.10100000352E+00 0.  1.
</event>
<event>
 5   0  0.3786210E-07  0.2900676E+04  0.7818609E-02  0.8272676E-01
        1   -1    0    0  501    0  0.00000000000E+00  0.00000000000E+00  0.17542270205E+04  0.17542270205E+04  0.50400001928E-02 0. -1.
       -1   -1    0    0    0  501  0.00000000000E+00  0.00000000000E+00 -0.11990923246E+04  0.11990923246E+04  0.50400001928E-02 0.  1.
    10030    2    1    2    0    0  0.00000000000E+00  0.00000000000E+00  0.55513469593E+03  0.29533193452E+04  0.29006758909E+04 0.  0.
        5    1    3    3  502    0  0.12523583245E+04  0.44436748332E+03 -0.31400615628E+03  0.13654617495E+04  0.46999998093E+01 0.  1.
       -5    1    3    3    0  502 -0.12523583245E+04 -0.44436748332E+03  0.86914085220E+03  0.15878575957E+04  0.46999998093E+01 0. -1.
</event>
<event>
 5   0  0.9994311E-07  0.2899797E+04  0.7818609E-02  0.8272938E-01
        2   -1    0    0  501    0  0.00000000000E+00  0.00000000000E+00  0.19790985601E+04  0.19790985601E+04  0.25500000920E-02 0. -1.
       -2   -1    0    0    0  501  0.00000000000E+00  0.00000000000E+00 -0.10622035001E+04  0.10622035001E+04  0.25500000920E-02 0.  1.
    10030    2    1    2    0    0  0.00000000000E+00  0.00000000000E+00  0.91689505998E+03  0.30413020602E+04  0.28997968326E+04 0.  0.
        2    1    3    3  502    0  0.92222171018E+03 -0.64005155739E+03 -0.50396226073E+03  0.12305026774E+04  0.25500000920E-02 0.  1.
       -2    1    3    3    0  502 -0.92222171018E+03  0.64005155739E+03  0.14208573207E+04  0.18107993828E+04  0.25500000920E-02 0. -1.
</event>
<event>
 5   0  0.3638028E-07  0.2901787E+04  0.7818609E-02  0.8272346E-01
        1   -1    0    0  501    0  0.00000000000E+00  0.00000000000E+00  0.15665116477E+04  0.15665116477E+04  0.50400001928E-02 0. -1.
       -1   -1    0    0    0  501  0.00000000000E+00  0.00000000000E+00 -0.13438088803E+04  0.13438088803E+04  0.50400001928E-02 0.  1.
    10030    2    1    2    0    0  0.00000000000E+00  0.00000000000E+00  0.22270276746E+03  0.29103205280E+04  0.29017872171E+04 0.  0.
        4    1    3    3  502    0  0.13676087541E+03  0.10829179861E+04  0.10700261766E+04  0.15285197196E+04  0.12699999809E+01 0. -1.
       -4    1    3    3    0  502 -0.13676087541E+03 -0.10829179861E+04 -0.84732340912E+03  0.13818008084E+04  0.12699999809E+01 0.  1.
</event>
<event>
 5   0  0.9950999E-07  0.2901584E+04  0.7818609E-02  0.8272406E-01
       -2   -1    0    0    0  501  0.00000000000E+00  0.00000000000E+00  0.13086585966E+04  0.13086585966E+04  0.25500000920E-02 0. -1.
        2   -1    0    0  501    0  0.00000000000E+00  0.00000000000E+00 -0.16083623589E+04  0.16083623589E+04  0.25500000920E-02 0.  1.
    10030    2    1    2    0    0  0.00000000000E+00  0.00000000000E+00 -0.29970376234E+03  0.29170209555E+04  0.29015838623E+04 0.  0.
        3    1    3    3  502    0  0.80978728333E+03 -0.59635374918E+03  0.90137085859E+03  0.13505045995E+04  0.10100000352E+00 0. -1.
       -3    1    3    3    0  502 -0.80978728333E+03  0.59635374918E+03 -0.12010746209E+04  0.15665163560E+04  0.10100000352E+00 0.  1.
</event>
<event>
 5   0  0.1031339E-06  0.2897341E+04  0.7818609E-02  0.8273669E-01
       -2   -1    0    0    0  501  0.00000000000E+00  0.00000000000E+00  0.18181541348E+04  0.18181541348E+04  0.25500000920E-02 0. -1.
        2   -1    0    0  501    0  0.00000000000E+00  0.00000000000E+00 -0.11542730642E+04  0.11542730642E+04  0.25500000920E-02 0.  1.
    10030    2    1    2    0    0  0.00000000000E+00  0.00000000000E+00  0.66388107062E+03  0.29724271990E+04  0.28973410875E+04 0.  0.
        5    1    3    3  502    0  0.95774214005E+03 -0.67392389544E+03  0.12067889564E+04  0.16816078909E+04  0.46999998093E+01 0. -1.
       -5    1    3    3    0  502 -0.95774214005E+03  0.67392389544E+03 -0.54290788575E+03  0.12908193081E+04  0.46999998093E+01 0.  1.
</event>
<event>
 5   0  0.1006893E-06  0.2896994E+04  0.7818609E-02  0.8273772E-01
       -2   -1    0    0    0  501  0.00000000000E+00  0.00000000000E+00  0.85499001156E+03  0.85499001156E+03  0.25500000920E-02 0. -1.
        2   -1    0    0  501    0  0.00000000000E+00  0.00000000000E+00 -0.24539973139E+04  0.24539973139E+04  0.25500000920E-02 0.  1.
    10030    2    1    2    0    0  0.00000000000E+00  0.00000000000E+00 -0.15990073023E+04  0.33089873254E+04  0.28969937465E+04 0.  0.
        4    1    3    3  502    0  0.72934782500E+03 -0.74054195405E+03 -0.19518335674E+04  0.22113359137E+04  0.12699999809E+01 0.  1.
       -4    1    3    3    0  502 -0.72934782500E+03  0.74054195405E+03  0.35282626504E+03  0.10976514118E+04  0.12699999809E+01 0. -1.
</event>
<event>
 5   0  0.3638028E-07  0.2900840E+04  0.7818609E-02  0.8272628E-01
       -1   -1    0    0    0  501  0.00000000000E+00  0.00000000000E+00  0.13545975030E+04  0.13545975030E+04  0.50400001928E-02 0.  1.
        1   -1    0    0  501    0  0.00000000000E+00  0.00000000000E+00 -0.15530205246E+04  0.15530205246E+04  0.50400001928E-02 0. -1.
    10030    2    1    2    0    0  0.00000000000E+00  0.00000000000E+00 -0.19842302166E+03  0.29076180276E+04  0.29008396886E+04 0.  0.
        4    1    3    3  502    0  0.88574898554E+01 -0.10866240896E+04 -0.10621257147E+04  0.15195206527E+04  0.12699999809E+01 0. -1.
       -4    1    3    3    0  502 -0.88574898554E+01  0.10866240896E+04  0.86370269305E+03  0.13880973749E+04  0.12699999809E+01 0.  1.
</event>
<event>
 5   0  0.1063979E-06  0.2896195E+04  0.7818609E-02  0.8274011E-01
       -2   -1    0    0    0  501  0.00000000000E+00  0.00000000000E+00  0.19770201051E+04  0.19770201051E+04  0.25500000920E-02 0. -1.
        2   -1    0    0  501    0  0.00000000000E+00  0.00000000000E+00 -0.10606800991E+04  0.10606800991E+04  0.25500000920E-02 0.  1.
    10030    2    1    2    0    0  0.00000000000E+00  0.00000000000E+00  0.91634000603E+03  0.30377002042E+04  0.28961946626E+04 0.  0.
        1    1    3    3  502    0 -0.73119339561E+03 -0.92241730363E+03 -0.42654028720E+03  0.12519720765E+04  0.50400001928E-02 0.  1.
       -1    1    3    3    0  502  0.73119339561E+03  0.92241730363E+03  0.13428802932E+04  0.17857281276E+04  0.50400001928E-02 0. -1.
</event>
<event>
 5   0  0.3770467E-07  0.2895883E+04  0.7818609E-02  0.8274103E-01
        1   -1    0    0  501    0  0.00000000000E+00  0.00000000000E+00  0.86860985621E+03  0.86860985623E+03  0.50400001928E-02 0.  1.
       -1   -1    0    0    0  501  0.00000000000E+00  0.00000000000E+00 -0.24136671200E+04  0.24136671200E+04  0.50400001928E-02 0. -1.
    10030    2    1    2    0    0  0.00000000000E+00  0.00000000000E+00 -0.15450572637E+04  0.32822769762E+04  0.28958833195E+04 0.  0.
        1    1    3    3  502    0 -0.51480172350E+03  0.11122528330E+04 -0.16463777309E+04  0.20524830844E+04  0.50400001928E-02 0. -1.
       -1    1    3    3    0  502  0.51480172350E+03 -0.11122528330E+04  0.10132046712E+03  0.12297938918E+04  0.50400001928E-02 0.  1.
</event>
<event>
 5   0  0.1006893E-06  0.2896986E+04  0.7818609E-02  0.8273775E-01
       -2   -1    0    0    0  501  0.00000000000E+00  0.00000000000E+00  0.11048542690E+04  0.11048542690E+04  0.25500000920E-02 0.  1.
        2   -1    0    0  501    0  0.00000000000E+00  0.00000000000E+00 -0.18990129045E+04  0.18990129045E+04  0.25500000920E-02 0. -1.
    10030    2    1    2    0    0  0.00000000000E+00  0.00000000000E+00 -0.79415863544E+03  0.30038671735E+04  0.28969863751E+04 0.  0.
        4    1    3    3  502    0 -0.10652505028E+04 -0.94678410886E+03 -0.66541676998E+03  0.15728763058E+04  0.12699999809E+01 0.  1.
       -4    1    3    3    0  502  0.10652505028E+04  0.94678410886E+03 -0.12874186546E+03  0.14309908677E+04  0.12699999809E+01 0. -1.
</event>
<event>
 5   0  0.3770467E-07  0.2902080E+04  0.7818609E-02  0.8272259E-01
       -1   -1    0    0    0  501  0.00000000000E+00  0.00000000000E+00  0.91210203877E+03  0.91210203878E+03  0.50400001928E-02 0.  1.
        1   -1    0    0  501    0  0.00000000000E+00  0.00000000000E+00 -0.23084231574E+04  0.23084231574E+04  0.50400001928E-02 0. -1.
    10030    2    1    2    0    0  0.00000000000E+00  0.00000000000E+00 -0.13963211186E+04  0.32205251961E+04  0.29020802664E+04 0.  0.
        1    1    3    3  502    0  0.48159131316E+02 -0.10530828778E+04  0.40835456265E+03  0.11305115206E+04  0.50400001928E-02 0.  1.
       -1    1    3    3    0  502 -0.48159131316E+02  0.10530828778E+04 -0.18046756812E+04  0.20900136755E+04  0.50400001928E-02 0. -1.
</event>
<event>
 5   0  0.1031339E-06  0.2900584E+04  0.7818609E-02  0.8272704E-01
       -2   -1    0    0    0  501  0.00000000000E+00  0.00000000000E+00  0.14896322378E+04  0.14896322378E+04  0.25500000920E-02 0.  1.
        2   -1    0    0  501    0  0.00000000000E+00  0.00000000000E+00 -0.14119909966E+04  0.14119909966E+04  0.25500000920E-02 0. -1.
    10030    2    1    2    0    0  0.00000000000E+00  0.00000000000E+00  0.77641241187E+02  0.29016232344E+04  0.29005842915E+04 0.  0.
        5    1    3    3  502    0 -0.53630327290E+03  0.11618672685E+04  0.72153739150E+03  0.14690796600E+04  0.46999998093E+01 0.  1.
       -5    1    3    3    0  502  0.53630327290E+03 -0.11618672685E+04 -0.64389615032E+03  0.14325435744E+04  0.46999998093E+01 0. -1.
</event>
<event>
 5   0  0.1031339E-06  0.2902599E+04  0.7818609E-02  0.8272105E-01
        2   -1    0    0  501    0  0.00000000000E+00  0.00000000000E+00  0.25625354996E+04  0.25625354996E+04  0.25500000920E-02 0. -1.
       -2   -1    0    0    0  501  0.00000000000E+00  0.00000000000E+00 -0.82194791078E+03  0.82194791078E+03  0.25500000920E-02 0.  1.
    10030    2    1    2    0    0  0.00000000000E+00  0.00000000000E+00  0.17405875888E+04  0.33844834104E+04  0.29025993180E+04 0.  0.
        5    1    3    3  502    0 -0.96970397332E+03  0.24408024515E+03 -0.35615976876E+03  0.10614955642E+04  0.46999998093E+01 0.  1.
       -5    1    3    3    0  502  0.96970397332E+03 -0.24408024515E+03  0.20967473576E+04  0.23229878462E+04  0.46999998093E+01 0. -1.
</event>
<event>
 5   0  0.9994311E-07  0.2905278E+04  0.7818609E-02  0.8271309E-01
       -2   -1    0    0    0  501  0.00000000000E+00  0.00000000000E+00  0.11891016357E+04  0.11891016357E+04  0.25500000920E-02 0. -1.
        2   -1    0    0  501    0  0.00000000000E+00  0.00000000000E+00 -0.17745830872E+04  0.17745830872E+04  0.25500000920E-02 0.  1.
    10030    2    1    2    0    0  0.00000000000E+00  0.00000000000E+00 -0.58548145149E+03  0.29636847229E+04  0.29052777160E+04 0.  0.
        2    1    3    3  502    0 -0.65912228882E+03  0.10821772309E+04  0.43189915566E+03  0.13386883997E+04  0.25500000920E-02 0.  1.
       -2    1    3    3    0  502  0.65912228882E+03 -0.10821772309E+04 -0.10173806072E+04  0.16249963232E+04  0.25500000920E-02 0. -1.
</event>
<event>
 5   0  0.9994311E-07  0.2903650E+04  0.7818609E-02  0.8271792E-01
        2   -1    0    0  501    0  0.00000000000E+00  0.00000000000E+00  0.11208609707E+04  0.11208609707E+04  0.25500000920E-02 0. -1.
       -2   -1    0    0    0  501  0.00000000000E+00  0.00000000000E+00 -0.18805148558E+04  0.18805148558E+04  0.25500000920E-02 0.  1.
    10030    2    1    2    0    0  0.00000000000E+00  0.00000000000E+00 -0.75965388501E+03  0.30013758265E+04  0.29036499147E+04 0.  0.
        2    1    3    3  502    0 -0.22116533124E+02  0.12589708555E+04  0.36719903348E+03  0.13116142292E+04  0.25500000920E-02 0. -1.
       -2    1    3    3    0  502  0.22116533124E+02 -0.12589708555E+04 -0.11268529185E+04  0.16897615973E+04  0.25500000920E-02 0.  1.
</event>
<event>
 5   0  0.1063979E-06  0.2900706E+04  0.7818609E-02  0.8272668E-01
       -2   -1    0    0    0  501  0.00000000000E+00  0.00000000000E+00  0.96328105473E+03  0.96328105473E+03  0.25500000920E-02 0.  1.
        2   -1    0    0  501    0  0.00000000000E+00  0.00000000000E+00 -0.21837066673E+04  0.21837066673E+04  0.25500000920E-02 0. -1.
    10030    2    1    2    0    0  0.00000000000E+00  0.00000000000E+00 -0.12204256126E+04  0.31469877221E+04  0.29007056119E+04 0.  0.
        1    1    3    3  502    0 -0.97980738484E+03 -0.57248884122E+03 -0.15900905007E+04  0.19534978334E+04  0.50400001928E-02 0. -1.
       -1    1    3    3    0  502  0.97980738484E+03  0.57248884122E+03  0.36966488813E+03  0.11934898886E+04  0.50400001928E-02 0.  1.
</event>
<event>
 5   0  0.3769563E-07  0.2902543E+04  0.7818609E-02  0.8272121E-01
        1   -1    0    0  501    0  0.00000000000E+00  0.00000000000E+00  0.11938640934E+04  0.11938640934E+04  0.50400001928E-02 0. -1.
       -1   -1    0    0    0  501  0.00000000000E+00  0.00000000000E+00 -0.17641780110E+04  0.17641780110E+04  0.50400001928E-02 0.  1.
    10030    2    1    2    0    0  0.00000000000E+00  0.00000000000E+00 -0.57031391753E+03  0.29580421044E+04  0.29025428726E+04 0.  0.
        3    1    3    3  502    0  0.12436321843E+04  0.42751752593E+02 -0.10462567862E+04  0.16257619737E+04  0.10100000352E+00 0.  1.
       -3    1    3    3    0  502 -0.12436321843E+04 -0.42751752593E+02  0.47594286866E+03  0.13322801307E+04  0.10100000352E+00 0. -1.
</event>
<event>
 5   0  0.3769563E-07  0.2899063E+04  0.7818609E-02  0.8273156E-01
        1   -1    0    0  501    0  0.00000000000E+00  0.00000000000E+00  0.31486481923E+04  0.31486481923E+04  0.50400001928E-02 0. -1.
       -1   -1    0    0    0  501  0.00000000000E+00  0.00000000000E+00 -0.66731552450E+03  0.66731552452E+03  0.50400001928E-02 0.  1.
    10030    2    1    2    0    0  0.00000000000E+00  0.00000000000E+00  0.24813326678E+04  0.38159637168E+04  0.28990631728E+04 0.  0.
        3    1    3    3  502    0 -0.12621304821E+04 -0.64651709019E+03  0.16359524537E+04  0.21650168920E+04  0.10100000352E+00 0. -1.
       -3    1    3    3    0  502  0.12621304821E+04  0.64651709019E+03  0.84538021411E+03  0.16509468248E+04  0.10100000352E+00 0.  1.
</event>
<event>
 5   0  0.9950999E-07  0.2896337E+04  0.7818609E-02  0.8273968E-01
       -2   -1    0    0    0  501  0.00000000000E+00  0.00000000000E+00  0.99820682114E+03  0.99820682114E+03  0.25500000920E-02 0. -1.
        2   -1    0    0  501    0  0.00000000000E+00  0.00000000000E+00 -0.21009599343E+04  0.21009599343E+04  0.25500000920E-02 0.  1.
    10030    2    1    2    0    0  0.00000000000E+00  0.00000000000E+00 -0.11027531132E+04  0.30991667554E+04  0.28963373680E+04 0.  0.
        3    1    3    3  502    0  0.74678429899E+03 -0.61317689235E+02  0.77465993759E+03  0.10777498213E+04  0.10100000352E+00 0. -1.
       -3    1    3    3    0  502 -0.74678429899E+03  0.61317689235E+02 -0.18774130507E+04  0.20214169341E+04  0.10100000352E+00 0.  1.
</event>
<event>
 5   0  0.3770467E-07  0.2891242E+04  0.7818609E-02  0.8275488E-01
       -1   -1    0    0    0  501  0.00000000000E+00  0.00000000000E+00  0.10779658563E+04  0.10779658563E+04  0.50400001928E-02 0.  1.
        1   -1    0    0  501    0  0.00000000000E+00  0.00000000000E+00 -0.19386697320E+04  0.19386697320E+04  0.50400001928E-02 0. -1.
    10030    2    1    2    0    0  0.00000000000E+00  0.00000000000E+00 -0.86070387568E+03  0.30166355883E+04  0.28912417940E+04 0.  0.
        1    1    3    3  502    0 -0.35471092528E+03  0.67017450753E+03 -0.17145309146E+04  0.18747186371E+04  0.50400001928E-02 0. -1.
       -1    1    3    3    0  502  0.35471092528E+03 -0.67017450753E+03  0.85382703895E+03  0.11419169512E+04  0.50400001928E-02 0.  1.
</event>
<event>
 5   0  0.9994311E-07  0.2898160E+04  0.7818609E-02  0.8273425E-01
        2   -1    0    0  501    0  0.00000000000E+00  0.00000000000E+00  0.21747568250E+04  0.21747568250E+04  0.25500000920E-02 0. -1.
       -2   -1    0    0    0  501  0.00000000000E+00  0.00000000000E+00 -0.96554834312E+03  0.96554834312E+03  0.25500000920E-02 0.  1.
    10030    2    1    2    0    0  0.00000000000E+00  0.00000000000E+00  0.12092084818E+04  0.31403051681E+04  0.28981600018E+04 0.  0.
        2    1    3    3  502    0 -0.79678557315E+02 -0.11500221778E+04  0.15559926603E+04  0.19364949886E+04  0.25500000920E-02 0. -1.
       -2    1    3    3    0  502  0.79678557315E+02  0.11500221778E+04 -0.34678417845E+03  0.12038101795E+04  0.25500000920E-02 0.  1.
</event>
<event>
 5   0  0.3638028E-07  0.2899045E+04  0.7818609E-02  0.8273162E-01
       -1   -1    0    0    0  501  0.00000000000E+00  0.00000000000E+00  0.11079054622E+04  0.11079054622E+04  0.50400001928E-02 0. -1.
        1   -1    0    0  501    0  0.00000000000E+00  0.00000000000E+00 -0.18964756783E+04  0.18964756784E+04  0.50400001928E-02 0.  1.
    10030    2    1    2    0    0  0.00000000000E+00  0.00000000000E+00 -0.78857021612E+03  0.30043811406E+04  0.28990451966E+04 0.  0.
        4    1    3    3  502    0 -0.12611316732E+04  0.38259355085E+03 -0.10197740398E+04  0.16663647942E+04  0.12699999809E+01 0.  1.
       -4    1    3    3    0  502  0.12611316732E+04 -0.38259355085E+03  0.23120382369E+03  0.13380163464E+04  0.12699999809E+01 0. -1.
</event>
<event>
 5   0  0.3770467E-07  0.2882709E+04  0.7818609E-02  0.8278041E-01
       -1   -1    0    0    0  501  0.00000000000E+00  0.00000000000E+00  0.12189633941E+04  0.12189633941E+04  0.50400001928E-02 0. -1.
        1   -1    0    0  501    0  0.00000000000E+00  0.00000000000E+00 -0.17043189967E+04  0.17043189967E+04  0.50400001928E-02 0.  1.
    10030    2    1    2    0    0  0.00000000000E+00  0.00000000000E+00 -0.48535560262E+03  0.29232823907E+04  0.28827087739E+04 0.  0.
        1    1    3    3  502    0 -0.55929860614E+03 -0.12901755255E+04 -0.56357224362E+03  0.15149196319E+04  0.50400001928E-02 0.  1.
       -1    1    3    3    0  502  0.55929860614E+03  0.12901755255E+04  0.78216640999E+02  0.14083627588E+04  0.50400001928E-02 0. -1.
</event>
<event>
 5   0  0.3885904E-07  0.2903974E+04  0.7818609E-02  0.8271696E-01
        1   -1    0    0  501    0  0.00000000000E+00  0.00000000000E+00  0.23063345158E+04  0.23063345158E+04  0.50400001928E-02 0. -1.
       -1   -1    0    0    0  501  0.00000000000E+00  0.00000000000E+00 -0.91411999813E+03  0.91411999815E+03  0.50400001928E-02 0.  1.
    10030    2    1    2    0    0  0.00000000000E+00  0.00000000000E+00  0.13922145177E+04  0.32204545140E+04  0.29039741757E+04 0.  0.
        2    1    3    3  502    0 -0.38331860109E+03  0.12555001486E+04  0.13842594912E+04  0.19077180379E+04  0.25500000920E-02 0.  1.
       -2    1    3    3    0  502  0.38331860109E+03 -0.12555001486E+04  0.79550264804E+01  0.13127364761E+04  0.25500000920E-02 0. -1.
</event>
<event>
 5   0  0.3769563E-07  0.2900958E+04  0.7818609E-02  0.8272592E-01
       -1   -1    0    0    0  501  0.00000000000E+00  0.00000000000E+00  0.77616418687E+03  0.77616418689E+03  0.50400001928E-02 0.  1.
        1   -1    0    0  501    0  0.00000000000E+00  0.00000000000E+00 -0.27106242299E+04  0.27106242299E+04  0.50400001928E-02 0. -1.
    10030    2    1    2    0    0  0.00000000000E+00  0.00000000000E+00 -0.19344600431E+04  0.34867884168E+04  0.29009580841E+04 0.  0.
        3    1    3    3  502    0  0.63428647081E+03  0.33409335063E+03 -0.24828004158E+04  0.25842282424E+04  0.10100000352E+00 0. -1.
       -3    1    3    3    0  502 -0.63428647081E+03 -0.33409335063E+03  0.54834037269E+03  0.90256017446E+03  0.10100000352E+00 0.  1.
</event>
<event>
 5   0  0.1006893E-06  0.2915463E+04  0.7818609E-02  0.8268292E-01
       -2   -1    0    0    0  501  0.00000000000E+00  0.00000000000E+00  0.14412713321E+04  0.14412713321E+04  0.25500000920E-02 0. -1.
        2   -1    0    0  501    0  0.00000000000E+00  0.00000000000E+00 -0.14743796751E+04  0.14743796751E+04  0.25500000920E-02 0.  1.
    10030    2    1    2    0    0  0.00000000000E+00  0.00000000000E+00 -0.33108342976E+02  0.29156510071E+04  0.29154630221E+04 0.  0.
        4    1    3    3  502    0 -0.72915632654E+03  0.63261210157E+02  0.12442049552E+04  0.14435090969E+04  0.12699999809E+01 0. -1.
       -4    1    3    3    0  502  0.72915632654E+03 -0.63261210157E+02 -0.12773132982E+04  0.14721419103E+04  0.12699999809E+01 0.  1.
</event>
<event>
 5   0  0.1006893E-06  0.2897919E+04  0.7818609E-02  0.8273497E-01
       -2   -1    0    0    0  501  0.00000000000E+00  0.00000000000E+00  0.13026089961E+04  0.13026089961E+04  0.25500000920E-02 0. -1.
        2   -1    0    0  501    0  0.00000000000E+00  0.00000000000E+00 -0.16117524481E+04  0.16117524481E+04  0.25500000920E-02 0.  1.
    10030    2    1    2    0    0  0.00000000000E+00  0.00000000000E+00 -0.30914345201E+03  0.29143614441E+04  0.28979187278E+04 0.  0.
        4    1    3    3  502    0  0.13082727052E+04  0.38500891461E+03  0.33776941050E+03  0.14049552032E+04  0.12699999809E+01 0. -1.
       -4    1    3    3    0  502 -0.13082727052E+04 -0.38500891461E+03 -0.64691286250E+03  0.15094062409E+04  0.12699999809E+01 0.  1.
</event>
<event>
 5   0  0.3885904E-07  0.2897367E+04  0.7818609E-02  0.8273661E-01
        1   -1    0    0  501    0  0.00000000000E+00  0.00000000000E+00  0.27588545609E+04  0.27588545609E+04  0.50400001928E-02 0.  1.
       -1   -1    0    0    0  501  0.00000000000E+00  0.00000000000E+00 -0.76070825895E+03  0.76070825897E+03  0.50400001928E-02 0. -1.
    10030    2    1    2    0    0  0.00000000000E+00  0.00000000000E+00  0.19981463020E+04  0.35195628199E+04  0.28973667008E+04 0.  0.
        2    1    3    3  502    0  0.59876762830E+03  0.37285204140E+02 -0.60271987960E+03  0.85040232385E+03  0.25500000920E-02 0. -1.
       -2    1    3    3    0  502 -0.59876762830E+03 -0.37285204140E+02  0.26008661816E+04  0.26691604961E+04  0.25500000920E-02 0.  1.
</event>
<event>
 5   0  0.1006893E-06  0.2895307E+04  0.7818609E-02  0.8274275E-01
       -2   -1    0    0    0  501  0.00000000000E+00  0.00000000000E+00  0.14321463592E+04  0.14321463592E+04  0.25500000920E-02 0. -1.
        2   -1    0    0  501    0  0.00000000000E+00  0.00000000000E+00 -0.14633282154E+04  0.14633282154E+04  0.25500000920E-02 0.  1.
    10030    2    1    2    0    0  0.00000000000E+00  0.00000000000E+00 -0.31181856217E+02  0.28954745746E+04  0.28953066684E+04 0.  0.
        4    1    3    3  502    0 -0.48205386798E+03  0.75102078539E+03  0.11243393829E+04  0.14354611846E+04  0.12699999809E+01 0. -1.
       -4    1    3    3    0  502  0.48205386798E+03 -0.75102078539E+03 -0.11555212391E+04  0.14600133899E+04  0.12699999809E+01 0.  1.
</event>
<event>
 5   0  0.1063979E-06  0.2914621E+04  0.7818609E-02  0.8268541E-01
        2   -1    0    0  501    0  0.00000000000E+00  0.00000000000E+00  0.12948580644E+04  0.12948580644E+04  0.25500000920E-02 0. -1.
       -2   -1    0    0    0  501  0.00000000000E+00  0.00000000000E+00 -0.16401438566E+04  0.16401438566E+04  0.25500000920E-02 0.  1.
    10030    2    1    2    0    0  0.00000000000E+00  0.00000000000E+00 -0.34528579229E+03  0.29350019210E+04  0.29146207297E+04 0.  0.
        1    1    3    3  502    0 -0.48520069374E+03  0.12533993683E+04  0.39461123892E+03  0.14007668326E+04  0.50400001928E-02 0. -1.
       -1    1    3    3    0  502  0.48520069374E+03 -0.12533993683E+04 -0.73989703120E+03  0.15342350884E+04  0.50400001928E-02 0.  1.
</event>
<event>
 5   0  0.1006893E-06  0.2899261E+04  0.7818609E-02  0.8273097E-01
        2   -1    0    0  501    0  0.00000000000E+00  0.00000000000E+00  0.18246599999E+04  0.18246599999E+04  0.25500000920E-02 0.  1.
       -2   -1    0    0    0  501  0.00000000000E+00  0.00000000000E+00 -0.11516821171E+04  0.11516821171E+04  0.25500000920E-02 0. -1.
    10030    2    1    2    0    0  0.00000000000E+00  0.00000000000E+00  0.67297788275E+03  0.29763421170E+04  0.28992607966E+04 0.  0.
        4    1    3    3  502    0 -0.11348883491E+04  0.78792339228E+02 -0.58586743557E+03  0.12796179361E+04  0.12699999809E+01 0. -1.
       -4    1    3    3    0  502  0.11348883491E+04 -0.78792339228E+02  0.12588453183E+04  0.16967241809E+04  0.12699999809E+01 0.  1.
</event>
<event>
 5   0  0.3769563E-07  0.2913399E+04  0.7818609E-02  0.8268902E-01
        1   -1    0    0  501    0  0.00000000000E+00  0.00000000000E+00  0.16930451502E+04  0.16930451502E+04  0.50400001928E-02 0. -1.
       -1   -1    0    0    0  501  0.00000000000E+00  0.00000000000E+00 -0.12533469155E+04  0.12533469155E+04  0.50400001928E-02 0.  1.
    10030    2    1    2    0    0  0.00000000000E+00  0.00000000000E+00  0.43969823477E+03  0.29463920657E+04  0.29133986455E+04 0.  0.
        3    1    3    3  502    0 -0.44052770634E+03  0.32845402044E+03 -0.11445123412E+04  0.12695885999E+04  0.10100000352E+00 0.  1.
       -3    1    3    3    0  502  0.44052770634E+03 -0.32845402044E+03  0.15842105760E+04  0.16768034658E+04  0.10100000352E+00 0. -1.
</event>
<event>
 5   0  0.1031339E-06  0.2899839E+04  0.7818609E-02  0.8272925E-01
        2   -1    0    0  501    0  0.00000000000E+00  0.00000000000E+00  0.18690085461E+04  0.18690085461E+04  0.25500000920E-02 0. -1.
       -2   -1    0    0    0  501  0.00000000000E+00  0.00000000000E+00 -0.11248030849E+04  0.11248030849E+04  0.25500000920E-02 0.  1.
    10030    2    1    2    0    0  0.00000000000E+00  0.00000000000E+00  0.74420546113E+03  0.29938116310E+04  0.28998390151E+04 0.  0.
        5    1    3    3  502    0 -0.12807500304E+03  0.13386212665E+04 -0.18762365588E+03  0.13577683263E+04  0.46999998093E+01 0.  1.
       -5    1    3    3    0  502  0.12807500304E+03 -0.13386212665E+04  0.93182911701E+03  0.16360433047E+04  0.46999998093E+01 0. -1.
</event>
<event>
 5   0  0.3786210E-07  0.2978737E+04  0.7818609E-02  0.8249829E-01
        1   -1    0    0  501    0  0.00000000000E+00  0.00000000000E+00  0.17607715692E+04  0.17607715692E+04  0.50400001928E-02 0. -1.
       -1   -1    0    0    0  501  0.00000000000E+00  0.00000000000E+00 -0.12597988427E+04  0.12597988427E+04  0.50400001928E-02 0.  1.
    10030    2    1    2    0    0  0.00000000000E+00  0.00000000000E+00  0.50097272651E+03  0.30205704119E+04  0.29787366350E+04 0.  0.
        5    1    3    3  502    0  0.32444483470E+03  0.51457591351E+03 -0.11280703950E+04  0.12816464909E+04  0.46999998093E+01 0.  1.
       -5    1    3    3    0  502 -0.32444483470E+03 -0.51457591351E+03  0.16290431215E+04  0.17389239210E+04  0.46999998093E+01 0. -1.
</event>
<event>
 5   0  0.3769563E-07  0.2901790E+04  0.7818609E-02  0.8272345E-01
        1   -1    0    0  501    0  0.00000000000E+00  0.00000000000E+00  0.20423994550E+04  0.20423994550E+04  0.50400001928E-02 0. -1.
       -1   -1    0    0    0  501  0.00000000000E+00  0.00000000000E+00 -0.10306978285E+04  0.10306978286E+04  0.50400001928E-02 0.  1.
    10030    2    1    2    0    0  0.00000000000E+00  0.00000000000E+00  0.10117016264E+04  0.30730972835E+04  0.29017902635E+04 0.  0.
        3    1    3    3  502    0  0.65094498157E+03  0.12627441320E+04  0.81794206986E+03  0.16392929427E+04  0.10100000352E+00 0. -1.
       -3    1    3    3    0  502 -0.65094498157E+03 -0.12627441320E+04  0.19375955659E+03  0.14338043409E+04  0.10100000352E+00 0.  1.
</event>
<event>
 5   0  0.9950999E-07  0.2897083E+04  0.7818609E-02  0.8273746E-01
       -2   -1    0    0    0  501  0.00000000000E+00  0.00000000000E+00  0.12512793784E+04  0.12512793784E+04  0.25500000920E-02 0.  1.
        2   -1    0    0  501    0  0.00000000000E+00  0.00000000000E+00 -0.16769019665E+04  0.16769019665E+04  0.25500000920E-02 0. -1.
    10030    2    1    2    0    0  0.00000000000E+00  0.00000000000E+00 -0.42562258809E+03  0.29281813449E+04  0.28970832576E+04 0.  0.
        3    1    3    3  502    0 -0.11365837852E+04  0.81644790085E+03 -0.59080829823E+03  0.15190340125E+04  0.10100000352E+00 0. -1.
       -3    1    3    3    0  502  0.11365837852E+04 -0.81644790085E+03  0.16518571014E+03  0.14091473325E+04  0.10100000352E+00 0.  1.
</event>
<event>
 5   0  0.3770467E-07  0.2899637E+04  0.7818609E-02  0.8272986E-01
        1   -1    0    0  501    0  0.00000000000E+00  0.00000000000E+00  0.19372246015E+04  0.19372246015E+04  0.50400001928E-02 0.  1.
       -1   -1    0    0    0  501  0.00000000000E+00  0.00000000000E+00 -0.10850437474E+04  0.10850437474E+04  0.50400001928E-02 0. -1.
    10030    2    1    2    0    0  0.00000000000E+00  0.00000000000E+00  0.85218085403E+03  0.30222683489E+04  0.28996368333E+04 0.  0.
        1    1    3    3  502    0  0.91628393430E+03  0.45284370927E+03  0.14978432716E+04  0.18133334331E+04  0.50400001928E-02 0.  1.
       -1    1    3    3    0  502 -0.91628393430E+03 -0.45284370927E+03 -0.64566241755E+03  0.12089349158E+04  0.50400001928E-02 0. -1.
</event>
<event>
 5   0  0.3638028E-07  0.2902398E+04  0.7818609E-02  0.8272164E-01
       -1   -1    0    0    0  501  0.00000000000E+00  0.00000000000E+00  0.13805214111E+04  0.13805214111E+04  0.50400001928E-02 0. -1.
        1   -1    0    0  501    0  0.00000000000E+00  0.00000000000E+00 -0.15254952935E+04  0.15254952936E+04  0.50400001928E-02 0.  1.
    10030    2    1    2    0    0  0.00000000000E+00  0.00000000000E+00 -0.14497388249E+03  0.29060167046E+04  0.29023982602E+04 0.  0.
        4    1    3    3  502    0  0.70244182044E+03 -0.71500866393E+03 -0.11232310356E+04  0.15054273390E+04  0.12699999809E+01 0.  1.
       -4    1    3    3    0  502 -0.70244182044E+03  0.71500866393E+03  0.97825715315E+03  0.14005893657E+04  0.12699999809E+01 0. -1.
</event>
<event>
 5   0  0.3786210E-07  0.2913693E+04  0.7818609E-02  0.8268815E-01
        1   -1    0    0  501    0  0.00000000000E+00  0.00000000000E+00  0.22077834963E+04  0.22077834963E+04  0.50400001928E-02 0.  1.
       -1   -1    0    0    0  501  0.00000000000E+00  0.00000000000E+00 -0.96132721585E+03  0.96132721586E+03  0.50400001928E-02 0. -1.
    10030    2    1    2    0    0  0.00000000000E+00  0.00000000000E+00  0.12464562805E+04  0.31691107122E+04  0.29136934374E+04 0.  0.
        5    1    3    3  502    0  0.17078374458E+02  0.11378074842E+04  0.16126306891E+04  0.19737014393E+04  0.46999998093E+01 0.  1.
       -5    1    3    3    0  502 -0.17078374458E+02 -0.11378074842E+04 -0.36617440866E+03  0.11954092729E+04  0.46999998093E+01 0. -1.
</event>
<event>
 5   0  0.3638028E-07  0.2915154E+04  0.7818609E-02  0.8268383E-01
        1   -1    0    0  501    0  0.00000000000E+00  0.00000000000E+00  0.20645390791E+04  0.20645390791E+04  0.50400001928E-02 0.  1.
       -1   -1    0    0    0  501  0.00000000000E+00  0.00000000000E+00 -0.10290582320E+04  0.10290582320E+04  0.50400001928E-02 0. -1.
    10030    2    1    2    0    0  0.00000000000E+00  0.00000000000E+00  0.10354808471E+04  0.30935973111E+04  0.29151541534E+04 0.  0.
        4    1    3    3  502    0 -0.60726953522E+03 -0.56716889579E+03  0.17885714427E+04  0.19721679095E+04  0.12699999809E+01 0.  1.
       -4    1    3    3    0  502  0.60726953522E+03  0.56716889579E+03 -0.75309059554E+03  0.11214294016E+04  0.12699999809E+01 0. -1.
</event>
<event>
 5   0  0.3770467E-07  0.2906986E+04  0.7818609E-02  0.8270802E-01
        1   -1    0    0  501    0  0.00000000000E+00  0.00000000000E+00  0.22213404472E+04  0.22213404472E+04  0.50400001928E-02 0.  1.
       -1   -1    0    0    0  501  0.00000000000E+00  0.00000000000E+00 -0.95106595986E+03  0.95106595987E+03  0.50400001928E-02 0. -1.
    10030    2    1    2    0    0  0.00000000000E+00  0.00000000000E+00  0.12702744873E+04  0.31724064071E+04  0.29069855759E+04 0.  0.
        1    1    3    3  502    0 -0.57566076346E+03 -0.70128134998E+03 -0.60408714647E+03  0.10900009757E+04  0.50400001928E-02 0. -1.
       -1    1    3    3    0  502  0.57566076346E+03  0.70128134998E+03  0.18743616338E+04  0.20824054314E+04  0.50400001928E-02 0.  1.
</event>
<event>
 5   0  0.1006893E-06  0.2907519E+04  0.7818609E-02  0.8270644E-01
       -2   -1    0    0    0  501  0.00000000000E+00  0.00000000000E+00  0.22100296198E+04  0.22100296198E+04  0.25500000920E-02 0. -1.
        2   -1    0    0  501    0  0.00000000000E+00  0.00000000000E+00 -0.95628416156E+03  0.95628416156E+03  0.25500000920E-02 0.  1.
    10030    2    1    2    0    0  0.00000000000E+00  0.00000000000E+00  0.12537454582E+04  0.31663137813E+04  0.29075187511E+04 0.  0.
        4    1    3    3  502    0 -0.67904872279E+03 -0.90451704629E+03  0.16214881403E+04  0.19769885323E+04  0.12699999809E+01 0.  1.
       -4    1    3    3    0  502  0.67904872279E+03  0.90451704629E+03 -0.36774268202E+03  0.11893252490E+04  0.12699999809E+01 0. -1.
</event>
<event>
 5   0  0.3638028E-07  0.2896992E+04  0.7818609E-02  0.8273773E-01
       -1   -1    0    0    0  501  0.00000000000E+00  0.00000000000E+00  0.16616832767E+04  0.16616832767E+04  0.50400001928E-02 0.  1.
        1   -1    0    0  501    0  0.00000000000E+00  0.00000000000E+00 -0.12626596857E+04  0.12626596857E+04  0.50400001928E-02 0. -1.
    10030    2    1    2    0    0  0.00000000000E+00  0.00000000000E+00  0.39902359102E+03  0.29243429625E+04  0.28969918771E+04 0.  0.
        4    1    3    3  502    0  0.29618368380E+03 -0.13832398482E+04  0.51400031258E+03  0.15050831161E+04  0.12699999809E+01 0.  1.
       -4    1    3    3    0  502 -0.29618368380E+03  0.13832398482E+04 -0.11497672156E+03  0.14192598464E+04  0.12699999809E+01 0. -1.
</event>
<event>
 5   0  0.3770467E-07  0.2899590E+04  0.7818609E-02  0.8273000E-01
       -1   -1    0    0    0  501  0.00000000000E+00  0.00000000000E+00  0.73619712998E+03  0.73619713000E+03  0.50400001928E-02 0. -1.
        1   -1    0    0  501    0  0.00000000000E+00  0.00000000000E+00 -0.28550850029E+04  0.28550850029E+04  0.50400001928E-02 0.  1.
    10030    2    1    2    0    0  0.00000000000E+00  0.00000000000E+00 -0.21188878729E+04  0.35912821329E+04  0.28995898917E+04 0.  0.
        1    1    3    3  502    0 -0.12007010988E+04 -0.27575585666E+03 -0.11280002013E+03  0.12371128751E+04  0.50400001928E-02 0. -1.
       -1    1    3    3    0  502  0.12007010988E+04  0.27575585666E+03 -0.20060878528E+04  0.23541692578E+04  0.50400001928E-02 0.  1.
</event>
<event>
 5   0  0.3769563E-07  0.2903321E+04  0.7818609E-02  0.8271890E-01
       -1   -1    0    0    0  501  0.00000000000E+00  0.00000000000E+00  0.15260945883E+04  0.15260945883E+04  0.50400001928E-02 0.  1.
        1   -1    0    0  501    0  0.00000000000E+00  0.00000000000E+00 -0.13808564983E+04  0.13808564983E+04  0.50400001928E-02 0. -1.
    10030    2    1    2    0    0  0.00000000000E+00  0.00000000000E+00  0.14523809000E+03  0.29069510866E+04  0.29033206018E+04 0.  0.
        3    1    3    3  502    0  0.99661525578E+02 -0.47522073008E+03 -0.12971378603E+04  0.13850392777E+04  0.10100000352E+00 0. -1.
       -3    1    3    3    0  502 -0.99661525578E+02  0.47522073008E+03  0.14423759502E+04  0.15219118089E+04  0.10100000352E+00 0.  1.
</event>
<event>
 5   0  0.3769563E-07  0.2901936E+04  0.7818609E-02  0.8272302E-01
       -1   -1    0    0    0  501  0.00000000000E+00  0.00000000000E+00  0.97868111530E+03  0.97868111531E+03  0.50400001928E-02 0.  1.
        1   -1    0    0  501    0  0.00000000000E+00  0.00000000000E+00 -0.21511687013E+04  0.21511687013E+04  0.50400001928E-02 0. -1.
    10030    2    1    2    0    0  0.00000000000E+00  0.00000000000E+00 -0.11724875860E+04  0.31298498166E+04  0.29019360322E+04 0.  0.
        3    1    3    3  502    0 -0.13936067632E+04 -0.30078200421E+03 -0.29544102522E+03  0.14559859319E+04  0.10100000352E+00 0. -1.
       -3    1    3    3    0  502  0.13936067632E+04  0.30078200421E+03 -0.87704656076E+03  0.16738638847E+04  0.10100000352E+00 0.  1.
</event>
<event>
 5   0  0.1006893E-06  0.2904954E+04  0.7818609E-02  0.8271405E-01
       -2   -1    0    0    0  501  0.00000000000E+00  0.00000000000E+00  0.85991569611E+03  0.85991569612E+03  0.25500000920E-02 0. -1.
        2   -1    0    0  501    0  0.00000000000E+00  0.00000000000E+00 -0.24533671137E+04  0.24533671137E+04  0.25500000920E-02 0.  1.
    10030    2    1    2    0    0  0.00000000000E+00  0.00000000000E+00 -0.15934514176E+04  0.33132828098E+04  0.29049536240E+04 0.  0.
        4    1    3    3  502    0  0.11128913878E+04  0.42889571165E+03 -0.17422301352E+04  0.21113612266E+04  0.12699999809E+01 0.  1.
       -4    1    3    3    0  502 -0.11128913878E+04 -0.42889571165E+03  0.14877871761E+03  0.12019215832E+04  0.12699999809E+01 0. -1.
</event>
<event>
 5   0  0.3885904E-07  0.2897527E+04  0.7818609E-02  0.8273614E-01
        1   -1    0    0  501    0  0.00000000000E+00  0.00000000000E+00  0.18322272147E+04  0.18322272147E+04  0.50400001928E-02 0.  1.
       -1   -1    0    0    0  501  0.00000000000E+00  0.00000000000E+00 -0.11455541143E+04  0.11455541143E+04  0.50400001928E-02 0. -1.
    10030    2    1    2    0    0  0.00000000000E+00  0.00000000000E+00  0.68667310039E+03  0.29777813290E+04  0.28975268241E+04 0.  0.
        2    1    3    3  502    0 -0.75230465672E+03  0.76851299891E+03  0.13409662216E+04  0.17189429698E+04  0.25500000920E-02 0.  1.
       -2    1    3    3    0  502  0.75230465672E+03 -0.76851299891E+03 -0.65429312124E+03  0.12588383592E+04  0.25500000920E-02 0. -1.
</event>
<event>
 5   0  0.3638028E-07  0.2880256E+04  0.7818609E-02  0.8278776E-01
        1   -1    0    0  501    0  0.00000000000E+00  0.00000000000E+00  0.13021367785E+04  0.13021367785E+04  0.50400001928E-02 0. -1.
       -1   -1    0    0    0  501  0.00000000000E+00  0.00000000000E+00 -0.15927429452E+04  0.15927429452E+04  0.50400001928E-02 0.  1.
    10030    2    1    2    0    0  0.00000000000E+00  0.00000000000E+00 -0.29060616672E+03  0.28948797238E+04  0.28802563551E+04 0.  0.
        4    1    3    3  502    0  0.75129053269E+02 -0.63332005347E+03 -0.14430708839E+04  0.15777179258E+04  0.12699999809E+01 0.  1.
       -4    1    3    3    0  502 -0.75129053269E+02  0.63332005347E+03  0.11524647171E+04  0.13171617979E+04  0.12699999809E+01 0. -1.
</event>
<event>
 5   0  0.1006893E-06  0.2891630E+04  0.7818609E-02  0.8275372E-01
        2   -1    0    0  501    0  0.00000000000E+00  0.00000000000E+00  0.19033626460E+04  0.19033626460E+04  0.25500000920E-02 0.  1.
       -2   -1    0    0    0  501  0.00000000000E+00  0.00000000000E+00 -0.10982571955E+04  0.10982571955E+04  0.25500000920E-02 0. -1.
    10030    2    1    2    0    0  0.00000000000E+00  0.00000000000E+00  0.80510545051E+03  0.30016198415E+04  0.28916304893E+04 0.  0.
        4    1    3    3  502    0  0.67285410199E+03  0.98735327844E+03 -0.44252743751E+03  0.12741394291E+04  0.12699999809E+01 0. -1.
       -4    1    3    3    0  502 -0.67285410199E+03 -0.98735327844E+03  0.12476328880E+04  0.17274804124E+04  0.12699999809E+01 0.  1.
</event>
<event>
 5   0  0.1031339E-06  0.2899849E+04  0.7818609E-02  0.8272922E-01
        2   -1    0    0  501    0  0.00000000000E+00  0.00000000000E+00  0.14559663445E+04  0.14559663445E+04  0.25500000920E-02 0. -1.
       -2   -1    0    0    0  501  0.00000000000E+00  0.00000000000E+00 -0.14439077582E+04  0.14439077582E+04  0.25500000920E-02 0.  1.
    10030    2    1    2    0    0  0.00000000000E+00  0.00000000000E+00  0.12058586367E+02  0.28998741027E+04  0.28998490309E+04 0.  0.
        5    1    3    3  502    0 -0.40086844026E+03  0.99811712577E+03  0.97831631554E+03  0.14539801259E+04  0.46999998093E+01 0. -1.
       -5    1    3    3    0  502  0.40086844026E+03 -0.99811712577E+03 -0.96625772917E+03  0.14458939769E+04  0.46999998093E+01 0.  1.
</event>
<event>
 5   0  0.3638028E-07  0.2900165E+04  0.7818609E-02  0.8272828E-01
        1   -1    0    0  501    0  0.00000000000E+00  0.00000000000E+00  0.21261923555E+04  0.21261923555E+04  0.50400001928E-02 0. -1.
       -1   -1    0    0    0  501  0.00000000000E+00  0.00000000000E+00 -0.98896956760E+03  0.98896956761E+03  0.50400001928E-02 0.  1.
    10030    2    1    2    0    0  0.00000000000E+00  0.00000000000E+00  0.11372227879E+04  0.31151619231E+04  0.29001651915E+04 0.  0.
        4    1    3    3  502    0 -0.19193495150E+03  0.83018950434E+03 -0.69169188795E+03  0.10974939269E+04  0.12699999809E+01 0.  1.
       -4    1    3    3    0  502  0.19193495150E+03 -0.83018950434E+03  0.18289146759E+04  0.20176679963E+04  0.12699999809E+01 0. -1.
</event>
<event>
 5   0  0.1006893E-06  0.2912997E+04  0.7818609E-02  0.8269021E-01
        2   -1    0    0  501    0  0.00000000000E+00  0.00000000000E+00  0.14514849287E+04  0.14514849287E+04  0.25500000920E-02 0. -1.
       -2   -1    0    0    0  501  0.00000000000E+00  0.00000000000E+00 -0.14615295576E+04  0.14615295576E+04  0.25500000920E-02 0.  1.
    10030    2    1    2    0    0  0.00000000000E+00  0.00000000000E+00 -0.10044628932E+02  0.29130144863E+04  0.29129971684E+04 0.  0.
        4    1    3    3  502    0  0.68061902004E+03  0.39705457032E+03 -0.12299752816E+04  0.14607311144E+04  0.12699999809E+01 0.  1.
       -4    1    3    3    0  502 -0.68061902004E+03 -0.39705457032E+03  0.12199306527E+04  0.14522833720E+04  0.12699999809E+01 0. -1.
</event>
<event>
 5   0  0.9950999E-07  0.2898964E+04  0.7818609E-02  0.8273186E-01
        2   -1    0    0  501    0  0.00000000000E+00  0.00000000000E+00  0.26481131889E+04  0.26481131889E+04  0.25500000920E-02 0. -1.
       -2   -1    0    0    0  501  0.00000000000E+00  0.00000000000E+00 -0.79339444583E+03  0.79339444584E+03  0.25500000920E-02 0.  1.
    10030    2    1    2    0    0  0.00000000000E+00  0.00000000000E+00  0.18547187431E+04  0.34415076347E+04  0.28989641571E+04 0.  0.
        3    1    3    3  502    0  0.10595464937E+03  0.10010817555E+04  0.21654200545E+04  0.23879771966E+04  0.10100000352E+00 0. -1.
       -3    1    3    3    0  502 -0.10595464937E+03 -0.10010817555E+04 -0.31070131145E+03  0.10535304381E+04  0.10100000352E+00 0.  1.
</event>
<event>
 5   0  0.3786210E-07  0.2888000E+04  0.7818609E-02  0.8276457E-01
       -1   -1    0    0    0  501  0.00000000000E+00  0.00000000000E+00  0.10464887544E+04  0.10464887544E+04  0.50400001928E-02 0. -1.
        1   -1    0    0  501    0  0.00000000000E+00  0.00000000000E+00 -0.19925070161E+04  0.19925070161E+04  0.50400001928E-02 0.  1.
    10030    2    1    2    0    0  0.00000000000E+00  0.00000000000E+00 -0.94601826175E+03  0.30389957705E+04  0.28880001284E+04 0.  0.
        5    1    3    3  502    0 -0.12517993235E+04  0.64966149175E+03 -0.79913647473E+03  0.16210190608E+04  0.46999998093E+01 0.  1.
       -5    1    3    3    0  502  0.12517993235E+04 -0.64966149175E+03 -0.14688178702E+03  0.14179767098E+04  0.46999998093E+01 0. -1.
</event>
<event>
 5   0  0.9994311E-07  0.2903968E+04  0.7818609E-02  0.8271698E-01
        2   -1    0    0  501    0  0.00000000000E+00  0.00000000000E+00  0.12149620249E+04  0.12149620249E+04  0.25500000920E-02 0. -1.
       -2   -1    0    0    0  501  0.00000000000E+00  0.00000000000E+00 -0.17352457098E+04  0.17352457098E+04  0.25500000920E-02 0.  1.
    10030    2    1    2    0    0  0.00000000000E+00  0.00000000000E+00 -0.52028368487E+03  0.29502077347E+04  0.29039680723E+04 0.  0.
        2    1    3    3  502    0 -0.11419795727E+04 -0.59940912099E+03  0.41744828650E+03  0.13556075061E+04  0.25500000920E-02 0.  1.
       -2    1    3    3    0  502  0.11419795727E+04  0.59940912099E+03 -0.93773197138E+03  0.15946002286E+04  0.25500000920E-02 0. -1.
</event>
<event>
 5   0  0.3786210E-07  0.2902061E+04  0.7818609E-02  0.8272265E-01
        1   -1    0    0  501    0  0.00000000000E+00  0.00000000000E+00  0.13505431489E+04  0.13505431489E+04  0.50400001928E-02 0.  1.
       -1   -1    0    0    0  501  0.00000000000E+00  0.00000000000E+00 -0.15589945906E+04  0.15589945906E+04  0.50400001928E-02 0. -1.
    10030    2    1    2    0    0  0.00000000000E+00  0.00000000000E+00 -0.20845144171E+03  0.29095377395E+04  0.29020609666E+04 0.  0.
        5    1    3    3  502    0 -0.83316091161E+03  0.88418946418E+03  0.69124092431E+03  0.13977783153E+04  0.46999998093E+01 0.  1.
       -5    1    3    3    0  502  0.83316091161E+03 -0.88418946418E+03 -0.89969236602E+03  0.15117594242E+04  0.46999998093E+01 0. -1.
</event>
<event>
 5   0  0.9994311E-07  0.2866043E+04  0.7818609E-02  0.8283053E-01
        2   -1    0    0  501    0  0.00000000000E+00  0.00000000000E+00  0.13720873468E+04  0.13720873468E+04  0.25500000920E-02 0.  1.
       -2   -1    0    0    0  501  0.00000000000E+00  0.00000000000E+00 -0.14966620582E+04  0.14966620582E+04  0.25500000920E-02 0. -1.
    10030    2    1    2    0    0  0.00000000000E+00  0.00000000000E+00 -0.12457471135E+03  0.28687494050E+04  0.28660433161E+04 0.  0.
        2    1    3    3  502    0  0.12914702384E+04  0.51941060128E+03 -0.40300311644E+03  0.14491701975E+04  0.25500000920E-02 0. -1.
       -2    1    3    3    0  502 -0.12914702384E+04 -0.51941060128E+03  0.27842840509E+03  0.14195792075E+04  0.25500000920E-02 0.  1.
</event>
<event>
 5   0  0.3769563E-07  0.2901557E+04  0.7818609E-02  0.8272414E-01
       -1   -1    0    0    0  501  0.00000000000E+00  0.00000000000E+00  0.13777027569E+04  0.13777027569E+04  0.50400001928E-02 0.  1.
        1   -1    0    0  501    0  0.00000000000E+00  0.00000000000E+00 -0.15277302851E+04  0.15277302851E+04  0.50400001928E-02 0. -1.
    10030    2    1    2    0    0  0.00000000000E+00  0.00000000000E+00 -0.15002752823E+03  0.29054330420E+04  0.29015569790E+04 0.  0.
        3    1    3    3  502    0 -0.13749786716E+04  0.22766552395E+03 -0.47849157887E+03  0.14735508608E+04  0.10100000352E+00 0. -1.
       -3    1    3    3    0  502  0.13749786716E+04 -0.22766552395E+03  0.32846405064E+03  0.14318821812E+04  0.10100000352E+00 0.  1.
</event>
<event>
 5   0  0.9950999E-07  0.2903284E+04  0.7818609E-02  0.8271901E-01
        2   -1    0    0  501    0  0.00000000000E+00  0.00000000000E+00  0.20411996232E+04  0.20411996232E+04  0.25500000920E-02 0. -1.
       -2   -1    0    0    0  501  0.00000000000E+00  0.00000000000E+00 -0.10323656977E+04  0.10323656977E+04  0.25500000920E-02 0.  1.
    10030    2    1    2    0    0  0.00000000000E+00  0.00000000000E+00  0.10088339255E+04  0.30735653209E+04  0.29032839842E+04 0.  0.
        3    1    3    3  502    0  0.12067878714E+04 -0.80673238667E+03  0.49329594374E+03  0.15331324171E+04  0.10100000352E+00 0.  1.
       -3    1    3    3    0  502 -0.12067878714E+04  0.80673238667E+03  0.51553798180E+03  0.15404329038E+04  0.10100000352E+00 0. -1.
</event>
<event>
 5   0  0.3638028E-07  0.2901651E+04  0.7818609E-02  0.8272386E-01
       -1   -1    0    0    0  501  0.00000000000E+00  0.00000000000E+00  0.99496902292E+03  0.99496902293E+03  0.50400001928E-02 0. -1.
        1   -1    0    0  501    0  0.00000000000E+00  0.00000000000E+00 -0.21155379164E+04  0.21155379164E+04  0.50400001928E-02 0.  1.
    10030    2    1    2    0    0  0.00000000000E+00  0.00000000000E+00 -0.11205688935E+04  0.31105069393E+04  0.29016510429E+04 0.  0.
        4    1    3    3  502    0  0.58819155906E+03 -0.11434686885E+04 -0.12805095838E+04  0.18147166056E+04  0.12699999809E+01 0.  1.
       -4    1    3    3    0  502 -0.58819155906E+03  0.11434686885E+04  0.15994069029E+03  0.12957903337E+04  0.12699999809E+01 0. -1.
</event>
<event>
 5   0  0.3770467E-07  0.2911127E+04  0.7818609E-02  0.8269575E-01
        1   -1    0    0  501    0  0.00000000000E+00  0.00000000000E+00  0.15165032527E+04  0.15165032527E+04  0.50400001928E-02 0.  1.
       -1   -1    0    0    0  501  0.00000000000E+00  0.00000000000E+00 -0.13970722041E+04  0.13970722041E+04  0.50400001928E-02 0. -1.
    10030    2    1    2    0    0  0.00000000000E+00  0.00000000000E+00  0.11943104860E+03  0.29135754569E+04  0.29111266148E+04 0.  0.
        1    1    3    3  502    0  0.13364561452E+04 -0.23971946103E+02 -0.51694174797E+03  0.14331498362E+04  0.50400001928E-02 0. -1.
       -1    1    3    3    0  502 -0.13364561452E+04  0.23971946103E+02  0.63637279657E+03  0.14804256207E+04  0.50400001928E-02 0.  1.
</event>
<event>
 5   0  0.9994311E-07  0.2901825E+04  0.7818609E-02  0.8272335E-01
       -2   -1    0    0    0  501  0.00000000000E+00  0.00000000000E+00  0.14712396857E+04  0.14712396857E+04  0.25500000920E-02 0. -1.
        2   -1    0    0  501    0  0.00000000000E+00  0.00000000000E+00 -0.14308659664E+04  0.14308659664E+04  0.25500000920E-02 0.  1.
    10030    2    1    2    0    0  0.00000000000E+00  0.00000000000E+00  0.40373719285E+02  0.29021056520E+04  0.29018248014E+04 0.  0.
        2    1    3    3  502    0  0.16067585634E+03  0.10489237827E+04 -0.96939815013E+03  0.14372858471E+04  0.25500000920E-02 0.  1.
       -2    1    3    3    0  502 -0.16067585634E+03 -0.10489237827E+04  0.10097718694E+04  0.14648198050E+04  0.25500000920E-02 0. -1.
</event>
<event>
 5   0  0.3769563E-07  0.2880879E+04  0.7818609E-02  0.8278589E-01
       -1   -1    0    0    0  501  0.00000000000E+00  0.00000000000E+00  0.95865230475E+03  0.95865230476E+03  0.50400001928E-02 0. -1.
        1   -1    0    0  501    0  0.00000000000E+00  0.00000000000E+00 -0.21643568271E+04  0.21643568271E+04  0.50400001928E-02 0.  1.
    10030    2    1    2    0    0  0.00000000000E+00  0.00000000000E+00 -0.12057045223E+04  0.31230091318E+04  0.28808787969E+04 0.  0.
        3    1    3    3  502    0 -0.75731110419E+03  0.27776548427E+02  0.72508322406E+03  0.10488266478E+04  0.10100000352E+00 0. -1.
       -3    1    3    3    0  502  0.75731110419E+03 -0.27776548427E+02 -0.19307877464E+04  0.20741824840E+04  0.10100000352E+00 0.  1.
</event>
<event>
 5   0  0.1006893E-06  0.2876860E+04  0.7818609E-02  0.8279796E-01
        2   -1    0    0  501    0  0.00000000000E+00  0.00000000000E+00  0.23758376393E+04  0.23758376393E+04  0.25500000920E-02 0. -1.
       -2   -1    0    0    0  501  0.00000000000E+00  0.00000000000E+00 -0.87088472626E+03  0.87088472626E+03  0.25500000920E-02 0.  1.
    10030    2    1    2    0    0  0.00000000000E+00  0.00000000000E+00  0.15049529130E+04  0.32467223655E+04  0.28768598938E+04 0.  0.
        4    1    3    3  502    0 -0.10106970155E+04  0.64284428730E+03  0.16513141603E+04  0.20399993392E+04  0.12699999809E+01 0. -1.
       -4    1    3    3    0  502  0.10106970155E+04 -0.64284428730E+03 -0.14636124732E+03  0.12067230264E+04  0.12699999809E+01 0.  1.
</event>
<event>
 5   0  0.9950999E-07  0.2898910E+04  0.7818609E-02  0.8273202E-01
       -2   -1    0    0    0  501  0.00000000000E+00  0.00000000000E+00  0.18418194178E+04  0.18418194178E+04  0.25500000920E-02 0.  1.
        2   -1    0    0  501    0  0.00000000000E+00  0.00000000000E+00 -0.11406765600E+04  0.11406765600E+04  0.25500000920E-02 0. -1.
    10030    2    1    2    0    0  0.00000000000E+00  0.00000000000E+00  0.70114285783E+03  0.29824959778E+04  0.28989103040E+04 0.  0.
        3    1    3    3  502    0 -0.35713292810E+03 -0.10311136720E+04 -0.63097070337E+03  0.12605012382E+04  0.10100000352E+00 0. -1.
       -3    1    3    3    0  502  0.35713292810E+03  0.10311136720E+04  0.13321135612E+04  0.17219947395E+04  0.10100000352E+00 0.  1.
</event>
<event>
 5   0  0.1031339E-06  0.2900936E+04  0.7818609E-02  0.8272599E-01
       -2   -1    0    0    0  501  0.00000000000E+00  0.00000000000E+00  0.23024829984E+04  0.23024829984E+04  0.25500000920E-02 0. -1.
        2   -1    0    0  501    0  0.00000000000E+00  0.00000000000E+00 -0.91373424718E+03  0.91373424719E+03  0.25500000920E-02 0.  1.
    10030    2    1    2    0    0  0.00000000000E+00  0.00000000000E+00  0.13887487512E+04  0.32162172455E+04  0.29009361035E+04 0.  0.
        5    1    3    3  502    0  0.36967303372E+03  0.13705410875E+04  0.36400473116E+03  0.14654564335E+04  0.46999998093E+01 0.  1.
       -5    1    3    3    0  502 -0.36967303372E+03 -0.13705410875E+04  0.10247440200E+04  0.17507608120E+04  0.46999998093E+01 0. -1.
</event>
<event>
 5   0  0.3638028E-07  0.2884673E+04  0.7818609E-02  0.8277452E-01
        1   -1    0    0  501    0  0.00000000000E+00  0.00000000000E+00  0.13631663265E+04  0.13631663265E+04  0.50400001928E-02 0.  1.
       -1   -1    0    0    0  501  0.00000000000E+00  0.00000000000E+00 -0.15261042316E+04  0.15261042317E+04  0.50400001928E-02 0. -1.
    10030    2    1    2    0    0  0.00000000000E+00  0.00000000000E+00 -0.16293790512E+03  0.28892705582E+04  0.28846725286E+04 0.  0.
        4    1    3    3  502    0 -0.13158859101E+04 -0.30292878128E+03 -0.58923926472E+03  0.14732705451E+04  0.12699999809E+01 0. -1.
       -4    1    3    3    0  502  0.13158859101E+04  0.30292878128E+03  0.42630135960E+03  0.14160000131E+04  0.12699999809E+01 0.  1.
</event>
<event>
 5   0  0.3769563E-07  0.2893903E+04  0.7818609E-02  0.8274694E-01
       -1   -1    0    0    0  501  0.00000000000E+00  0.00000000000E+00  0.10854672234E+04  0.10854672234E+04  0.50400001928E-02 0.  1.
        1   -1    0    0  501    0  0.00000000000E+00  0.00000000000E+00 -0.19288173832E+04  0.19288173832E+04  0.50400001928E-02 0. -1.
    10030    2    1    2    0    0  0.00000000000E+00  0.00000000000E+00 -0.84335015983E+03  0.30142846066E+04  0.28939025894E+04 0.  0.
        3    1    3    3  502    0 -0.48109023317E+03 -0.40329285464E+03 -0.17795836434E+04  0.18870640935E+04  0.10100000352E+00 0. -1.
       -3    1    3    3    0  502  0.48109023317E+03  0.40329285464E+03  0.93623348356E+03  0.11272205130E+04  0.10100000352E+00 0.  1.
</event>
<event>
 5   0  0.3786210E-07  0.2906527E+04  0.7818609E-02  0.8270938E-01
        1   -1    0    0  501    0  0.00000000000E+00  0.00000000000E+00  0.16001497740E+04  0.16001497740E+04  0.50400001928E-02 0.  1.
       -1   -1    0    0    0  501  0.00000000000E+00  0.00000000000E+00 -0.13198605795E+04  0.13198605795E+04  0.50400001928E-02 0. -1.
    10030    2    1    2    0    0  0.00000000000E+00  0.00000000000E+00  0.28028919451E+03  0.29200103535E+04  0.29065268676E+04 0.  0.
        5    1    3    3  502    0  0.12867488312E+04 -0.65129517025E+03 -0.39695793754E+02  0.14427424577E+04  0.46999998093E+01 0. -1.
       -5    1    3    3    0  502 -0.12867488312E+04  0.65129517025E+03  0.31998498826E+03  0.14772678958E+04  0.46999998093E+01 0.  1.
</event>
<event>
 5   0  0.1006893E-06  0.2894827E+04  0.7818609E-02  0.8274418E-01
        2   -1    0    0  501    0  0.00000000000E+00  0.00000000000E+00  0.25166967211E+04  0.25166967211E+04  0.25500000920E-02 0.  1.
       -2   -1    0    0    0  501  0.00000000000E+00  0.00000000000E+00 -0.83244297027E+03  0.83244297028E+03  0.25500000920E-02 0. -1.
    10030    2    1    2    0    0  0.00000000000E+00  0.00000000000E+00  0.16842537508E+04  0.33491396913E+04  0.28948274517E+04 0.  0.
        4    1    3    3  502    0 -0.13605928902E+04  0.45399574797E+03  0.10667034554E+04  0.17875074900E+04  0.12699999809E+01 0.  1.
       -4    1    3    3    0  502  0.13605928902E+04 -0.45399574797E+03  0.61755029543E+03  0.15616322014E+04  0.12699999809E+01 0. -1.
</event>
<event>
 5   0  0.1006893E-06  0.2899063E+04  0.7818609E-02  0.8273156E-01
        2   -1    0    0  501    0  0.00000000000E+00  0.00000000000E+00  0.20931733161E+04  0.20931733161E+04  0.25500000920E-02 0. -1.
       -2   -1    0    0    0  501  0.00000000000E+00  0.00000000000E+00 -0.10038064558E+04  0.10038064558E+04  0.25500000920E-02 0.  1.
    10030    2    1    2    0    0  0.00000000000E+00  0.00000000000E+00  0.10893668603E+04  0.30969797718E+04  0.28990625297E+04 0.  0.
        4    1    3    3  502    0 -0.79477880001E+03  0.53444296497E+03  0.17070060154E+04  0.19573384412E+04  0.12699999809E+01 0. -1.
       -4    1    3    3    0  502  0.79477880001E+03 -0.53444296497E+03 -0.61763915510E+03  0.11396413307E+04  0.12699999809E+01 0.  1.
</event>
<event>
 5   0  0.1031339E-06  0.2899933E+04  0.7818609E-02  0.8272898E-01
        2   -1    0    0  501    0  0.00000000000E+00  0.00000000000E+00  0.10670047448E+04  0.10670047448E+04  0.25500000920E-02 0.  1.
       -2   -1    0    0    0  501  0.00000000000E+00  0.00000000000E+00 -0.19703776408E+04  0.19703776408E+04  0.25500000920E-02 0. -1.
    10030    2    1    2    0    0  0.00000000000E+00  0.00000000000E+00 -0.90337289606E+03  0.30373823856E+04  0.28999326142E+04 0.  0.
        5    1    3    3  502    0 -0.23065040364E+03 -0.12361988154E+04  0.30432355528E+03  0.12938400350E+04  0.46999998093E+01 0.  1.
       -5    1    3    3    0  502  0.23065040364E+03  0.12361988154E+04 -0.12076964513E+04  0.17435423506E+04  0.46999998093E+01 0. -1.
</event>
<event>
 5   0  0.1006893E-06  0.2896976E+04  0.7818609E-02  0.8273778E-01
       -2   -1    0    0    0  501  0.00000000000E+00  0.00000000000E+00  0.11305497709E+04  0.11305497709E+04  0.25500000920E-02 0.  1.
        2   -1    0    0  501    0  0.00000000000E+00  0.00000000000E+00 -0.18558380693E+04  0.18558380693E+04  0.25500000920E-02 0. -1.
    10030    2    1    2    0    0  0.00000000000E+00  0.00000000000E+00 -0.72528829835E+03  0.29863878402E+04  0.28969758743E+04 0.  0.
        4    1    3    3  502    0  0.12792084429E+04  0.25184012711E+03  0.28795920379E+03  0.13351853077E+04  0.12699999809E+01 0.  1.
       -4    1    3    3    0  502 -0.12792084429E+04 -0.25184012711E+03 -0.10132475021E+04  0.16512025325E+04  0.12699999809E+01 0. -1.
</event>
<event>
 5   0  0.9994311E-07  0.2893201E+04  0.7818609E-02  0.8274903E-01
        2   -1    0    0  501    0  0.00000000000E+00  0.00000000000E+00  0.17082984697E+04  0.17082984697E+04  0.25500000920E-02 0.  1.
       -2   -1    0    0    0  501  0.00000000000E+00  0.00000000000E+00 -0.12249925666E+04  0.12249925666E+04  0.25500000920E-02 0. -1.
    10030    2    1    2    0    0  0.00000000000E+00  0.00000000000E+00  0.48330590310E+03  0.29332910362E+04  0.28932009448E+04 0.  0.
        2    1    3    3  502    0 -0.94001512675E+03  0.32686650277E+03  0.13060492783E+04  0.16420215792E+04  0.25500000920E-02 0.  1.
       -2    1    3    3    0  502  0.94001512675E+03 -0.32686650277E+03 -0.82274337521E+03  0.12912694570E+04  0.25500000920E-02 0. -1.
</event>
<event>
 5   0  0.1031339E-06  0.2895681E+04  0.7818609E-02  0.8274164E-01
       -2   -1    0    0    0  501  0.00000000000E+00  0.00000000000E+00  0.12532421431E+04  0.12532421431E+04  0.25500000920E-02 0. -1.
        2   -1    0    0  501    0  0.00000000000E+00  0.00000000000E+00 -0.16726549419E+04  0.16726549419E+04  0.25500000920E-02 0.  1.
    10030    2    1    2    0    0  0.00000000000E+00  0.00000000000E+00 -0.41941279878E+03  0.29258970850E+04  0.28956806896E+04 0.  0.
        5    1    3    3  502    0 -0.14211862278E+04  0.87587517545E+02  0.55285270401E+02  0.14249633042E+04  0.46999998093E+01 0. -1.
       -5    1    3    3    0  502  0.14211862278E+04 -0.87587517545E+02 -0.47469806918E+03  0.15009337808E+04  0.46999998093E+01 0.  1.
</event>
<event>
 5   0  0.1031339E-06  0.2898674E+04  0.7818609E-02  0.8273272E-01
       -2   -1    0    0    0  501  0.00000000000E+00  0.00000000000E+00  0.71640016404E+03  0.71640016405E+03  0.25500000920E-02 0. -1.
        2   -1    0    0  501    0  0.00000000000E+00  0.00000000000E+00 -0.29321288481E+04  0.29321288482E+04  0.25500000920E-02 0.  1.
    10030    2    1    2    0    0  0.00000000000E+00  0.00000000000E+00 -0.22157286841E+04  0.36485290122E+04  0.28986738953E+04 0.  0.
        5    1    3    3  502    0  0.29265094489E+02  0.56057880528E+03  0.57400535701E+03  0.80287563330E+03  0.46999998093E+01 0. -1.
       -5    1    3    3    0  502 -0.29265094489E+02 -0.56057880528E+03 -0.27897340411E+04  0.28456533789E+04  0.46999998093E+01 0.  1.
</event>
<event>
 5   0  0.3885904E-07  0.2893885E+04  0.7818609E-02  0.8274699E-01
       -1   -1    0    0    0  501  0.00000000000E+00  0.00000000000E+00  0.93533986880E+03  0.93533986881E+03  0.50400001928E-02 0. -1.
        1   -1    0    0  501    0  0.00000000000E+00  0.00000000000E+00 -0.22383758640E+04  0.22383758640E+04  0.50400001928E-02 0.  1.
    10030    2    1    2    0    0  0.00000000000E+00  0.00000000000E+00 -0.13030359952E+04  0.31737157328E+04  0.28938847157E+04 0.  0.
        2    1    3    3  502    0 -0.11388815870E+04  0.60546983179E+02 -0.16280868060E+04  0.19878088073E+04  0.25500000920E-02 0.  1.
       -2    1    3    3    0  502  0.11388815870E+04 -0.60546983179E+02  0.32505081079E+03  0.11859069255E+04  0.25500000920E-02 0. -1.
</event>
<event>
 5   0  0.3885904E-07  0.2903358E+04  0.7818609E-02  0.8271879E-01
        1   -1    0    0  501    0  0.00000000000E+00  0.00000000000E+00  0.13567345625E+04  0.13567345625E+04  0.50400001928E-02 0. -1.
       -1   -1    0    0    0  501  0.00000000000E+00  0.00000000000E+00 -0.15532675747E+04  0.15532675747E+04  0.50400001928E-02 0.  1.
    10030    2    1    2    0    0  0.00000000000E+00  0.00000000000E+00 -0.19653301222E+03  0.29100021372E+04  0.29033579203E+04 0.  0.
        2    1    3    3  502    0  0.11184788111E+04  0.83822903910E+03 -0.49127227272E+03  0.14815435258E+04  0.25500000920E-02 0.  1.
       -2    1    3    3    0  502 -0.11184788111E+04 -0.83822903910E+03  0.29473926050E+03  0.14284586114E+04  0.25500000920E-02 0. -1.
</event>
<event>
 5   0  0.3885904E-07  0.2924770E+04  0.7818609E-02  0.8265546E-01
        1   -1    0    0  501    0  0.00000000000E+00  0.00000000000E+00  0.21223308306E+04  0.21223308306E+04  0.50400001928E-02 0.  1.
       -1   -1    0    0    0  501  0.00000000000E+00  0.00000000000E+00 -0.10076512328E+04  0.10076512328E+04  0.50400001928E-02 0. -1.
    10030    2    1    2    0    0  0.00000000000E+00  0.00000000000E+00  0.11146795978E+04  0.31299820634E+04  0.29247695827E+04 0.  0.
        2    1    3    3  502    0 -0.21040116030E+03 -0.36055812746E+01  0.21060435672E+04  0.21165304522E+04  0.25500000920E-02 0.  1.
       -2    1    3    3    0  502  0.21040116030E+03  0.36055812746E+01 -0.99136396935E+03  0.10134516112E+04  0.25500000920E-02 0. -1.
</event>
<event>
 5   0  0.3786210E-07  0.2872514E+04  0.7818609E-02  0.8281103E-01
       -1   -1    0    0    0  501  0.00000000000E+00  0.00000000000E+00  0.11373555034E+04  0.11373555034E+04  0.50400001928E-02 0.  1.
        1   -1    0    0  501    0  0.00000000000E+00  0.00000000000E+00 -0.18137112906E+04  0.18137112906E+04  0.50400001928E-02 0. -1.
    10030    2    1    2    0    0  0.00000000000E+00  0.00000000000E+00 -0.67635578720E+03  0.29510667940E+04  0.28725142422E+04 0.  0.
        5    1    3    3  502    0 -0.50209887618E+03  0.32265246086E+02  0.10438484270E+04  0.11587864152E+04  0.46999998093E+01 0.  1.
       -5    1    3    3    0  502  0.50209887618E+03 -0.32265246086E+02 -0.17202042142E+04  0.17922803788E+04  0.46999998093E+01 0. -1.
</event>
<event>
 5   0  0.9950999E-07  0.2901499E+04  0.7818609E-02  0.8272432E-01
        2   -1    0    0  501    0  0.00000000000E+00  0.00000000000E+00  0.13603624634E+04  0.13603624634E+04  0.25500000920E-02 0. -1.
       -2   -1    0    0    0  501  0.00000000000E+00  0.00000000000E+00 -0.15471417918E+04  0.15471417918E+04  0.25500000920E-02 0.  1.
    10030    2    1    2    0    0  0.00000000000E+00  0.00000000000E+00 -0.18677932842E+03  0.29075042552E+04  0.29014986604E+04 0.  0.
        3    1    3    3  502    0 -0.97501957097E+03  0.12096371721E+03 -0.11630156422E+04  0.15224653621E+04  0.10100000352E+00 0.  1.
       -3    1    3    3    0  502  0.97501957097E+03 -0.12096371721E+03  0.97623631381E+03  0.13850388930E+04  0.10100000352E+00 0. -1.
</event>
<event>
 5   0  0.3770467E-07  0.2898026E+04  0.7818609E-02  0.8273465E-01
       -1   -1    0    0    0  501  0.00000000000E+00  0.00000000000E+00  0.63606132823E+03  0.63606132825E+03  0.50400001928E-02 0.  1.
        1   -1    0    0  501    0  0.00000000000E+00  0.00000000000E+00 -0.33009995323E+04  0.33009995323E+04  0.50400001928E-02 0. -1.
    10030    2    1    2    0    0  0.00000000000E+00  0.00000000000E+00 -0.26649382040E+04  0.39370608605E+04  0.28980256362E+04 0.  0.
        1    1    3    3  502    0 -0.10062171468E+04  0.76795193932E+03 -0.37432826057E+03  0.13199790810E+04  0.50400001928E-02 0.  1.
       -1    1    3    3    0  502  0.10062171468E+04 -0.76795193932E+03 -0.22906099435E+04  0.26170817795E+04  0.50400001928E-02 0. -1.
</event>
<event>
 5   0  0.3885904E-07  0.2899065E+04  0.7818609E-02  0.8273156E-01
        1   -1    0    0  501    0  0.00000000000E+00  0.00000000000E+00  0.21328674640E+04  0.21328674640E+04  0.50400001928E-02 0. -1.
       -1   -1    0    0    0  501  0.00000000000E+00  0.00000000000E+00 -0.98512645688E+03  0.98512645689E+03  0.50400001928E-02 0.  1.
    10030    2    1    2    0    0  0.00000000000E+00  0.00000000000E+00  0.11477410071E+04  0.31179939209E+04  0.28990647925E+04 0.  0.
        2    1    3    3  502    0 -0.53562255837E+02 -0.12911992823E+04 -0.13227811070E+03  0.12990619695E+04  0.25500000920E-02 0.  1.
       -2    1    3    3    0  502  0.53562255837E+02  0.12911992823E+04  0.12800191178E+04  0.18189319514E+04  0.25500000920E-02 0. -1.
</event>
<event>
 5   0  0.3786210E-07  0.2905044E+04  0.7818609E-02  0.8271378E-01
        1   -1    0    0  501    0  0.00000000000E+00  0.00000000000E+00  0.89427637040E+03  0.89427637042E+03  0.50400001928E-02 0.  1.
       -1   -1    0    0    0  501  0.00000000000E+00  0.00000000000E+00 -0.23592480347E+04  0.23592480347E+04  0.50400001928E-02 0. -1.
    10030    2    1    2    0    0  0.00000000000E+00  0.00000000000E+00 -0.14649716643E+04  0.32535244051E+04  0.29050437307E+04 0.  0.
        5    1    3    3  502    0  0.53253456320E+03 -0.87568526438E+03 -0.18852149568E+04  0.21458041073E+04  0.46999998093E+01 0.  1.
       -5    1    3    3    0  502 -0.53253456320E+03  0.87568526438E+03  0.42024329258E+03  0.11077202978E+04  0.46999998093E+01 0. -1.
</event>
<event>
 5   0  0.9994311E-07  0.2898521E+04  0.7818609E-02  0.8273318E-01
       -2   -1    0    0    0  501  0.00000000000E+00  0.00000000000E+00  0.12195325118E+04  0.12195325118E+04  0.25500000920E-02 0.  1.
        2   -1    0    0  501    0  0.00000000000E+00  0.00000000000E+00 -0.17222635082E+04  0.17222635082E+04  0.25500000920E-02 0. -1.
    10030    2    1    2    0    0  0.00000000000E+00  0.00000000000E+00 -0.50273099638E+03  0.29417960200E+04  0.28985212383E+04 0.  0.
        2    1    3    3  502    0  0.80862188397E+02  0.60840941773E+03  0.10811164071E+04  0.12431867916E+04  0.25500000920E-02 0.  1.
       -2    1    3    3    0  502 -0.80862188397E+02 -0.60840941773E+03 -0.15838474035E+04  0.16986092284E+04  0.25500000920E-02 0. -1.
</event>
<event>
 5   0  0.1006893E-06  0.2899245E+04  0.7818609E-02  0.8273102E-01
        2   -1    0    0  501    0  0.00000000000E+00  0.00000000000E+00  0.18464732872E+04  0.18464732872E+04  0.25500000920E-02 0. -1.
       -2   -1    0    0    0  501  0.00000000000E+00  0.00000000000E+00 -0.11380639767E+04  0.11380639767E+04  0.25500000920E-02 0.  1.
    10030    2    1    2    0    0  0.00000000000E+00  0.00000000000E+00  0.70840931048E+03  0.29845372639E+04  0.28992445444E+04 0.  0.
        4    1    3    3  502    0 -0.11307781809E+04  0.27032284352E+03 -0.53710178564E+03  0.12807082709E+04  0.12699999809E+01 0.  1.
       -4    1    3    3    0  502  0.11307781809E+04 -0.27032284352E+03  0.12455110961E+04  0.17038289930E+04  0.12699999809E+01 0. -1.
</event>
<event>
 5   0  0.3769563E-07  0.2911828E+04  0.7818609E-02  0.8269367E-01
       -1   -1    0    0    0  501  0.00000000000E+00  0.00000000000E+00  0.12539035941E+04  0.12539035941E+04  0.50400001928E-02 0.  1.
        1   -1    0    0  501    0  0.00000000000E+00  0.00000000000E+00 -0.16904692116E+04  0.16904692116E+04  0.50400001928E-02 0. -1.
    10030    2    1    2    0    0  0.00000000000E+00  0.00000000000E+00 -0.43656561748E+03  0.29443728057E+04  0.29118278933E+04 0.  0.
        3    1    3    3  502    0  0.61000746167E+03 -0.98798950219E+03 -0.11064236594E+04  0.16038720909E+04  0.10100000352E+00 0. -1.
       -3    1    3    3    0  502 -0.61000746167E+03  0.98798950219E+03  0.66985804194E+03  0.13405007148E+04  0.10100000352E+00 0.  1.
</event>
<event>
 5   0  0.9994311E-07  0.2902848E+04  0.7818609E-02  0.8272031E-01
        2   -1    0    0  501    0  0.00000000000E+00  0.00000000000E+00  0.13842493030E+04  0.13842493030E+04  0.25500000920E-02 0. -1.
       -2   -1    0    0    0  501  0.00000000000E+00  0.00000000000E+00 -0.15218584895E+04  0.15218584895E+04  0.25500000920E-02 0.  1.
    10030    2    1    2    0    0  0.00000000000E+00  0.00000000000E+00 -0.13760918649E+03  0.29061077925E+04  0.29028479488E+04 0.  0.
        2    1    3    3  502    0  0.35249960037E+03  0.11462930845E+04 -0.88727253174E+03  0.14918097564E+04  0.25500000920E-02 0.  1.
       -2    1    3    3    0  502 -0.35249960037E+03 -0.11462930845E+04  0.74966334525E+03  0.14142980361E+04  0.25500000920E-02 0. -1.
</event>
<event>
 5   0  0.3786210E-07  0.2898303E+04  0.7818609E-02  0.8273382E-01
       -1   -1    0    0    0  501  0.00000000000E+00  0.00000000000E+00  0.18029435576E+04  0.18029435577E+04  0.50400001928E-02 0. -1.
        1   -1    0    0  501    0  0.00000000000E+00  0.00000000000E+00 -0.11647843518E+04  0.11647843518E+04  0.50400001928E-02 0.  1.
    10030    2    1    2    0    0  0.00000000000E+00  0.00000000000E+00  0.63815920587E+03  0.29677279094E+04  0.28983032575E+04 0.  0.
        5    1    3    3  502    0 -0.46821234519E+03 -0.15722059574E+03 -0.10759334727E+04  0.11838902160E+04  0.46999998093E+01 0.  1.
       -5    1    3    3    0  502  0.46821234519E+03  0.15722059574E+03  0.17140926785E+04  0.17838376934E+04  0.46999998093E+01 0. -1.
</event>
<event>
 5   0  0.3638028E-07  0.2903964E+04  0.7818609E-02  0.8271699E-01
       -1   -1    0    0    0  501  0.00000000000E+00  0.00000000000E+00  0.18114943920E+04  0.18114943920E+04  0.50400001928E-02 0.  1.
        1   -1    0    0  501    0  0.00000000000E+00  0.00000000000E+00 -0.11638191094E+04  0.11638191094E+04  0.50400001928E-02 0. -1.
    10030    2    1    2    0    0  0.00000000000E+00  0.00000000000E+00  0.64767528263E+03  0.29753135014E+04  0.29039640424E+04 0.  0.
        4    1    3    3  502    0 -0.76089444901E+03  0.40851246364E+03  0.15197379899E+04  0.17479839720E+04  0.12699999809E+01 0.  1.
       -4    1    3    3    0  502  0.76089444901E+03 -0.40851246364E+03 -0.87206270725E+03  0.12273295294E+04  0.12699999809E+01 0. -1.
</event>
<event>
 5   0  0.3885904E-07  0.2896464E+04  0.7818609E-02  0.8273930E-01
       -1   -1    0    0    0  501  0.00000000000E+00  0.00000000000E+00  0.86607833877E+03  0.86607833878E+03  0.50400001928E-02 0. -1.
        1   -1    0    0  501    0  0.00000000000E+00  0.00000000000E+00 -0.24216924758E+04  0.24216924758E+04  0.50400001928E-02 0.  1.
    10030    2    1    2    0    0  0.00000000000E+00  0.00000000000E+00 -0.15556141371E+04  0.32877708146E+04  0.28964636345E+04 0.  0.
        2    1    3    3  502    0 -0.57028303107E+03  0.13114473176E+02  0.73318764842E+03  0.92895578622E+03  0.25500000920E-02 0. -1.
       -2    1    3    3    0  502  0.57028303107E+03 -0.13114473176E+02 -0.22888017855E+04  0.23588150284E+04  0.25500000920E-02 0.  1.
</event>
<event>
 5   0  0.3786210E-07  0.2846894E+04  0.7818609E-02  0.8288856E-01
       -1   -1    0    0    0  501  0.00000000000E+00  0.00000000000E+00  0.97234590408E+03  0.97234590410E+03  0.50400001928E-02 0. -1.
        1   -1    0    0  501    0  0.00000000000E+00  0.00000000000E+00 -0.20838271916E+04  0.20838271916E+04  0.50400001928E-02 0.  1.
    10030    2    1    2    0    0  0.00000000000E+00  0.00000000000E+00 -0.11114812875E+04  0.30561730957E+04  0.28468936296E+04 0.  0.
        5    1    3    3  502    0 -0.11501767958E+04  0.42164790631E+03 -0.13339329297E+04  0.18111026392E+04  0.46999998093E+01 0.  1.
       -5    1    3    3    0  502  0.11501767958E+04 -0.42164790631E+03  0.22245164225E+03  0.12450704565E+04  0.46999998093E+01 0. -1.
</event>
<event>
 5   0  0.3770467E-07  0.2910538E+04  0.7818609E-02  0.8269749E-01
        1   -1    0    0  501    0  0.00000000000E+00  0.00000000000E+00  0.15202408238E+04  0.15202408238E+04  0.50400001928E-02 0.  1.
       -1   -1    0    0    0  501  0.00000000000E+00  0.00000000000E+00 -0.13930737858E+04  0.13930737858E+04  0.50400001928E-02 0. -1.
    10030    2    1    2    0    0  0.00000000000E+00  0.00000000000E+00  0.12716703803E+03  0.29133146096E+04  0.29105378470E+04 0.  0.
        1    1    3    3  502    0  0.51394553590E+03 -0.40469829132E+03  0.13647802329E+04  0.15134549234E+04  0.50400001928E-02 0.  1.
       -1    1    3    3    0  502 -0.51394553590E+03  0.40469829132E+03 -0.12376131949E+04  0.13998596862E+04  0.50400001928E-02 0. -1.
</event>
<event>
 5   0  0.9950999E-07  0.2892090E+04  0.7818609E-02  0.8275235E-01
        2   -1    0    0  501    0  0.00000000000E+00  0.00000000000E+00  0.17362072453E+04  0.17362072453E+04  0.25500000920E-02 0.  1.
       -2   -1    0    0    0  501  0.00000000000E+00  0.00000000000E+00 -0.12043760904E+04  0.12043760904E+04  0.25500000920E-02 0. -1.
    10030    2    1    2    0    0  0.00000000000E+00  0.00000000000E+00  0.53183115497E+03  0.29405833357E+04  0.28920902435E+04 0.  0.
        3    1    3    3  502    0 -0.86912746355E+03  0.10767296778E+04  0.69285761085E+03  0.15475080051E+04  0.10100000352E+00 0. -1.
       -3    1    3    3    0  502  0.86912746355E+03 -0.10767296778E+04 -0.16102645588E+03  0.13930753305E+04  0.10100000352E+00 0.  1.
</event>
<event>
 5   0  0.9950999E-07  0.2907895E+04  0.7818609E-02  0.8270532E-01
       -2   -1    0    0    0  501  0.00000000000E+00  0.00000000000E+00  0.10079967679E+04  0.10079967679E+04  0.25500000920E-02 0. -1.
        2   -1    0    0  501    0  0.00000000000E+00  0.00000000000E+00 -0.20971920573E+04  0.20971920573E+04  0.25500000920E-02 0.  1.
    10030    2    1    2    0    0  0.00000000000E+00  0.00000000000E+00 -0.10891952894E+04  0.31051888252E+04  0.29078946442E+04 0.  0.
        3    1    3    3  502    0  0.79438358690E+03 -0.29019780508E+03  0.71831136726E+03  0.11096086156E+04  0.10100000352E+00 0. -1.
       -3    1    3    3    0  502 -0.79438358690E+03  0.29019780508E+03 -0.18075066566E+04  0.19955802097E+04  0.10100000352E+00 0.  1.
</event>
<event>
 5   0  0.3786210E-07  0.2901476E+04  0.7818609E-02  0.8272438E-01
       -1   -1    0    0    0  501  0.00000000000E+00  0.00000000000E+00  0.11090446167E+04  0.11090446167E+04  0.50400001928E-02 0. -1.
        1   -1    0    0  501    0  0.00000000000E+00  0.00000000000E+00 -0.18977060113E+04  0.18977060113E+04  0.50400001928E-02 0.  1.
    10030    2    1    2    0    0  0.00000000000E+00  0.00000000000E+00 -0.78866139455E+03  0.30067506280E+04  0.29014759251E+04 0.  0.
        5    1    3    3  502    0 -0.10978050368E+04 -0.44725446233E+03 -0.12609795067E+04  0.17306946175E+04  0.46999998093E+01 0.  1.
       -5    1    3    3    0  502  0.10978050368E+04  0.44725446233E+03  0.47231811215E+03  0.12760560105E+04  0.46999998093E+01 0. -1.
</event>
<event>
 5   0  0.3769563E-07  0.2915466E+04  0.7818609E-02  0.8268291E-01
        1   -1    0    0  501    0  0.00000000000E+00  0.00000000000E+00  0.23193542801E+04  0.23193542801E+04  0.50400001928E-02 0.  1.
       -1   -1    0    0    0  501  0.00000000000E+00  0.00000000000E+00 -0.91619691324E+03  0.91619691325E+03  0.50400001928E-02 0. -1.
    10030    2    1    2    0    0  0.00000000000E+00  0.00000000000E+00  0.14031573668E+04  0.32355511933E+04  0.29154658167E+04 0.  0.
        3    1    3    3  502    0  0.12330646124E+04  0.38058352484E+03  0.14540228810E+04  0.19440871139E+04  0.10100000352E+00 0.  1.
       -3    1    3    3    0  502 -0.12330646124E+04 -0.38058352484E+03 -0.50865514182E+02  0.12914640794E+04  0.10100000352E+00 0. -1.
</event>
<event>
 5   0  0.3769563E-07  0.2898126E+04  0.7818609E-02  0.8273435E-01
       -1   -1    0    0    0  501  0.00000000000E+00  0.00000000000E+00  0.14009158704E+04  0.14009158704E+04  0.50400001928E-02 0.  1.
        1   -1    0    0  501    0  0.00000000000E+00  0.00000000000E+00 -0.14988643893E+04  0.14988643893E+04  0.50400001928E-02 0. -1.
    10030    2    1    2    0    0  0.00000000000E+00  0.00000000000E+00 -0.97948518894E+02  0.28997802596E+04  0.28981255394E+04 0.  0.
        3    1    3    3  502    0  0.11401553142E+04 -0.37822694202E+03  0.76190386918E+03  0.14225003607E+04  0.10100000352E+00 0.  1.
       -3    1    3    3    0  502 -0.11401553142E+04  0.37822694202E+03 -0.85985238807E+03  0.14772798989E+04  0.10100000352E+00 0. -1.
</event>
<event>
 5   0  0.9994311E-07  0.2901337E+04  0.7818609E-02  0.8272480E-01
       -2   -1    0    0    0  501  0.00000000000E+00  0.00000000000E+00  0.10670744407E+04  0.10670744407E+04  0.25500000920E-02 0.  1.
        2   -1    0    0  501    0  0.00000000000E+00  0.00000000000E+00 -0.19721571058E+04  0.19721571058E+04  0.25500000920E-02 0. -1.
    10030    2    1    2    0    0  0.00000000000E+00  0.00000000000E+00 -0.90508266518E+03  0.30392315465E+04  0.29013365476E+04 0.  0.
        2    1    3    3  502    0  0.48024418036E+03 -0.13227891969E+04 -0.82146268617E+03  0.16294804930E+04  0.25500000920E-02 0. -1.
       -2    1    3    3    0  502 -0.48024418036E+03  0.13227891969E+04 -0.83619979008E+02  0.14097510536E+04  0.25500000920E-02 0.  1.
</event>
<event>
 5   0  0.9994311E-07  0.2914231E+04  0.7818609E-02  0.8268656E-01
       -2   -1    0    0    0  501  0.00000000000E+00  0.00000000000E+00  0.17396322021E+04  0.17396322021E+04  0.25500000920E-02 0.  1.
        2   -1    0    0  501    0  0.00000000000E+00  0.00000000000E+00 -0.12204794965E+04  0.12204794965E+04  0.25500000920E-02 0. -1.
    10030    2    1    2    0    0  0.00000000000E+00  0.00000000000E+00  0.51915270561E+03  0.29601116987E+04  0.29142308997E+04 0.  0.
        2    1    3    3  502    0  0.22470337048E+03  0.61759307104E+03  0.15805402575E+04  0.17117302099E+04  0.25500000920E-02 0.  1.
       -2    1    3    3    0  502 -0.22470337048E+03 -0.61759307104E+03 -0.10613875519E+04  0.12483814887E+04  0.25500000920E-02 0. -1.
</event>
<event>
 5   0  0.3638028E-07  0.2893379E+04  0.7818609E-02  0.8274850E-01
        1   -1    0    0  501    0  0.00000000000E+00  0.00000000000E+00  0.14666862504E+04  0.14666862504E+04  0.50400001928E-02 0.  1.
       -1   -1    0    0    0  501  0.00000000000E+00  0.00000000000E+00 -0.14269658016E+04  0.14269658016E+04  0.50400001928E-02 0. -1.
    10030    2    1    2    0    0  0.00000000000E+00  0.00000000000E+00  0.39720448814E+02  0.28936520521E+04  0.28933794228E+04 0.  0.
        4    1    3    3  502    0  0.11313208048E+04  0.79672024458E+03 -0.40238755997E+03  0.14410299347E+04  0.12699999809E+01 0. -1.
       -4    1    3    3    0  502 -0.11313208048E+04 -0.79672024458E+03  0.44210800879E+03  0.14526221173E+04  0.12699999809E+01 0.  1.
</event>
<event>
 5   0  0.1063979E-06  0.2902293E+04  0.7818609E-02  0.8272196E-01
       -2   -1    0    0    0  501  0.00000000000E+00  0.00000000000E+00  0.14089610568E+04  0.14089610568E+04  0.25500000920E-02 0.  1.
        2   -1    0    0  501    0  0.00000000000E+00  0.00000000000E+00 -0.14945945617E+04  0.14945945617E+04  0.25500000920E-02 0. -1.
    10030    2    1    2    0    0  0.00000000000E+00  0.00000000000E+00 -0.85633504920E+02  0.29035556185E+04  0.29022925649E+04 0.  0.
        1    1    3    3  502    0 -0.10132315209E+04 -0.69686252207E+03 -0.81358700964E+03  0.14745098548E+04  0.50400001928E-02 0. -1.
       -1    1    3    3    0  502  0.10132315209E+04  0.69686252207E+03  0.72795350472E+03  0.14290457637E+04  0.50400001928E-02 0.  1.
</event>
<event>
 5   0  0.1031339E-06  0.2888922E+04  0.7818609E-02  0.8276181E-01
       -2   -1    0    0    0  501  0.00000000000E+00  0.00000000000E+00  0.12656097341E+04  0.12656097341E+04  0.25500000920E-02 0. -1.
        2   -1    0    0  501    0  0.00000000000E+00  0.00000000000E+00 -0.16485864957E+04  0.16485864957E+04  0.25500000920E-02 0.  1.
    10030    2    1    2    0    0  0.00000000000E+00  0.00000000000E+00 -0.38297676161E+03  0.29141962298E+04  0.28889216788E+04 0.  0.
        5    1    3    3  502    0 -0.13022690070E+04  0.47325040501E+03 -0.60319448063E+03  0.15112035548E+04  0.46999998093E+01 0.  1.
       -5    1    3    3    0  502  0.13022690070E+04 -0.47325040501E+03  0.22021771902E+03  0.14029926751E+04  0.46999998093E+01 0. -1.
</event>
<event>
 5   0  0.1031339E-06  0.2897912E+04  0.7818609E-02  0.8273499E-01
       -2   -1    0    0    0  501  0.00000000000E+00  0.00000000000E+00  0.78243435017E+03  0.78243435017E+03  0.25500000920E-02 0. -1.
        2   -1    0    0  501    0  0.00000000000E+00  0.00000000000E+00 -0.26832576612E+04  0.26832576612E+04  0.25500000920E-02 0.  1.
    10030    2    1    2    0    0  0.00000000000E+00  0.00000000000E+00 -0.19008233110E+04  0.34656920113E+04  0.28979116373E+04 0.  0.
        5    1    3    3  502    0  0.12381717380E+03  0.17383498084E+03  0.76352450271E+03  0.79280580809E+03  0.46999998093E+01 0. -1.
       -5    1    3    3    0  502 -0.12381717380E+03 -0.17383498084E+03 -0.26643478137E+04  0.26728862033E+04  0.46999998093E+01 0.  1.
</event>
<event>
 5   0  0.9994311E-07  0.2889902E+04  0.7818609E-02  0.8275888E-01
       -2   -1    0    0    0  501  0.00000000000E+00  0.00000000000E+00  0.11855392095E+04  0.11855392095E+04  0.25500000920E-02 0.  1.
        2   -1    0    0  501    0  0.00000000000E+00  0.00000000000E+00 -0.17611256669E+04  0.17611256669E+04  0.25500000920E-02 0. -1.
    10030    2    1    2    0    0  0.00000000000E+00  0.00000000000E+00 -0.57558645743E+03  0.29466648765E+04  0.28899020960E+04 0.  0.
        2    1    3    3  502    0 -0.78067808404E+03  0.11800474501E+04 -0.58666008496E+03  0.15317115625E+04  0.25500000920E-02 0.  1.
       -2    1    3    3    0  502  0.78067808404E+03 -0.11800474501E+04  0.11073627536E+02  0.14149533139E+04  0.25500000920E-02 0. -1.
</event>
<event>
 5   0  0.3786210E-07  0.2831423E+04  0.7818609E-02  0.8293579E-01
        1   -1    0    0  501    0  0.00000000000E+00  0.00000000000E+00  0.94968829505E+03  0.94968829506E+03  0.50400001928E-02 0. -1.
       -1   -1    0    0    0  501  0.00000000000E+00  0.00000000000E+00 -0.21104170644E+04  0.21104170644E+04  0.50400001928E-02 0.  1.
    10030    2    1    2    0    0  0.00000000000E+00  0.00000000000E+00 -0.11607287694E+04  0.30601053595E+04  0.28314225285E+04 0.  0.
        5    1    3    3  502    0 -0.67978542204E+03 -0.27795100367E+02  0.76141244398E+03  0.10211032208E+04  0.46999998093E+01 0. -1.
       -5    1    3    3    0  502  0.67978542204E+03  0.27795100367E+02 -0.19221412134E+04  0.20390021387E+04  0.46999998093E+01 0.  1.
</event>
<event>
 5   0  0.9950999E-07  0.2904640E+04  0.7818609E-02  0.8271498E-01
        2   -1    0    0  501    0  0.00000000000E+00  0.00000000000E+00  0.20255554660E+04  0.20255554660E+04  0.25500000920E-02 0. -1.
       -2   -1    0    0    0  501  0.00000000000E+00  0.00000000000E+00 -0.10413111167E+04  0.10413111167E+04  0.25500000920E-02 0.  1.
    10030    2    1    2    0    0  0.00000000000E+00  0.00000000000E+00  0.98424434933E+03  0.30668665827E+04  0.29046400288E+04 0.  0.
        3    1    3    3  502    0 -0.31493242735E+03  0.10395338049E+04 -0.52578617547E+03  0.12067576715E+04  0.10100000352E+00 0.  1.
       -3    1    3    3    0  502  0.31493242735E+03 -0.10395338049E+04  0.15100305248E+04  0.18601089111E+04  0.10100000352E+00 0. -1.
</event>
<event>
 5   0  0.3769563E-07  0.2902782E+04  0.7818609E-02  0.8272050E-01
       -1   -1    0    0    0  501  0.00000000000E+00  0.00000000000E+00  0.75506078408E+03  0.75506078409E+03  0.50400001928E-02 0.  1.
        1   -1    0    0  501    0  0.00000000000E+00  0.00000000000E+00 -0.27898882454E+04  0.27898882454E+04  0.50400001928E-02 0. -1.
    10030    2    1    2    0    0  0.00000000000E+00  0.00000000000E+00 -0.20348274614E+04  0.35449490295E+04  0.29027815668E+04 0.  0.
        3    1    3    3  502    0  0.17338081619E+03 -0.43468411679E+03  0.66039280033E+03  0.80940092028E+03  0.10100000352E+00 0.  1.
       -3    1    3    3    0  502 -0.17338081619E+03  0.43468411679E+03 -0.26952202617E+04  0.27355481093E+04  0.10100000352E+00 0. -1.
</event>
<event>
 5   0  0.1006893E-06  0.2895417E+04  0.7818609E-02  0.8274242E-01
        2   -1    0    0  501    0  0.00000000000E+00  0.00000000000E+00  0.22194443380E+04  0.22194443380E+04  0.25500000920E-02 0. -1.
       -2   -1    0    0    0  501  0.00000000000E+00  0.00000000000E+00 -0.94431712082E+03  0.94431712082E+03  0.25500000920E-02 0.  1.
    10030    2    1    2    0    0  0.00000000000E+00  0.00000000000E+00  0.12751272171E+04  0.31637614588E+04  0.28954165759E+04 0.  0.
        4    1    3    3  502    0 -0.93994341164E+02 -0.65763203459E+03  0.20430663069E+04  0.21483566688E+04  0.12699999809E+01 0. -1.
       -4    1    3    3    0  502  0.93994341164E+02  0.65763203459E+03 -0.76793908974E+03  0.10154047900E+04  0.12699999809E+01 0.  1.
</event>
<event>
 5   0  0.3885904E-07  0.2882800E+04  0.7818609E-02  0.8278013E-01
        1   -1    0    0  501    0  0.00000000000E+00  0.00000000000E+00  0.14242468756E+04  0.14242468756E+04  0.50400001928E-02 0. -1.
       -1   -1    0    0    0  501  0.00000000000E+00  0.00000000000E+00 -0.14587599304E+04  0.14587599304E+04  0.50400001928E-02 0.  1.
    10030    2    1    2    0    0  0.00000000000E+00  0.00000000000E+00 -0.34513054838E+02  0.28830068060E+04  0.28828002172E+04 0.  0.
        2    1    3    3  502    0 -0.53134856115E+02  0.52843152494E+03  0.13228287099E+04  0.14254609729E+04  0.25500000920E-02 0. -1.
       -2    1    3    3    0  502  0.53134856115E+02 -0.52843152494E+03 -0.13573417647E+04  0.14575458331E+04  0.25500000920E-02 0.  1.
</event>
<event>
 5   0  0.3770467E-07  0.2899352E+04  0.7818609E-02  0.8273070E-01
        1   -1    0    0  501    0  0.00000000000E+00  0.00000000000E+00  0.17936019947E+04  0.17936019947E+04  0.50400001928E-02 0.  1.
       -1   -1    0    0    0  501  0.00000000000E+00  0.00000000000E+00 -0.11716979829E+04  0.11716979829E+04  0.50400001928E-02 0. -1.
    10030    2    1    2    0    0  0.00000000000E+00  0.00000000000E+00  0.62190401178E+03  0.29652999777E+04  0.28993515409E+04 0.  0.
        1    1    3    3  502    0 -0.60804971122E+03 -0.81813172427E+03 -0.74326831579E+03  0.12615513303E+04  0.50400001928E-02 0. -1.
       -1    1    3    3    0  502  0.60804971122E+03  0.81813172427E+03  0.13651723276E+04  0.17037486474E+04  0.50400001928E-02 0.  1.
</event>
<event>
 5   0  0.1031339E-06  0.2895713E+04  0.7818609E-02  0.8274154E-01
       -2   -1    0    0    0  501  0.00000000000E+00  0.00000000000E+00  0.15114338310E+04  0.15114338310E+04  0.25500000920E-02 0.  1.
        2   -1    0    0  501    0  0.00000000000E+00  0.00000000000E+00 -0.13869536180E+04  0.13869536180E+04  0.25500000920E-02 0. -1.
    10030    2    1    2    0    0  0.00000000000E+00  0.00000000000E+00  0.12448021300E+03  0.28983874489E+04  0.28957131212E+04 0.  0.
        5    1    3    3  502    0  0.28564316986E+03 -0.13218108655E+04 -0.45543242886E+03  0.14269606764E+04  0.46999998093E+01 0. -1.
       -5    1    3    3    0  502 -0.28564316986E+03  0.13218108655E+04  0.57991264186E+03  0.14714267725E+04  0.46999998093E+01 0.  1.
</event>
<event>
 5   0  0.3786210E-07  0.2899078E+04  0.7818609E-02  0.8273152E-01
        1   -1    0    0  501    0  0.00000000000E+00  0.00000000000E+00  0.14795753618E+04  0.14795753618E+04  0.50400001928E-02 0.  1.
       -1   -1    0    0    0  501  0.00000000000E+00  0.00000000000E+00 -0.14201121255E+04  0.14201121255E+04  0.50400001928E-02 0. -1.
    10030    2    1    2    0    0  0.00000000000E+00  0.00000000000E+00  0.59463236332E+02  0.28996874873E+04  0.28990777236E+04 0.  0.
        5    1    3    3  502    0 -0.56386303731E+03  0.19923798218E+03 -0.12909640408E+04  0.14227605361E+04  0.46999998093E+01 0. -1.
       -5    1    3    3    0  502  0.56386303731E+03 -0.19923798218E+03  0.13504272771E+04  0.14769269512E+04  0.46999998093E+01 0.  1.
</event>
<event>
 5   0  0.9950999E-07  0.2891919E+04  0.7818609E-02  0.8275286E-01
        2   -1    0    0  501    0  0.00000000000E+00  0.00000000000E+00  0.20482953382E+04  0.20482953382E+04  0.25500000920E-02 0. -1.
       -2   -1    0    0    0  501  0.00000000000E+00  0.00000000000E+00 -0.10207503395E+04  0.10207503395E+04  0.25500000920E-02 0.  1.
    10030    2    1    2    0    0  0.00000000000E+00  0.00000000000E+00  0.10275449986E+04  0.30690456777E+04  0.28919185064E+04 0.  0.
        3    1    3    3  502    0  0.64954138035E+03  0.85668827137E+03 -0.51239513312E+03  0.11909523843E+04  0.10100000352E+00 0.  1.
       -3    1    3    3    0  502 -0.64954138035E+03 -0.85668827137E+03  0.15399401318E+04  0.18780932934E+04  0.10100000352E+00 0. -1.
</event>
<event>
 5   0  0.1063979E-06  0.2906119E+04  0.7818609E-02  0.8271059E-01
       -2   -1    0    0    0  501  0.00000000000E+00  0.00000000000E+00  0.18334630791E+04  0.18334630791E+04  0.25500000920E-02 0. -1.
        2   -1    0    0  501    0  0.00000000000E+00  0.00000000000E+00 -0.11515814204E+04  0.11515814204E+04  0.25500000920E-02 0.  1.
    10030    2    1    2    0    0  0.00000000000E+00  0.00000000000E+00  0.68188165867E+03  0.29850444995E+04  0.29061190731E+04 0.  0.
        1    1    3    3  502    0 -0.13662191841E+04  0.48649165255E+03  0.43368719963E+03  0.15137085499E+04  0.50400001928E-02 0.  1.
       -1    1    3    3    0  502  0.13662191841E+04 -0.48649165255E+03  0.24819445904E+03  0.14713359495E+04  0.50400001928E-02 0. -1.
</event>
<event>
 5   0  0.3885904E-07  0.2900858E+04  0.7818609E-02  0.8272622E-01
       -1   -1    0    0    0  501  0.00000000000E+00  0.00000000000E+00  0.11389600884E+04  0.11389600884E+04  0.50400001928E-02 0.  1.
        1   -1    0    0  501    0  0.00000000000E+00  0.00000000000E+00 -0.18470748178E+04  0.18470748178E+04  0.50400001928E-02 0. -1.
    10030    2    1    2    0    0  0.00000000000E+00  0.00000000000E+00 -0.70811472941E+03  0.29860349062E+04  0.29008581473E+04 0.  0.
        2    1    3    3  502    0 -0.49466650503E+03 -0.83449675803E+02 -0.17549308878E+04  0.18252236084E+04  0.25500000920E-02 0. -1.
       -2    1    3    3    0  502  0.49466650503E+03  0.83449675803E+02  0.10468161584E+04  0.11608112978E+04  0.25500000920E-02 0.  1.
</event>
<event>
 5   0  0.3885904E-07  0.2895732E+04  0.7818609E-02  0.8274149E-01
       -1   -1    0    0    0  501  0.00000000000E+00  0.00000000000E+00  0.15079439590E+04  0.15079439590E+04  0.50400001928E-02 0. -1.
        1   -1    0    0  501    0  0.00000000000E+00  0.00000000000E+00 -0.13901811878E+04  0.13901811878E+04  0.50400001928E-02 0.  1.
    10030    2    1    2    0    0  0.00000000000E+00  0.00000000000E+00  0.11776277123E+03  0.28981251468E+04  0.28957315650E+04 0.  0.
        2    1    3    3  502    0 -0.36462776877E+03 -0.13346048925E+04 -0.36831062661E+03  0.14317040010E+04  0.25500000920E-02 0.  1.
       -2    1    3    3    0  502  0.36462776877E+03  0.13346048925E+04  0.48607339784E+03  0.14664211458E+04  0.25500000920E-02 0. -1.
</event>
<event>
 5   0  0.9950999E-07  0.2892701E+04  0.7818609E-02  0.8275053E-01
        2   -1    0    0  501    0  0.00000000000E+00  0.00000000000E+00  0.20001029591E+04  0.20001029591E+04  0.25500000920E-02 0.  1.
       -2   -1    0    0    0  501  0.00000000000E+00  0.00000000000E+00 -0.10459107255E+04  0.10459107255E+04  0.25500000920E-02 0. -1.
    10030    2    1    2    0    0  0.00000000000E+00  0.00000000000E+00  0.95419223362E+03  0.30460136846E+04  0.28927005631E+04 0.  0.
        3    1    3    3  502    0 -0.80460598999E+03  0.11760078456E+04  0.73832475569E+03  0.16048391531E+04  0.10100000352E+00 0. -1.
       -3    1    3    3    0  502  0.80460598999E+03 -0.11760078456E+04  0.21586747792E+03  0.14411745315E+04  0.10100000352E+00 0.  1.
</event>
<event>
 5   0  0.9950999E-07  0.2902045E+04  0.7818609E-02  0.8272269E-01
        2   -1    0    0  501    0  0.00000000000E+00  0.00000000000E+00  0.16037881929E+04  0.16037881929E+04  0.25500000920E-02 0. -1.
       -2   -1    0    0    0  501  0.00000000000E+00  0.00000000000E+00 -0.13128082512E+04  0.13128082512E+04  0.25500000920E-02 0.  1.
    10030    2    1    2    0    0  0.00000000000E+00  0.00000000000E+00  0.29097994174E+03  0.29165964441E+04  0.29020450533E+04 0.  0.
        3    1    3    3  502    0  0.58089879656E+03 -0.11697573688E+04  0.78087091461E+03  0.15216882431E+04  0.10100000352E+00 0. -1.
       -3    1    3    3    0  502 -0.58089879656E+03  0.11697573688E+04 -0.48989097286E+03  0.13949082010E+04  0.10100000352E+00 0.  1.
</event>
<event>
 5   0  0.3638028E-07  0.2899159E+04  0.7818609E-02  0.8273128E-01
        1   -1    0    0  501    0  0.00000000000E+00  0.00000000000E+00  0.16976746297E+04  0.16976746297E+04  0.50400001928E-02 0.  1.
       -1   -1    0    0    0  501  0.00000000000E+00  0.00000000000E+00 -0.12377403862E+04  0.12377403863E+04  0.50400001928E-02 0. -1.
    10030    2    1    2    0    0  0.00000000000E+00  0.00000000000E+00  0.45993424349E+03  0.29354150160E+04  0.28991588104E+04 0.  0.
        4    1    3    3  502    0 -0.22338670965E+03 -0.34311935034E+03  0.16379132151E+04  0.16883109381E+04  0.12699999809E+01 0.  1.
       -4    1    3    3    0  502  0.22338670965E+03  0.34311935034E+03 -0.11779789716E+04  0.12471040779E+04  0.12699999809E+01 0. -1.
</event>
<event>
 5   0  0.3638028E-07  0.2900669E+04  0.7818609E-02  0.8272678E-01
       -1   -1    0    0    0  501  0.00000000000E+00  0.00000000000E+00  0.29482078851E+04  0.29482078851E+04  0.50400001928E-02 0.  1.
        1   -1    0    0  501    0  0.00000000000E+00  0.00000000000E+00 -0.71347429407E+03  0.71347429409E+03  0.50400001928E-02 0. -1.
    10030    2    1    2    0    0  0.00000000000E+00  0.00000000000E+00  0.22347335910E+04  0.36616821792E+04  0.29006692605E+04 0.  0.
        4    1    3    3  502    0 -0.13363622565E+04 -0.25243962186E+03  0.48131000313E+03  0.14426540733E+04  0.12699999809E+01 0. -1.
       -4    1    3    3    0  502  0.13363622565E+04  0.25243962186E+03  0.17534235879E+04  0.22190281059E+04  0.12699999809E+01 0.  1.
</event>
<event>
 5   0  0.3770467E-07  0.2900648E+04  0.7818609E-02  0.8272685E-01
       -1   -1    0    0    0  501  0.00000000000E+00  0.00000000000E+00  0.10995598791E+04  0.10995598791E+04  0.50400001928E-02 0.  1.
        1   -1    0    0  501    0  0.00000000000E+00  0.00000000000E+00 -0.19129833339E+04  0.19129833339E+04  0.50400001928E-02 0. -1.
    10030    2    1    2    0    0  0.00000000000E+00  0.00000000000E+00 -0.81342345477E+03  0.30125432130E+04  0.29006480127E+04 0.  0.
        1    1    3    3  502    0  0.94927578810E+03 -0.81530866012E+03  0.35477551025E+03  0.13006607536E+04  0.50400001928E-02 0.  1.
       -1    1    3    3    0  502 -0.94927578810E+03  0.81530866012E+03 -0.11681989650E+04  0.17118824595E+04  0.50400001928E-02 0. -1.
</event>
<event>
 5   0  0.3770467E-07  0.2896965E+04  0.7818609E-02  0.8273781E-01
       -1   -1    0    0    0  501  0.00000000000E+00  0.00000000000E+00  0.17506270776E+04  0.17506270776E+04  0.50400001928E-02 0.  1.
        1   -1    0    0  501    0  0.00000000000E+00  0.00000000000E+00 -0.11984856377E+04  0.11984856377E+04  0.50400001928E-02 0. -1.
    10030    2    1    2    0    0  0.00000000000E+00  0.00000000000E+00  0.55214143984E+03  0.29491127153E+04  0.28969649011E+04 0.  0.
        1    1    3    3  502    0 -0.36415109703E+03 -0.11533160616E+04  0.10875121943E+04  0.16264767850E+04  0.50400001928E-02 0.  1.
       -1    1    3    3    0  502  0.36415109703E+03  0.11533160616E+04 -0.53537075447E+03  0.13226359303E+04  0.50400001928E-02 0. -1.
</event>
<event>
 5   0  0.3885904E-07  0.2898579E+04  0.7818609E-02  0.8273300E-01
       -1   -1    0    0    0  501  0.00000000000E+00  0.00000000000E+00  0.12450231131E+04  0.12450231131E+04  0.50400001928E-02 0.  1.
        1   -1    0    0  501    0  0.00000000000E+00  0.00000000000E+00 -0.16870694849E+04  0.16870694849E+04  0.50400001928E-02 0. -1.
    10030    2    1    2    0    0  0.00000000000E+00  0.00000000000E+00 -0.44204637182E+03  0.29320925980E+04  0.28985793086E+04 0.  0.
        2    1    3    3  502    0  0.24154326180E+03 -0.10384138233E+04  0.77205769883E+03  0.13163280390E+04  0.25500000920E-02 0.  1.
       -2    1    3    3    0  502 -0.24154326180E+03  0.10384138233E+04 -0.12141040707E+04  0.16157645590E+04  0.25500000920E-02 0. -1.
</event>
<event>
 5   0  0.3786210E-07  0.2895711E+04  0.7818609E-02  0.8274155E-01
       -1   -1    0    0    0  501  0.00000000000E+00  0.00000000000E+00  0.10290717907E+04  0.10290717907E+04  0.50400001928E-02 0. -1.
        1   -1    0    0  501    0  0.00000000000E+00  0.00000000000E+00 -0.20370646033E+04  0.20370646033E+04  0.50400001928E-02 0.  1.
    10030    2    1    2    0    0  0.00000000000E+00  0.00000000000E+00 -0.10079928126E+04  0.30661363940E+04  0.28957111176E+04 0.  0.
        5    1    3    3  502    0  0.98621682282E+03  0.10709918934E+03 -0.16206585159E+04  0.19001710378E+04  0.46999998093E+01 0.  1.
       -5    1    3    3    0  502 -0.98621682282E+03 -0.10709918934E+03  0.61266570325E+03  0.11659653562E+04  0.46999998093E+01 0. -1.
</event>
<event>
 5   0  0.3885904E-07  0.2898051E+04  0.7818609E-02  0.8273458E-01
        1   -1    0    0  501    0  0.00000000000E+00  0.00000000000E+00  0.99821292879E+03  0.99821292880E+03  0.50400001928E-02 0.  1.
       -1   -1    0    0    0  501  0.00000000000E+00  0.00000000000E+00 -0.21034337869E+04  0.21034337869E+04  0.50400001928E-02 0. -1.
    10030    2    1    2    0    0  0.00000000000E+00  0.00000000000E+00 -0.11052208581E+04  0.31016467157E+04  0.28980509319E+04 0.  0.
        2    1    3    3  502    0 -0.77938271199E+03  0.69139289617E+03  0.52522127976E+03  0.11667557334E+04  0.25500000920E-02 0.  1.
       -2    1    3    3    0  502  0.77938271199E+03 -0.69139289617E+03 -0.16304421379E+04  0.19348909824E+04  0.25500000920E-02 0. -1.
</event>
<event>
 5   0  0.1063979E-06  0.2902421E+04  0.7818609E-02  0.8272158E-01
        2   -1    0    0  501    0  0.00000000000E+00  0.00000000000E+00  0.13374371231E+04  0.13374371231E+04  0.25500000920E-02 0.  1.
       -2   -1    0    0    0  501  0.00000000000E+00  0.00000000000E+00 -0.15746621280E+04  0.15746621280E+04  0.25500000920E-02 0. -1.
    10030    2    1    2    0    0  0.00000000000E+00  0.00000000000E+00 -0.23722500490E+03  0.29120992511E+04  0.29024207733E+04 0.  0.
        1    1    3    3  502    0 -0.23151376470E+03 -0.51253661470E+02  0.13178690824E+04  0.13390311720E+04  0.50400001928E-02 0.  1.
       -1    1    3    3    0  502  0.23151376470E+03  0.51253661470E+02 -0.15550940874E+04  0.15730680791E+04  0.50400001928E-02 0. -1.
</event>
<event>
 5   0  0.1063979E-06  0.2892000E+04  0.7818609E-02  0.8275262E-01
       -2   -1    0    0    0  501  0.00000000000E+00  0.00000000000E+00  0.13156515679E+04  0.13156515679E+04  0.25500000920E-02 0. -1.
        2   -1    0    0  501    0  0.00000000000E+00  0.00000000000E+00 -0.15892627539E+04  0.15892627539E+04  0.25500000920E-02 0.  1.
    10030    2    1    2    0    0  0.00000000000E+00  0.00000000000E+00 -0.27361118604E+03  0.29049143219E+04  0.28920000235E+04 0.  0.
        1    1    3    3  502    0  0.32395234056E+03 -0.13943300898E+04 -0.34220470978E+03  0.14718035133E+04  0.50400001928E-02 0. -1.
       -1    1    3    3    0  502 -0.32395234056E+03  0.13943300898E+04  0.68593523735E+02  0.14331108086E+04  0.50400001928E-02 0.  1.
</event>
<event>
 5   0  0.9994311E-07  0.2859062E+04  0.7818609E-02  0.8285163E-01
       -2   -1    0    0    0  501  0.00000000000E+00  0.00000000000E+00  0.13944172558E+04  0.13944172558E+04  0.25500000920E-02 0. -1.
        2   -1    0    0  501    0  0.00000000000E+00  0.00000000000E+00 -0.14655285205E+04  0.14655285205E+04  0.25500000920E-02 0.  1.
    10030    2    1    2    0    0  0.00000000000E+00  0.00000000000E+00 -0.71111264721E+02  0.28599457764E+04  0.28590615649E+04 0.  0.
        2    1    3    3  502    0  0.93524901144E+03  0.10805553549E+04  0.59726963336E-01  0.14290873283E+04  0.25500000920E-02 0.  1.
       -2    1    3    3    0  502 -0.93524901144E+03 -0.10805553549E+04 -0.71170991684E+02  0.14308584481E+04  0.25500000920E-02 0. -1.
</event>
<event>
 5   0  0.3638028E-07  0.2916055E+04  0.7818609E-02  0.8268116E-01
        1   -1    0    0  501    0  0.00000000000E+00  0.00000000000E+00  0.14316690552E+04  0.14316690552E+04  0.50400001928E-02 0. -1.
       -1   -1    0    0    0  501  0.00000000000E+00  0.00000000000E+00 -0.14848716715E+04  0.14848716715E+04  0.50400001928E-02 0.  1.
    10030    2    1    2    0    0  0.00000000000E+00  0.00000000000E+00 -0.53202616267E+02  0.29165407268E+04  0.29160554337E+04 0.  0.
        4    1    3    3  502    0  0.51410657969E+03  0.30778553000E+03  0.13028323377E+04  0.14340192540E+04  0.12699999809E+01 0. -1.
       -4    1    3    3    0  502 -0.51410657969E+03 -0.30778553000E+03 -0.13560349540E+04  0.14825214727E+04  0.12699999809E+01 0.  1.
</event>
<event>
 5   0  0.3638028E-07  0.2881082E+04  0.7818609E-02  0.8278528E-01
       -1   -1    0    0    0  501  0.00000000000E+00  0.00000000000E+00  0.76844540329E+03  0.76844540331E+03  0.50400001928E-02 0. -1.
        1   -1    0    0  501    0  0.00000000000E+00  0.00000000000E+00 -0.27004636576E+04  0.27004636576E+04  0.50400001928E-02 0.  1.
    10030    2    1    2    0    0  0.00000000000E+00  0.00000000000E+00 -0.19320182543E+04  0.34689090609E+04  0.28810823553E+04 0.  0.
        4    1    3    3  502    0 -0.74215494722E+03 -0.66282148589E+03  0.28816637090E+03  0.10359381053E+04  0.12699999809E+01 0. -1.
       -4    1    3    3    0  502  0.74215494722E+03  0.66282148589E+03 -0.22201846252E+04  0.24329709556E+04  0.12699999809E+01 0.  1.
</event>
<event>
 5   0  0.3770467E-07  0.2907909E+04  0.7818609E-02  0.8270528E-01
       -1   -1    0    0    0  501  0.00000000000E+00  0.00000000000E+00  0.12393345130E+04  0.12393345130E+04  0.50400001928E-02 0.  1.
        1   -1    0    0  501    0  0.00000000000E+00  0.00000000000E+00 -0.17057415289E+04  0.17057415289E+04  0.50400001928E-02 0. -1.
    10030    2    1    2    0    0  0.00000000000E+00  0.00000000000E+00 -0.46640701591E+03  0.29450760419E+04  0.29079094532E+04 0.  0.
        1    1    3    3  502    0 -0.10071734604E+04  0.39191317264E+03  0.75184794010E+03  0.13165369874E+04  0.50400001928E-02 0.  1.
       -1    1    3    3    0  502  0.10071734604E+04 -0.39191317264E+03 -0.12182549560E+04  0.16285390545E+04  0.50400001928E-02 0. -1.
</event>
<event>
 5   0  0.3885904E-07  0.2900149E+04  0.7818609E-02  0.8272833E-01
       -1   -1    0    0    0  501  0.00000000000E+00  0.00000000000E+00  0.12144717634E+04  0.12144717634E+04  0.50400001928E-02 0.  1.
        1   -1    0    0  501    0  0.00000000000E+00  0.00000000000E+00 -0.17313838010E+04  0.17313838010E+04  0.50400001928E-02 0. -1.
    10030    2    1    2    0    0  0.00000000000E+00  0.00000000000E+00 -0.51691203757E+03  0.29458555644E+04  0.29001494706E+04 0.  0.
        2    1    3    3  502    0 -0.16984486868E+03  0.11655383406E+04  0.60068103563E+03  0.13221741978E+04  0.25500000920E-02 0.  1.
       -2    1    3    3    0  502  0.16984486868E+03 -0.11655383406E+04 -0.11175930732E+04  0.16236813666E+04  0.25500000920E-02 0. -1.
</event>
<event>
 5   0  0.3885904E-07  0.2903108E+04  0.7818609E-02  0.8271953E-01
        1   -1    0    0  501    0  0.00000000000E+00  0.00000000000E+00  0.16891933033E+04  0.16891933033E+04  0.50400001928E-02 0.  1.
       -1   -1    0    0    0  501  0.00000000000E+00  0.00000000000E+00 -0.12473464023E+04  0.12473464023E+04  0.50400001928E-02 0. -1.
    10030    2    1    2    0    0  0.00000000000E+00  0.00000000000E+00  0.44184690098E+03  0.29365397056E+04  0.29031081204E+04 0.  0.
        2    1    3    3  502    0  0.87000312603E+03  0.11702026061E+03  0.13902680834E+04  0.16442154738E+04  0.25500000920E-02 0.  1.
       -2    1    3    3    0  502 -0.87000312603E+03 -0.11702026061E+03 -0.94842118243E+03  0.12923242318E+04  0.25500000920E-02 0. -1.
</event>
<event>
 5   0  0.9950999E-07  0.2900515E+04  0.7818609E-02  0.8272724E-01
        2   -1    0    0  501    0  0.00000000000E+00  0.00000000000E+00  0.17936589738E+04  0.17936589738E+04  0.25500000920E-02 0.  1.
       -2   -1    0    0    0  501  0.00000000000E+00  0.00000000000E+00 -0.11726015557E+04  0.11726015557E+04  0.25500000920E-02 0. -1.
    10030    2    1    2    0    0  0.00000000000E+00  0.00000000000E+00  0.62105741814E+03  0.29662605295E+04  0.29005153356E+04 0.  0.
        3    1    3    3  502    0  0.11574417325E+04 -0.58659336948E+03  0.97288536297E+03  0.16218104344E+04  0.10100000352E+00 0.  1.
       -3    1    3    3    0  502 -0.11574417325E+04  0.58659336948E+03 -0.35182794483E+03  0.13444500951E+04  0.10100000352E+00 0. -1.
</event>
<event>
 5   0  0.1063979E-06  0.2899967E+04  0.7818609E-02  0.8272887E-01
        2   -1    0    0  501    0  0.00000000000E+00  0.00000000000E+00  0.22407629080E+04  0.22407629080E+04  0.25500000920E-02 0.  1.
       -2   -1    0    0    0  501  0.00000000000E+00  0.00000000000E+00 -0.93827539362E+03  0.93827539362E+03  0.25500000920E-02 0. -1.
    10030    2    1    2    0    0  0.00000000000E+00  0.00000000000E+00  0.13024875144E+04  0.31790383016E+04  0.28999673788E+04 0.  0.
        1    1    3    3  502    0 -0.23856279366E+03 -0.70833479858E+03 -0.71082330372E+03  0.10314650564E+04  0.50400001928E-02 0. -1.
       -1    1    3    3    0  502  0.23856279366E+03  0.70833479858E+03  0.20133108181E+04  0.21475732453E+04  0.50400001928E-02 0.  1.
</event>
<event>
 5   0  0.9950999E-07  0.2899824E+04  0.7818609E-02  0.8272930E-01
        2   -1    0    0  501    0  0.00000000000E+00  0.00000000000E+00  0.11282649998E+04  0.11282649998E+04  0.25500000920E-02 0.  1.
       -2   -1    0    0    0  501  0.00000000000E+00  0.00000000000E+00 -0.18632541923E+04  0.18632541923E+04  0.25500000920E-02 0. -1.
    10030    2    1    2    0    0  0.00000000000E+00  0.00000000000E+00 -0.73498919245E+03  0.29915191921E+04  0.28998237815E+04 0.  0.
        3    1    3    3  502    0  0.11376729650E+03 -0.61654055536E+03  0.98120115415E+03  0.11643972558E+04  0.10100000352E+00 0.  1.
       -3    1    3    3    0  502 -0.11376729650E+03  0.61654055536E+03 -0.17161903466E+04  0.18271219363E+04  0.10100000352E+00 0. -1.
</event>
<event>
 5   0  0.3770467E-07  0.2900990E+04  0.7818609E-02  0.8272583E-01
       -1   -1    0    0    0  501  0.00000000000E+00  0.00000000000E+00  0.16045422544E+04  0.16045422544E+04  0.50400001928E-02 0. -1.
        1   -1    0    0  501    0  0.00000000000E+00  0.00000000000E+00 -0.13112377986E+04  0.13112377986E+04  0.50400001928E-02 0.  1.
    10030    2    1    2    0    0  0.00000000000E+00  0.00000000000E+00  0.29330445587E+03  0.29157800530E+04  0.29009904884E+04 0.  0.
        1    1    3    3  502    0  0.10568805146E+04 -0.96442985878E+03  0.38622654701E+03  0.14819893118E+04  0.50400001928E-02 0. -1.
       -1    1    3    3    0  502 -0.10568805146E+04  0.96442985878E+03 -0.92922091144E+02  0.14337907412E+04  0.50400001928E-02 0.  1.
</event>
<event>
 5   0  0.9994311E-07  0.2889995E+04  0.7818609E-02  0.8275860E-01
       -2   -1    0    0    0  501  0.00000000000E+00  0.00000000000E+00  0.15187407165E+04  0.15187407165E+04  0.25500000920E-02 0.  1.
        2   -1    0    0  501    0  0.00000000000E+00  0.00000000000E+00 -0.13748350633E+04  0.13748350633E+04  0.25500000920E-02 0. -1.
    10030    2    1    2    0    0  0.00000000000E+00  0.00000000000E+00  0.14390565322E+03  0.28935757799E+04  0.28899951482E+04 0.  0.
        2    1    3    3  502    0 -0.45872390036E+03  0.80452858164E+03 -0.10386212159E+04  0.13915559226E+04  0.25500000920E-02 0. -1.
       -2    1    3    3    0  502  0.45872390036E+03 -0.80452858164E+03  0.11825268691E+04  0.15020198573E+04  0.25500000920E-02 0.  1.
</event>
<event>
 5   0  0.9994311E-07  0.2895242E+04  0.7818609E-02  0.8274294E-01
       -2   -1    0    0    0  501  0.00000000000E+00  0.00000000000E+00  0.23748424994E+04  0.23748424994E+04  0.25500000920E-02 0.  1.
        2   -1    0    0  501    0  0.00000000000E+00  0.00000000000E+00 -0.88241929464E+03  0.88241929465E+03  0.25500000920E-02 0. -1.
    10030    2    1    2    0    0  0.00000000000E+00  0.00000000000E+00  0.14924232047E+04  0.32572617940E+04  0.28952421959E+04 0.  0.
        2    1    3    3  502    0 -0.38325970755E+03 -0.44349879304E+03 -0.74293770832E+03  0.94632743873E+03  0.25500000920E-02 0. -1.
       -2    1    3    3    0  502  0.38325970755E+03  0.44349879304E+03  0.22353609130E+04  0.23109343553E+04  0.25500000920E-02 0.  1.
</event>
<event>
 5   0  0.3770467E-07  0.2900969E+04  0.7818609E-02  0.8272589E-01
        1   -1    0    0  501    0  0.00000000000E+00  0.00000000000E+00  0.20743495515E+04  0.20743495515E+04  0.50400001928E-02 0.  1.
       -1   -1    0    0    0  501  0.00000000000E+00  0.00000000000E+00 -0.10142478985E+04  0.10142478985E+04  0.50400001928E-02 0. -1.
    10030    2    1    2    0    0  0.00000000000E+00  0.00000000000E+00  0.10601016530E+04  0.30885974500E+04  0.29009685785E+04 0.  0.
        1    1    3    3  502    0 -0.92017035655E+02  0.34088981013E+03 -0.96779322890E+03  0.10301925701E+04  0.50400001928E-02 0. -1.
       -1    1    3    3    0  502  0.92017035655E+02 -0.34088981013E+03  0.20278948819E+04  0.20584048799E+04  0.50400001928E-02 0.  1.
</event>
<event>
 5   0  0.3638028E-07  0.2898517E+04  0.7818609E-02  0.8273319E-01
       -1   -1    0    0    0  501  0.00000000000E+00  0.00000000000E+00  0.10269126670E+04  0.10269126670E+04  0.50400001928E-02 0.  1.
        1   -1    0    0  501    0  0.00000000000E+00  0.00000000000E+00 -0.20453048800E+04  0.20453048800E+04  0.50400001928E-02 0. -1.
    10030    2    1    2    0    0  0.00000000000E+00  0.00000000000E+00 -0.10183922130E+04  0.30722175470E+04  0.28985165096E+04 0.  0.
        4    1    3    3  502    0  0.10854672095E+03  0.28688279661E+03  0.99211327906E+03  0.10384481215E+04  0.12699999809E+01 0.  1.
       -4    1    3    3    0  502 -0.10854672095E+03 -0.28688279661E+03 -0.20105054921E+04  0.20337694255E+04  0.12699999809E+01 0. -1.
</event>
<event>
 5   0  0.3786210E-07  0.2905089E+04  0.7818609E-02  0.8271365E-01
        1   -1    0    0  501    0  0.00000000000E+00  0.00000000000E+00  0.22831320346E+04  0.22831320346E+04  0.50400001928E-02 0. -1.
       -1   -1    0    0    0  501  0.00000000000E+00  0.00000000000E+00 -0.92411916817E+03  0.92411916819E+03  0.50400001928E-02 0.  1.
    10030    2    1    2    0    0  0.00000000000E+00  0.00000000000E+00  0.13590128664E+04  0.32072512028E+04  0.29050893802E+04 0.  0.
        5    1    3    3  502    0  0.12558856554E+04 -0.72628608911E+03  0.60048109808E+03  0.15701400898E+04  0.46999998093E+01 0. -1.
       -5    1    3    3    0  502 -0.12558856554E+04  0.72628608911E+03  0.75853176834E+03  0.16371111129E+04  0.46999998093E+01 0.  1.
</event>
<event>
 5   0  0.1006893E-06  0.2896004E+04  0.7818609E-02  0.8274067E-01
       -2   -1    0    0    0  501  0.00000000000E+00  0.00000000000E+00  0.10075107642E+04  0.10075107643E+04  0.25500000920E-02 0. -1.
        2   -1    0    0  501    0  0.00000000000E+00  0.00000000000E+00 -0.20810790389E+04  0.20810790389E+04  0.25500000920E-02 0.  1.
    10030    2    1    2    0    0  0.00000000000E+00  0.00000000000E+00 -0.10735682747E+04  0.30885898032E+04  0.28960038211E+04 0.  0.
        4    1    3    3  502    0  0.13497047237E+04  0.76527178210E+02 -0.10900797438E+04  0.17366158789E+04  0.12699999809E+01 0.  1.
       -4    1    3    3    0  502 -0.13497047237E+04 -0.76527178210E+02  0.16511469130E+02  0.13519739242E+04  0.12699999809E+01 0. -1.
</event>
<event>
 5   0  0.3786210E-07  0.2920411E+04  0.7818609E-02  0.8266830E-01
        1   -1    0    0  501    0  0.00000000000E+00  0.00000000000E+00  0.13787281274E+04  0.13787281274E+04  0.50400001928E-02 0.  1.
       -1   -1    0    0    0  501  0.00000000000E+00  0.00000000000E+00 -0.15464980923E+04  0.15464980923E+04  0.50400001928E-02 0. -1.
    10030    2    1    2    0    0  0.00000000000E+00  0.00000000000E+00 -0.16776996489E+03  0.29252262197E+04  0.29204112168E+04 0.  0.
        5    1    3    3  502    0  0.10401299045E+04  0.93028556758E+03 -0.51456700463E+03  0.14873139372E+04  0.46999998093E+01 0. -1.
       -5    1    3    3    0  502 -0.10401299045E+04 -0.93028556758E+03  0.34679703974E+03  0.14379122825E+04  0.46999998093E+01 0.  1.
</event>
<event>
 5   0  0.1063979E-06  0.2869905E+04  0.7818609E-02  0.8281888E-01
       -2   -1    0    0    0  501  0.00000000000E+00  0.00000000000E+00  0.10244299661E+04  0.10244299661E+04  0.25500000920E-02 0.  1.
        2   -1    0    0  501    0  0.00000000000E+00  0.00000000000E+00 -0.20099846031E+04  0.20099846031E+04  0.25500000920E-02 0. -1.
    10030    2    1    2    0    0  0.00000000000E+00  0.00000000000E+00 -0.98555463697E+03  0.30344145692E+04  0.28699048478E+04 0.  0.
        1    1    3    3  502    0 -0.89561407119E+03 -0.62694828398E+03  0.48996371399E+03  0.11980205158E+04  0.50400001928E-02 0.  1.
       -1    1    3    3    0  502  0.89561407119E+03  0.62694828398E+03 -0.14755183510E+04  0.18363940534E+04  0.50400001928E-02 0. -1.
</event>
<event>
 5   0  0.3786210E-07  0.2899678E+04  0.7818609E-02  0.8272973E-01
       -1   -1    0    0    0  501  0.00000000000E+00  0.00000000000E+00  0.10877925055E+04  0.10877925055E+04  0.50400001928E-02 0. -1.
        1   -1    0    0  501    0  0.00000000000E+00  0.00000000000E+00 -0.19323842591E+04  0.19323842591E+04  0.50400001928E-02 0.  1.
    10030    2    1    2    0    0  0.00000000000E+00  0.00000000000E+00 -0.84459175365E+03  0.30201767646E+04  0.28996779923E+04 0.  0.
        5    1    3    3  502    0  0.12572168721E+04 -0.51537536317E+03  0.10449361220E+03  0.13627718201E+04  0.46999998093E+01 0. -1.
       -5    1    3    3    0  502 -0.12572168721E+04  0.51537536317E+03 -0.94908536585E+03  0.16574049446E+04  0.46999998093E+01 0.  1.
</event>
<event>
 5   0  0.3769563E-07  0.2900649E+04  0.7818609E-02  0.8272684E-01
       -1   -1    0    0    0  501  0.00000000000E+00  0.00000000000E+00  0.11407007375E+04  0.11407007375E+04  0.50400001928E-02 0. -1.
        1   -1    0    0  501    0  0.00000000000E+00  0.00000000000E+00 -0.18439900329E+04  0.18439900329E+04  0.50400001928E-02 0.  1.
    10030    2    1    2    0    0  0.00000000000E+00  0.00000000000E+00 -0.70328929540E+03  0.29846907704E+04  0.29006487485E+04 0.  0.
        3    1    3    3  502    0 -0.11881569242E+03 -0.29346288020E+03  0.11047084983E+04  0.11491816685E+04  0.10100000352E+00 0. -1.
       -3    1    3    3    0  502  0.11881569242E+03  0.29346288020E+03 -0.18079977937E+04  0.18355091019E+04  0.10100000352E+00 0.  1.
</event>
<event>
 5   0  0.3769563E-07  0.2897214E+04  0.7818609E-02  0.8273707E-01
        1   -1    0    0  501    0  0.00000000000E+00  0.00000000000E+00  0.21562437871E+04  0.21562437872E+04  0.50400001928E-02 0. -1.
       -1   -1    0    0    0  501  0.00000000000E+00  0.00000000000E+00 -0.97320238623E+03  0.97320238624E+03  0.50400001928E-02 0.  1.
    10030    2    1    2    0    0  0.00000000000E+00  0.00000000000E+00  0.11830414009E+04  0.31294461734E+04  0.28972135572E+04 0.  0.
        3    1    3    3  502    0  0.33238300662E+03 -0.54392682783E+03 -0.81356696220E+03  0.10335502258E+04  0.10100000352E+00 0.  1.
       -3    1    3    3    0  502 -0.33238300662E+03  0.54392682783E+03  0.19966083631E+04  0.20958959476E+04  0.10100000352E+00 0. -1.
</event>
<event>
 5   0  0.3786210E-07  0.2894798E+04  0.7818609E-02  0.8274427E-01
        1   -1    0    0  501    0  0.00000000000E+00  0.00000000000E+00  0.22763569560E+04  0.22763569560E+04  0.50400001928E-02 0.  1.
       -1   -1    0    0    0  501  0.00000000000E+00  0.00000000000E+00 -0.92031438826E+03  0.92031438827E+03  0.50400001928E-02 0. -1.
    10030    2    1    2    0    0  0.00000000000E+00  0.00000000000E+00  0.13560425678E+04  0.31966713443E+04  0.28947981342E+04 0.  0.
        5    1    3    3  502    0  0.79423773259E+03  0.72758830583E+02  0.20117967465E+04  0.21641293082E+04  0.46999998093E+01 0.  1.
       -5    1    3    3    0  502 -0.79423773259E+03 -0.72758830583E+02 -0.65575417877E+03  0.10325420361E+04  0.46999998093E+01 0. -1.
</event>
<event>
 5   0  0.1006893E-06  0.2898875E+04  0.7818609E-02  0.8273212E-01
        2   -1    0    0  501    0  0.00000000000E+00  0.00000000000E+00  0.19910757817E+04  0.19910757817E+04  0.25500000920E-02 0. -1.
       -2   -1    0    0    0  501  0.00000000000E+00  0.00000000000E+00 -0.10551427229E+04  0.10551427229E+04  0.25500000920E-02 0.  1.
    10030    2    1    2    0    0  0.00000000000E+00  0.00000000000E+00  0.93593305873E+03  0.30462185046E+04  0.28988750382E+04 0.  0.
        4    1    3    3  502    0 -0.12749494021E+04 -0.39856947528E+03 -0.12322466117E+03  0.13414691702E+04  0.12699999809E+01 0. -1.
       -4    1    3    3    0  502  0.12749494021E+04  0.39856947528E+03  0.10591577199E+04  0.17047493344E+04  0.12699999809E+01 0.  1.
</event>
<event>
 5   0  0.9950999E-07  0.2901682E+04  0.7818609E-02  0.8272377E-01
       -2   -1    0    0    0  501  0.00000000000E+00  0.00000000000E+00  0.11187492506E+04  0.11187492506E+04  0.25500000920E-02 0. -1.
        2   -1    0    0  501    0  0.00000000000E+00  0.00000000000E+00 -0.18815114820E+04  0.18815114820E+04  0.25500000920E-02 0.  1.
    10030    2    1    2    0    0  0.00000000000E+00  0.00000000000E+00 -0.76276223144E+03  0.30002607325E+04  0.29016819677E+04 0.  0.
        3    1    3    3  502    0  0.86080786472E+03 -0.95376497662E+03  0.31552107098E+03  0.13229555423E+04  0.10100000352E+00 0. -1.
       -3    1    3    3    0  502 -0.86080786472E+03  0.95376497662E+03 -0.10782833024E+04  0.16773051902E+04  0.10100000352E+00 0.  1.
</event>
<event>
 5   0  0.9994311E-07  0.2900433E+04  0.7818609E-02  0.8272749E-01
        2   -1    0    0  501    0  0.00000000000E+00  0.00000000000E+00  0.13151454270E+04  0.13151454270E+04  0.25500000920E-02 0.  1.
       -2   -1    0    0    0  501  0.00000000000E+00  0.00000000000E+00 -0.15991600840E+04  0.15991600840E+04  0.25500000920E-02 0. -1.
    10030    2    1    2    0    0  0.00000000000E+00  0.00000000000E+00 -0.28401465701E+03  0.29143055110E+04  0.29004331205E+04 0.  0.
        2    1    3    3  502    0  0.44082482480E+03 -0.10753690353E+04 -0.10135561182E+04  0.15420898459E+04  0.25500000920E-02 0. -1.
       -2    1    3    3    0  502 -0.44082482480E+03  0.10753690353E+04  0.72954146115E+03  0.13722156652E+04  0.25500000920E-02 0.  1.
</event>
<event>
 5   0  0.1063979E-06  0.2898753E+04  0.7818609E-02  0.8273249E-01
        2   -1    0    0  501    0  0.00000000000E+00  0.00000000000E+00  0.19747167158E+04  0.19747167158E+04  0.25500000920E-02 0.  1.
       -2   -1    0    0    0  501  0.00000000000E+00  0.00000000000E+00 -0.10637940835E+04  0.10637940835E+04  0.25500000920E-02 0. -1.
    10030    2    1    2    0    0  0.00000000000E+00  0.00000000000E+00  0.91092263226E+03  0.30385107993E+04  0.28987528069E+04 0.  0.
        1    1    3    3  502    0  0.62752365986E+03 -0.11599917968E+04 -0.17462295101E+03  0.13303608862E+04  0.50400001928E-02 0. -1.
       -1    1    3    3    0  502 -0.62752365986E+03  0.11599917968E+04  0.10855455833E+04  0.17081499131E+04  0.50400001928E-02 0.  1.
</event>
<event>
 5   0  0.1031339E-06  0.2907379E+04  0.7818609E-02  0.8270686E-01
       -2   -1    0    0    0  501  0.00000000000E+00  0.00000000000E+00  0.10782731807E+04  0.10782731807E+04  0.25500000920E-02 0.  1.
        2   -1    0    0  501    0  0.00000000000E+00  0.00000000000E+00 -0.19598119313E+04  0.19598119313E+04  0.25500000920E-02 0. -1.
    10030    2    1    2    0    0  0.00000000000E+00  0.00000000000E+00 -0.88153875059E+03  0.30380851119E+04  0.29073786438E+04 0.  0.
        5    1    3    3  502    0  0.23348053876E+03 -0.14280474593E+04 -0.58615680593E+03  0.15612285545E+04  0.46999998093E+01 0. -1.
       -5    1    3    3    0  502 -0.23348053876E+03  0.14280474593E+04 -0.29538194466E+03  0.14768565575E+04  0.46999998093E+01 0.  1.
</event>
<event>
 5   0  0.9950999E-07  0.2903579E+04  0.7818609E-02  0.8271813E-01
       -2   -1    0    0    0  501  0.00000000000E+00  0.00000000000E+00  0.16503556990E+04  0.16503556990E+04  0.25500000920E-02 0. -1.
        2   -1    0    0  501    0  0.00000000000E+00  0.00000000000E+00 -0.12771142982E+04  0.12771142982E+04  0.25500000920E-02 0.  1.
    10030    2    1    2    0    0  0.00000000000E+00  0.00000000000E+00  0.37324140077E+03  0.29274699973E+04  0.29035790745E+04 0.  0.
        3    1    3    3  502    0  0.14508831147E+04 -0.92352695337E-01  0.13490509345E+03  0.14571414535E+04  0.10100000352E+00 0. -1.
       -3    1    3    3    0  502 -0.14508831147E+04  0.92352695337E-01  0.23833630731E+03  0.14703285438E+04  0.10100000352E+00 0.  1.
</event>
<event>
 5   0  0.3770467E-07  0.2899265E+04  0.7818609E-02  0.8273096E-01
        1   -1    0    0  501    0  0.00000000000E+00  0.00000000000E+00  0.24292742871E+04  0.24292742871E+04  0.50400001928E-02 0.  1.
       -1   -1    0    0    0  501  0.00000000000E+00  0.00000000000E+00 -0.86504611861E+03  0.86504611862E+03  0.50400001928E-02 0. -1.
    10030    2    1    2    0    0  0.00000000000E+00  0.00000000000E+00  0.15642281685E+04  0.32943204057E+04  0.28992649366E+04 0.  0.
        1    1    3    3  502    0 -0.12403010249E+04  0.64623679760E+03  0.12154834187E+04  0.18529351236E+04  0.50400001928E-02 0.  1.
       -1    1    3    3    0  502  0.12403010249E+04 -0.64623679760E+03  0.34874474973E+03  0.14413852821E+04  0.50400001928E-02 0. -1.
</event>
<event>
 5   0  0.3769563E-07  0.2871148E+04  0.7818609E-02  0.8281514E-01
        1   -1    0    0  501    0  0.00000000000E+00  0.00000000000E+00  0.23844732652E+04  0.23844732652E+04  0.50400001928E-02 0.  1.
       -1   -1    0    0    0  501  0.00000000000E+00  0.00000000000E+00 -0.86428849352E+03  0.86428849353E+03  0.50400001928E-02 0. -1.
    10030    2    1    2    0    0  0.00000000000E+00  0.00000000000E+00  0.15201847717E+04  0.32487617588E+04  0.28711480674E+04 0.  0.
        3    1    3    3  502    0 -0.99700978464E+03  0.25602345426E+03  0.18923456333E+04  0.21541932424E+04  0.10100000352E+00 0.  1.
       -3    1    3    3    0  502  0.99700978464E+03 -0.25602345426E+03 -0.37216086159E+03  0.10945685163E+04  0.10100000352E+00 0. -1.
</event>
<event>
 5   0  0.3786210E-07  0.2898408E+04  0.7818609E-02  0.8273351E-01
       -1   -1    0    0    0  501  0.00000000000E+00  0.00000000000E+00  0.14418632908E+04  0.14418632908E+04  0.50400001928E-02 0. -1.
        1   -1    0    0  501    0  0.00000000000E+00  0.00000000000E+00 -0.14565825453E+04  0.14565825453E+04  0.50400001928E-02 0.  1.
    10030    2    1    2    0    0  0.00000000000E+00  0.00000000000E+00 -0.14719254524E+02  0.28984458361E+04  0.28984084613E+04 0.  0.
        5    1    3    3  502    0 -0.18706716749E+03 -0.46814511031E+02 -0.14436876863E+04  0.14565170610E+04  0.46999998093E+01 0.  1.
       -5    1    3    3    0  502  0.18706716749E+03  0.46814511031E+02  0.14289684317E+04  0.14419287751E+04  0.46999998093E+01 0. -1.
</event>
<event>
 5   0  0.3769563E-07  0.2914941E+04  0.7818609E-02  0.8268446E-01
       -1   -1    0    0    0  501  0.00000000000E+00  0.00000000000E+00  0.10876778951E+04  0.10876778951E+04  0.50400001928E-02 0.  1.
        1   -1    0    0  501    0  0.00000000000E+00  0.00000000000E+00 -0.19529862407E+04  0.19529862407E+04  0.50400001928E-02 0. -1.
    10030    2    1    2    0    0  0.00000000000E+00  0.00000000000E+00 -0.86530834562E+03  0.30406641358E+04  0.29149407976E+04 0.  0.
        3    1    3    3  502    0 -0.21301644804E+02 -0.93389472859E+03 -0.15996590608E+04  0.18524368397E+04  0.10100000352E+00 0. -1.
       -3    1    3    3    0  502  0.21301644804E+02  0.93389472859E+03  0.73435071515E+03  0.11882272961E+04  0.10100000352E+00 0.  1.
</event>
<event>
 5   0  0.9994311E-07  0.2884713E+04  0.7818609E-02  0.8277440E-01
        2   -1    0    0  501    0  0.00000000000E+00  0.00000000000E+00  0.14606480794E+04  0.14606480794E+04  0.25500000920E-02 0. -1.
       -2   -1    0    0    0  501  0.00000000000E+00  0.00000000000E+00 -0.14242943338E+04  0.14242943338E+04  0.25500000920E-02 0.  1.
    10030    2    1    2    0    0  0.00000000000E+00  0.00000000000E+00  0.36353745658E+02  0.28849424132E+04  0.28847133536E+04 0.  0.
        2    1    3    3  502    0  0.20108923339E+03 -0.73060254597E+02 -0.14083367905E+04  0.14244954180E+04  0.25500000920E-02 0.  1.
       -2    1    3    3    0  502 -0.20108923339E+03  0.73060254597E+02  0.14446905361E+04  0.14604469952E+04  0.25500000920E-02 0. -1.
</event>
<event>
 5   0  0.9950999E-07  0.2899730E+04  0.7818609E-02  0.8272958E-01
        2   -1    0    0  501    0  0.00000000000E+00  0.00000000000E+00  0.20651327901E+04  0.20651327901E+04  0.25500000920E-02 0.  1.
       -2   -1    0    0    0  501  0.00000000000E+00  0.00000000000E+00 -0.10179049493E+04  0.10179049493E+04  0.25500000920E-02 0. -1.
    10030    2    1    2    0    0  0.00000000000E+00  0.00000000000E+00  0.10472278408E+04  0.30830377394E+04  0.28997302551E+04 0.  0.
        3    1    3    3  502    0 -0.77649067497E+02  0.38771994593E+03  0.20066955887E+04  0.20452831906E+04  0.10100000352E+00 0.  1.
       -3    1    3    3    0  502  0.77649067497E+02 -0.38771994593E+03 -0.95946774786E+03  0.10377545488E+04  0.10100000352E+00 0. -1.
</event>
<event>
 5   0  0.3769563E-07  0.2871976E+04  0.7818609E-02  0.8281265E-01
       -1   -1    0    0    0  501  0.00000000000E+00  0.00000000000E+00  0.61620565026E+03  0.61620565028E+03  0.50400001928E-02 0.  1.
        1   -1    0    0  501    0  0.00000000000E+00  0.00000000000E+00 -0.33463854341E+04  0.33463854341E+04  0.50400001928E-02 0. -1.
    10030    2    1    2    0    0  0.00000000000E+00  0.00000000000E+00 -0.27301797838E+04  0.39625910843E+04  0.28719760531E+04 0.  0.
        3    1    3    3  502    0  0.40102831861E+02 -0.14285825398E+04 -0.15582800972E+04  0.21144013767E+04  0.10100000352E+00 0.  1.
       -3    1    3    3    0  502 -0.40102831861E+02  0.14285825398E+04 -0.11718996866E+04  0.18481897077E+04  0.10100000352E+00 0. -1.
</event>
<event>
 5   0  0.3885904E-07  0.2893056E+04  0.7818609E-02  0.8274947E-01
       -1   -1    0    0    0  501  0.00000000000E+00  0.00000000000E+00  0.19366666425E+04  0.19366666425E+04  0.50400001928E-02 0. -1.
        1   -1    0    0  501    0  0.00000000000E+00  0.00000000000E+00 -0.10804352137E+04  0.10804352137E+04  0.50400001928E-02 0.  1.
    10030    2    1    2    0    0  0.00000000000E+00  0.00000000000E+00  0.85623142879E+03  0.30171018562E+04  0.28930557117E+04 0.  0.
        2    1    3    3  502    0  0.17708829281E+03  0.14346932993E+04  0.37354910220E+03  0.14930653228E+04  0.25500000920E-02 0. -1.
       -2    1    3    3    0  502 -0.17708829281E+03 -0.14346932993E+04  0.48268232659E+03  0.15240365333E+04  0.25500000920E-02 0.  1.
</event>
<event>
 5   0  0.9994311E-07  0.2901310E+04  0.7818609E-02  0.8272488E-01
       -2   -1    0    0    0  501  0.00000000000E+00  0.00000000000E+00  0.12735643331E+04  0.12735643331E+04  0.25500000920E-02 0. -1.
        2   -1    0    0  501    0  0.00000000000E+00  0.00000000000E+00 -0.16523701389E+04  0.16523701389E+04  0.25500000920E-02 0.  1.
    10030    2    1    2    0    0  0.00000000000E+00  0.00000000000E+00 -0.37880580580E+03  0.29259344719E+04  0.29013098241E+04 0.  0.
        2    1    3    3  502    0 -0.64568881299E+02 -0.25773382169E+03 -0.16276218816E+04  0.16491661083E+04  0.25500000920E-02 0.  1.
       -2    1    3    3    0  502  0.64568881299E+02  0.25773382169E+03  0.12488160758E+04  0.12767683637E+04  0.25500000920E-02 0. -1.
</event>
<event>
 5   0  0.3638028E-07  0.2895023E+04  0.7818609E-02  0.8274360E-01
        1   -1    0    0  501    0  0.00000000000E+00  0.00000000000E+00  0.24283978179E+04  0.24283978179E+04  0.50400001928E-02 0. -1.
       -1   -1    0    0    0  501  0.00000000000E+00  0.00000000000E+00 -0.86282773684E+03  0.86282773685E+03  0.50400001928E-02 0.  1.
    10030    2    1    2    0    0  0.00000000000E+00  0.00000000000E+00  0.15655700811E+04  0.32912255548E+04  0.28950226206E+04 0.  0.
        4    1    3    3  502    0  0.51258663806E+03  0.14536362692E+03 -0.74729543507E+03  0.91778413896E+03  0.12699999809E+01 0.  1.
       -4    1    3    3    0  502 -0.51258663806E+03 -0.14536362692E+03  0.23128655161E+04  0.23734414158E+04  0.12699999809E+01 0. -1.
</event>
<event>
 5   0  0.1063979E-06  0.2911105E+04  0.7818609E-02  0.8269581E-01
       -2   -1    0    0    0  501  0.00000000000E+00  0.00000000000E+00  0.12597526884E+04  0.12597526884E+04  0.25500000920E-02 0.  1.
        2   -1    0    0  501    0  0.00000000000E+00  0.00000000000E+00 -0.16817849995E+04  0.16817849995E+04  0.25500000920E-02 0. -1.
    10030    2    1    2    0    0  0.00000000000E+00  0.00000000000E+00 -0.42203231114E+03  0.29415376879E+04  0.29111050647E+04 0.  0.
        1    1    3    3  502    0  0.41960360223E+03  0.28425642309E+03  0.11677127592E+04  0.12729579668E+04  0.50400001928E-02 0.  1.
       -1    1    3    3    0  502 -0.41960360223E+03 -0.28425642309E+03 -0.15897450704E+04  0.16685797211E+04  0.50400001928E-02 0. -1.
</event>
<event>
 5   0  0.3638028E-07  0.2903371E+04  0.7818609E-02  0.8271875E-01
       -1   -1    0    0    0  501  0.00000000000E+00  0.00000000000E+00  0.90663734815E+03  0.90663734816E+03  0.50400001928E-02 0. -1.
        1   -1    0    0  501    0  0.00000000000E+00  0.00000000000E+00 -0.23244027214E+04  0.23244027214E+04  0.50400001928E-02 0.  1.
    10030    2    1    2    0    0  0.00000000000E+00  0.00000000000E+00 -0.14177653732E+04  0.32310400696E+04  0.29033706752E+04 0.  0.
        4    1    3    3  502    0 -0.11598566594E+04 -0.59988103649E+03 -0.30602979080E+01  0.13058084494E+04  0.12699999809E+01 0. -1.
       -4    1    3    3    0  502  0.11598566594E+04  0.59988103649E+03 -0.14147050753E+04  0.19252316202E+04  0.12699999809E+01 0.  1.
</event>
<event>
 5   0  0.3769563E-07  0.2894298E+04  0.7818609E-02  0.8274576E-01
       -1   -1    0    0    0  501  0.00000000000E+00  0.00000000000E+00  0.13441145057E+04  0.13441145057E+04  0.50400001928E-02 0. -1.
        1   -1    0    0  501    0  0.00000000000E+00  0.00000000000E+00 -0.15580814399E+04  0.15580814399E+04  0.50400001928E-02 0.  1.
    10030    2    1    2    0    0  0.00000000000E+00  0.00000000000E+00 -0.21396693426E+03  0.29021959456E+04  0.28942977487E+04 0.  0.
        3    1    3    3  502    0  0.33948278846E+03  0.14047149995E+04 -0.30835066384E+02  0.14454838654E+04  0.10100000352E+00 0.  1.
       -3    1    3    3    0  502 -0.33948278846E+03 -0.14047149995E+04 -0.18313186787E+03  0.14567120803E+04  0.10100000352E+00 0. -1.
</event>
<event>
 5   0  0.3885904E-07  0.2899280E+04  0.7818609E-02  0.8273092E-01
        1   -1    0    0  501    0  0.00000000000E+00  0.00000000000E+00  0.24447555066E+04  0.24447555066E+04  0.50400001928E-02 0.  1.
       -1   -1    0    0    0  501  0.00000000000E+00  0.00000000000E+00 -0.85957726858E+03  0.85957726860E+03  0.50400001928E-02 0. -1.
    10030    2    1    2    0    0  0.00000000000E+00  0.00000000000E+00  0.15851782380E+04  0.33043327752E+04  0.28992800904E+04 0.  0.
        2    1    3    3  502    0  0.83676479435E+02 -0.69470656021E+03  0.22395413910E+04  0.23463087180E+04  0.25500000920E-02 0.  1.
       -2    1    3    3    0  502 -0.83676479435E+02  0.69470656021E+03 -0.65436315305E+03  0.95802405716E+03  0.25500000920E-02 0. -1.
</event>
<event>
 5   0  0.1063979E-06  0.2885571E+04  0.7818609E-02  0.8277184E-01
       -2   -1    0    0    0  501  0.00000000000E+00  0.00000000000E+00  0.13856748027E+04  0.13856748027E+04  0.25500000920E-02 0. -1.
        2   -1    0    0  501    0  0.00000000000E+00  0.00000000000E+00 -0.15022496321E+04  0.15022496321E+04  0.25500000920E-02 0.  1.
    10030    2    1    2    0    0  0.00000000000E+00  0.00000000000E+00 -0.11657482940E+03  0.28879244348E+04  0.28855706282E+04 0.  0.
        1    1    3    3  502    0 -0.23824095618E+03  0.12350177557E+03 -0.14770537499E+04  0.15012325675E+04  0.50400001928E-02 0.  1.
       -1    1    3    3    0  502  0.23824095618E+03 -0.12350177557E+03  0.13604789205E+04  0.13866918673E+04  0.50400001928E-02 0. -1.
</event>
<event>
 5   0  0.1031339E-06  0.2898449E+04  0.7818609E-02  0.8273339E-01
       -2   -1    0    0    0  501  0.00000000000E+00  0.00000000000E+00  0.11441158662E+04  0.11441158662E+04  0.25500000920E-02 0.  1.
        2   -1    0    0  501    0  0.00000000000E+00  0.00000000000E+00 -0.18356986821E+04  0.18356986821E+04  0.25500000920E-02 0. -1.
    10030    2    1    2    0    0  0.00000000000E+00  0.00000000000E+00 -0.69158281594E+03  0.29798145484E+04  0.28984492321E+04 0.  0.
        5    1    3    3  502    0  0.12223294317E+04 -0.76021609918E+03 -0.51847121710E+03  0.15299843953E+04  0.46999998093E+01 0.  1.
       -5    1    3    3    0  502 -0.12223294317E+04  0.76021609918E+03 -0.17311159883E+03  0.14498301530E+04  0.46999998093E+01 0. -1.
</event>
<event>
 5   0  0.3786210E-07  0.2902140E+04  0.7818609E-02  0.8272241E-01
       -1   -1    0    0    0  501  0.00000000000E+00  0.00000000000E+00  0.16650687007E+04  0.16650687007E+04  0.50400001928E-02 0. -1.
        1   -1    0    0  501    0  0.00000000000E+00  0.00000000000E+00 -0.12645745492E+04  0.12645745492E+04  0.50400001928E-02 0.  1.
    10030    2    1    2    0    0  0.00000000000E+00  0.00000000000E+00  0.40049415147E+03  0.29296432499E+04  0.29021395566E+04 0.  0.
        5    1    3    3  502    0 -0.69135262606E+03  0.94883485935E+03  0.10611631433E+04  0.15825123540E+04  0.46999998093E+01 0. -1.
       -5    1    3    3    0  502  0.69135262606E+03 -0.94883485935E+03 -0.66066899181E+03  0.13471308959E+04  0.46999998093E+01 0.  1.
</event>
<event>
 5   0  0.1006893E-06  0.2894770E+04  0.7818609E-02  0.8274435E-01
       -2   -1    0    0    0  501  0.00000000000E+00  0.00000000000E+00  0.10149598299E+04  0.10149598299E+04  0.25500000920E-02 0.  1.
        2   -1    0    0  501    0  0.00000000000E+00  0.00000000000E+00 -0.20640457115E+04  0.20640457115E+04  0.25500000920E-02 0. -1.
    10030    2    1    2    0    0  0.00000000000E+00  0.00000000000E+00 -0.10490858816E+04  0.30790055413E+04  0.28947701008E+04 0.  0.
        4    1    3    3  502    0 -0.21709128241E+03 -0.21486463683E+03 -0.20293745538E+04  0.20522324745E+04  0.12699999809E+01 0. -1.
       -4    1    3    3    0  502  0.21709128241E+03  0.21486463683E+03  0.98028867217E+03  0.10267730668E+04  0.12699999809E+01 0.  1.
</event>
<event>
 5   0  0.3770467E-07  0.2903446E+04  0.7818609E-02  0.8271853E-01
        1   -1    0    0  501    0  0.00000000000E+00  0.00000000000E+00  0.12362900190E+04  0.12362900190E+04  0.50400001928E-02 0.  1.
       -1   -1    0    0    0  501  0.00000000000E+00  0.00000000000E+00 -0.17046966106E+04  0.17046966106E+04  0.50400001928E-02 0. -1.
    10030    2    1    2    0    0  0.00000000000E+00  0.00000000000E+00 -0.46840659165E+03  0.29409866296E+04  0.29034458184E+04 0.  0.
        1    1    3    3  502    0 -0.45839405294E+03  0.49636822769E+03 -0.15357265268E+04  0.16777849952E+04  0.50400001928E-02 0. -1.
       -1    1    3    3    0  502  0.45839405294E+03 -0.49636822769E+03  0.10673199351E+04  0.12632016344E+04  0.50400001928E-02 0.  1.
</event>
<event>
 5   0  0.3786210E-07  0.2897671E+04  0.7818609E-02  0.8273571E-01
        1   -1    0    0  501    0  0.00000000000E+00  0.00000000000E+00  0.13250724577E+04  0.13250724578E+04  0.50400001928E-02 0.  1.
       -1   -1    0    0    0  501  0.00000000000E+00  0.00000000000E+00 -0.15841577856E+04  0.15841577857E+04  0.50400001928E-02 0. -1.
    10030    2    1    2    0    0  0.00000000000E+00  0.00000000000E+00 -0.25908532790E+03  0.29092302434E+04  0.28976706856E+04 0.  0.
        5    1    3    3  502    0 -0.11600958786E+03  0.11096752250E+04  0.79840873004E+03  0.13719751891E+04  0.46999998093E+01 0.  1.
       -5    1    3    3    0  502  0.11600958786E+03 -0.11096752250E+04 -0.10574940579E+04  0.15372550543E+04  0.46999998093E+01 0. -1.
</event>
<event>
 5   0  0.3885904E-07  0.2902803E+04  0.7818609E-02  0.8272044E-01
       -1   -1    0    0    0  501  0.00000000000E+00  0.00000000000E+00  0.27763695991E+04  0.27763695991E+04  0.50400001928E-02 0. -1.
        1   -1    0    0  501    0  0.00000000000E+00  0.00000000000E+00 -0.75874827045E+03  0.75874827047E+03  0.50400001928E-02 0.  1.
    10030    2    1    2    0    0  0.00000000000E+00  0.00000000000E+00  0.20176213287E+04  0.35351178696E+04  0.29028025296E+04 0.  0.
        2    1    3    3  502    0  0.27035168882E+03  0.11398438770E+04 -0.34714488730E+02  0.11719808852E+04  0.25500000920E-02 0.  1.
       -2    1    3    3    0  502 -0.27035168882E+03 -0.11398438770E+04  0.20523358174E+04  0.23631369844E+04  0.25500000920E-02 0. -1.
</event>
<event>
 5   0  0.3885904E-07  0.2909483E+04  0.7818609E-02  0.8270062E-01
       -1   -1    0    0    0  501  0.00000000000E+00  0.00000000000E+00  0.14612714788E+04  0.14612714788E+04  0.50400001928E-02 0. -1.
        1   -1    0    0  501    0  0.00000000000E+00  0.00000000000E+00 -0.14482404713E+04  0.14482404713E+04  0.50400001928E-02 0.  1.
    10030    2    1    2    0    0  0.00000000000E+00  0.00000000000E+00  0.13031007550E+02  0.29095119501E+04  0.29094827686E+04 0.  0.
        2    1    3    3  502    0 -0.97618369835E+03  0.40758075917E+03 -0.99210144525E+03  0.14502834088E+04  0.25500000920E-02 0.  1.
       -2    1    3    3    0  502  0.97618369835E+03 -0.40758075917E+03  0.10051324528E+04  0.14592285413E+04  0.25500000920E-02 0. -1.
</event>
<event>
 5   0  0.3786210E-07  0.2909977E+04  0.7818609E-02  0.8269915E-01
       -1   -1    0    0    0  501  0.00000000000E+00  0.00000000000E+00  0.84501884194E+03  0.84501884195E+03  0.50400001928E-02 0.  1.
        1   -1    0    0  501    0  0.00000000000E+00  0.00000000000E+00 -0.25052601794E+04  0.25052601794E+04  0.50400001928E-02 0. -1.
    10030    2    1    2    0    0  0.00000000000E+00  0.00000000000E+00 -0.16602413375E+04  0.33502790213E+04  0.29099773577E+04 0.  0.
        5    1    3    3  502    0  0.11596956655E+04  0.51137929431E+03 -0.16527757811E+04  0.20828088467E+04  0.46999998093E+01 0. -1.
       -5    1    3    3    0  502 -0.11596956655E+04 -0.51137929431E+03 -0.74655563491E+01  0.12674701747E+04  0.46999998093E+01 0.  1.
</event>
<event>
 5   0  0.3786210E-07  0.2901495E+04  0.7818609E-02  0.8272433E-01
        1   -1    0    0  501    0  0.00000000000E+00  0.00000000000E+00  0.22911709136E+04  0.22911709136E+04  0.50400001928E-02 0. -1.
       -1   -1    0    0    0  501  0.00000000000E+00  0.00000000000E+00 -0.91859918683E+03  0.91859918684E+03  0.50400001928E-02 0.  1.
    10030    2    1    2    0    0  0.00000000000E+00  0.00000000000E+00  0.13725717268E+04  0.32097701005E+04  0.29014946067E+04 0.  0.
        5    1    3    3  502    0 -0.14166457510E+04  0.30531977757E+03  0.76082671078E+03  0.16367604358E+04  0.46999998093E+01 0.  1.
       -5    1    3    3    0  502  0.14166457510E+04 -0.30531977757E+03  0.61174501603E+03  0.15730096647E+04  0.46999998093E+01 0. -1.
</event>
<event>
 5   0  0.3885904E-07  0.2892141E+04  0.7818609E-02  0.8275219E-01
       -1   -1    0    0    0  501  0.00000000000E+00  0.00000000000E+00  0.96864368287E+03  0.96864368289E+03  0.50400001928E-02 0.  1.
        1   -1    0    0  501    0  0.00000000000E+00  0.00000000000E+00 -0.21588128123E+04  0.21588128123E+04  0.50400001928E-02 0. -1.
    10030    2    1    2    0    0  0.00000000000E+00  0.00000000000E+00 -0.11901691294E+04  0.31274564952E+04  0.28921413473E+04 0.  0.
        2    1    3    3  502    0  0.11088132106E+04  0.91794025722E+03 -0.74429449344E+03  0.16205108283E+04  0.25500000920E-02 0.  1.
       -2    1    3    3    0  502 -0.11088132106E+04 -0.91794025722E+03 -0.44587463599E+03  0.15069456669E+04  0.25500000920E-02 0. -1.
</event>
<event>
 5   0  0.3885904E-07  0.2886466E+04  0.7818609E-02  0.8276916E-01
       -1   -1    0    0    0  501  0.00000000000E+00  0.00000000000E+00  0.12384541797E+04  0.12384541797E+04  0.50400001928E-02 0. -1.
        1   -1    0    0  501    0  0.00000000000E+00  0.00000000000E+00 -0.16818723387E+04  0.16818723387E+04  0.50400001928E-02 0.  1.
    10030    2    1    2    0    0  0.00000000000E+00  0.00000000000E+00 -0.44341815902E+03  0.29203265184E+04  0.28864662323E+04 0.  0.
        2    1    3    3  502    0 -0.91251618119E+02  0.66095951866E+03  0.10730404135E+04  0.12635703669E+04  0.25500000920E-02 0. -1.
       -2    1    3    3    0  502  0.91251618119E+02 -0.66095951866E+03 -0.15164585726E+04  0.16567561515E+04  0.25500000920E-02 0.  1.
</event>
<event>
 5   0  0.3885904E-07  0.2886814E+04  0.7818609E-02  0.8276811E-01
       -1   -1    0    0    0  501  0.00000000000E+00  0.00000000000E+00  0.95496253028E+03  0.95496253029E+03  0.50400001928E-02 0.  1.
        1   -1    0    0  501    0  0.00000000000E+00  0.00000000000E+00 -0.21816815446E+04  0.21816815446E+04  0.50400001928E-02 0. -1.
    10030    2    1    2    0    0  0.00000000000E+00  0.00000000000E+00 -0.12267190143E+04  0.31366440749E+04  0.28868142497E+04 0.  0.
        2    1    3    3  502    0 -0.90186511372E+03 -0.88667915268E+03  0.14244215522E+03  0.12727334249E+04  0.25500000920E-02 0.  1.
       -2    1    3    3    0  502  0.90186511372E+03  0.88667915268E+03 -0.13691611695E+04  0.18639106500E+04  0.25500000920E-02 0. -1.
</event>
<event>
 5   0  0.1063979E-06  0.2905539E+04  0.7818609E-02  0.8271231E-01
        2   -1    0    0  501    0  0.00000000000E+00  0.00000000000E+00  0.14346215834E+04  0.14346215834E+04  0.25500000920E-02 0. -1.
       -2   -1    0    0    0  501  0.00000000000E+00  0.00000000000E+00 -0.14711473416E+04  0.14711473416E+04  0.25500000920E-02 0.  1.
    10030    2    1    2    0    0  0.00000000000E+00  0.00000000000E+00 -0.36525758252E+02  0.29057689250E+04  0.29055393500E+04 0.  0.
        1    1    3    3  502    0 -0.76918589871E+03 -0.57292839999E+03  0.10729905243E+04  0.14391673160E+04  0.50400001928E-02 0. -1.
       -1    1    3    3    0  502  0.76918589871E+03  0.57292839999E+03 -0.11095162825E+04  0.14666016090E+04  0.50400001928E-02 0.  1.
</event>
<event>
 5   0  0.3786210E-07  0.2887362E+04  0.7818609E-02  0.8276648E-01
       -1   -1    0    0    0  501  0.00000000000E+00  0.00000000000E+00  0.13298690262E+04  0.13298690262E+04  0.50400001928E-02 0.  1.
        1   -1    0    0  501    0  0.00000000000E+00  0.00000000000E+00 -0.15672333752E+04  0.15672333752E+04  0.50400001928E-02 0. -1.
    10030    2    1    2    0    0  0.00000000000E+00  0.00000000000E+00 -0.23736434895E+03  0.28971024014E+04  0.28873622028E+04 0.  0.
        5    1    3    3  502    0 -0.48249161541E+03  0.13592372641E+04 -0.56271595988E+02  0.14434377997E+04  0.46999998093E+01 0. -1.
       -5    1    3    3    0  502  0.48249161541E+03 -0.13592372641E+04 -0.18109275296E+03  0.14536646017E+04  0.46999998093E+01 0.  1.
</event>
<event>
 5   0  0.3885904E-07  0.2899994E+04  0.7818609E-02  0.8272879E-01
        1   -1    0    0  501    0  0.00000000000E+00  0.00000000000E+00  0.21850206488E+04  0.21850206488E+04  0.50400001928E-02 0. -1.
       -1   -1    0    0    0  501  0.00000000000E+00  0.00000000000E+00 -0.96222915700E+03  0.96222915702E+03  0.50400001928E-02 0.  1.
    10030    2    1    2    0    0  0.00000000000E+00  0.00000000000E+00  0.12227914918E+04  0.31472498058E+04  0.28999935013E+04 0.  0.
        2    1    3    3  502    0 -0.11322812712E+04 -0.61147044270E+03  0.13366015333E+04  0.18553869241E+04  0.25500000920E-02 0.  1.
       -2    1    3    3    0  502  0.11322812712E+04  0.61147044270E+03 -0.11381004149E+03  0.12918628817E+04  0.25500000920E-02 0. -1.
</event>
<event>
 5   0  0.3770467E-07  0.2900711E+04  0.7818609E-02  0.8272666E-01
       -1   -1    0    0    0  501  0.00000000000E+00  0.00000000000E+00  0.10379176499E+04  0.10379176499E+04  0.50400001928E-02 0. -1.
        1   -1    0    0  501    0  0.00000000000E+00  0.00000000000E+00 -0.20266845499E+04  0.20266845499E+04  0.50400001928E-02 0.  1.
    10030    2    1    2    0    0  0.00000000000E+00  0.00000000000E+00 -0.98876690001E+03  0.30646021999E+04  0.29007114060E+04 0.  0.
        1    1    3    3  502    0 -0.16906785775E+02 -0.13929287672E+04 -0.92092082735E+03  0.16699196269E+04  0.50400001928E-02 0.  1.
       -1    1    3    3    0  502  0.16906785775E+02  0.13929287672E+04 -0.67846072657E+02  0.13946825730E+04  0.50400001928E-02 0. -1.
</event>
<event>
 5   0  0.1031339E-06  0.2865757E+04  0.7818609E-02  0.8283139E-01
       -2   -1    0    0    0  501  0.00000000000E+00  0.00000000000E+00  0.82886388702E+03  0.82886388702E+03  0.25500000920E-02 0. -1.
        2   -1    0    0  501    0  0.00000000000E+00  0.00000000000E+00 -0.24770541743E+04  0.24770541743E+04  0.25500000920E-02 0.  1.
    10030    2    1    2    0    0  0.00000000000E+00  0.00000000000E+00 -0.16481902873E+04  0.33059180614E+04  0.28657569690E+04 0.  0.
        5    1    3    3  502    0  0.11586594646E+04 -0.43118352210E+03  0.11529880270E+02  0.12363518968E+04  0.46999998093E+01 0. -1.
       -5    1    3    3    0  502 -0.11586594646E+04  0.43118352210E+03 -0.16597201676E+04  0.20695661645E+04  0.46999998093E+01 0.  1.
</event>
<event>
 5   0  0.1031339E-06  0.2893497E+04  0.7818609E-02  0.8274815E-01
       -2   -1    0    0    0  501  0.00000000000E+00  0.00000000000E+00  0.10972289341E+04  0.10972289341E+04  0.25500000920E-02 0. -1.
        2   -1    0    0  501    0  0.00000000000E+00  0.00000000000E+00 -0.19076064918E+04  0.19076064918E+04  0.25500000920E-02 0.  1.
    10030    2    1    2    0    0  0.00000000000E+00  0.00000000000E+00 -0.81037755778E+03  0.30048354259E+04  0.28934968724E+04 0.  0.
        5    1    3    3  502    0 -0.33343311539E+03 -0.11329221003E+04  0.46265208151E+03  0.12683687028E+04  0.46999998093E+01 0.  1.
       -5    1    3    3    0  502  0.33343311539E+03  0.11329221003E+04 -0.12730296393E+04  0.17364667231E+04  0.46999998093E+01 0. -1.
</event>
<event>
 5   0  0.1006893E-06  0.2872051E+04  0.7818609E-02  0.8281242E-01
        2   -1    0    0  501    0  0.00000000000E+00  0.00000000000E+00  0.18920920822E+04  0.18920920822E+04  0.25500000920E-02 0.  1.
       -2   -1    0    0    0  501  0.00000000000E+00  0.00000000000E+00 -0.10898887423E+04  0.10898887423E+04  0.25500000920E-02 0. -1.
    10030    2    1    2    0    0  0.00000000000E+00  0.00000000000E+00  0.80220333987E+03  0.29819808245E+04  0.28720514340E+04 0.  0.
        4    1    3    3  502    0  0.17130185040E+03 -0.12723985825E+04  0.10690169811E+04  0.16706709417E+04  0.12699999809E+01 0.  1.
       -4    1    3    3    0  502 -0.17130185040E+03  0.12723985825E+04 -0.26681364127E+03  0.13113098828E+04  0.12699999809E+01 0. -1.
</event>
<event>
 5   0  0.3786210E-07  0.2897736E+04  0.7818609E-02  0.8273552E-01
       -1   -1    0    0    0  501  0.00000000000E+00  0.00000000000E+00  0.24767719839E+04  0.24767719839E+04  0.50400001928E-02 0. -1.
        1   -1    0    0  501    0  0.00000000000E+00  0.00000000000E+00 -0.84756205606E+03  0.84756205607E+03  0.50400001928E-02 0.  1.
    10030    2    1    2    0    0  0.00000000000E+00  0.00000000000E+00  0.16292099278E+04  0.33243340400E+04  0.28977356367E+04 0.  0.
        5    1    3    3  502    0 -0.43260178986E+03  0.39484917667E+03  0.23348940059E+04  0.24072395580E+04  0.46999998093E+01 0. -1.
       -5    1    3    3    0  502  0.43260178986E+03 -0.39484917667E+03 -0.70568407803E+03  0.91709448198E+03  0.46999998093E+01 0.  1.
</event>
<event>
 5   0  0.9994311E-07  0.2900008E+04  0.7818609E-02  0.8272875E-01
       -2   -1    0    0    0  501  0.00000000000E+00  0.00000000000E+00  0.12260551889E+04  0.12260551889E+04  0.25500000920E-02 0.  1.
        2   -1    0    0  501    0  0.00000000000E+00  0.00000000000E+00 -0.17148589595E+04  0.17148589595E+04  0.25500000920E-02 0. -1.
    10030    2    1    2    0    0  0.00000000000E+00  0.00000000000E+00 -0.48880377052E+03  0.29409141484E+04  0.29000080866E+04 0.  0.
        2    1    3    3  502    0 -0.67675156333E+03  0.10241231707E+04  0.53829494724E+03  0.13403665161E+04  0.25500000920E-02 0.  1.
       -2    1    3    3    0  502  0.67675156333E+03 -0.10241231707E+04 -0.10270987178E+04  0.16005476323E+04  0.25500000920E-02 0. -1.
</event>
<event>
 5   0  0.3885904E-07  0.2901006E+04  0.7818609E-02  0.8272578E-01
       -1   -1    0    0    0  501  0.00000000000E+00  0.00000000000E+00  0.82809177334E+03  0.82809177335E+03  0.50400001928E-02 0.  1.
        1   -1    0    0  501    0  0.00000000000E+00  0.00000000000E+00 -0.25407324511E+04  0.25407324511E+04  0.50400001928E-02 0. -1.
    10030    2    1    2    0    0  0.00000000000E+00  0.00000000000E+00 -0.17126406777E+04  0.33688242244E+04  0.29010064743E+04 0.  0.
        2    1    3    3  502    0  0.12820475749E+04 -0.67594500984E+03 -0.78848840702E+03  0.16499277586E+04  0.25500000920E-02 0. -1.
       -2    1    3    3    0  502 -0.12820475749E+04  0.67594500984E+03 -0.92415227073E+03  0.17188964658E+04  0.25500000920E-02 0.  1.
</event>
<event>
 5   0  0.9994311E-07  0.2900263E+04  0.7818609E-02  0.8272799E-01
       -2   -1    0    0    0  501  0.00000000000E+00  0.00000000000E+00  0.14852845478E+04  0.14852845478E+04  0.25500000920E-02 0.  1.
        2   -1    0    0  501    0  0.00000000000E+00  0.00000000000E+00 -0.14158105354E+04  0.14158105354E+04  0.25500000920E-02 0. -1.
    10030    2    1    2    0    0  0.00000000000E+00  0.00000000000E+00  0.69474012425E+02  0.29010950831E+04  0.29002630989E+04 0.  0.
        2    1    3    3  502    0 -0.27632742447E+02 -0.14498088609E+04  0.47863620958E+02  0.14508618913E+04  0.25500000920E-02 0.  1.
       -2    1    3    3    0  502  0.27632742447E+02  0.14498088609E+04  0.21610391467E+02  0.14502331918E+04  0.25500000920E-02 0. -1.
</event>
<event>
 5   0  0.3786210E-07  0.2900174E+04  0.7818609E-02  0.8272826E-01
       -1   -1    0    0    0  501  0.00000000000E+00  0.00000000000E+00  0.11857528165E+04  0.11857528165E+04  0.50400001928E-02 0. -1.
        1   -1    0    0  501    0  0.00000000000E+00  0.00000000000E+00 -0.17733484819E+04  0.17733484819E+04  0.50400001928E-02 0.  1.
    10030    2    1    2    0    0  0.00000000000E+00  0.00000000000E+00 -0.58759566542E+03  0.29591012984E+04  0.29001744478E+04 0.  0.
        5    1    3    3  502    0 -0.10299378066E+04 -0.10106542872E+04 -0.44001658854E+03  0.15085856495E+04  0.46999998093E+01 0. -1.
       -5    1    3    3    0  502  0.10299378066E+04  0.10106542872E+04 -0.14757907688E+03  0.14505156489E+04  0.46999998093E+01 0.  1.
</event>
<event>
 5   0  0.1006893E-06  0.2901874E+04  0.7818609E-02  0.8272320E-01
       -2   -1    0    0    0  501  0.00000000000E+00  0.00000000000E+00  0.74219947103E+03  0.74219947104E+03  0.25500000920E-02 0.  1.
        2   -1    0    0  501    0  0.00000000000E+00  0.00000000000E+00 -0.28364580989E+04  0.28364580989E+04  0.25500000920E-02 0. -1.
    10030    2    1    2    0    0  0.00000000000E+00  0.00000000000E+00 -0.20942586279E+04  0.35786575700E+04  0.29018736710E+04 0.  0.
        4    1    3    3  502    0 -0.70058391542E+03 -0.82499677956E+03 -0.22388201385E+04  0.24867156521E+04  0.12699999809E+01 0. -1.
       -4    1    3    3    0  502  0.70058391542E+03  0.82499677956E+03  0.14456151059E+03  0.10919419179E+04  0.12699999809E+01 0.  1.
</event>
<event>
 5   0  0.3770467E-07  0.2917466E+04  0.7818609E-02  0.8267700E-01
        1   -1    0    0  501    0  0.00000000000E+00  0.00000000000E+00  0.17543093319E+04  0.17543093319E+04  0.50400001928E-02 0. -1.
       -1   -1    0    0    0  501  0.00000000000E+00  0.00000000000E+00 -0.12129571221E+04  0.12129571221E+04  0.50400001928E-02 0.  1.
    10030    2    1    2    0    0  0.00000000000E+00  0.00000000000E+00  0.54135220976E+03  0.29672664540E+04  0.29174660228E+04 0.  0.
        1    1    3    3  502    0  0.10555706652E+04  0.99898166451E+03  0.14320434127E+03  0.14603771015E+04  0.50400001928E-02 0.  1.
       -1    1    3    3    0  502 -0.10555706652E+04 -0.99898166451E+03  0.39814786849E+03  0.15068893525E+04  0.50400001928E-02 0. -1.
</event>
<event>
 5   0  0.3786210E-07  0.2897234E+04  0.7818609E-02  0.8273701E-01
       -1   -1    0    0    0  501  0.00000000000E+00  0.00000000000E+00  0.12378039138E+04  0.12378039138E+04  0.50400001928E-02 0.  1.
        1   -1    0    0  501    0  0.00000000000E+00  0.00000000000E+00 -0.16953342026E+04  0.16953342026E+04  0.50400001928E-02 0. -1.
    10030    2    1    2    0    0  0.00000000000E+00  0.00000000000E+00 -0.45753028879E+03  0.29331381164E+04  0.28972340680E+04 0.  0.
        5    1    3    3  502    0  0.35239196704E+03 -0.12813368468E+03  0.11878143601E+04  0.12456016151E+04  0.46999998093E+01 0.  1.
       -5    1    3    3    0  502 -0.35239196704E+03  0.12813368468E+03 -0.16453446489E+04  0.16875365013E+04  0.46999998093E+01 0. -1.
</event>
<event>
 5   0  0.3770467E-07  0.2876387E+04  0.7818609E-02  0.8279938E-01
        1   -1    0    0  501    0  0.00000000000E+00  0.00000000000E+00  0.22434456931E+04  0.22434456931E+04  0.50400001928E-02 0.  1.
       -1   -1    0    0    0  501  0.00000000000E+00  0.00000000000E+00 -0.92197462567E+03  0.92197462568E+03  0.50400001928E-02 0. -1.
    10030    2    1    2    0    0  0.00000000000E+00  0.00000000000E+00  0.13214710674E+04  0.31654203188E+04  0.28763866243E+04 0.  0.
        1    1    3    3  502    0 -0.87751146000E+03  0.11376216142E+04  0.73197613798E+03  0.16124510430E+04  0.50400001928E-02 0.  1.
       -1    1    3    3    0  502  0.87751146000E+03 -0.11376216142E+04  0.58949492943E+03  0.15529692757E+04  0.50400001928E-02 0. -1.
</event>
<event>
 5   0  0.9994311E-07  0.2900492E+04  0.7818609E-02  0.8272731E-01
        2   -1    0    0  501    0  0.00000000000E+00  0.00000000000E+00  0.16054004893E+04  0.16054004893E+04  0.25500000920E-02 0. -1.
       -2   -1    0    0    0  501  0.00000000000E+00  0.00000000000E+00 -0.13100860644E+04  0.13100860644E+04  0.25500000920E-02 0.  1.
    10030    2    1    2    0    0  0.00000000000E+00  0.00000000000E+00  0.29531442492E+03  0.29154865537E+04  0.29004915506E+04 0.  0.
        2    1    3    3  502    0 -0.90075762453E+03 -0.14200294005E+03  0.12811766879E+04  0.15725593276E+04  0.25500000920E-02 0. -1.
       -2    1    3    3    0  502  0.90075762453E+03  0.14200294005E+03 -0.98586226296E+03  0.13429272261E+04  0.25500000920E-02 0.  1.
</event>
<event>
 5   0  0.9950999E-07  0.2901409E+04  0.7818609E-02  0.8272458E-01
       -2   -1    0    0    0  501  0.00000000000E+00  0.00000000000E+00  0.16782746841E+04  0.16782746841E+04  0.25500000920E-02 0. -1.
        2   -1    0    0  501    0  0.00000000000E+00  0.00000000000E+00 -0.12539920311E+04  0.12539920311E+04  0.25500000920E-02 0.  1.
    10030    2    1    2    0    0  0.00000000000E+00  0.00000000000E+00  0.42428265296E+03  0.29322667152E+04  0.29014086785E+04 0.  0.
        3    1    3    3  502    0  0.93482645396E+03 -0.20747379087E+03 -0.88921828648E+03  0.13067727592E+04  0.10100000352E+00 0.  1.
       -3    1    3    3    0  502 -0.93482645396E+03  0.20747379087E+03  0.13135009394E+04  0.16254939560E+04  0.10100000352E+00 0. -1.
</event>
<event>
 5   0  0.3786210E-07  0.2900708E+04  0.7818609E-02  0.8272667E-01
       -1   -1    0    0    0  501  0.00000000000E+00  0.00000000000E+00  0.13172687570E+04  0.13172687570E+04  0.50400001928E-02 0. -1.
        1   -1    0    0  501    0  0.00000000000E+00  0.00000000000E+00 -0.15968849387E+04  0.15968849387E+04  0.50400001928E-02 0.  1.
    10030    2    1    2    0    0  0.00000000000E+00  0.00000000000E+00 -0.27961618169E+03  0.29141536956E+04  0.29007079399E+04 0.  0.
        5    1    3    3  502    0 -0.18277749133E+02  0.11158997301E+04 -0.10703511379E+04  0.15463634541E+04  0.46999998093E+01 0. -1.
       -5    1    3    3    0  502  0.18277749133E+02 -0.11158997301E+04  0.79073495624E+03  0.13677902415E+04  0.46999998093E+01 0.  1.
</event>
<event>
 5   0  0.1031339E-06  0.2897889E+04  0.7818609E-02  0.8273506E-01
        2   -1    0    0  501    0  0.00000000000E+00  0.00000000000E+00  0.19779347694E+04  0.19779347694E+04  0.25500000920E-02 0.  1.
       -2   -1    0    0    0  501  0.00000000000E+00  0.00000000000E+00 -0.10614306131E+04  0.10614306131E+04  0.25500000920E-02 0. -1.
    10030    2    1    2    0    0  0.00000000000E+00  0.00000000000E+00  0.91650415629E+03  0.30393653825E+04  0.28978892422E+04 0.  0.
        5    1    3    3  502    0  0.14114153813E+04 -0.23423477907E+03  0.21803072544E+03  0.14472452445E+04  0.46999998093E+01 0. -1.
       -5    1    3    3    0  502 -0.14114153813E+04  0.23423477907E+03  0.69847343085E+03  0.15921201381E+04  0.46999998093E+01 0.  1.
</event>
<event>
 5   0  0.1031339E-06  0.2901078E+04  0.7818609E-02  0.8272557E-01
       -2   -1    0    0    0  501  0.00000000000E+00  0.00000000000E+00  0.10101604138E+04  0.10101604138E+04  0.25500000920E-02 0.  1.
        2   -1    0    0  501    0  0.00000000000E+00  0.00000000000E+00 -0.20828995887E+04  0.20828995887E+04  0.25500000920E-02 0. -1.
    10030    2    1    2    0    0  0.00000000000E+00  0.00000000000E+00 -0.10727391749E+04  0.30930600024E+04  0.29010775311E+04 0.  0.
        5    1    3    3  502    0 -0.49297429691E+03 -0.91657833602E+03 -0.16136303682E+04  0.19201470148E+04  0.46999998093E+01 0. -1.
       -5    1    3    3    0  502  0.49297429691E+03  0.91657833602E+03  0.54089119331E+03  0.11729129876E+04  0.46999998093E+01 0.  1.
</event>
<event>
 5   0  0.1031339E-06  0.2892325E+04  0.7818609E-02  0.8275165E-01
       -2   -1    0    0    0  501  0.00000000000E+00  0.00000000000E+00  0.15055608842E+04  0.15055608843E+04  0.25500000920E-02 0. -1.
        2   -1    0    0  501    0  0.00000000000E+00  0.00000000000E+00 -0.13891072763E+04  0.13891072763E+04  0.25500000920E-02 0.  1.
    10030    2    1    2    0    0  0.00000000000E+00  0.00000000000E+00  0.11645360798E+03  0.28946681605E+04  0.28923247253E+04 0.  0.
        5    1    3    3  502    0  0.42319989985E+03 -0.10060830728E+04 -0.89125794156E+03  0.14091359456E+04  0.46999998093E+01 0.  1.
       -5    1    3    3    0  502 -0.42319989985E+03  0.10060830728E+04  0.10077115495E+04  0.14855322150E+04  0.46999998093E+01 0. -1.
</event>
<event>
 5   0  0.3770467E-07  0.2894605E+04  0.7818609E-02  0.8274484E-01
        1   -1    0    0  501    0  0.00000000000E+00  0.00000000000E+00  0.11343185784E+04  0.11343185784E+04  0.50400001928E-02 0.  1.
       -1   -1    0    0    0  501  0.00000000000E+00  0.00000000000E+00 -0.18466454861E+04  0.18466454861E+04  0.50400001928E-02 0. -1.
    10030    2    1    2    0    0  0.00000000000E+00  0.00000000000E+00 -0.71232690774E+03  0.29809640645E+04  0.28946048315E+04 0.  0.
        1    1    3    3  502    0 -0.67549147443E+02  0.10156828241E+04  0.70337054900E+03  0.12372973029E+04  0.50400001928E-02 0.  1.
       -1    1    3    3    0  502  0.67549147443E+02 -0.10156828241E+04 -0.14156974567E+04  0.17436667616E+04  0.50400001928E-02 0. -1.
</event>
<event>
 5   0  0.1006893E-06  0.2903737E+04  0.7818609E-02  0.8271767E-01
        2   -1    0    0  501    0  0.00000000000E+00  0.00000000000E+00  0.23621297007E+04  0.23621297007E+04  0.25500000920E-02 0. -1.
       -2   -1    0    0    0  501  0.00000000000E+00  0.00000000000E+00 -0.89238196466E+03  0.89238196466E+03  0.25500000920E-02 0.  1.
    10030    2    1    2    0    0  0.00000000000E+00  0.00000000000E+00  0.14697477360E+04  0.32545116654E+04  0.29037368635E+04 0.  0.
        4    1    3    3  502    0  0.62563584340E+03  0.12777063756E+04  0.10596482027E+04  0.17739249469E+04  0.12699999809E+01 0.  1.
       -4    1    3    3    0  502 -0.62563584340E+03 -0.12777063756E+04  0.41009953339E+03  0.14805867185E+04  0.12699999809E+01 0. -1.
</event>
<event>
 5   0  0.3770467E-07  0.2896285E+04  0.7818609E-02  0.8273984E-01
       -1   -1    0    0    0  501  0.00000000000E+00  0.00000000000E+00  0.12626100830E+04  0.12626100830E+04  0.50400001928E-02 0. -1.
        1   -1    0    0  501    0  0.00000000000E+00  0.00000000000E+00 -0.16609378467E+04  0.16609378467E+04  0.50400001928E-02 0.  1.
    10030    2    1    2    0    0  0.00000000000E+00  0.00000000000E+00 -0.39832776377E+03  0.29235479297E+04  0.28962851189E+04 0.  0.
        1    1    3    3  502    0  0.33323595684E+02 -0.28113936135E+03  0.12344041547E+04  0.12664530863E+04  0.50400001928E-02 0. -1.
       -1    1    3    3    0  502 -0.33323595684E+02  0.28113936135E+03 -0.16327319185E+04  0.16570948434E+04  0.50400001928E-02 0.  1.
</event>
<event>
 5   0  0.3769563E-07  0.2902798E+04  0.7818609E-02  0.8272046E-01
        1   -1    0    0  501    0  0.00000000000E+00  0.00000000000E+00  0.13326929988E+04  0.13326929989E+04  0.50400001928E-02 0. -1.
       -1   -1    0    0    0  501  0.00000000000E+00  0.00000000000E+00 -0.15806782078E+04  0.15806782078E+04  0.50400001928E-02 0.  1.
    10030    2    1    2    0    0  0.00000000000E+00  0.00000000000E+00 -0.24798520894E+03  0.29133712066E+04  0.29027978097E+04 0.  0.
        3    1    3    3  502    0 -0.57745985219E+03  0.70169290309E+03  0.10118212014E+04  0.13600055018E+04  0.10100000352E+00 0. -1.
       -3    1    3    3    0  502  0.57745985219E+03 -0.70169290309E+03 -0.12598064104E+04  0.15533657048E+04  0.10100000352E+00 0.  1.
</event>
<event>
 5   0  0.3885904E-07  0.2912433E+04  0.7818609E-02  0.8269188E-01
        1   -1    0    0  501    0  0.00000000000E+00  0.00000000000E+00  0.17683703065E+04  0.17683703065E+04  0.50400001928E-02 0. -1.
       -1   -1    0    0    0  501  0.00000000000E+00  0.00000000000E+00 -0.11991639248E+04  0.11991639248E+04  0.50400001928E-02 0.  1.
    10030    2    1    2    0    0  0.00000000000E+00  0.00000000000E+00  0.56920638175E+03  0.29675342313E+04  0.29124325759E+04 0.  0.
        2    1    3    3  502    0 -0.10056423046E+04  0.72520746542E+01 -0.78850662918E+03  0.12779326045E+04  0.25500000920E-02 0.  1.
       -2    1    3    3    0  502  0.10056423046E+04 -0.72520746542E+01  0.13577130109E+04  0.16896016268E+04  0.25500000920E-02 0. -1.
</event>
<event>
 5   0  0.1006893E-06  0.2900321E+04  0.7818609E-02  0.8272782E-01
        2   -1    0    0  501    0  0.00000000000E+00  0.00000000000E+00  0.17267510669E+04  0.17267510669E+04  0.25500000920E-02 0. -1.
       -2   -1    0    0    0  501  0.00000000000E+00  0.00000000000E+00 -0.12178744985E+04  0.12178744985E+04  0.25500000920E-02 0.  1.
    10030    2    1    2    0    0  0.00000000000E+00  0.00000000000E+00  0.50887656834E+03  0.29446255654E+04  0.29003214233E+04 0.  0.
        4    1    3    3  502    0 -0.11487171632E+04  0.18876474225E+03 -0.62351463472E+03  0.13205890207E+04  0.12699999809E+01 0.  1.
       -4    1    3    3    0  502  0.11487171632E+04 -0.18876474225E+03  0.11323912031E+04  0.16240365447E+04  0.12699999809E+01 0. -1.
</event>
<event>
 5   0  0.3638028E-07  0.2895168E+04  0.7818609E-02  0.8274317E-01
       -1   -1    0    0    0  501  0.00000000000E+00  0.00000000000E+00  0.13112245977E+04  0.13112245978E+04  0.50400001928E-02 0. -1.
        1   -1    0    0  501    0  0.00000000000E+00  0.00000000000E+00 -0.15981240813E+04  0.15981240813E+04  0.50400001928E-02 0.  1.
    10030    2    1    2    0    0  0.00000000000E+00  0.00000000000E+00 -0.28689948352E+03  0.29093486790E+04  0.28951681165E+04 0.  0.
        4    1    3    3  502    0 -0.26222487647E+03  0.52654115492E+02  0.12861792295E+04  0.13136943956E+04  0.12699999809E+01 0. -1.
       -4    1    3    3    0  502  0.26222487647E+03 -0.52654115492E+02 -0.15730787131E+04  0.15956542834E+04  0.12699999809E+01 0.  1.
</event>
<event>
 5   0  0.3769563E-07  0.2897268E+04  0.7818609E-02  0.8273691E-01
        1   -1    0    0  501    0  0.00000000000E+00  0.00000000000E+00  0.23340405041E+04  0.23340405041E+04  0.50400001928E-02 0.  1.
       -1   -1    0    0    0  501  0.00000000000E+00  0.00000000000E+00 -0.89910229804E+03  0.89910229805E+03  0.50400001928E-02 0. -1.
    10030    2    1    2    0    0  0.00000000000E+00  0.00000000000E+00  0.14349382061E+04  0.32331428022E+04  0.28972684936E+04 0.  0.
        3    1    3    3  502    0  0.38233464569E+03 -0.12577517363E+04  0.38289701940E+02  0.13151369978E+04  0.10100000352E+00 0. -1.
       -3    1    3    3    0  502 -0.38233464569E+03  0.12577517363E+04  0.13966485041E+04  0.19180058044E+04  0.10100000352E+00 0.  1.
</event>
<event>
 5   0  0.1063979E-06  0.2899570E+04  0.7818609E-02  0.8273005E-01
       -2   -1    0    0    0  501  0.00000000000E+00  0.00000000000E+00  0.14710963737E+04  0.14710963737E+04  0.25500000920E-02 0. -1.
        2   -1    0    0  501    0  0.00000000000E+00  0.00000000000E+00 -0.14287824577E+04  0.14287824577E+04  0.25500000920E-02 0.  1.
    10030    2    1    2    0    0  0.00000000000E+00  0.00000000000E+00  0.42313915957E+02  0.28998788314E+04  0.28995701008E+04 0.  0.
        1    1    3    3  502    0  0.93160862502E+03  0.10493776805E+04  0.38559738465E+03  0.14552571902E+04  0.50400001928E-02 0. -1.
       -1    1    3    3    0  502 -0.93160862502E+03 -0.10493776805E+04 -0.34328346869E+03  0.14446216413E+04  0.50400001928E-02 0.  1.
</event>
<event>
 5   0  0.1031339E-06  0.2865287E+04  0.7818609E-02  0.8283281E-01
       -2   -1    0    0    0  501  0.00000000000E+00  0.00000000000E+00  0.16464291445E+04  0.16464291445E+04  0.25500000920E-02 0.  1.
        2   -1    0    0  501    0  0.00000000000E+00  0.00000000000E+00 -0.12466176266E+04  0.12466176266E+04  0.25500000920E-02 0. -1.
    10030    2    1    2    0    0  0.00000000000E+00  0.00000000000E+00  0.39981151800E+03  0.28930467711E+04  0.28652871357E+04 0.  0.
        5    1    3    3  502    0  0.81848333038E+03  0.71359518294E+03  0.11434714301E+04  0.15769217003E+04  0.46999998093E+01 0.  1.
       -5    1    3    3    0  502 -0.81848333038E+03 -0.71359518294E+03 -0.74365991212E+03  0.13161250709E+04  0.46999998093E+01 0. -1.
</event>
<event>
 5   0  0.3638028E-07  0.2898563E+04  0.7818609E-02  0.8273305E-01
       -1   -1    0    0    0  501  0.00000000000E+00  0.00000000000E+00  0.13425372776E+04  0.13425372776E+04  0.50400001928E-02 0. -1.
        1   -1    0    0  501    0  0.00000000000E+00  0.00000000000E+00 -0.15645130527E+04  0.15645130527E+04  0.50400001928E-02 0.  1.
    10030    2    1    2    0    0  0.00000000000E+00  0.00000000000E+00 -0.22197577507E+03  0.29070503303E+04  0.28985631576E+04 0.  0.
        4    1    3    3  502    0  0.85755036245E+03 -0.65407231893E+03  0.85994399768E+03  0.13793870068E+04  0.12699999809E+01 0. -1.
       -4    1    3    3    0  502 -0.85755036245E+03  0.65407231893E+03 -0.10819197727E+04  0.15276633235E+04  0.12699999809E+01 0.  1.
</event>
<event>
 5   0  0.1006893E-06  0.2858573E+04  0.7818609E-02  0.8285311E-01
        2   -1    0    0  501    0  0.00000000000E+00  0.00000000000E+00  0.10789203619E+04  0.10789203619E+04  0.25500000920E-02 0.  1.
       -2   -1    0    0    0  501  0.00000000000E+00  0.00000000000E+00 -0.18934298684E+04  0.18934298684E+04  0.25500000920E-02 0. -1.
    10030    2    1    2    0    0  0.00000000000E+00  0.00000000000E+00 -0.81450950655E+03  0.29723502303E+04  0.28585730978E+04 0.  0.
        4    1    3    3  502    0  0.56563628782E+02 -0.99530399930E+03 -0.14722420104E+04  0.17780122737E+04  0.12699999809E+01 0. -1.
       -4    1    3    3    0  502 -0.56563628782E+02  0.99530399930E+03  0.65773250389E+03  0.11943379567E+04  0.12699999809E+01 0.  1.
</event>
<event>
 5   0  0.9994311E-07  0.2899253E+04  0.7818609E-02  0.8273100E-01
        2   -1    0    0  501    0  0.00000000000E+00  0.00000000000E+00  0.19748875064E+04  0.19748875064E+04  0.25500000920E-02 0. -1.
       -2   -1    0    0    0  501  0.00000000000E+00  0.00000000000E+00 -0.10640690901E+04  0.10640690901E+04  0.25500000920E-02 0.  1.
    10030    2    1    2    0    0  0.00000000000E+00  0.00000000000E+00  0.91081841628E+03  0.30389565966E+04  0.28992528362E+04 0.  0.
        2    1    3    3  502    0 -0.10063883149E+04 -0.10365435941E+04  0.33060598054E+03  0.14820730000E+04  0.25500000920E-02 0.  1.
       -2    1    3    3    0  502  0.10063883149E+04  0.10365435941E+04  0.58021243574E+03  0.15568835966E+04  0.25500000920E-02 0. -1.
</event>
<event>
 5   0  0.3770467E-07  0.2895692E+04  0.7818609E-02  0.8274160E-01
       -1   -1    0    0    0  501  0.00000000000E+00  0.00000000000E+00  0.82587868290E+03  0.82587868292E+03  0.50400001928E-02 0.  1.
        1   -1    0    0  501    0  0.00000000000E+00  0.00000000000E+00 -0.25382149789E+04  0.25382149790E+04  0.50400001928E-02 0. -1.
    10030    2    1    2    0    0  0.00000000000E+00  0.00000000000E+00 -0.17123362960E+04  0.33640936619E+04  0.28956917265E+04 0.  0.
        1    1    3    3  502    0  0.73746393004E+03  0.56809595636E+03 -0.21444483165E+04  0.23377862703E+04  0.50400001928E-02 0. -1.
       -1    1    3    3    0  502 -0.73746393004E+03 -0.56809595636E+03  0.43211202041E+03  0.10263073915E+04  0.50400001928E-02 0.  1.
</event>
<event>
 5   0  0.9994311E-07  0.2855574E+04  0.7818609E-02  0.8286220E-01
        2   -1    0    0  501    0  0.00000000000E+00  0.00000000000E+00  0.12096153443E+04  0.12096153443E+04  0.25500000920E-02 0.  1.
       -2   -1    0    0    0  501  0.00000000000E+00  0.00000000000E+00 -0.16853085200E+04  0.16853085200E+04  0.25500000920E-02 0. -1.
    10030    2    1    2    0    0  0.00000000000E+00  0.00000000000E+00 -0.47569317565E+03  0.28949238643E+04  0.28555735295E+04 0.  0.
        2    1    3    3  502    0 -0.71324000451E+03  0.12323079924E+04 -0.34552108520E+03  0.14651549790E+04  0.25500000920E-02 0.  1.
       -2    1    3    3    0  502  0.71324000451E+03 -0.12323079924E+04 -0.13017209044E+03  0.14297688853E+04  0.25500000920E-02 0. -1.
</event>
<event>
 5   0  0.3885904E-07  0.2897197E+04  0.7818609E-02  0.8273712E-01
        1   -1    0    0  501    0  0.00000000000E+00  0.00000000000E+00  0.11848334107E+04  0.11848334107E+04  0.50400001928E-02 0. -1.
       -1   -1    0    0    0  501  0.00000000000E+00  0.00000000000E+00 -0.17710818209E+04  0.17710818209E+04  0.50400001928E-02 0.  1.
    10030    2    1    2    0    0  0.00000000000E+00  0.00000000000E+00 -0.58624841026E+03  0.29559152316E+04  0.28971965170E+04 0.  0.
        2    1    3    3  502    0 -0.20872080676E+03  0.65868156875E+03 -0.15921178292E+04  0.17355877870E+04  0.25500000920E-02 0.  1.
       -2    1    3    3    0  502  0.20872080676E+03 -0.65868156875E+03  0.10058694189E+04  0.12203274446E+04  0.25500000920E-02 0. -1.
</event>
<event>
 5   0  0.3638028E-07  0.2900797E+04  0.7818609E-02  0.8272640E-01
        1   -1    0    0  501    0  0.00000000000E+00  0.00000000000E+00  0.14208614518E+04  0.14208614518E+04  0.50400001928E-02 0.  1.
       -1   -1    0    0    0  501  0.00000000000E+00  0.00000000000E+00 -0.14805497137E+04  0.14805497137E+04  0.50400001928E-02 0. -1.
    10030    2    1    2    0    0  0.00000000000E+00  0.00000000000E+00 -0.59688261879E+02  0.29014111656E+04  0.29007971427E+04 0.  0.
        4    1    3    3  502    0 -0.13710167027E+04 -0.37660281951E+03 -0.31650193497E+03  0.14566027498E+04  0.12699999809E+01 0.  1.
       -4    1    3    3    0  502  0.13710167027E+04  0.37660281951E+03  0.25681367309E+03  0.14448084158E+04  0.12699999809E+01 0. -1.
</event>
<event>
 5   0  0.1063979E-06  0.2900631E+04  0.7818609E-02  0.8272690E-01
        2   -1    0    0  501    0  0.00000000000E+00  0.00000000000E+00  0.15826077966E+04  0.15826077966E+04  0.25500000920E-02 0.  1.
       -2   -1    0    0    0  501  0.00000000000E+00  0.00000000000E+00 -0.13290820648E+04  0.13290820648E+04  0.25500000920E-02 0. -1.
    10030    2    1    2    0    0  0.00000000000E+00  0.00000000000E+00  0.25352573184E+03  0.29116898614E+04  0.29006314058E+04 0.  0.
        1    1    3    3  502    0  0.62468565827E+02  0.14358321905E+04  0.32218232296E+03  0.14728604314E+04  0.50400001928E-02 0.  1.
       -1    1    3    3    0  502 -0.62468565827E+02 -0.14358321905E+04 -0.68656591123E+02  0.14388294300E+04  0.50400001928E-02 0. -1.
</event>
<event>
 5   0  0.9994311E-07  0.2897928E+04  0.7818609E-02  0.8273494E-01
        2   -1    0    0  501    0  0.00000000000E+00  0.00000000000E+00  0.12864395041E+04  0.12864395041E+04  0.25500000920E-02 0. -1.
       -2   -1    0    0    0  501  0.00000000000E+00  0.00000000000E+00 -0.16320212638E+04  0.16320212638E+04  0.25500000920E-02 0.  1.
    10030    2    1    2    0    0  0.00000000000E+00  0.00000000000E+00 -0.34558175971E+03  0.29184607679E+04  0.28979279669E+04 0.  0.
        2    1    3    3  502    0 -0.99250904788E+03  0.66649486894E+03  0.65167133142E+03  0.13616038868E+04  0.25500000920E-02 0. -1.
       -2    1    3    3    0  502  0.99250904788E+03 -0.66649486894E+03 -0.99725309113E+03  0.15568568811E+04  0.25500000920E-02 0.  1.
</event>
<event>
 5   0  0.3770467E-07  0.2905527E+04  0.7818609E-02  0.8271235E-01
        1   -1    0    0  501    0  0.00000000000E+00  0.00000000000E+00  0.13319404455E+04  0.13319404455E+04  0.50400001928E-02 0. -1.
       -1   -1    0    0    0  501  0.00000000000E+00  0.00000000000E+00 -0.15845464224E+04  0.15845464224E+04  0.50400001928E-02 0.  1.
    10030    2    1    2    0    0  0.00000000000E+00  0.00000000000E+00 -0.25260597688E+03  0.29164868680E+04  0.29055267804E+04 0.  0.
        1    1    3    3  502    0 -0.90848246693E+03 -0.77776382478E+03 -0.95419568034E+03  0.15299497888E+04  0.50400001928E-02 0.  1.
       -1    1    3    3    0  502  0.90848246693E+03  0.77776382478E+03  0.70158970346E+03  0.13865370792E+04  0.50400001928E-02 0. -1.
</event>
<event>
 5   0  0.3885904E-07  0.2899884E+04  0.7818609E-02  0.8272912E-01
        1   -1    0    0  501    0  0.00000000000E+00  0.00000000000E+00  0.11950773024E+04  0.11950773025E+04  0.50400001928E-02 0. -1.
       -1   -1    0    0    0  501  0.00000000000E+00  0.00000000000E+00 -0.17591600311E+04  0.17591600311E+04  0.50400001928E-02 0.  1.
    10030    2    1    2    0    0  0.00000000000E+00  0.00000000000E+00 -0.56408272869E+03  0.29542373336E+04  0.28998842905E+04 0.  0.
        2    1    3    3  502    0  0.13928032679E+04  0.38696459973E+03 -0.16728149392E+03  0.14552063918E+04  0.25500000920E-02 0.  1.
       -2    1    3    3    0  502 -0.13928032679E+04 -0.38696459973E+03 -0.39680123477E+03  0.14990309418E+04  0.25500000920E-02 0. -1.
</event>
<event>
 5   0  0.1063979E-06  0.2938480E+04  0.7818609E-02  0.8261520E-01
       -2   -1    0    0    0  501  0.00000000000E+00  0.00000000000E+00  0.90934571847E+03  0.90934571847E+03  0.25500000920E-02 0.  1.
        2   -1    0    0  501    0  0.00000000000E+00  0.00000000000E+00 -0.23738667609E+04  0.23738667609E+04  0.25500000920E-02 0. -1.
    10030    2    1    2    0    0  0.00000000000E+00  0.00000000000E+00 -0.14645210424E+04  0.32832124794E+04  0.29384795900E+04 0.  0.
        1    1    3    3  502    0 -0.37644341425E+03 -0.54002722650E+03  0.73535386738E+03  0.98695712156E+03  0.50400001928E-02 0.  1.
       -1    1    3    3    0  502  0.37644341425E+03  0.54002722650E+03 -0.21998749098E+04  0.22962553578E+04  0.50400001928E-02 0. -1.
</event>
<event>
 5   0  0.3885904E-07  0.2897280E+04  0.7818609E-02  0.8273687E-01
       -1   -1    0    0    0  501  0.00000000000E+00  0.00000000000E+00  0.16832237514E+04  0.16832237514E+04  0.50400001928E-02 0.  1.
        1   -1    0    0  501    0  0.00000000000E+00  0.00000000000E+00 -0.12467496063E+04  0.12467496063E+04  0.50400001928E-02 0. -1.
    10030    2    1    2    0    0  0.00000000000E+00  0.00000000000E+00  0.43647414507E+03  0.29299733577E+04  0.28972804830E+04 0.  0.
        2    1    3    3  502    0 -0.10667186131E+04 -0.32345620454E+03 -0.71743074065E+03  0.13256015176E+04  0.25500000920E-02 0. -1.
       -2    1    3    3    0  502  0.10667186131E+04  0.32345620454E+03  0.11539048857E+04  0.16043718401E+04  0.25500000920E-02 0.  1.
</event>
<event>
 5   0  0.3769563E-07  0.2902347E+04  0.7818609E-02  0.8272180E-01
        1   -1    0    0  501    0  0.00000000000E+00  0.00000000000E+00  0.21654628514E+04  0.21654628514E+04  0.50400001928E-02 0.  1.
       -1   -1    0    0    0  501  0.00000000000E+00  0.00000000000E+00 -0.97249610070E+03  0.97249610072E+03  0.50400001928E-02 0. -1.
    10030    2    1    2    0    0  0.00000000000E+00  0.00000000000E+00  0.11929667507E+04  0.31379589521E+04  0.29023467603E+04 0.  0.
        3    1    3    3  502    0  0.93333365436E+03 -0.95650617270E+03 -0.15017672245E+02  0.13365033892E+04  0.10100000352E+00 0.  1.
       -3    1    3    3    0  502 -0.93333365436E+03  0.95650617270E+03  0.12079844230E+04  0.18014555629E+04  0.10100000352E+00 0. -1.
</event>
<event>
 5   0  0.1006893E-06  0.2906292E+04  0.7818609E-02  0.8271008E-01
        2   -1    0    0  501    0  0.00000000000E+00  0.00000000000E+00  0.17179489972E+04  0.17179489972E+04  0.25500000920E-02 0.  1.
       -2   -1    0    0    0  501  0.00000000000E+00  0.00000000000E+00 -0.12291594375E+04  0.12291594375E+04  0.25500000920E-02 0. -1.
    10030    2    1    2    0    0  0.00000000000E+00  0.00000000000E+00  0.48878955967E+03  0.29471084347E+04  0.29062919489E+04 0.  0.
        4    1    3    3  502    0  0.12520012568E+04 -0.31119791599E+03 -0.43378802109E+03  0.13610749245E+04  0.12699999809E+01 0. -1.
       -4    1    3    3    0  502 -0.12520012568E+04  0.31119791599E+03  0.92257758076E+03  0.15860335102E+04  0.12699999809E+01 0.  1.
</event>
<event>
 5   0  0.1006893E-06  0.2873062E+04  0.7818609E-02  0.8280938E-01
        2   -1    0    0  501    0  0.00000000000E+00  0.00000000000E+00  0.24918965256E+04  0.24918965256E+04  0.25500000920E-02 0.  1.
       -2   -1    0    0    0  501  0.00000000000E+00  0.00000000000E+00 -0.82813310739E+03  0.82813310739E+03  0.25500000920E-02 0. -1.
    10030    2    1    2    0    0  0.00000000000E+00  0.00000000000E+00  0.16637634182E+04  0.33200296330E+04  0.28730624866E+04 0.  0.
        4    1    3    3  502    0 -0.82202238337E+03  0.58584463203E+03 -0.34922655120E+03  0.10681271126E+04  0.12699999809E+01 0. -1.
       -4    1    3    3    0  502  0.82202238337E+03 -0.58584463203E+03  0.20129899694E+04  0.22519025204E+04  0.12699999809E+01 0.  1.
</event>
<event>
 5   0  0.1006893E-06  0.2900895E+04  0.7818609E-02  0.8272611E-01
        2   -1    0    0  501    0  0.00000000000E+00  0.00000000000E+00  0.27055371831E+04  0.27055371831E+04  0.25500000920E-02 0. -1.
       -2   -1    0    0    0  501  0.00000000000E+00  0.00000000000E+00 -0.77758985537E+03  0.77758985537E+03  0.25500000920E-02 0.  1.
    10030    2    1    2    0    0  0.00000000000E+00  0.00000000000E+00  0.19279473277E+04  0.34831270385E+04  0.29008952183E+04 0.  0.
        4    1    3    3  502    0  0.11076601293E+04 -0.11106442366E+03  0.20804060516E+04  0.23595205488E+04  0.12699999809E+01 0. -1.
       -4    1    3    3    0  502 -0.11076601293E+04  0.11106442366E+03 -0.15245872384E+03  0.11236064896E+04  0.12699999809E+01 0.  1.
</event>
<event>
 5   0  0.9950999E-07  0.2897879E+04  0.7818609E-02  0.8273509E-01
        2   -1    0    0  501    0  0.00000000000E+00  0.00000000000E+00  0.14237755166E+04  0.14237755166E+04  0.25500000920E-02 0. -1.
       -2   -1    0    0    0  501  0.00000000000E+00  0.00000000000E+00 -0.14745484147E+04  0.14745484147E+04  0.25500000920E-02 0.  1.
    10030    2    1    2    0    0  0.00000000000E+00  0.00000000000E+00 -0.50772898129E+02  0.28983239313E+04  0.28978791769E+04 0.  0.
        3    1    3    3  502    0  0.12632171323E+04 -0.35877167898E+03  0.58707284974E+03  0.14384328911E+04  0.10100000352E+00 0. -1.
       -3    1    3    3    0  502 -0.12632171323E+04  0.35877167898E+03 -0.63784574787E+03  0.14598910402E+04  0.10100000352E+00 0.  1.
</event>
<event>
 5   0  0.3770467E-07  0.2898848E+04  0.7818609E-02  0.8273220E-01
       -1   -1    0    0    0  501  0.00000000000E+00  0.00000000000E+00  0.10628971420E+04  0.10628971421E+04  0.50400001928E-02 0.  1.
        1   -1    0    0  501    0  0.00000000000E+00  0.00000000000E+00 -0.19765134737E+04  0.19765134737E+04  0.50400001928E-02 0. -1.
    10030    2    1    2    0    0  0.00000000000E+00  0.00000000000E+00 -0.91361633169E+03  0.30394106158E+04  0.28988484075E+04 0.  0.
        1    1    3    3  502    0  0.99146261276E+03  0.21637187985E+03 -0.15418882024E+04  0.18458694785E+04  0.50400001928E-02 0. -1.
       -1    1    3    3    0  502 -0.99146261276E+03 -0.21637187985E+03  0.62827187072E+03  0.11935411373E+04  0.50400001928E-02 0.  1.
</event>
<event>
 5   0  0.9994311E-07  0.2894166E+04  0.7818609E-02  0.8274615E-01
       -2   -1    0    0    0  501  0.00000000000E+00  0.00000000000E+00  0.11884381660E+04  0.11884381660E+04  0.25500000920E-02 0.  1.
        2   -1    0    0  501    0  0.00000000000E+00  0.00000000000E+00 -0.17620183417E+04  0.17620183417E+04  0.25500000920E-02 0. -1.
    10030    2    1    2    0    0  0.00000000000E+00  0.00000000000E+00 -0.57358017570E+03  0.29504565077E+04  0.28941664406E+04 0.  0.
        2    1    3    3  502    0 -0.27197348836E+03 -0.68964003780E+03 -0.15537311745E+04  0.17215265094E+04  0.25500000920E-02 0. -1.
       -2    1    3    3    0  502  0.27197348836E+03  0.68964003780E+03  0.98015099879E+03  0.12289299982E+04  0.25500000920E-02 0.  1.
</event>
<event>
 5   0  0.1063979E-06  0.2896224E+04  0.7818609E-02  0.8274002E-01
        2   -1    0    0  501    0  0.00000000000E+00  0.00000000000E+00  0.12316986460E+04  0.12316986460E+04  0.25500000920E-02 0.  1.
       -2   -1    0    0    0  501  0.00000000000E+00  0.00000000000E+00 -0.17025502392E+04  0.17025502393E+04  0.25500000920E-02 0. -1.
    10030    2    1    2    0    0  0.00000000000E+00  0.00000000000E+00 -0.47085159322E+03  0.29342488853E+04  0.28962243176E+04 0.  0.
        1    1    3    3  502    0  0.99403711067E+02 -0.44199719939E+03  0.11580543303E+04  0.12435161655E+04  0.50400001928E-02 0.  1.
       -1    1    3    3    0  502 -0.99403711067E+02  0.44199719939E+03 -0.16289059235E+04  0.16907327198E+04  0.50400001928E-02 0. -1.
</event>
<event>
 5   0  0.3885904E-07  0.2822492E+04  0.7818609E-02  0.8296319E-01
       -1   -1    0    0    0  501  0.00000000000E+00  0.00000000000E+00  0.89624127229E+03  0.89624127230E+03  0.50400001928E-02 0.  1.
        1   -1    0    0  501    0  0.00000000000E+00  0.00000000000E+00 -0.22221861701E+04  0.22221861701E+04  0.50400001928E-02 0. -1.
    10030    2    1    2    0    0  0.00000000000E+00  0.00000000000E+00 -0.13259448978E+04  0.31184274424E+04  0.28224917788E+04 0.  0.
        2    1    3    3  502    0 -0.42779306858E+03  0.12063410114E+04 -0.62147895506E+01  0.12799625654E+04  0.25500000920E-02 0.  1.
       -2    1    3    3    0  502  0.42779306858E+03 -0.12063410114E+04 -0.13197301083E+04  0.18384648770E+04  0.25500000920E-02 0. -1.
</event>
<event>
 5   0  0.3885904E-07  0.2910105E+04  0.7818609E-02  0.8269877E-01
       -1   -1    0    0    0  501  0.00000000000E+00  0.00000000000E+00  0.17352197225E+04  0.17352197225E+04  0.50400001928E-02 0. -1.
        1   -1    0    0  501    0  0.00000000000E+00  0.00000000000E+00 -0.12201206511E+04  0.12201206511E+04  0.50400001928E-02 0.  1.
    10030    2    1    2    0    0  0.00000000000E+00  0.00000000000E+00  0.51509907142E+03  0.29553403736E+04  0.29101047525E+04 0.  0.
        2    1    3    3  502    0 -0.12918237063E+04  0.63593882205E+03  0.44646428136E+02  0.14405623822E+04  0.25500000920E-02 0.  1.
       -2    1    3    3    0  502  0.12918237063E+04 -0.63593882205E+03  0.47045264328E+03  0.15147779914E+04  0.25500000920E-02 0. -1.
</event>
<event>
 5   0  0.1006893E-06  0.2898730E+04  0.7818609E-02  0.8273256E-01
        2   -1    0    0  501    0  0.00000000000E+00  0.00000000000E+00  0.20162010691E+04  0.20162010691E+04  0.25500000920E-02 0.  1.
       -2   -1    0    0    0  501  0.00000000000E+00  0.00000000000E+00 -0.10418894251E+04  0.10418894251E+04  0.25500000920E-02 0. -1.
    10030    2    1    2    0    0  0.00000000000E+00  0.00000000000E+00  0.97431164400E+03  0.30580904942E+04  0.28987297720E+04 0.  0.
        4    1    3    3  502    0 -0.70456116976E+03  0.11923882917E+04  0.93779323589E+03  0.16726189185E+04  0.12699999809E+01 0.  1.
       -4    1    3    3    0  502  0.70456116976E+03 -0.11923882917E+04  0.36518408113E+02  0.13854715758E+04  0.12699999809E+01 0. -1.
</event>
<event>
 5   0  0.1006893E-06  0.2898144E+04  0.7818609E-02  0.8273430E-01
        2   -1    0    0  501    0  0.00000000000E+00  0.00000000000E+00  0.14322755944E+04  0.14322755944E+04  0.25500000920E-02 0.  1.
       -2   -1    0    0    0  501  0.00000000000E+00  0.00000000000E+00 -0.14660651781E+04  0.14660651781E+04  0.25500000920E-02 0. -1.
    10030    2    1    2    0    0  0.00000000000E+00  0.00000000000E+00 -0.33789583760E+02  0.28983407725E+04  0.28981438021E+04 0.  0.
        4    1    3    3  502    0  0.78316464599E+03 -0.40423019271E+03  0.11334263362E+04  0.14357596540E+04  0.12699999809E+01 0.  1.
       -4    1    3    3    0  502 -0.78316464599E+03  0.40423019271E+03 -0.11672159200E+04  0.14625811185E+04  0.12699999809E+01 0. -1.
</event>
<event>
 5   0  0.1006893E-06  0.2901676E+04  0.7818609E-02  0.8272379E-01
       -2   -1    0    0    0  501  0.00000000000E+00  0.00000000000E+00  0.14752325390E+04  0.14752325390E+04  0.25500000920E-02 0.  1.
        2   -1    0    0  501    0  0.00000000000E+00  0.00000000000E+00 -0.14268469604E+04  0.14268469604E+04  0.25500000920E-02 0. -1.
    10030    2    1    2    0    0  0.00000000000E+00  0.00000000000E+00  0.48385578623E+02  0.29020794994E+04  0.29016761116E+04 0.  0.
        4    1    3    3  502    0  0.11946289635E+04 -0.25713798338E+02 -0.79880063240E+03  0.14373182052E+04  0.12699999809E+01 0. -1.
       -4    1    3    3    0  502 -0.11946289635E+04  0.25713798338E+02  0.84718621102E+03  0.14647612942E+04  0.12699999809E+01 0.  1.
</event>
<event>
 5   0  0.3769563E-07  0.2903878E+04  0.7818609E-02  0.8271725E-01
        1   -1    0    0  501    0  0.00000000000E+00  0.00000000000E+00  0.17141436588E+04  0.17141436588E+04  0.50400001928E-02 0. -1.
       -1   -1    0    0    0  501  0.00000000000E+00  0.00000000000E+00 -0.12298425546E+04  0.12298425546E+04  0.50400001928E-02 0.  1.
    10030    2    1    2    0    0  0.00000000000E+00  0.00000000000E+00  0.48430110416E+03  0.29439862134E+04  0.29038779701E+04 0.  0.
        3    1    3    3  502    0  0.91327836180E+03 -0.10918140744E+04  0.53244701097E+03  0.15197483900E+04  0.10100000352E+00 0.  1.
       -3    1    3    3    0  502 -0.91327836180E+03  0.10918140744E+04 -0.48145906813E+02  0.14242378234E+04  0.10100000352E+00 0. -1.
</event>
<event>
 5   0  0.3786210E-07  0.2899669E+04  0.7818609E-02  0.8272976E-01
        1   -1    0    0  501    0  0.00000000000E+00  0.00000000000E+00  0.16132303698E+04  0.16132303698E+04  0.50400001928E-02 0. -1.
       -1   -1    0    0    0  501  0.00000000000E+00  0.00000000000E+00 -0.13029883594E+04  0.13029883594E+04  0.50400001928E-02 0.  1.
    10030    2    1    2    0    0  0.00000000000E+00  0.00000000000E+00  0.31024201042E+03  0.29162187293E+04  0.28996692177E+04 0.  0.
        5    1    3    3  502    0 -0.26504584030E+02  0.10429407998E+03 -0.12989588657E+04  0.13034170372E+04  0.46999998093E+01 0.  1.
       -5    1    3    3    0  502  0.26504584030E+02 -0.10429407998E+03  0.16092008761E+04  0.16128016920E+04  0.46999998093E+01 0. -1.
</event>
<event>
 5   0  0.9994311E-07  0.2902845E+04  0.7818609E-02  0.8272031E-01
        2   -1    0    0  501    0  0.00000000000E+00  0.00000000000E+00  0.13466422123E+04  0.13466422123E+04  0.25500000920E-02 0.  1.
       -2   -1    0    0    0  501  0.00000000000E+00  0.00000000000E+00 -0.15643559643E+04  0.15643559643E+04  0.25500000920E-02 0. -1.
    10030    2    1    2    0    0  0.00000000000E+00  0.00000000000E+00 -0.21771375204E+03  0.29109981766E+04  0.29028453466E+04 0.  0.
        2    1    3    3  502    0 -0.78161931900E+03  0.28704633275E+03 -0.13010201521E+04  0.15446610610E+04  0.25500000920E-02 0. -1.
       -2    1    3    3    0  502  0.78161931900E+03 -0.28704633275E+03  0.10833064001E+04  0.13663371156E+04  0.25500000920E-02 0.  1.
</event>
<event>
 5   0  0.3885904E-07  0.2971535E+04  0.7818609E-02  0.8251906E-01
       -1   -1    0    0    0  501  0.00000000000E+00  0.00000000000E+00  0.14474388876E+04  0.14474388876E+04  0.50400001928E-02 0.  1.
        1   -1    0    0  501    0  0.00000000000E+00  0.00000000000E+00 -0.15251115624E+04  0.15251115624E+04  0.50400001928E-02 0. -1.
    10030    2    1    2    0    0  0.00000000000E+00  0.00000000000E+00 -0.77672674813E+02  0.29725504500E+04  0.29715354841E+04 0.  0.
        2    1    3    3  502    0 -0.90634049141E+03 -0.85768636065E+03  0.76792955352E+03  0.14651944509E+04  0.25500000920E-02 0.  1.
       -2    1    3    3    0  502  0.90634049141E+03  0.85768636065E+03 -0.84560222833E+03  0.15073559992E+04  0.25500000920E-02 0. -1.
</event>
<event>
 5   0  0.3885904E-07  0.2908995E+04  0.7818609E-02  0.8270206E-01
        1   -1    0    0  501    0  0.00000000000E+00  0.00000000000E+00  0.17306031200E+04  0.17306031200E+04  0.50400001928E-02 0.  1.
       -1   -1    0    0    0  501  0.00000000000E+00  0.00000000000E+00 -0.12224429254E+04  0.12224429254E+04  0.50400001928E-02 0. -1.
    10030    2    1    2    0    0  0.00000000000E+00  0.00000000000E+00  0.50816019457E+03  0.29530460454E+04  0.29089953872E+04 0.  0.
        2    1    3    3  502    0  0.18914596801E+03 -0.69971773209E+03 -0.10260398433E+04  0.12562399698E+04  0.25500000920E-02 0. -1.
       -2    1    3    3    0  502 -0.18914596801E+03  0.69971773209E+03  0.15342000379E+04  0.16968060755E+04  0.25500000920E-02 0.  1.
</event>
<event>
 5   0  0.3770467E-07  0.2891312E+04  0.7818609E-02  0.8275467E-01
        1   -1    0    0  501    0  0.00000000000E+00  0.00000000000E+00  0.15912607793E+04  0.15912607793E+04  0.50400001928E-02 0. -1.
       -1   -1    0    0    0  501  0.00000000000E+00  0.00000000000E+00 -0.13133746584E+04  0.13133746584E+04  0.50400001928E-02 0.  1.
    10030    2    1    2    0    0  0.00000000000E+00  0.00000000000E+00  0.27788612085E+03  0.29046354377E+04  0.28913122159E+04 0.  0.
        1    1    3    3  502    0 -0.10373859288E+04 -0.58289226397E+03 -0.68580807896E+03  0.13734138771E+04  0.50400001928E-02 0.  1.
       -1    1    3    3    0  502  0.10373859288E+04  0.58289226397E+03  0.96369419981E+03  0.15312215605E+04  0.50400001928E-02 0. -1.
</event>
<event>
 5   0  0.9994311E-07  0.2901832E+04  0.7818609E-02  0.8272333E-01
       -2   -1    0    0    0  501  0.00000000000E+00  0.00000000000E+00  0.14572092812E+04  0.14572092812E+04  0.25500000920E-02 0. -1.
        2   -1    0    0  501    0  0.00000000000E+00  0.00000000000E+00 -0.14446500962E+04  0.14446500962E+04  0.25500000920E-02 0.  1.
    10030    2    1    2    0    0  0.00000000000E+00  0.00000000000E+00  0.12559185017E+02  0.29018593775E+04  0.29018321994E+04 0.  0.
        2    1    3    3  502    0  0.11605495215E+04  0.62494488896E+03 -0.60013042580E+03  0.14483051592E+04  0.25500000920E-02 0. -1.
       -2    1    3    3    0  502 -0.11605495215E+04 -0.62494488896E+03  0.61268961082E+03  0.14535542183E+04  0.25500000920E-02 0.  1.
</event>
<event>
 5   0  0.1006893E-06  0.2902184E+04  0.7818609E-02  0.8272228E-01
        2   -1    0    0  501    0  0.00000000000E+00  0.00000000000E+00  0.13456338313E+04  0.13456338313E+04  0.25500000920E-02 0.  1.
       -2   -1    0    0    0  501  0.00000000000E+00  0.00000000000E+00 -0.15648154892E+04  0.15648154892E+04  0.25500000920E-02 0. -1.
    10030    2    1    2    0    0  0.00000000000E+00  0.00000000000E+00 -0.21918165790E+03  0.29104493205E+04  0.29021844614E+04 0.  0.
        4    1    3    3  502    0  0.86570424354E+03 -0.69527884573E+03 -0.10464946702E+04  0.15257815106E+04  0.12699999809E+01 0. -1.
       -4    1    3    3    0  502 -0.86570424354E+03  0.69527884573E+03  0.82731301226E+03  0.13846678099E+04  0.12699999809E+01 0.  1.
</event>
<event>
 5   0  0.3770467E-07  0.2897836E+04  0.7818609E-02  0.8273522E-01
        1   -1    0    0  501    0  0.00000000000E+00  0.00000000000E+00  0.23426668340E+04  0.23426668340E+04  0.50400001928E-02 0.  1.
       -1   -1    0    0    0  501  0.00000000000E+00  0.00000000000E+00 -0.89614236747E+03  0.89614236749E+03  0.50400001928E-02 0. -1.
    10030    2    1    2    0    0  0.00000000000E+00  0.00000000000E+00  0.14465244666E+04  0.32388092015E+04  0.28978357461E+04 0.  0.
        1    1    3    3  502    0 -0.59423978002E+03  0.12391498177E+04  0.21017028300E+03  0.13902462856E+04  0.50400001928E-02 0. -1.
       -1    1    3    3    0  502  0.59423978002E+03 -0.12391498177E+04  0.12363541836E+04  0.18485629159E+04  0.50400001928E-02 0.  1.
</event>
<event>
 5   0  0.1063979E-06  0.2897545E+04  0.7818609E-02  0.8273608E-01
        2   -1    0    0  501    0  0.00000000000E+00  0.00000000000E+00  0.25977469618E+04  0.25977469618E+04  0.25500000920E-02 0. -1.
       -2   -1    0    0    0  501  0.00000000000E+00  0.00000000000E+00 -0.80798564840E+03  0.80798564840E+03  0.25500000920E-02 0.  1.
    10030    2    1    2    0    0  0.00000000000E+00  0.00000000000E+00  0.17897613134E+04  0.34057326102E+04  0.28975453496E+04 0.  0.
        1    1    3    3  502    0  0.10392952354E+04  0.42686174955E+03  0.19699547231E+04  0.22678331399E+04  0.50400001928E-02 0. -1.
       -1    1    3    3    0  502 -0.10392952354E+04 -0.42686174955E+03 -0.18019340970E+03  0.11378994703E+04  0.50400001928E-02 0.  1.
</event>
<event>
 5   0  0.3885904E-07  0.2896000E+04  0.7818609E-02  0.8274069E-01
       -1   -1    0    0    0  501  0.00000000000E+00  0.00000000000E+00  0.96751678822E+03  0.96751678823E+03  0.50400001928E-02 0.  1.
        1   -1    0    0  501    0  0.00000000000E+00  0.00000000000E+00 -0.21670986757E+04  0.21670986757E+04  0.50400001928E-02 0. -1.
    10030    2    1    2    0    0  0.00000000000E+00  0.00000000000E+00 -0.11995818875E+04  0.31346154640E+04  0.28960002421E+04 0.  0.
        2    1    3    3  502    0 -0.64258580778E+03  0.12933894966E+04 -0.48662275388E+03  0.15239995456E+04  0.25500000920E-02 0.  1.
       -2    1    3    3    0  502  0.64258580778E+03 -0.12933894966E+04 -0.71295913361E+03  0.16106159184E+04  0.25500000920E-02 0. -1.
</event>
<event>
 5   0  0.3770467E-07  0.2894953E+04  0.7818609E-02  0.8274381E-01
        1   -1    0    0  501    0  0.00000000000E+00  0.00000000000E+00  0.11598851124E+04  0.11598851124E+04  0.50400001928E-02 0.  1.
       -1   -1    0    0    0  501  0.00000000000E+00  0.00000000000E+00 -0.18063760058E+04  0.18063760058E+04  0.50400001928E-02 0. -1.
    10030    2    1    2    0    0  0.00000000000E+00  0.00000000000E+00 -0.64649089345E+03  0.29662611182E+04  0.28949532891E+04 0.  0.
        1    1    3    3  502    0  0.57490579178E+03  0.27926133303E+03 -0.16539597330E+04  0.17731571729E+04  0.50400001928E-02 0. -1.
       -1    1    3    3    0  502 -0.57490579178E+03 -0.27926133303E+03  0.10074688396E+04  0.11931039453E+04  0.50400001928E-02 0.  1.
</event>
<event>
 5   0  0.3770467E-07  0.2893097E+04  0.7818609E-02  0.8274934E-01
        1   -1    0    0  501    0  0.00000000000E+00  0.00000000000E+00  0.27090937035E+04  0.27090937036E+04  0.50400001928E-02 0.  1.
       -1   -1    0    0    0  501  0.00000000000E+00  0.00000000000E+00 -0.77239945097E+03  0.77239945098E+03  0.50400001928E-02 0. -1.
    10030    2    1    2    0    0  0.00000000000E+00  0.00000000000E+00  0.19366942526E+04  0.34814931545E+04  0.28930969491E+04 0.  0.
        1    1    3    3  502    0  0.47206137690E+03 -0.78641234835E+03  0.23144204929E+04  0.24895438424E+04  0.50400001928E-02 0.  1.
       -1    1    3    3    0  502 -0.47206137690E+03  0.78641234835E+03 -0.37772624032E+03  0.99194931214E+03  0.50400001928E-02 0. -1.
</event>
<event>
 5   0  0.3770467E-07  0.2903382E+04  0.7818609E-02  0.8271872E-01
       -1   -1    0    0    0  501  0.00000000000E+00  0.00000000000E+00  0.12150216174E+04  0.12150216174E+04  0.50400001928E-02 0.  1.
        1   -1    0    0  501    0  0.00000000000E+00  0.00000000000E+00 -0.17344605743E+04  0.17344605743E+04  0.50400001928E-02 0. -1.
    10030    2    1    2    0    0  0.00000000000E+00  0.00000000000E+00 -0.51943895682E+03  0.29494821917E+04  0.29033822293E+04 0.  0.
        1    1    3    3  502    0 -0.94588945137E+03  0.24861704714E+03 -0.13495486660E+04  0.16666730010E+04  0.50400001928E-02 0. -1.
       -1    1    3    3    0  502  0.94588945137E+03 -0.24861704714E+03  0.83010970920E+03  0.12828091907E+04  0.50400001928E-02 0.  1.
</event>
<event>
 5   0  0.3770467E-07  0.2900886E+04  0.7818609E-02  0.8272614E-01
       -1   -1    0    0    0  501  0.00000000000E+00  0.00000000000E+00  0.11808163452E+04  0.11808163452E+04  0.50400001928E-02 0.  1.
        1   -1    0    0  501    0  0.00000000000E+00  0.00000000000E+00 -0.17816360546E+04  0.17816360546E+04  0.50400001928E-02 0. -1.
    10030    2    1    2    0    0  0.00000000000E+00  0.00000000000E+00 -0.60081970939E+03  0.29624523998E+04  0.29008860539E+04 0.  0.
        1    1    3    3  502    0 -0.84338939513E+03  0.24350465756E+03 -0.14795512468E+04  0.17203697516E+04  0.50400001928E-02 0. -1.
       -1    1    3    3    0  502  0.84338939513E+03 -0.24350465756E+03  0.87873153742E+03  0.12420826482E+04  0.50400001928E-02 0.  1.
</event>
<event>
 5   0  0.3885904E-07  0.2898031E+04  0.7818609E-02  0.8273464E-01
        1   -1    0    0  501    0  0.00000000000E+00  0.00000000000E+00  0.15576418387E+04  0.15576418387E+04  0.50400001928E-02 0. -1.
       -1   -1    0    0    0  501  0.00000000000E+00  0.00000000000E+00 -0.13479645756E+04  0.13479645756E+04  0.50400001928E-02 0.  1.
    10030    2    1    2    0    0  0.00000000000E+00  0.00000000000E+00  0.20967726305E+03  0.29056064143E+04  0.28980310695E+04 0.  0.
        2    1    3    3  502    0  0.88887928856E+03  0.12714397973E+03  0.12450774393E+04  0.15350862553E+04  0.25500000920E-02 0. -1.
       -2    1    3    3    0  502 -0.88887928856E+03 -0.12714397973E+03 -0.10354001763E+04  0.13705201590E+04  0.25500000920E-02 0.  1.
</event>
<event>
 5   0  0.3770467E-07  0.2904235E+04  0.7818609E-02  0.8271619E-01
        1   -1    0    0  501    0  0.00000000000E+00  0.00000000000E+00  0.11346210328E+04  0.11346210328E+04  0.50400001928E-02 0. -1.
       -1   -1    0    0    0  501  0.00000000000E+00  0.00000000000E+00 -0.18584575880E+04  0.18584575880E+04  0.50400001928E-02 0.  1.
    10030    2    1    2    0    0  0.00000000000E+00  0.00000000000E+00 -0.72383655514E+03  0.29930786208E+04  0.29042348858E+04 0.  0.
        1    1    3    3  502    0 -0.53384598285E+03 -0.43648357198E+03 -0.16789538748E+04  0.18150469844E+04  0.50400001928E-02 0.  1.
       -1    1    3    3    0  502  0.53384598285E+03  0.43648357198E+03  0.95511731965E+03  0.11780316364E+04  0.50400001928E-02 0. -1.
</event>
<event>
 5   0  0.9994311E-07  0.2896008E+04  0.7818609E-02  0.8274066E-01
       -2   -1    0    0    0  501  0.00000000000E+00  0.00000000000E+00  0.15280222467E+04  0.15280222467E+04  0.25500000920E-02 0. -1.
        2   -1    0    0  501    0  0.00000000000E+00  0.00000000000E+00 -0.13721763298E+04  0.13721763298E+04  0.25500000920E-02 0.  1.
    10030    2    1    2    0    0  0.00000000000E+00  0.00000000000E+00  0.15584591685E+03  0.29001985765E+04  0.28960082585E+04 0.  0.
        2    1    3    3  502    0 -0.88395380122E+03 -0.98435352409E+03 -0.51147750237E+03  0.14184270931E+04  0.25500000920E-02 0.  1.
       -2    1    3    3    0  502  0.88395380122E+03  0.98435352409E+03  0.66732341921E+03  0.14817714834E+04  0.25500000920E-02 0. -1.
</event>
<event>
 5   0  0.3885904E-07  0.2857235E+04  0.7818609E-02  0.8285716E-01
        1   -1    0    0  501    0  0.00000000000E+00  0.00000000000E+00  0.20601803644E+04  0.20601803644E+04  0.50400001928E-02 0. -1.
       -1   -1    0    0    0  501  0.00000000000E+00  0.00000000000E+00 -0.99066442648E+03  0.99066442650E+03  0.50400001928E-02 0.  1.
    10030    2    1    2    0    0  0.00000000000E+00  0.00000000000E+00  0.10695159379E+04  0.30508447909E+04  0.28572346065E+04 0.  0.
        2    1    3    3  502    0 -0.12724371625E+04  0.19439067591E+01 -0.15875061810E+03  0.12823033456E+04  0.25500000920E-02 0.  1.
       -2    1    3    3    0  502  0.12724371625E+04 -0.19439067591E+01  0.12282665560E+04  0.17685414453E+04  0.25500000920E-02 0. -1.
</event>
<event>
 5   0  0.3786210E-07  0.2893718E+04  0.7818609E-02  0.8274749E-01
        1   -1    0    0  501    0  0.00000000000E+00  0.00000000000E+00  0.16321205945E+04  0.16321205945E+04  0.50400001928E-02 0. -1.
       -1   -1    0    0    0  501  0.00000000000E+00  0.00000000000E+00 -0.12826263767E+04  0.12826263767E+04  0.50400001928E-02 0.  1.
    10030    2    1    2    0    0  0.00000000000E+00  0.00000000000E+00  0.34949421783E+03  0.29147469713E+04  0.28937179714E+04 0.  0.
        5    1    3    3  502    0  0.33754440577E+03 -0.13529896304E+04 -0.21388269155E+03  0.14107746318E+04  0.46999998093E+01 0. -1.
       -5    1    3    3    0  502 -0.33754440577E+03  0.13529896304E+04  0.56337690938E+03  0.15039723395E+04  0.46999998093E+01 0.  1.
</event>
<event>
 5   0  0.1063979E-06  0.2895768E+04  0.7818609E-02  0.8274138E-01
       -2   -1    0    0    0  501  0.00000000000E+00  0.00000000000E+00  0.68426187241E+03  0.68426187242E+03  0.25500000920E-02 0.  1.
        2   -1    0    0  501    0  0.00000000000E+00  0.00000000000E+00 -0.30636924179E+04  0.30636924179E+04  0.25500000920E-02 0. -1.
    10030    2    1    2    0    0  0.00000000000E+00  0.00000000000E+00 -0.23794305454E+04  0.37479542903E+04  0.28957678846E+04 0.  0.
        1    1    3    3  502    0 -0.10444332456E+04 -0.74426156049E+03 -0.20594932105E+04  0.24261653611E+04  0.50400001928E-02 0. -1.
       -1    1    3    3    0  502  0.10444332456E+04  0.74426156049E+03 -0.31993733490E+03  0.13217889292E+04  0.50400001928E-02 0.  1.
</event>
<event>
 5   0  0.1063979E-06  0.2900389E+04  0.7818609E-02  0.8272762E-01
       -2   -1    0    0    0  501  0.00000000000E+00  0.00000000000E+00  0.95467592394E+03  0.95467592394E+03  0.25500000920E-02 0.  1.
        2   -1    0    0  501    0  0.00000000000E+00  0.00000000000E+00 -0.22029089192E+04  0.22029089192E+04  0.25500000920E-02 0. -1.
    10030    2    1    2    0    0  0.00000000000E+00  0.00000000000E+00 -0.12482329953E+04  0.31575848432E+04  0.29003890138E+04 0.  0.
        1    1    3    3  502    0  0.51105616740E+03  0.20841476646E+03 -0.20840996326E+04  0.21559421142E+04  0.50400001928E-02 0. -1.
       -1    1    3    3    0  502 -0.51105616740E+03 -0.20841476646E+03  0.83586663731E+03  0.10016427290E+04  0.50400001928E-02 0.  1.
</event>
<event>
 5   0  0.9994311E-07  0.2897280E+04  0.7818609E-02  0.8273687E-01
        2   -1    0    0  501    0  0.00000000000E+00  0.00000000000E+00  0.13796278896E+04  0.13796278896E+04  0.25500000920E-02 0. -1.
       -2   -1    0    0    0  501  0.00000000000E+00  0.00000000000E+00 -0.15211040133E+04  0.15211040133E+04  0.25500000920E-02 0.  1.
    10030    2    1    2    0    0  0.00000000000E+00  0.00000000000E+00 -0.14147612366E+03  0.29007319029E+04  0.28972797723E+04 0.  0.
        2    1    3    3  502    0  0.92548809709E+03 -0.10483277398E+04  0.30791655274E+03  0.14318979962E+04  0.25500000920E-02 0. -1.
       -2    1    3    3    0  502 -0.92548809709E+03  0.10483277398E+04 -0.44939267639E+03  0.14688339067E+04  0.25500000920E-02 0.  1.
</event>
<event>
 5   0  0.1031339E-06  0.2900953E+04  0.7818609E-02  0.8272594E-01
        2   -1    0    0  501    0  0.00000000000E+00  0.00000000000E+00  0.19663508708E+04  0.19663508708E+04  0.25500000920E-02 0. -1.
       -2   -1    0    0    0  501  0.00000000000E+00  0.00000000000E+00 -0.10699423812E+04  0.10699423812E+04  0.25500000920E-02 0.  1.
    10030    2    1    2    0    0  0.00000000000E+00  0.00000000000E+00  0.89640848965E+03  0.30362932520E+04  0.29009530385E+04 0.  0.
        5    1    3    3  502    0 -0.49967036816E+03 -0.54330839352E+02  0.18722833427E+04  0.19385792019E+04  0.46999998093E+01 0. -1.
       -5    1    3    3    0  502  0.49967036816E+03  0.54330839352E+02 -0.97587485302E+03  0.10977140501E+04  0.46999998093E+01 0.  1.
</event>
<event>
 5   0  0.3638028E-07  0.2896678E+04  0.7818609E-02  0.8273866E-01
       -1   -1    0    0    0  501  0.00000000000E+00  0.00000000000E+00  0.85454325575E+03  0.85454325576E+03  0.50400001928E-02 0.  1.
        1   -1    0    0  501    0  0.00000000000E+00  0.00000000000E+00 -0.24547454367E+04  0.24547454367E+04  0.50400001928E-02 0. -1.
    10030    2    1    2    0    0  0.00000000000E+00  0.00000000000E+00 -0.16002021809E+04  0.33092886924E+04  0.28966782062E+04 0.  0.
        4    1    3    3  502    0  0.59236515204E+03  0.18486654259E+03  0.69497724982E+03  0.93170118740E+03  0.12699999809E+01 0.  1.
       -4    1    3    3    0  502 -0.59236515204E+03 -0.18486654259E+03 -0.22951794308E+04  0.23775875051E+04  0.12699999809E+01 0. -1.
</event>
<event>
 5   0  0.1063979E-06  0.2905086E+04  0.7818609E-02  0.8271366E-01
       -2   -1    0    0    0  501  0.00000000000E+00  0.00000000000E+00  0.97312256251E+03  0.97312256252E+03  0.25500000920E-02 0. -1.
        2   -1    0    0  501    0  0.00000000000E+00  0.00000000000E+00 -0.21681562606E+04  0.21681562606E+04  0.25500000920E-02 0.  1.
    10030    2    1    2    0    0  0.00000000000E+00  0.00000000000E+00 -0.11950336981E+04  0.31412788231E+04  0.29050864195E+04 0.  0.
        1    1    3    3  502    0 -0.90723818365E+03  0.59071332228E+03  0.44965045214E+03  0.11722665568E+04  0.50400001928E-02 0. -1.
       -1    1    3    3    0  502  0.90723818365E+03 -0.59071332228E+03 -0.16446841502E+04  0.19690122663E+04  0.50400001928E-02 0.  1.
</event>
<event>
 5   0  0.3770467E-07  0.2866332E+04  0.7818609E-02  0.8282966E-01
       -1   -1    0    0    0  501  0.00000000000E+00  0.00000000000E+00  0.14861627051E+04  0.14861627051E+04  0.50400001928E-02 0.  1.
        1   -1    0    0  501    0  0.00000000000E+00  0.00000000000E+00 -0.13820594698E+04  0.13820594698E+04  0.50400001928E-02 0. -1.
    10030    2    1    2    0    0  0.00000000000E+00  0.00000000000E+00  0.10410323531E+03  0.28682221750E+04  0.28663323187E+04 0.  0.
        1    1    3    3  502    0  0.56298466096E+03 -0.13175511594E+04  0.84821555827E+02  0.14353004851E+04  0.50400001928E-02 0.  1.
       -1    1    3    3    0  502 -0.56298466096E+03  0.13175511594E+04  0.19281679483E+02  0.14329216899E+04  0.50400001928E-02 0. -1.
</event>
<event>
 5   0  0.3885904E-07  0.2905761E+04  0.7818609E-02  0.8271166E-01
        1   -1    0    0  501    0  0.00000000000E+00  0.00000000000E+00  0.16429547618E+04  0.16429547618E+04  0.50400001928E-02 0. -1.
       -1   -1    0    0    0  501  0.00000000000E+00  0.00000000000E+00 -0.12847957420E+04  0.12847957420E+04  0.50400001928E-02 0.  1.
    10030    2    1    2    0    0  0.00000000000E+00  0.00000000000E+00  0.35815901980E+03  0.29277505039E+04  0.29057606800E+04 0.  0.
        2    1    3    3  502    0  0.13076642285E+04 -0.46674091491E+03  0.61013535823E+03  0.15166073887E+04  0.25500000920E-02 0. -1.
       -2    1    3    3    0  502 -0.13076642285E+04  0.46674091491E+03 -0.25197633843E+03  0.14111431151E+04  0.25500000920E-02 0.  1.
</event>
<event>
 5   0  0.3770467E-07  0.2901063E+04  0.7818609E-02  0.8272561E-01
       -1   -1    0    0    0  501  0.00000000000E+00  0.00000000000E+00  0.14677672427E+04  0.14677672427E+04  0.50400001928E-02 0. -1.
        1   -1    0    0  501    0  0.00000000000E+00  0.00000000000E+00 -0.14334982179E+04  0.14334982179E+04  0.50400001928E-02 0.  1.
    10030    2    1    2    0    0  0.00000000000E+00  0.00000000000E+00  0.34269024854E+02  0.29012654606E+04  0.29010630650E+04 0.  0.
        1    1    3    3  502    0  0.10569003166E+03 -0.40490228583E+03 -0.13718200006E+04  0.14342267456E+04  0.50400001928E-02 0.  1.
       -1    1    3    3    0  502 -0.10569003166E+03  0.40490228583E+03  0.14060890254E+04  0.14670387150E+04  0.50400001928E-02 0. -1.
</event>
<event>
 5   0  0.3786210E-07  0.2894297E+04  0.7818609E-02  0.8274576E-01
       -1   -1    0    0    0  501  0.00000000000E+00  0.00000000000E+00  0.79133075182E+03  0.79133075184E+03  0.50400001928E-02 0.  1.
        1   -1    0    0  501    0  0.00000000000E+00  0.00000000000E+00 -0.26464780726E+04  0.26464780726E+04  0.50400001928E-02 0. -1.
    10030    2    1    2    0    0  0.00000000000E+00  0.00000000000E+00 -0.18551473208E+04  0.34378088244E+04  0.28942974850E+04 0.  0.
        5    1    3    3  502    0  0.11080184485E+04 -0.91465332306E+03 -0.11330361187E+04  0.18297782707E+04  0.46999998093E+01 0.  1.
       -5    1    3    3    0  502 -0.11080184485E+04  0.91465332306E+03 -0.72211120207E+03  0.16080305537E+04  0.46999998093E+01 0. -1.
</event>
<event>
 5   0  0.3885904E-07  0.2901807E+04  0.7818609E-02  0.8272340E-01
       -1   -1    0    0    0  501  0.00000000000E+00  0.00000000000E+00  0.10227086403E+04  0.10227086403E+04  0.50400001928E-02 0.  1.
        1   -1    0    0  501    0  0.00000000000E+00  0.00000000000E+00 -0.20583773002E+04  0.20583773002E+04  0.50400001928E-02 0. -1.
    10030    2    1    2    0    0  0.00000000000E+00  0.00000000000E+00 -0.10356686599E+04  0.30810859406E+04  0.29018065063E+04 0.  0.
        2    1    3    3  502    0  0.45366065774E+03 -0.13744986782E+04 -0.41130821468E+03  0.15047355436E+04  0.25500000920E-02 0. -1.
       -2    1    3    3    0  502 -0.45366065774E+03  0.13744986782E+04 -0.62436044522E+03  0.15763503970E+04  0.25500000920E-02 0.  1.
</event>
<event>
 5   0  0.1063979E-06  0.2903057E+04  0.7818609E-02  0.8271968E-01
        2   -1    0    0  501    0  0.00000000000E+00  0.00000000000E+00  0.11272546945E+04  0.11272546945E+04  0.25500000920E-02 0.  1.
       -2   -1    0    0    0  501  0.00000000000E+00  0.00000000000E+00 -0.18690856335E+04  0.18690856335E+04  0.25500000920E-02 0. -1.
    10030    2    1    2    0    0  0.00000000000E+00  0.00000000000E+00 -0.74183093895E+03  0.29963403280E+04  0.29030573916E+04 0.  0.
        1    1    3    3  502    0 -0.76762656130E+03 -0.11841727859E+04 -0.72156699574E+03  0.15849841179E+04  0.50400001928E-02 0.  1.
       -1    1    3    3    0  502  0.76762656130E+03  0.11841727859E+04 -0.20263943202E+02  0.14113562101E+04  0.50400001928E-02 0. -1.
</event>
<event>
 5   0  0.9950999E-07  0.2902284E+04  0.7818609E-02  0.8272198E-01
        2   -1    0    0  501    0  0.00000000000E+00  0.00000000000E+00  0.21841861611E+04  0.21841861611E+04  0.25500000920E-02 0.  1.
       -2   -1    0    0    0  501  0.00000000000E+00  0.00000000000E+00 -0.96411821091E+03  0.96411821091E+03  0.25500000920E-02 0. -1.
    10030    2    1    2    0    0  0.00000000000E+00  0.00000000000E+00  0.12200679502E+04  0.31483043720E+04  0.29022843788E+04 0.  0.
        3    1    3    3  502    0 -0.10954862246E+04  0.51546529451E+03 -0.25779314391E+03  0.12378416108E+04  0.10100000352E+00 0.  1.
       -3    1    3    3    0  502  0.10954862246E+04 -0.51546529451E+03  0.14778610941E+04  0.19104627612E+04  0.10100000352E+00 0. -1.
</event>
<event>
 5   0  0.3770467E-07  0.2895612E+04  0.7818609E-02  0.8274184E-01
       -1   -1    0    0    0  501  0.00000000000E+00  0.00000000000E+00  0.73228566838E+03  0.73228566840E+03  0.50400001928E-02 0. -1.
        1   -1    0    0  501    0  0.00000000000E+00  0.00000000000E+00 -0.28624656645E+04  0.28624656645E+04  0.50400001928E-02 0.  1.
    10030    2    1    2    0    0  0.00000000000E+00  0.00000000000E+00 -0.21301799962E+04  0.35947513329E+04  0.28956122547E+04 0.  0.
        1    1    3    3  502    0 -0.11997098829E+04 -0.53568965056E+03 -0.18201060033E+04  0.22447835237E+04  0.50400001928E-02 0.  1.
       -1    1    3    3    0  502  0.11997098829E+04  0.53568965056E+03 -0.31007399287E+03  0.13499678093E+04  0.50400001928E-02 0. -1.
</event>
<event>
 5   0  0.3885904E-07  0.2891775E+04  0.7818609E-02  0.8275329E-01
       -1   -1    0    0    0  501  0.00000000000E+00  0.00000000000E+00  0.12279599859E+04  0.12279599859E+04  0.50400001928E-02 0. -1.
        1   -1    0    0  501    0  0.00000000000E+00  0.00000000000E+00 -0.17024913179E+04  0.17024913180E+04  0.50400001928E-02 0.  1.
    10030    2    1    2    0    0  0.00000000000E+00  0.00000000000E+00 -0.47453133204E+03  0.29304513039E+04  0.28917753819E+04 0.  0.
        2    1    3    3  502    0  0.13536734855E+04 -0.12860461897E+03 -0.73538860057E+03  0.15458872686E+04  0.25500000920E-02 0.  1.
       -2    1    3    3    0  502 -0.13536734855E+04  0.12860461897E+03  0.26085726853E+03  0.13845640353E+04  0.25500000920E-02 0. -1.
</event>
<event>
 5   0  0.3770467E-07  0.2908110E+04  0.7818609E-02  0.8270468E-01
       -1   -1    0    0    0  501  0.00000000000E+00  0.00000000000E+00  0.10084064089E+04  0.10084064089E+04  0.50400001928E-02 0. -1.
        1   -1    0    0  501    0  0.00000000000E+00  0.00000000000E+00 -0.20966512610E+04  0.20966512610E+04  0.50400001928E-02 0.  1.
    10030    2    1    2    0    0  0.00000000000E+00  0.00000000000E+00 -0.10882448521E+04  0.31050576699E+04  0.29081104304E+04 0.  0.
        1    1    3    3  502    0  0.56121537506E+03  0.29326615938E+03  0.85345733676E+03  0.10627121732E+04  0.50400001928E-02 0. -1.
       -1    1    3    3    0  502 -0.56121537506E+03 -0.29326615938E+03 -0.19417021889E+04  0.20423454967E+04  0.50400001928E-02 0.  1.
</event>
<event>
 5   0  0.3638028E-07  0.2900454E+04  0.7818609E-02  0.8272742E-01
       -1   -1    0    0    0  501  0.00000000000E+00  0.00000000000E+00  0.15334142604E+04  0.15334142604E+04  0.50400001928E-02 0. -1.
        1   -1    0    0  501    0  0.00000000000E+00  0.00000000000E+00 -0.13715525801E+04  0.13715525801E+04  0.50400001928E-02 0.  1.
    10030    2    1    2    0    0  0.00000000000E+00  0.00000000000E+00  0.16186168032E+03  0.29049668406E+04  0.29004539543E+04 0.  0.
        4    1    3    3  502    0  0.13767028002E+04 -0.35110910680E+03  0.37218989387E+03  0.14687120667E+04  0.12699999809E+01 0. -1.
       -4    1    3    3    0  502 -0.13767028002E+04  0.35110910680E+03 -0.21032821355E+03  0.14362547738E+04  0.12699999809E+01 0.  1.
</event>
<event>
 5   0  0.3769563E-07  0.2821648E+04  0.7818609E-02  0.8296579E-01
        1   -1    0    0  501    0  0.00000000000E+00  0.00000000000E+00  0.12806322136E+04  0.12806322136E+04  0.50400001928E-02 0. -1.
       -1   -1    0    0    0  501  0.00000000000E+00  0.00000000000E+00 -0.15542511000E+04  0.15542511000E+04  0.50400001928E-02 0.  1.
    10030    2    1    2    0    0  0.00000000000E+00  0.00000000000E+00 -0.27361888635E+03  0.28348833136E+04  0.28216477645E+04 0.  0.
        3    1    3    3  502    0  0.57750293371E+03 -0.35445960432E+02 -0.14295688309E+04  0.15422169455E+04  0.10100000352E+00 0.  1.
       -3    1    3    3    0  502 -0.57750293371E+03  0.35445960432E+02  0.11559499446E+04  0.12926663681E+04  0.10100000352E+00 0. -1.
</event>
<event>
 5   0  0.1063979E-06  0.2893169E+04  0.7818609E-02  0.8274913E-01
       -2   -1    0    0    0  501  0.00000000000E+00  0.00000000000E+00  0.25955431691E+04  0.25955431691E+04  0.25500000920E-02 0. -1.
        2   -1    0    0  501    0  0.00000000000E+00  0.00000000000E+00 -0.80623066353E+03  0.80623066354E+03  0.25500000920E-02 0.  1.
    10030    2    1    2    0    0  0.00000000000E+00  0.00000000000E+00  0.17893125055E+04  0.34017738326E+04  0.28931688450E+04 0.  0.
        1    1    3    3  502    0 -0.53307570197E+03  0.11602510901E+04  0.16940708738E+04  0.21213741823E+04  0.50400001928E-02 0. -1.
       -1    1    3    3    0  502  0.53307570197E+03 -0.11602510901E+04  0.95241631763E+02  0.12803996503E+04  0.50400001928E-02 0.  1.
</event>
<event>
 5   0  0.3786210E-07  0.2898438E+04  0.7818609E-02  0.8273342E-01
       -1   -1    0    0    0  501  0.00000000000E+00  0.00000000000E+00  0.76970743714E+03  0.76970743715E+03  0.50400001928E-02 0.  1.
        1   -1    0    0  501    0  0.00000000000E+00  0.00000000000E+00 -0.27286157089E+04  0.27286157089E+04  0.50400001928E-02 0. -1.
    10030    2    1    2    0    0  0.00000000000E+00  0.00000000000E+00 -0.19589082718E+04  0.34983231461E+04  0.28984380651E+04 0.  0.
        5    1    3    3  502    0 -0.12029283930E+04 -0.76124479228E+03 -0.13070818377E+04  0.19326187862E+04  0.46999998093E+01 0.  1.
       -5    1    3    3    0  502  0.12029283930E+04  0.76124479228E+03 -0.65182643410E+03  0.15657043599E+04  0.46999998093E+01 0. -1.
</event>
<event>
 5   0  0.9994311E-07  0.2906051E+04  0.7818609E-02  0.8271079E-01
        2   -1    0    0  501    0  0.00000000000E+00  0.00000000000E+00  0.24073729081E+04  0.24073729081E+04  0.25500000920E-02 0. -1.
       -2   -1    0    0    0  501  0.00000000000E+00  0.00000000000E+00 -0.87700710235E+03  0.87700710235E+03  0.25500000920E-02 0.  1.
    10030    2    1    2    0    0  0.00000000000E+00  0.00000000000E+00  0.15303658057E+04  0.32843800104E+04  0.29060510239E+04 0.  0.
        2    1    3    3  502    0 -0.13807682691E+04  0.30925799098E+03  0.11385238012E+04  0.18161492130E+04  0.25500000920E-02 0. -1.
       -2    1    3    3    0  502  0.13807682691E+04 -0.30925799098E+03  0.39184200450E+03  0.14682307974E+04  0.25500000920E-02 0.  1.
</event>
<event>
 5   0  0.3638028E-07  0.2901247E+04  0.7818609E-02  0.8272506E-01
        1   -1    0    0  501    0  0.00000000000E+00  0.00000000000E+00  0.12287304578E+04  0.12287304578E+04  0.50400001928E-02 0.  1.
       -1   -1    0    0    0  501  0.00000000000E+00  0.00000000000E+00 -0.17125878390E+04  0.17125878390E+04  0.50400001928E-02 0. -1.
    10030    2    1    2    0    0  0.00000000000E+00  0.00000000000E+00 -0.48385738120E+03  0.29413182968E+04  0.29012472073E+04 0.  0.
        4    1    3    3  502    0  0.11865519972E+04  0.72303423437E+03  0.18050740284E+03  0.14011668999E+04  0.12699999809E+01 0.  1.
       -4    1    3    3    0  502 -0.11865519972E+04 -0.72303423437E+03 -0.66436478404E+03  0.15401513969E+04  0.12699999809E+01 0. -1.
</event>
<event>
 5   0  0.9950999E-07  0.2898372E+04  0.7818609E-02  0.8273362E-01
        2   -1    0    0  501    0  0.00000000000E+00  0.00000000000E+00  0.25276566974E+04  0.25276566974E+04  0.25500000920E-02 0. -1.
       -2   -1    0    0    0  501  0.00000000000E+00  0.00000000000E+00 -0.83086433909E+03  0.83086433909E+03  0.25500000920E-02 0.  1.
    10030    2    1    2    0    0  0.00000000000E+00  0.00000000000E+00  0.16967923583E+04  0.33585210365E+04  0.28983718266E+04 0.  0.
        3    1    3    3  502    0 -0.69428211265E+03  0.40724855878E+03  0.22448168692E+04  0.23847603290E+04  0.10100000352E+00 0. -1.
       -3    1    3    3    0  502  0.69428211265E+03 -0.40724855878E+03 -0.54802451090E+03  0.97376070743E+03  0.10100000352E+00 0.  1.
</event>
<event>
 5   0  0.3770467E-07  0.2899277E+04  0.7818609E-02  0.8273093E-01
        1   -1    0    0  501    0  0.00000000000E+00  0.00000000000E+00  0.17302983222E+04  0.17302983222E+04  0.50400001928E-02 0. -1.
       -1   -1    0    0    0  501  0.00000000000E+00  0.00000000000E+00 -0.12145027808E+04  0.12145027808E+04  0.50400001928E-02 0.  1.
    10030    2    1    2    0    0  0.00000000000E+00  0.00000000000E+00  0.51579554145E+03  0.29448011030E+04  0.28992772368E+04 0.  0.
        1    1    3    3  502    0 -0.16021063680E+03 -0.83413044613E+03  0.14510820073E+04  0.16813922925E+04  0.50400001928E-02 0. -1.
       -1    1    3    3    0  502  0.16021063680E+03  0.83413044613E+03 -0.93528646587E+03  0.12634088105E+04  0.50400001928E-02 0.  1.
</event>
<event>
 5   0  0.9950999E-07  0.2903014E+04  0.7818609E-02  0.8271981E-01
        2   -1    0    0  501    0  0.00000000000E+00  0.00000000000E+00  0.97520970840E+03  0.97520970841E+03  0.25500000920E-02 0.  1.
       -2   -1    0    0    0  501  0.00000000000E+00  0.00000000000E+00 -0.21604296203E+04  0.21604296203E+04  0.25500000920E-02 0. -1.
    10030    2    1    2    0    0  0.00000000000E+00  0.00000000000E+00 -0.11852199119E+04  0.31356393287E+04  0.29030135653E+04 0.  0.
        3    1    3    3  502    0 -0.37892979720E+03 -0.10002712196E+04 -0.16524294720E+04  0.19684139489E+04  0.10100000352E+00 0. -1.
       -3    1    3    3    0  502  0.37892979720E+03  0.10002712196E+04  0.46720956015E+03  0.11672253798E+04  0.10100000352E+00 0.  1.
</event>
<event>
 5   0  0.3769563E-07  0.2837676E+04  0.7818609E-02  0.8291666E-01
       -1   -1    0    0    0  501  0.00000000000E+00  0.00000000000E+00  0.11891088876E+04  0.11891088876E+04  0.50400001928E-02 0.  1.
        1   -1    0    0  501    0  0.00000000000E+00  0.00000000000E+00 -0.16929496558E+04  0.16929496558E+04  0.50400001928E-02 0. -1.
    10030    2    1    2    0    0  0.00000000000E+00  0.00000000000E+00 -0.50384076821E+03  0.28820585435E+04  0.28376761493E+04 0.  0.
        3    1    3    3  502    0 -0.86489714190E+03 -0.10266295917E+04  0.21470651821E+03  0.13594536710E+04  0.10100000352E+00 0.  1.
       -3    1    3    3    0  502  0.86489714190E+03  0.10266295917E+04 -0.71854728642E+03  0.15226048724E+04  0.10100000352E+00 0. -1.
</event>
<event>
 5   0  0.3786210E-07  0.2905913E+04  0.7818609E-02  0.8271120E-01
       -1   -1    0    0    0  501  0.00000000000E+00  0.00000000000E+00  0.91431415250E+03  0.91431415251E+03  0.50400001928E-02 0. -1.
        1   -1    0    0  501    0  0.00000000000E+00  0.00000000000E+00 -0.23089251011E+04  0.23089251011E+04  0.50400001928E-02 0.  1.
    10030    2    1    2    0    0  0.00000000000E+00  0.00000000000E+00 -0.13946109486E+04  0.32232392536E+04  0.29059132107E+04 0.  0.
        5    1    3    3  502    0  0.13758677653E+04  0.23014982776E+03 -0.24663737917E+03  0.14166273814E+04  0.46999998093E+01 0.  1.
       -5    1    3    3    0  502 -0.13758677653E+04 -0.23014982776E+03 -0.11479735694E+04  0.18066118722E+04  0.46999998093E+01 0. -1.
</event>
<event>
 5   0  0.3769563E-07  0.2903996E+04  0.7818609E-02  0.8271690E-01
        1   -1    0    0  501    0  0.00000000000E+00  0.00000000000E+00  0.17120843287E+04  0.17120843287E+04  0.50400001928E-02 0. -1.
       -1   -1    0    0    0  501  0.00000000000E+00  0.00000000000E+00 -0.12314219086E+04  0.12314219086E+04  0.50400001928E-02 0.  1.
    10030    2    1    2    0    0  0.00000000000E+00  0.00000000000E+00  0.48066242009E+03  0.29435062374E+04  0.29039959724E+04 0.  0.
        3    1    3    3  502    0  0.11138677571E+04 -0.29406016672E+03 -0.65550646938E+03  0.13254665230E+04  0.10100000352E+00 0.  1.
       -3    1    3    3    0  502 -0.11138677571E+04  0.29406016672E+03  0.11361688895E+04  0.16180397144E+04  0.10100000352E+00 0. -1.
</event>
<event>
 5   0  0.1031339E-06  0.2892119E+04  0.7818609E-02  0.8275226E-01
       -2   -1    0    0    0  501  0.00000000000E+00  0.00000000000E+00  0.15498533729E+04  0.15498533729E+04  0.25500000920E-02 0.  1.
        2   -1    0    0  501    0  0.00000000000E+00  0.00000000000E+00 -0.13492165189E+04  0.13492165189E+04  0.25500000920E-02 0. -1.
    10030    2    1    2    0    0  0.00000000000E+00  0.00000000000E+00  0.20063685402E+03  0.28990698919E+04  0.28921187892E+04 0.  0.
        5    1    3    3  502    0 -0.76877636691E+03 -0.62707957999E+03 -0.95426517654E+03  0.13765500424E+04  0.46999998093E+01 0. -1.
       -5    1    3    3    0  502  0.76877636691E+03  0.62707957999E+03  0.11549020306E+04  0.15225198495E+04  0.46999998093E+01 0.  1.
</event>
<event>
 5   0  0.1063979E-06  0.2912333E+04  0.7818609E-02  0.8269218E-01
        2   -1    0    0  501    0  0.00000000000E+00  0.00000000000E+00  0.18526632579E+04  0.18526632579E+04  0.25500000920E-02 0.  1.
       -2   -1    0    0    0  501  0.00000000000E+00  0.00000000000E+00 -0.11445256423E+04  0.11445256423E+04  0.25500000920E-02 0. -1.
    10030    2    1    2    0    0  0.00000000000E+00  0.00000000000E+00  0.70813761565E+03  0.29971889002E+04  0.29123328142E+04 0.  0.
        1    1    3    3  502    0  0.27105740399E+03 -0.24979508393E+03 -0.10957183005E+04  0.11560572193E+04  0.50400001928E-02 0. -1.
       -1    1    3    3    0  502 -0.27105740399E+03  0.24979508393E+03  0.18038559161E+04  0.18411316809E+04  0.50400001928E-02 0.  1.
</event>
<event>
 5   0  0.1063979E-06  0.2898689E+04  0.7818609E-02  0.8273268E-01
        2   -1    0    0  501    0  0.00000000000E+00  0.00000000000E+00  0.16538101466E+04  0.16538101466E+04  0.25500000920E-02 0. -1.
       -2   -1    0    0    0  501  0.00000000000E+00  0.00000000000E+00 -0.12701578195E+04  0.12701578195E+04  0.25500000920E-02 0.  1.
    10030    2    1    2    0    0  0.00000000000E+00  0.00000000000E+00  0.38365232719E+03  0.29239679661E+04  0.28986892829E+04 0.  0.
        1    1    3    3  502    0 -0.58758853337E+03 -0.69156123767E+03  0.13317621120E+04  0.16115543903E+04  0.50400001928E-02 0. -1.
       -1    1    3    3    0  502  0.58758853337E+03  0.69156123767E+03 -0.94810978476E+03  0.13124135758E+04  0.50400001928E-02 0.  1.
</event>
<event>
 5   0  0.3885904E-07  0.2882189E+04  0.7818609E-02  0.8278197E-01
        1   -1    0    0  501    0  0.00000000000E+00  0.00000000000E+00  0.15602154944E+04  0.15602154944E+04  0.50400001928E-02 0.  1.
       -1   -1    0    0    0  501  0.00000000000E+00  0.00000000000E+00 -0.13310682358E+04  0.13310682358E+04  0.50400001928E-02 0. -1.
    10030    2    1    2    0    0  0.00000000000E+00  0.00000000000E+00  0.22914725857E+03  0.28912837302E+04  0.28821889498E+04 0.  0.
        2    1    3    3  502    0  0.87439111809E+03 -0.11444590448E+04  0.16378914681E+03  0.14495424165E+04  0.25500000920E-02 0.  1.
       -2    1    3    3    0  502 -0.87439111809E+03  0.11444590448E+04  0.65358111766E+02  0.14417413136E+04  0.25500000920E-02 0. -1.
</event>
<event>
 5   0  0.3378750E-07  0.2897772E+04  0.7818609E-02  0.8273541E-01
        4   -1    0    0  501    0  0.00000000000E+00  0.00000000000E+00  0.18555329491E+04  0.18555333837E+04  0.12699999809E+01 0.  1.
       -4   -1    0    0    0  501  0.00000000000E+00  0.00000000000E+00 -0.11313560397E+04  0.11313567525E+04  0.12699999809E+01 0. -1.
    10030    2    1    2    0    0  0.00000000000E+00  0.00000000000E+00  0.72417690944E+03  0.29868901362E+04  0.28977716421E+04 0.  0.
        1    1    3    3  502    0 -0.52041656841E+03 -0.10866976009E+04 -0.46734848848E+03  0.12923465828E+04  0.50400001928E-02 0. -1.
       -1    1    3    3    0  502  0.52041656841E+03  0.10866976009E+04  0.11915253979E+04  0.16945435534E+04  0.50400001928E-02 0.  1.
</event>
<event>
 5   0  0.9994311E-07  0.2914237E+04  0.7818609E-02  0.8268654E-01
       -2   -1    0    0    0  501  0.00000000000E+00  0.00000000000E+00  0.10021104166E+04  0.10021104166E+04  0.25500000920E-02 0.  1.
        2   -1    0    0  501    0  0.00000000000E+00  0.00000000000E+00 -0.21187224985E+04  0.21187224986E+04  0.25500000920E-02 0. -1.
    10030    2    1    2    0    0  0.00000000000E+00  0.00000000000E+00 -0.11166120820E+04  0.31208329151E+04  0.29142366998E+04 0.  0.
        2    1    3    3  502    0 -0.28342843110E+03 -0.11056135220E+04 -0.15283243816E+04  0.19074822020E+04  0.25500000920E-02 0. -1.
       -2    1    3    3    0  502  0.28342843110E+03  0.11056135220E+04  0.41171229957E+03  0.12133507132E+04  0.25500000920E-02 0.  1.
</event>
<event>
 5   0  0.3786210E-07  0.2903206E+04  0.7818609E-02  0.8271924E-01
       -1   -1    0    0    0  501  0.00000000000E+00  0.00000000000E+00  0.15771349430E+04  0.15771349430E+04  0.50400001928E-02 0. -1.
        1   -1    0    0  501    0  0.00000000000E+00  0.00000000000E+00 -0.13360626774E+04  0.13360626774E+04  0.50400001928E-02 0.  1.
    10030    2    1    2    0    0  0.00000000000E+00  0.00000000000E+00  0.24107226563E+03  0.29131976204E+04  0.29032059070E+04 0.  0.
        5    1    3    3  502    0  0.50561958593E+03  0.10892366325E+04 -0.69777123370E+03  0.13888824255E+04  0.46999998093E+01 0.  1.
       -5    1    3    3    0  502 -0.50561958593E+03 -0.10892366325E+04  0.93884349932E+03  0.15243151949E+04  0.46999998093E+01 0. -1.
</event>
<event>
 5   0  0.3638028E-07  0.2899505E+04  0.7818609E-02  0.8273025E-01
       -1   -1    0    0    0  501  0.00000000000E+00  0.00000000000E+00  0.83826953096E+03  0.83826953098E+03  0.50400001928E-02 0. -1.
        1   -1    0    0  501    0  0.00000000000E+00  0.00000000000E+00 -0.25072865059E+04  0.25072865059E+04  0.50400001928E-02 0.  1.
    10030    2    1    2    0    0  0.00000000000E+00  0.00000000000E+00 -0.16690169750E+04  0.33455560369E+04  0.28995047048E+04 0.  0.
        4    1    3    3  502    0  0.40946923548E+03 -0.58333503184E+01  0.77014713112E+03  0.87225414832E+03  0.12699999809E+01 0. -1.
       -4    1    3    3    0  502 -0.40946923548E+03  0.58333503184E+01 -0.24391641061E+04  0.24733018886E+04  0.12699999809E+01 0.  1.
</event>
<event>
 5   0  0.3769563E-07  0.2902070E+04  0.7818609E-02  0.8272262E-01
       -1   -1    0    0    0  501  0.00000000000E+00  0.00000000000E+00  0.82867990710E+03  0.82867990711E+03  0.50400001928E-02 0. -1.
        1   -1    0    0  501    0  0.00000000000E+00  0.00000000000E+00 -0.25407905701E+04  0.25407905701E+04  0.50400001928E-02 0.  1.
    10030    2    1    2    0    0  0.00000000000E+00  0.00000000000E+00 -0.17121106630E+04  0.33694704772E+04  0.29020696708E+04 0.  0.
        3    1    3    3  502    0 -0.85339759659E+03 -0.11397179592E+04 -0.53125453849E+03  0.15196959825E+04  0.10100000352E+00 0. -1.
       -3    1    3    3    0  502  0.85339759659E+03  0.11397179592E+04 -0.11808561245E+04  0.18497744947E+04  0.10100000352E+00 0.  1.
</event>
<event>
 5   0  0.3786210E-07  0.2890291E+04  0.7818609E-02  0.8275772E-01
       -1   -1    0    0    0  501  0.00000000000E+00  0.00000000000E+00  0.82047896397E+03  0.82047896399E+03  0.50400001928E-02 0. -1.
        1   -1    0    0  501    0  0.00000000000E+00  0.00000000000E+00 -0.25453977567E+04  0.25453977567E+04  0.50400001928E-02 0.  1.
    10030    2    1    2    0    0  0.00000000000E+00  0.00000000000E+00 -0.17249187927E+04  0.33658767207E+04  0.28902908603E+04 0.  0.
        5    1    3    3  502    0 -0.94316581957E+03 -0.10898278037E+04 -0.98535525434E+03  0.17459190909E+04  0.46999998093E+01 0. -1.
       -5    1    3    3    0  502  0.94316581957E+03  0.10898278037E+04 -0.73956353834E+03  0.16199576297E+04  0.46999998093E+01 0.  1.
</event>
<event>
 5   0  0.9994311E-07  0.2898786E+04  0.7818609E-02  0.8273239E-01
        2   -1    0    0  501    0  0.00000000000E+00  0.00000000000E+00  0.15729429139E+04  0.15729429139E+04  0.25500000920E-02 0. -1.
       -2   -1    0    0    0  501  0.00000000000E+00  0.00000000000E+00 -0.13355472348E+04  0.13355472348E+04  0.25500000920E-02 0.  1.
    10030    2    1    2    0    0  0.00000000000E+00  0.00000000000E+00  0.23739567914E+03  0.29084901487E+04  0.28987856486E+04 0.  0.
        2    1    3    3  502    0 -0.14325380122E+04 -0.22025702955E+03  0.12654988185E+03  0.14548859708E+04  0.25500000920E-02 0. -1.
       -2    1    3    3    0  502  0.14325380122E+04  0.22025702955E+03  0.11084579729E+03  0.14536041779E+04  0.25500000920E-02 0.  1.
</event>
<event>
 5   0  0.9994311E-07  0.2900884E+04  0.7818609E-02  0.8272615E-01
        2   -1    0    0  501    0  0.00000000000E+00  0.00000000000E+00  0.17529305509E+04  0.17529305509E+04  0.25500000920E-02 0. -1.
       -2   -1    0    0    0  501  0.00000000000E+00  0.00000000000E+00 -0.12001510557E+04  0.12001510557E+04  0.25500000920E-02 0.  1.
    10030    2    1    2    0    0  0.00000000000E+00  0.00000000000E+00  0.55277949521E+03  0.29530816067E+04  0.29008836249E+04 0.  0.
        2    1    3    3  502    0 -0.27401042601E+03  0.24855237539E+03 -0.11513158124E+04  0.12092923951E+04  0.25500000920E-02 0.  1.
       -2    1    3    3    0  502  0.27401042601E+03 -0.24855237539E+03  0.17040953076E+04  0.17437892116E+04  0.25500000920E-02 0. -1.
</event>
<event>
 5   0  0.3638028E-07  0.2906455E+04  0.7818609E-02  0.8270959E-01
        1   -1    0    0  501    0  0.00000000000E+00  0.00000000000E+00  0.16380775351E+04  0.16380775352E+04  0.50400001928E-02 0. -1.
       -1   -1    0    0    0  501  0.00000000000E+00  0.00000000000E+00 -0.12892370606E+04  0.12892370607E+04  0.50400001928E-02 0.  1.
    10030    2    1    2    0    0  0.00000000000E+00  0.00000000000E+00  0.34884047450E+03  0.29273145958E+04  0.29064550687E+04 0.  0.
        4    1    3    3  502    0  0.71595108629E+03 -0.10410055592E+04 -0.54877919837E+03  0.13774755002E+04  0.12699999809E+01 0.  1.
       -4    1    3    3    0  502 -0.71595108629E+03  0.10410055592E+04  0.89761967287E+03  0.15498390956E+04  0.12699999809E+01 0. -1.
</event>
<event>
 5   0  0.3770467E-07  0.2898296E+04  0.7818609E-02  0.8273385E-01
       -1   -1    0    0    0  501  0.00000000000E+00  0.00000000000E+00  0.93188449657E+03  0.93188449658E+03  0.50400001928E-02 0. -1.
        1   -1    0    0  501    0  0.00000000000E+00  0.00000000000E+00 -0.22535297049E+04  0.22535297049E+04  0.50400001928E-02 0.  1.
    10030    2    1    2    0    0  0.00000000000E+00  0.00000000000E+00 -0.13216452083E+04  0.31854142015E+04  0.28982956334E+04 0.  0.
        1    1    3    3  502    0 -0.53707392807E+03  0.10089117266E+03  0.81430145063E+03  0.98067032455E+03  0.50400001928E-02 0. -1.
       -1    1    3    3    0  502  0.53707392807E+03 -0.10089117266E+03 -0.21359466590E+04  0.22047438770E+04  0.50400001928E-02 0.  1.
</event>
<event>
 5   0  0.3770467E-07  0.2901872E+04  0.7818609E-02  0.8272321E-01
       -1   -1    0    0    0  501  0.00000000000E+00  0.00000000000E+00  0.97409078789E+03  0.97409078790E+03  0.50400001928E-02 0. -1.
        1   -1    0    0  501    0  0.00000000000E+00  0.00000000000E+00 -0.21612102053E+04  0.21612102053E+04  0.50400001928E-02 0.  1.
    10030    2    1    2    0    0  0.00000000000E+00  0.00000000000E+00 -0.11871194174E+04  0.31353009932E+04  0.29018717764E+04 0.  0.
        1    1    3    3  502    0 -0.12381871652E+04  0.14943712947E+03 -0.13946729790E+04  0.18709761169E+04  0.50400001928E-02 0.  1.
       -1    1    3    3    0  502  0.12381871652E+04 -0.14943712947E+03  0.20755356158E+03  0.12643248763E+04  0.50400001928E-02 0. -1.
</event>
<event>
 5   0  0.3786210E-07  0.2901050E+04  0.7818609E-02  0.8272565E-01
        1   -1    0    0  501    0  0.00000000000E+00  0.00000000000E+00  0.19676773949E+04  0.19676773949E+04  0.50400001928E-02 0.  1.
       -1   -1    0    0    0  501  0.00000000000E+00  0.00000000000E+00 -0.10692929150E+04  0.10692929151E+04  0.50400001928E-02 0. -1.
    10030    2    1    2    0    0  0.00000000000E+00  0.00000000000E+00  0.89838447986E+03  0.30369703100E+04  0.29010504977E+04 0.  0.
        5    1    3    3  502    0  0.68677824841E+03  0.12278816699E+04  0.81878234582E+03  0.16278158303E+04  0.46999998093E+01 0.  1.
       -5    1    3    3    0  502 -0.68677824841E+03 -0.12278816699E+04  0.79602134048E+02  0.14091544796E+04  0.46999998093E+01 0. -1.
</event>
<event>
 5   0  0.1006893E-06  0.2896830E+04  0.7818609E-02  0.8273821E-01
        2   -1    0    0  501    0  0.00000000000E+00  0.00000000000E+00  0.15961035802E+04  0.15961035802E+04  0.25500000920E-02 0.  1.
       -2   -1    0    0    0  501  0.00000000000E+00  0.00000000000E+00 -0.13143921511E+04  0.13143921511E+04  0.25500000920E-02 0. -1.
    10030    2    1    2    0    0  0.00000000000E+00  0.00000000000E+00  0.28171142905E+03  0.29104957313E+04  0.28968300041E+04 0.  0.
        4    1    3    3  502    0  0.35563525712E+03  0.13447173096E+04 -0.26498464296E+03  0.14159659434E+04  0.12699999809E+01 0. -1.
       -4    1    3    3    0  502 -0.35563525712E+03 -0.13447173096E+04  0.54669607201E+03  0.14945297879E+04  0.12699999809E+01 0.  1.
</event>
<event>
 5   0  0.9950999E-07  0.2883702E+04  0.7818609E-02  0.8277743E-01
        2   -1    0    0  501    0  0.00000000000E+00  0.00000000000E+00  0.15797910554E+04  0.15797910554E+04  0.25500000920E-02 0. -1.
       -2   -1    0    0    0  501  0.00000000000E+00  0.00000000000E+00 -0.13159553293E+04  0.13159553293E+04  0.25500000920E-02 0.  1.
    10030    2    1    2    0    0  0.00000000000E+00  0.00000000000E+00  0.26383572612E+03  0.28957463847E+04  0.28837021056E+04 0.  0.
        3    1    3    3  502    0 -0.10442440969E+04 -0.97788767794E+03  0.31217919370E+03  0.14642970682E+04  0.10100000352E+00 0.  1.
       -3    1    3    3    0  502  0.10442440969E+04  0.97788767794E+03 -0.48343467588E+02  0.14314493165E+04  0.10100000352E+00 0. -1.
</event>
<event>
 5   0  0.1063979E-06  0.2903570E+04  0.7818609E-02  0.8271816E-01
       -2   -1    0    0    0  501  0.00000000000E+00  0.00000000000E+00  0.79229611920E+03  0.79229611921E+03  0.25500000920E-02 0. -1.
        2   -1    0    0  501    0  0.00000000000E+00  0.00000000000E+00 -0.26602171134E+04  0.26602171134E+04  0.25500000920E-02 0.  1.
    10030    2    1    2    0    0  0.00000000000E+00  0.00000000000E+00 -0.18679209942E+04  0.34525132326E+04  0.29035700062E+04 0.  0.
        1    1    3    3  502    0 -0.84230916970E+03  0.75435771249E+03 -0.20166821612E+04  0.23120439518E+04  0.50400001928E-02 0.  1.
       -1    1    3    3    0  502  0.84230916970E+03 -0.75435771249E+03  0.14876116694E+03  0.11404692809E+04  0.50400001928E-02 0. -1.
</event>
<event>
 5   0  0.9950999E-07  0.2915229E+04  0.7818609E-02  0.8268361E-01
       -2   -1    0    0    0  501  0.00000000000E+00  0.00000000000E+00  0.18165052693E+04  0.18165052693E+04  0.25500000920E-02 0.  1.
        2   -1    0    0  501    0  0.00000000000E+00  0.00000000000E+00 -0.11696302949E+04  0.11696302949E+04  0.25500000920E-02 0. -1.
    10030    2    1    2    0    0  0.00000000000E+00  0.00000000000E+00  0.64687497439E+03  0.29861355643E+04  0.29152287004E+04 0.  0.
        3    1    3    3  502    0  0.60683115930E+03 -0.65604479352E+03 -0.85609192550E+03  0.12375508968E+04  0.10100000352E+00 0. -1.
       -3    1    3    3    0  502 -0.60683115930E+03  0.65604479352E+03  0.15029668999E+04  0.17485846675E+04  0.10100000352E+00 0.  1.
</event>
<event>
 5   0  0.1031339E-06  0.2915828E+04  0.7818609E-02  0.8268184E-01
       -2   -1    0    0    0  501  0.00000000000E+00  0.00000000000E+00  0.11525210582E+04  0.11525210582E+04  0.25500000920E-02 0.  1.
        2   -1    0    0  501    0  0.00000000000E+00  0.00000000000E+00 -0.18442295623E+04  0.18442295623E+04  0.25500000920E-02 0. -1.
    10030    2    1    2    0    0  0.00000000000E+00  0.00000000000E+00 -0.69170850402E+03  0.29967506205E+04  0.29158281203E+04 0.  0.
        5    1    3    3  502    0 -0.89960788184E+03  0.11338320262E+04 -0.52570193081E+03  0.15398876630E+04  0.46999998093E+01 0. -1.
       -5    1    3    3    0  502  0.89960788184E+03 -0.11338320262E+04 -0.16600657321E+03  0.14568629575E+04  0.46999998093E+01 0.  1.
</event>
<event>
 5   0  0.3378750E-07  0.2902106E+04  0.7818609E-02  0.8272251E-01
        4   -1    0    0  501    0  0.00000000000E+00  0.00000000000E+00  0.18036832363E+04  0.18036836834E+04  0.12699999809E+01 0. -1.
       -4   -1    0    0    0  501  0.00000000000E+00  0.00000000000E+00 -0.11673629933E+04  0.11673636841E+04  0.12699999809E+01 0.  1.
    10030    2    1    2    0    0  0.00000000000E+00  0.00000000000E+00  0.63632024301E+03  0.29710473675E+04  0.29021059609E+04 0.  0.
        4    1    3    3  502    0  0.13706641242E+04 -0.22671198826E+03  0.74695937979E+03  0.15773612126E+04  0.12699999809E+01 0.  1.
       -4    1    3    3    0  502 -0.13706641242E+04  0.22671198826E+03 -0.11063913678E+03  0.13936861549E+04  0.12699999809E+01 0. -1.
</event>
<event>
 5   0  0.3769563E-07  0.2898059E+04  0.7818609E-02  0.8273455E-01
        1   -1    0    0  501    0  0.00000000000E+00  0.00000000000E+00  0.24859965284E+04  0.24859965284E+04  0.50400001928E-02 0.  1.
       -1   -1    0    0    0  501  0.00000000000E+00  0.00000000000E+00 -0.84460531861E+03  0.84460531862E+03  0.50400001928E-02 0. -1.
    10030    2    1    2    0    0  0.00000000000E+00  0.00000000000E+00  0.16413912098E+04  0.33306018470E+04  0.28980585846E+04 0.  0.
        3    1    3    3  502    0  0.14441829050E+04  0.85255727311E+02  0.72625333160E+03  0.16187577688E+04  0.10100000352E+00 0. -1.
       -3    1    3    3    0  502 -0.14441829050E+04 -0.85255727311E+02  0.91513787821E+03  0.17118440783E+04  0.10100000352E+00 0.  1.
</event>
<event>
 5   0  0.1063979E-06  0.2903322E+04  0.7818609E-02  0.8271890E-01
       -2   -1    0    0    0  501  0.00000000000E+00  0.00000000000E+00  0.12561483840E+04  0.12561483840E+04  0.25500000920E-02 0. -1.
        2   -1    0    0  501    0  0.00000000000E+00  0.00000000000E+00 -0.16776042808E+04  0.16776042808E+04  0.25500000920E-02 0.  1.
    10030    2    1    2    0    0  0.00000000000E+00  0.00000000000E+00 -0.42145589682E+03  0.29337526648E+04  0.29033221704E+04 0.  0.
        1    1    3    3  502    0 -0.13367822957E+04  0.42868902701E+03 -0.58413970093E+03  0.15205197724E+04  0.50400001928E-02 0.  1.
       -1    1    3    3    0  502  0.13367822957E+04 -0.42868902701E+03  0.16268380411E+03  0.14132328924E+04  0.50400001928E-02 0. -1.
</event>
<event>
 5   0  0.3769563E-07  0.2901620E+04  0.7818609E-02  0.8272395E-01
        1   -1    0    0  501    0  0.00000000000E+00  0.00000000000E+00  0.18008837600E+04  0.18008837600E+04  0.50400001928E-02 0.  1.
       -1   -1    0    0    0  501  0.00000000000E+00  0.00000000000E+00 -0.11687874617E+04  0.11687874617E+04  0.50400001928E-02 0. -1.
    10030    2    1    2    0    0  0.00000000000E+00  0.00000000000E+00  0.63209629824E+03  0.29696712217E+04  0.29016204843E+04 0.  0.
        3    1    3    3  502    0  0.37424726688E+03  0.13267783953E+04 -0.14671593233E+03  0.13863359989E+04  0.10100000352E+00 0.  1.
       -3    1    3    3    0  502 -0.37424726688E+03 -0.13267783953E+04  0.77881223057E+03  0.15833352228E+04  0.10100000352E+00 0. -1.
</event>
<event>
 5   0  0.3885904E-07  0.2903660E+04  0.7818609E-02  0.8271790E-01
        1   -1    0    0  501    0  0.00000000000E+00  0.00000000000E+00  0.11338520605E+04  0.11338520605E+04  0.50400001928E-02 0. -1.
       -1   -1    0    0    0  501  0.00000000000E+00  0.00000000000E+00 -0.18589811703E+04  0.18589811703E+04  0.50400001928E-02 0.  1.
    10030    2    1    2    0    0  0.00000000000E+00  0.00000000000E+00 -0.72512910979E+03  0.29928332307E+04  0.29036595050E+04 0.  0.
        2    1    3    3  502    0 -0.54332222755E+03  0.34383235742E+03  0.97909863997E+03  0.11713470364E+04  0.25500000920E-02 0. -1.
       -2    1    3    3    0  502  0.54332222755E+03 -0.34383235742E+03 -0.17042277498E+04  0.18214861943E+04  0.25500000920E-02 0.  1.
</event>
<event>
 5   0  0.3638028E-07  0.2895201E+04  0.7818609E-02  0.8274307E-01
        1   -1    0    0  501    0  0.00000000000E+00  0.00000000000E+00  0.85896859931E+03  0.85896859933E+03  0.50400001928E-02 0. -1.
       -1   -1    0    0    0  501  0.00000000000E+00  0.00000000000E+00 -0.24396080375E+04  0.24396080375E+04  0.50400001928E-02 0.  1.
    10030    2    1    2    0    0  0.00000000000E+00  0.00000000000E+00 -0.15806394382E+04  0.32985766368E+04  0.28952006486E+04 0.  0.
        4    1    3    3  502    0  0.21491111624E+03 -0.10944855129E+03 -0.24165567918E+04  0.24285621495E+04  0.12699999809E+01 0.  1.
       -4    1    3    3    0  502 -0.21491111624E+03  0.10944855129E+03  0.83591735358E+03  0.87001448734E+03  0.12699999809E+01 0. -1.
</event>
<event>
 5   0  0.1006893E-06  0.2902656E+04  0.7818609E-02  0.8272088E-01
       -2   -1    0    0    0  501  0.00000000000E+00  0.00000000000E+00  0.15794862721E+04  0.15794862721E+04  0.25500000920E-02 0. -1.
        2   -1    0    0  501    0  0.00000000000E+00  0.00000000000E+00 -0.13335685158E+04  0.13335685158E+04  0.25500000920E-02 0.  1.
    10030    2    1    2    0    0  0.00000000000E+00  0.00000000000E+00  0.24591775633E+03  0.29130547880E+04  0.29026561379E+04 0.  0.
        4    1    3    3  502    0  0.77526915396E+03 -0.55404822891E+03 -0.97564989610E+03  0.13637837196E+04  0.12699999809E+01 0.  1.
       -4    1    3    3    0  502 -0.77526915396E+03  0.55404822891E+03  0.12215676524E+04  0.15492710684E+04  0.12699999809E+01 0. -1.
</event>
<event>
 5   0  0.3786210E-07  0.2884462E+04  0.7818609E-02  0.8277515E-01
       -1   -1    0    0    0  501  0.00000000000E+00  0.00000000000E+00  0.12416793167E+04  0.12416793167E+04  0.50400001928E-02 0. -1.
        1   -1    0    0  501    0  0.00000000000E+00  0.00000000000E+00 -0.16751753379E+04  0.16751753379E+04  0.50400001928E-02 0.  1.
    10030    2    1    2    0    0  0.00000000000E+00  0.00000000000E+00 -0.43349602114E+03  0.29168546546E+04  0.28844622160E+04 0.  0.
        5    1    3    3  502    0 -0.10265199663E+04 -0.15512829247E+03 -0.12290899550E+04  0.16088791862E+04  0.46999998093E+01 0.  1.
       -5    1    3    3    0  502  0.10265199663E+04  0.15512829247E+03  0.79559393381E+03  0.13079754684E+04  0.46999998093E+01 0. -1.
</event>
<event>
 5   0  0.3786210E-07  0.2896192E+04  0.7818609E-02  0.8274011E-01
        1   -1    0    0  501    0  0.00000000000E+00  0.00000000000E+00  0.30192086925E+04  0.30192086925E+04  0.50400001928E-02 0.  1.
       -1   -1    0    0    0  501  0.00000000000E+00  0.00000000000E+00 -0.69454691473E+03  0.69454691475E+03  0.50400001928E-02 0. -1.
    10030    2    1    2    0    0  0.00000000000E+00  0.00000000000E+00  0.23246617778E+04  0.37137556072E+04  0.28961920394E+04 0.  0.
        5    1    3    3  502    0 -0.10860383300E+04  0.48991272545E+03  0.22177617777E+04  0.25175351289E+04  0.46999998093E+01 0.  1.
       -5    1    3    3    0  502  0.10860383300E+04 -0.48991272545E+03  0.10690000006E+03  0.11962204783E+04  0.46999998093E+01 0. -1.
</event>
<event>
 5   0  0.3786210E-07  0.2894256E+04  0.7818609E-02  0.8274588E-01
        1   -1    0    0  501    0  0.00000000000E+00  0.00000000000E+00  0.11108292552E+04  0.11108292552E+04  0.50400001928E-02 0.  1.
       -1   -1    0    0    0  501  0.00000000000E+00  0.00000000000E+00 -0.18852399298E+04  0.18852399298E+04  0.50400001928E-02 0. -1.
    10030    2    1    2    0    0  0.00000000000E+00  0.00000000000E+00 -0.77441067462E+03  0.29960691850E+04  0.28942561511E+04 0.  0.
        5    1    3    3  502    0 -0.64173400582E+03  0.12966752961E+04 -0.41941615657E+03  0.15063603022E+04  0.46999998093E+01 0.  1.
       -5    1    3    3    0  502  0.64173400582E+03 -0.12966752961E+04 -0.35499451805E+03  0.14897088828E+04  0.46999998093E+01 0. -1.
</event>
<event>
 5   0  0.1031339E-06  0.2903851E+04  0.7818609E-02  0.8271732E-01
        2   -1    0    0  501    0  0.00000000000E+00  0.00000000000E+00  0.14830665265E+04  0.14830665265E+04  0.25500000920E-02 0.  1.
       -2   -1    0    0    0  501  0.00000000000E+00  0.00000000000E+00 -0.14214388227E+04  0.14214388227E+04  0.25500000920E-02 0. -1.
    10030    2    1    2    0    0  0.00000000000E+00  0.00000000000E+00  0.61627703807E+02  0.29045053492E+04  0.29038514682E+04 0.  0.
        5    1    3    3  502    0 -0.27644368768E+03 -0.13199962942E+04 -0.50713149865E+03  0.14408385669E+04  0.46999998093E+01 0.  1.
       -5    1    3    3    0  502  0.27644368768E+03  0.13199962942E+04  0.56875920245E+03  0.14636667822E+04  0.46999998093E+01 0. -1.
</event>
<event>
 5   0  0.1063979E-06  0.2893165E+04  0.7818609E-02  0.8274914E-01
       -2   -1    0    0    0  501  0.00000000000E+00  0.00000000000E+00  0.11070840366E+04  0.11070840366E+04  0.25500000920E-02 0. -1.
        2   -1    0    0  501    0  0.00000000000E+00  0.00000000000E+00 -0.18901914073E+04  0.18901914073E+04  0.25500000920E-02 0.  1.
    10030    2    1    2    0    0  0.00000000000E+00  0.00000000000E+00 -0.78310737069E+03  0.29972754439E+04  0.28931648644E+04 0.  0.
        1    1    3    3  502    0 -0.29996852263E+03  0.14136402719E+04 -0.45901850768E+03  0.15162644635E+04  0.50400001928E-02 0.  1.
       -1    1    3    3    0  502  0.29996852263E+03 -0.14136402719E+04 -0.32408886300E+03  0.14810109804E+04  0.50400001928E-02 0. -1.
</event>
<event>
 5   0  0.3885904E-07  0.2888361E+04  0.7818609E-02  0.8276349E-01
       -1   -1    0    0    0  501  0.00000000000E+00  0.00000000000E+00  0.14343353389E+04  0.14343353389E+04  0.50400001928E-02 0. -1.
        1   -1    0    0  501    0  0.00000000000E+00  0.00000000000E+00 -0.14540934602E+04  0.14540934602E+04  0.50400001928E-02 0.  1.
    10030    2    1    2    0    0  0.00000000000E+00  0.00000000000E+00 -0.19758121359E+02  0.28884287991E+04  0.28883612212E+04 0.  0.
        2    1    3    3  502    0  0.30479423068E+03 -0.21642355911E+03  0.13851155676E+04  0.14346720237E+04  0.25500000920E-02 0. -1.
       -2    1    3    3    0  502 -0.30479423068E+03  0.21642355911E+03 -0.14048736890E+04  0.14537567754E+04  0.25500000920E-02 0.  1.
</event>
<event>
 5   0  0.1031339E-06  0.2894426E+04  0.7818609E-02  0.8274538E-01
       -2   -1    0    0    0  501  0.00000000000E+00  0.00000000000E+00  0.12278484241E+04  0.12278484241E+04  0.25500000920E-02 0. -1.
        2   -1    0    0  501    0  0.00000000000E+00  0.00000000000E+00 -0.17057689135E+04  0.17057689136E+04  0.25500000920E-02 0.  1.
    10030    2    1    2    0    0  0.00000000000E+00  0.00000000000E+00 -0.47792048944E+03  0.29336173377E+04  0.28944261417E+04 0.  0.
        5    1    3    3  502    0  0.10505252209E+04  0.68834111902E+03  0.48979339781E+03  0.13480861984E+04  0.46999998093E+01 0. -1.
       -5    1    3    3    0  502 -0.10505252209E+04 -0.68834111902E+03 -0.96771388725E+03  0.15855311392E+04  0.46999998093E+01 0.  1.
</event>
<event>
 5   0  0.1063979E-06  0.2877384E+04  0.7818609E-02  0.8279638E-01
        2   -1    0    0  501    0  0.00000000000E+00  0.00000000000E+00  0.26445648407E+04  0.26445648407E+04  0.25500000920E-02 0.  1.
       -2   -1    0    0    0  501  0.00000000000E+00  0.00000000000E+00 -0.78267519941E+03  0.78267519942E+03  0.25500000920E-02 0. -1.
    10030    2    1    2    0    0  0.00000000000E+00  0.00000000000E+00  0.18618896413E+04  0.34272400401E+04  0.28773844471E+04 0.  0.
        1    1    3    3  502    0 -0.11931716158E+04 -0.16724563632E+03  0.18674563665E+04  0.22223912546E+04  0.50400001928E-02 0.  1.
       -1    1    3    3    0  502  0.11931716158E+04  0.16724563632E+03 -0.55667251812E+01  0.12048487856E+04  0.50400001928E-02 0. -1.
</event>
<event>
 5   0  0.1063979E-06  0.2898542E+04  0.7818609E-02  0.8273311E-01
        2   -1    0    0  501    0  0.00000000000E+00  0.00000000000E+00  0.16023338097E+04  0.16023338097E+04  0.25500000920E-02 0.  1.
       -2   -1    0    0    0  501  0.00000000000E+00  0.00000000000E+00 -0.13108293829E+04  0.13108293829E+04  0.25500000920E-02 0. -1.
    10030    2    1    2    0    0  0.00000000000E+00  0.00000000000E+00  0.29150442671E+03  0.29131631926E+04  0.28985418672E+04 0.  0.
        1    1    3    3  502    0 -0.14179310270E+04 -0.29628907826E+03  0.10001856591E+03  0.14520052785E+04  0.50400001928E-02 0. -1.
       -1    1    3    3    0  502  0.14179310270E+04  0.29628907826E+03  0.19148586081E+03  0.14611579141E+04  0.50400001928E-02 0.  1.
</event>
<event>
 5   0  0.9950999E-07  0.2901311E+04  0.7818609E-02  0.8272488E-01
       -2   -1    0    0    0  501  0.00000000000E+00  0.00000000000E+00  0.14176255853E+04  0.14176255853E+04  0.25500000920E-02 0. -1.
        2   -1    0    0  501    0  0.00000000000E+00  0.00000000000E+00 -0.14844544883E+04  0.14844544883E+04  0.25500000920E-02 0.  1.
    10030    2    1    2    0    0  0.00000000000E+00  0.00000000000E+00 -0.66828903001E+02  0.29020800737E+04  0.29013105059E+04 0.  0.
        3    1    3    3  502    0  0.11834894819E+04 -0.57113134752E+03  0.58120950251E+03  0.14368865181E+04  0.10100000352E+00 0. -1.
       -3    1    3    3    0  502 -0.11834894819E+04  0.57113134752E+03 -0.64803840551E+03  0.14651935555E+04  0.10100000352E+00 0.  1.
</event>
<event>
 5   0  0.3638028E-07  0.2899248E+04  0.7818609E-02  0.8273101E-01
        1   -1    0    0  501    0  0.00000000000E+00  0.00000000000E+00  0.25751414351E+04  0.25751414351E+04  0.50400001928E-02 0.  1.
       -1   -1    0    0    0  501  0.00000000000E+00  0.00000000000E+00 -0.81603675548E+03  0.81603675549E+03  0.50400001928E-02 0. -1.
    10030    2    1    2    0    0  0.00000000000E+00  0.00000000000E+00  0.17591046796E+04  0.33911781906E+04  0.28992482209E+04 0.  0.
        4    1    3    3  502    0 -0.51390150114E+03 -0.12418520480E+04  0.15149746547E+04  0.20252014910E+04  0.12699999809E+01 0.  1.
       -4    1    3    3    0  502  0.51390150114E+03  0.12418520480E+04  0.24413002494E+03  0.13659766996E+04  0.12699999809E+01 0. -1.
</event>
<event>
 5   0  0.3638028E-07  0.2899293E+04  0.7818609E-02  0.8273088E-01
        1   -1    0    0  501    0  0.00000000000E+00  0.00000000000E+00  0.20067959893E+04  0.20067959893E+04  0.50400001928E-02 0.  1.
       -1   -1    0    0    0  501  0.00000000000E+00  0.00000000000E+00 -0.10471789557E+04  0.10471789557E+04  0.50400001928E-02 0. -1.
    10030    2    1    2    0    0  0.00000000000E+00  0.00000000000E+00  0.95961703356E+03  0.30539749450E+04  0.28992926919E+04 0.  0.
        4    1    3    3  502    0 -0.10365682109E+04 -0.58695716220E+02  0.15454933973E+04  0.18618459380E+04  0.12699999809E+01 0.  1.
       -4    1    3    3    0  502  0.10365682109E+04  0.58695716220E+02 -0.58587636371E+03  0.11921290070E+04  0.12699999809E+01 0. -1.
</event>
<event>
 5   0  0.3770467E-07  0.2893184E+04  0.7818609E-02  0.8274908E-01
        1   -1    0    0  501    0  0.00000000000E+00  0.00000000000E+00  0.20151777041E+04  0.20151777041E+04  0.50400001928E-02 0. -1.
       -1   -1    0    0    0  501  0.00000000000E+00  0.00000000000E+00 -0.10384335529E+04  0.10384335529E+04  0.50400001928E-02 0.  1.
    10030    2    1    2    0    0  0.00000000000E+00  0.00000000000E+00  0.97674415123E+03  0.30536112570E+04  0.28931838124E+04 0.  0.
        1    1    3    3  502    0  0.62123676102E+03 -0.12459713769E+04  0.73849683378E+02  0.13942143168E+04  0.50400001928E-02 0. -1.
       -1    1    3    3    0  502 -0.62123676102E+03  0.12459713769E+04  0.90289446785E+03  0.16593969403E+04  0.50400001928E-02 0.  1.
</event>
<event>
 5   0  0.1031339E-06  0.2891250E+04  0.7818609E-02  0.8275486E-01
        2   -1    0    0  501    0  0.00000000000E+00  0.00000000000E+00  0.16755725462E+04  0.16755725462E+04  0.25500000920E-02 0.  1.
       -2   -1    0    0    0  501  0.00000000000E+00  0.00000000000E+00 -0.12472346544E+04  0.12472346544E+04  0.25500000920E-02 0. -1.
    10030    2    1    2    0    0  0.00000000000E+00  0.00000000000E+00  0.42833789175E+03  0.29228072006E+04  0.28912503493E+04 0.  0.
        5    1    3    3  502    0  0.13110409865E+04  0.14846321836E+03 -0.38299009332E+03  0.13738898417E+04  0.46999998093E+01 0. -1.
       -5    1    3    3    0  502 -0.13110409865E+04 -0.14846321836E+03  0.81132798506E+03  0.15489173589E+04  0.46999998093E+01 0.  1.
</event>
<event>
 5   0  0.3770467E-07  0.2896017E+04  0.7818609E-02  0.8274063E-01
        1   -1    0    0  501    0  0.00000000000E+00  0.00000000000E+00  0.19391701035E+04  0.19391701036E+04  0.50400001928E-02 0. -1.
       -1   -1    0    0    0  501  0.00000000000E+00  0.00000000000E+00 -0.10812508448E+04  0.10812508448E+04  0.50400001928E-02 0.  1.
    10030    2    1    2    0    0  0.00000000000E+00  0.00000000000E+00  0.85791925875E+03  0.30204209484E+04  0.28960174811E+04 0.  0.
        1    1    3    3  502    0  0.16386096226E+03 -0.17679538846E+03  0.19180967122E+04  0.19331844252E+04  0.50400001928E-02 0. -1.
       -1    1    3    3    0  502 -0.16386096226E+03  0.17679538846E+03 -0.10601774535E+04  0.10872365231E+04  0.50400001928E-02 0.  1.
</event>
<event>
 5   0  0.1031339E-06  0.2899653E+04  0.7818609E-02  0.8272981E-01
        2   -1    0    0  501    0  0.00000000000E+00  0.00000000000E+00  0.17160186806E+04  0.17160186806E+04  0.25500000920E-02 0. -1.
       -2   -1    0    0    0  501  0.00000000000E+00  0.00000000000E+00 -0.12249266780E+04  0.12249266780E+04  0.25500000920E-02 0.  1.
    10030    2    1    2    0    0  0.00000000000E+00  0.00000000000E+00  0.49109200258E+03  0.29409453586E+04  0.28996531254E+04 0.  0.
        5    1    3    3  502    0 -0.11744437748E+04  0.85009093835E+03  0.24404563836E+03  0.14702221421E+04  0.46999998093E+01 0.  1.
       -5    1    3    3    0  502  0.11744437748E+04 -0.85009093835E+03  0.24704636422E+03  0.14707232165E+04  0.46999998093E+01 0. -1.
</event>
<event>
 5   0  0.1063979E-06  0.2886946E+04  0.7818609E-02  0.8276772E-01
       -2   -1    0    0    0  501  0.00000000000E+00  0.00000000000E+00  0.90482868217E+03  0.90482868217E+03  0.25500000920E-02 0. -1.
        2   -1    0    0  501    0  0.00000000000E+00  0.00000000000E+00 -0.23027715908E+04  0.23027715908E+04  0.25500000920E-02 0.  1.
    10030    2    1    2    0    0  0.00000000000E+00  0.00000000000E+00 -0.13979429087E+04  0.32076002730E+04  0.28869456412E+04 0.  0.
        1    1    3    3  502    0 -0.91140843632E+03  0.17836676208E+02 -0.19424923614E+04  0.21457539605E+04  0.50400001928E-02 0.  1.
       -1    1    3    3    0  502  0.91140843632E+03 -0.17836676208E+02  0.54454945277E+03  0.10618463125E+04  0.50400001928E-02 0. -1.
</event>
<event>
 5   0  0.1006893E-06  0.2921206E+04  0.7818609E-02  0.8266596E-01
       -2   -1    0    0    0  501  0.00000000000E+00  0.00000000000E+00  0.11009834496E+04  0.11009834496E+04  0.25500000920E-02 0.  1.
        2   -1    0    0  501    0  0.00000000000E+00  0.00000000000E+00 -0.19376874326E+04  0.19376874326E+04  0.25500000920E-02 0. -1.
    10030    2    1    2    0    0  0.00000000000E+00  0.00000000000E+00 -0.83670398299E+03  0.30386708823E+04  0.29212064589E+04 0.  0.
        4    1    3    3  502    0 -0.89806436238E+03 -0.97627752548E+03 -0.10542627824E+04  0.16944347238E+04  0.12699999809E+01 0. -1.
       -4    1    3    3    0  502  0.89806436238E+03  0.97627752548E+03  0.21755879945E+03  0.13442361585E+04  0.12699999809E+01 0.  1.
</event>
<event>
 5   0  0.1031339E-06  0.2877453E+04  0.7818609E-02  0.8279618E-01
       -2   -1    0    0    0  501  0.00000000000E+00  0.00000000000E+00  0.15830127437E+04  0.15830127437E+04  0.25500000920E-02 0.  1.
        2   -1    0    0  501    0  0.00000000000E+00  0.00000000000E+00 -0.13075914735E+04  0.13075914735E+04  0.25500000920E-02 0. -1.
    10030    2    1    2    0    0  0.00000000000E+00  0.00000000000E+00  0.27542127016E+03  0.28906042172E+04  0.28774530169E+04 0.  0.
        5    1    3    3  502    0 -0.34359474507E+02  0.70298554258E+03 -0.11228321832E+04  0.13251956263E+04  0.46999998093E+01 0. -1.
       -5    1    3    3    0  502  0.34359474507E+02 -0.70298554258E+03  0.13982534533E+04  0.15654085908E+04  0.46999998093E+01 0.  1.
</event>
<event>
 5   0  0.3638028E-07  0.2905583E+04  0.7818609E-02  0.8271218E-01
       -1   -1    0    0    0  501  0.00000000000E+00  0.00000000000E+00  0.15360410167E+04  0.15360410167E+04  0.50400001928E-02 0.  1.
        1   -1    0    0  501    0  0.00000000000E+00  0.00000000000E+00 -0.13740536733E+04  0.13740536733E+04  0.50400001928E-02 0. -1.
    10030    2    1    2    0    0  0.00000000000E+00  0.00000000000E+00  0.16198734336E+03  0.29100946900E+04  0.29055827652E+04 0.  0.
        4    1    3    3  502    0  0.38809869234E+03  0.11172385160E+04  0.92596166662E+03  0.15020815948E+04  0.12699999809E+01 0.  1.
       -4    1    3    3    0  502 -0.38809869234E+03 -0.11172385160E+04 -0.76397432326E+03  0.14080130951E+04  0.12699999809E+01 0. -1.
</event>
<event>
 5   0  0.1063979E-06  0.2899795E+04  0.7818609E-02  0.8272938E-01
        2   -1    0    0  501    0  0.00000000000E+00  0.00000000000E+00  0.11308030263E+04  0.11308030263E+04  0.25500000920E-02 0. -1.
       -2   -1    0    0    0  501  0.00000000000E+00  0.00000000000E+00 -0.18590359540E+04  0.18590359540E+04  0.25500000920E-02 0.  1.
    10030    2    1    2    0    0  0.00000000000E+00  0.00000000000E+00 -0.72823292768E+03  0.29898389803E+04  0.28997954982E+04 0.  0.
        1    1    3    3  502    0 -0.12487029965E+04 -0.56184957220E+03 -0.85564742636E+03  0.16146413328E+04  0.50400001928E-02 0.  1.
       -1    1    3    3    0  502  0.12487029965E+04  0.56184957220E+03  0.12741449868E+03  0.13751976475E+04  0.50400001928E-02 0. -1.
</event>
<event>
 5   0  0.3638028E-07  0.2899375E+04  0.7818609E-02  0.8273064E-01
        1   -1    0    0  501    0  0.00000000000E+00  0.00000000000E+00  0.18225281078E+04  0.18225281078E+04  0.50400001928E-02 0.  1.
       -1   -1    0    0    0  501  0.00000000000E+00  0.00000000000E+00 -0.11531198860E+04  0.11531198860E+04  0.50400001928E-02 0. -1.
    10030    2    1    2    0    0  0.00000000000E+00  0.00000000000E+00  0.66940822182E+03  0.29756479938E+04  0.28993746939E+04 0.  0.
        4    1    3    3  502    0 -0.56388708510E+03  0.31015830956E+03  0.16678861262E+04  0.17877395125E+04  0.12699999809E+01 0.  1.
       -4    1    3    3    0  502  0.56388708510E+03 -0.31015830956E+03 -0.99847790434E+03  0.11879084814E+04  0.12699999809E+01 0. -1.
</event>
<event>
 5   0  0.3885904E-07  0.2902603E+04  0.7818609E-02  0.8272103E-01
        1   -1    0    0  501    0  0.00000000000E+00  0.00000000000E+00  0.13919641379E+04  0.13919641379E+04  0.50400001928E-02 0. -1.
       -1   -1    0    0    0  501  0.00000000000E+00  0.00000000000E+00 -0.15131684640E+04  0.15131684640E+04  0.50400001928E-02 0.  1.
    10030    2    1    2    0    0  0.00000000000E+00  0.00000000000E+00 -0.12120432606E+03  0.29051326019E+04  0.29026031327E+04 0.  0.
        2    1    3    3  502    0  0.30228711187E+03  0.11052679610E+04  0.83083750582E+03  0.14153747648E+04  0.25500000920E-02 0. -1.
       -2    1    3    3    0  502 -0.30228711187E+03 -0.11052679610E+04 -0.95204183188E+03  0.14897578371E+04  0.25500000920E-02 0.  1.
</event>
<event>
 5   0  0.3885904E-07  0.2902912E+04  0.7818609E-02  0.8272012E-01
        1   -1    0    0  501    0  0.00000000000E+00  0.00000000000E+00  0.16194347130E+04  0.16194347130E+04  0.50400001928E-02 0.  1.
       -1   -1    0    0    0  501  0.00000000000E+00  0.00000000000E+00 -0.13009011609E+04  0.13009011609E+04  0.50400001928E-02 0. -1.
    10030    2    1    2    0    0  0.00000000000E+00  0.00000000000E+00  0.31853355211E+03  0.29203358738E+04  0.29029119849E+04 0.  0.
        2    1    3    3  502    0  0.79698408607E+03 -0.38141266491E+03  0.13177276786E+04  0.15865262334E+04  0.25500000920E-02 0.  1.
       -2    1    3    3    0  502 -0.79698408607E+03  0.38141266491E+03 -0.99919412650E+03  0.13338096404E+04  0.25500000920E-02 0. -1.
</event>
<event>
 5   0  0.3770467E-07  0.2898264E+04  0.7818609E-02  0.8273394E-01
        1   -1    0    0  501    0  0.00000000000E+00  0.00000000000E+00  0.17455672129E+04  0.17455672129E+04  0.50400001928E-02 0.  1.
       -1   -1    0    0    0  501  0.00000000000E+00  0.00000000000E+00 -0.12030378333E+04  0.12030378333E+04  0.50400001928E-02 0. -1.
    10030    2    1    2    0    0  0.00000000000E+00  0.00000000000E+00  0.54252937962E+03  0.29486050463E+04  0.28982638926E+04 0.  0.
        1    1    3    3  502    0 -0.26433999168E+03  0.94326622702E+03 -0.81515847417E+03  0.12744058005E+04  0.50400001928E-02 0. -1.
       -1    1    3    3    0  502  0.26433999168E+03 -0.94326622702E+03  0.13576878538E+04  0.16741992458E+04  0.50400001928E-02 0.  1.
</event>
<event>
 5   0  0.3638028E-07  0.2902809E+04  0.7818609E-02  0.8272042E-01
        1   -1    0    0  501    0  0.00000000000E+00  0.00000000000E+00  0.12239222387E+04  0.12239222387E+04  0.50400001928E-02 0. -1.
       -1   -1    0    0    0  501  0.00000000000E+00  0.00000000000E+00 -0.17211678751E+04  0.17211678751E+04  0.50400001928E-02 0.  1.
    10030    2    1    2    0    0  0.00000000000E+00  0.00000000000E+00 -0.49724563636E+03  0.29450901138E+04  0.29028094246E+04 0.  0.
        4    1    3    3  502    0 -0.55223164127E+03  0.71642080709E+03 -0.14002129001E+04  0.16669782053E+04  0.12699999809E+01 0.  1.
       -4    1    3    3    0  502  0.55223164127E+03 -0.71642080709E+03  0.90296726375E+03  0.12781119085E+04  0.12699999809E+01 0. -1.
</event>
<event>
 5   0  0.1006893E-06  0.2900989E+04  0.7818609E-02  0.8272583E-01
       -2   -1    0    0    0  501  0.00000000000E+00  0.00000000000E+00  0.12441981932E+04  0.12441981932E+04  0.25500000920E-02 0.  1.
        2   -1    0    0  501    0  0.00000000000E+00  0.00000000000E+00 -0.16909961957E+04  0.16909961957E+04  0.25500000920E-02 0. -1.
    10030    2    1    2    0    0  0.00000000000E+00  0.00000000000E+00 -0.44679800248E+03  0.29351943889E+04  0.29009890806E+04 0.  0.
        4    1    3    3  502    0 -0.20201784316E+03  0.35412730376E+03 -0.16318306470E+04  0.16819899612E+04  0.12699999809E+01 0. -1.
       -4    1    3    3    0  502  0.20201784316E+03 -0.35412730376E+03  0.11850326445E+04  0.12532044277E+04  0.12699999809E+01 0.  1.
</event>
<event>
 5   0  0.9994311E-07  0.2902351E+04  0.7818609E-02  0.8272178E-01
        2   -1    0    0  501    0  0.00000000000E+00  0.00000000000E+00  0.17088282210E+04  0.17088282210E+04  0.25500000920E-02 0.  1.
       -2   -1    0    0    0  501  0.00000000000E+00  0.00000000000E+00 -0.12323711094E+04  0.12323711094E+04  0.25500000920E-02 0. -1.
    10030    2    1    2    0    0  0.00000000000E+00  0.00000000000E+00  0.47645711164E+03  0.29411993304E+04  0.29023511369E+04 0.  0.
        2    1    3    3  502    0  0.12738784496E+04  0.55158360922E+03  0.66685540264E+03  0.15400347107E+04  0.25500000920E-02 0.  1.
       -2    1    3    3    0  502 -0.12738784496E+04 -0.55158360922E+03 -0.19039829100E+03  0.14011646197E+04  0.25500000920E-02 0. -1.
</event>
<event>
 5   0  0.3786210E-07  0.2894668E+04  0.7818609E-02  0.8274466E-01
       -1   -1    0    0    0  501  0.00000000000E+00  0.00000000000E+00  0.10562315791E+04  0.10562315791E+04  0.50400001928E-02 0. -1.
        1   -1    0    0  501    0  0.00000000000E+00  0.00000000000E+00 -0.19832539196E+04  0.19832539196E+04  0.50400001928E-02 0.  1.
    10030    2    1    2    0    0  0.00000000000E+00  0.00000000000E+00 -0.92702234042E+03  0.30394854987E+04  0.28946678008E+04 0.  0.
        5    1    3    3  502    0  0.14279145923E+04 -0.15273903895E+03 -0.65276135554E+03  0.15774627647E+04  0.46999998093E+01 0. -1.
       -5    1    3    3    0  502 -0.14279145923E+04  0.15273903895E+03 -0.27426098488E+03  0.14620227340E+04  0.46999998093E+01 0.  1.
</event>
<event>
 5   0  0.9994311E-07  0.2903403E+04  0.7818609E-02  0.8271866E-01
       -2   -1    0    0    0  501  0.00000000000E+00  0.00000000000E+00  0.97726136976E+03  0.97726136976E+03  0.25500000920E-02 0.  1.
        2   -1    0    0  501    0  0.00000000000E+00  0.00000000000E+00 -0.21564731413E+04  0.21564731413E+04  0.25500000920E-02 0. -1.
    10030    2    1    2    0    0  0.00000000000E+00  0.00000000000E+00 -0.11792117715E+04  0.31337345110E+04  0.29034034483E+04 0.  0.
        2    1    3    3  502    0  0.13891565623E+04  0.21145022908E+03 -0.98318573767E+03  0.17149697807E+04  0.25500000920E-02 0. -1.
       -2    1    3    3    0  502 -0.13891565623E+04 -0.21145022908E+03 -0.19602603383E+03  0.14187647303E+04  0.25500000920E-02 0.  1.
</event>
<event>
 5   0  0.3786210E-07  0.2894368E+04  0.7818609E-02  0.8274555E-01
       -1   -1    0    0    0  501  0.00000000000E+00  0.00000000000E+00  0.12126605653E+04  0.12126605653E+04  0.50400001928E-02 0. -1.
        1   -1    0    0  501    0  0.00000000000E+00  0.00000000000E+00 -0.17270632338E+04  0.17270632338E+04  0.50400001928E-02 0.  1.
    10030    2    1    2    0    0  0.00000000000E+00  0.00000000000E+00 -0.51440266847E+03  0.29397237991E+04  0.28943679638E+04 0.  0.
        5    1    3    3  502    0  0.10198623143E+04 -0.22923101159E+03 -0.12737110137E+04  0.16477341513E+04  0.46999998093E+01 0.  1.
       -5    1    3    3    0  502 -0.10198623143E+04  0.22923101159E+03  0.75930834527E+03  0.12919896478E+04  0.46999998093E+01 0. -1.
</event>
<event>
 5   0  0.1063979E-06  0.2905206E+04  0.7818609E-02  0.8271330E-01
        2   -1    0    0  501    0  0.00000000000E+00  0.00000000000E+00  0.13989118383E+04  0.13989118383E+04  0.25500000920E-02 0.  1.
       -2   -1    0    0    0  501  0.00000000000E+00  0.00000000000E+00 -0.15083551842E+04  0.15083551842E+04  0.25500000920E-02 0. -1.
    10030    2    1    2    0    0  0.00000000000E+00  0.00000000000E+00 -0.10944334590E+03  0.29072670226E+04  0.29052063084E+04 0.  0.
        1    1    3    3  502    0 -0.23769958105E+03  0.76406030604E+03  0.11584776033E+04  0.14079629255E+04  0.50400001928E-02 0.  1.
       -1    1    3    3    0  502  0.23769958105E+03 -0.76406030604E+03 -0.12679209492E+04  0.14993040971E+04  0.50400001928E-02 0. -1.
</event>
<event>
 5   0  0.1006893E-06  0.2905317E+04  0.7818609E-02  0.8271297E-01
        2   -1    0    0  501    0  0.00000000000E+00  0.00000000000E+00  0.81661244826E+03  0.81661244826E+03  0.25500000920E-02 0.  1.
       -2   -1    0    0    0  501  0.00000000000E+00  0.00000000000E+00 -0.25841101304E+04  0.25841101304E+04  0.25500000920E-02 0. -1.
    10030    2    1    2    0    0  0.00000000000E+00  0.00000000000E+00 -0.17674976821E+04  0.34007225787E+04  0.29053168503E+04 0.  0.
        4    1    3    3  502    0 -0.64698547091E+03  0.19654785905E+03  0.62117073478E+03  0.91819167667E+03  0.12699999809E+01 0.  1.
       -4    1    3    3    0  502  0.64698547091E+03 -0.19654785905E+03 -0.23886684169E+04  0.24825309020E+04  0.12699999809E+01 0. -1.
</event>
<event>
 5   0  0.3786210E-07  0.2897662E+04  0.7818609E-02  0.8273574E-01
        1   -1    0    0  501    0  0.00000000000E+00  0.00000000000E+00  0.17403431821E+04  0.17403431821E+04  0.50400001928E-02 0. -1.
       -1   -1    0    0    0  501  0.00000000000E+00  0.00000000000E+00 -0.12061476249E+04  0.12061476249E+04  0.50400001928E-02 0.  1.
    10030    2    1    2    0    0  0.00000000000E+00  0.00000000000E+00  0.53419555718E+03  0.29464908071E+04  0.28976616750E+04 0.  0.
        5    1    3    3  502    0  0.47097575206E+03  0.40451289876E+03  0.15982177261E+04  0.17145759926E+04  0.46999998093E+01 0. -1.
       -5    1    3    3    0  502 -0.47097575206E+03 -0.40451289876E+03 -0.10640221689E+04  0.12319148145E+04  0.46999998093E+01 0.  1.
</event>
<event>
 5   0  0.1006893E-06  0.2903189E+04  0.7818609E-02  0.8271929E-01
       -2   -1    0    0    0  501  0.00000000000E+00  0.00000000000E+00  0.11759094999E+04  0.11759094999E+04  0.25500000920E-02 0. -1.
        2   -1    0    0  501    0  0.00000000000E+00  0.00000000000E+00 -0.17919119788E+04  0.17919119788E+04  0.25500000920E-02 0.  1.
    10030    2    1    2    0    0  0.00000000000E+00  0.00000000000E+00 -0.61600247890E+03  0.29678214787E+04  0.29031888115E+04 0.  0.
        4    1    3    3  502    0  0.65758243410E+03 -0.83632461297E+03  0.70154261567E+03  0.12743693226E+04  0.12699999809E+01 0. -1.
       -4    1    3    3    0  502 -0.65758243410E+03  0.83632461297E+03 -0.13175450946E+04  0.16934521561E+04  0.12699999809E+01 0.  1.
</event>
<event>
 5   0  0.1031339E-06  0.2913354E+04  0.7818609E-02  0.8268915E-01
       -2   -1    0    0    0  501  0.00000000000E+00  0.00000000000E+00  0.19020099165E+04  0.19020099165E+04  0.25500000920E-02 0.  1.
        2   -1    0    0  501    0  0.00000000000E+00  0.00000000000E+00 -0.11156133511E+04  0.11156133511E+04  0.25500000920E-02 0. -1.
    10030    2    1    2    0    0  0.00000000000E+00  0.00000000000E+00  0.78639656537E+03  0.30176232676E+04  0.29133538452E+04 0.  0.
        5    1    3    3  502    0 -0.25126154223E+03  0.11922112927E+04  0.12201360984E+04  0.17243127088E+04  0.46999998093E+01 0.  1.
       -5    1    3    3    0  502  0.25126154223E+03 -0.11922112927E+04 -0.43373953302E+03  0.12933105588E+04  0.46999998093E+01 0. -1.
</event>
<event>
 5   0  0.1063979E-06  0.2899425E+04  0.7818609E-02  0.8273049E-01
        2   -1    0    0  501    0  0.00000000000E+00  0.00000000000E+00  0.18783809244E+04  0.18783809244E+04  0.25500000920E-02 0. -1.
       -2   -1    0    0    0  501  0.00000000000E+00  0.00000000000E+00 -0.11188712791E+04  0.11188712791E+04  0.25500000920E-02 0.  1.
    10030    2    1    2    0    0  0.00000000000E+00  0.00000000000E+00  0.75950964529E+03  0.29972522034E+04  0.28994250930E+04 0.  0.
        1    1    3    3  502    0  0.12604821205E+04  0.23519498539E+03 -0.31948051907E+03  0.13214384811E+04  0.50400001928E-02 0.  1.
       -1    1    3    3    0  502 -0.12604821205E+04 -0.23519498539E+03  0.10789901644E+04  0.16758137224E+04  0.50400001928E-02 0. -1.
</event>
<event>
 5   0  0.3638028E-07  0.2896213E+04  0.7818609E-02  0.8274005E-01
        1   -1    0    0  501    0  0.00000000000E+00  0.00000000000E+00  0.21611211292E+04  0.21611211293E+04  0.50400001928E-02 0.  1.
       -1   -1    0    0    0  501  0.00000000000E+00  0.00000000000E+00 -0.97033570646E+03  0.97033570647E+03  0.50400001928E-02 0. -1.
    10030    2    1    2    0    0  0.00000000000E+00  0.00000000000E+00  0.11907854228E+04  0.31314568357E+04  0.28962133883E+04 0.  0.
        4    1    3    3  502    0  0.63317488956E+03 -0.12434736605E+04  0.17681190400E+03  0.14065565212E+04  0.12699999809E+01 0. -1.
       -4    1    3    3    0  502 -0.63317488956E+03  0.12434736605E+04  0.10139735188E+04  0.17249003145E+04  0.12699999809E+01 0.  1.
</event>
<event>
 5   0  0.1063979E-06  0.2896353E+04  0.7818609E-02  0.8273963E-01
       -2   -1    0    0    0  501  0.00000000000E+00  0.00000000000E+00  0.11376523443E+04  0.11376523443E+04  0.25500000920E-02 0. -1.
        2   -1    0    0  501    0  0.00000000000E+00  0.00000000000E+00 -0.18434584989E+04  0.18434584989E+04  0.25500000920E-02 0.  1.
    10030    2    1    2    0    0  0.00000000000E+00  0.00000000000E+00 -0.70580615464E+03  0.29811108432E+04  0.28963527982E+04 0.  0.
        1    1    3    3  502    0  0.11980503882E+04 -0.74108990025E+03 -0.69839842203E+03  0.15723547083E+04  0.50400001928E-02 0. -1.
       -1    1    3    3    0  502 -0.11980503882E+04  0.74108990025E+03 -0.74077326090E+01  0.14087561348E+04  0.50400001928E-02 0.  1.
</event>
<event>
 5   0  0.3885904E-07  0.2912500E+04  0.7818609E-02  0.8269168E-01
       -1   -1    0    0    0  501  0.00000000000E+00  0.00000000000E+00  0.94116434185E+03  0.94116434186E+03  0.50400001928E-02 0.  1.
        1   -1    0    0  501    0  0.00000000000E+00  0.00000000000E+00 -0.22532348752E+04  0.22532348752E+04  0.50400001928E-02 0. -1.
    10030    2    1    2    0    0  0.00000000000E+00  0.00000000000E+00 -0.13120705333E+04  0.31943992170E+04  0.29125001757E+04 0.  0.
        2    1    3    3  502    0 -0.13136891878E+04 -0.20661640820E+03 -0.51347202297E+01  0.13298481070E+04  0.25500000920E-02 0.  1.
       -2    1    3    3    0  502  0.13136891878E+04  0.20661640820E+03 -0.13069358131E+04  0.18645511100E+04  0.25500000920E-02 0. -1.
</event>
<event>
 5   0  0.9950999E-07  0.2897110E+04  0.7818609E-02  0.8273738E-01
       -2   -1    0    0    0  501  0.00000000000E+00  0.00000000000E+00  0.79891155237E+03  0.79891155237E+03  0.25500000920E-02 0. -1.
        2   -1    0    0  501    0  0.00000000000E+00  0.00000000000E+00 -0.26264633114E+04  0.26264633114E+04  0.25500000920E-02 0.  1.
    10030    2    1    2    0    0  0.00000000000E+00  0.00000000000E+00 -0.18275517590E+04  0.34253748638E+04  0.28971102025E+04 0.  0.
        3    1    3    3  502    0  0.14829961532E+03  0.10272835523E+04  0.28092058358E+03  0.10752770142E+04  0.10100000352E+00 0. -1.
       -3    1    3    3    0  502 -0.14829961532E+03 -0.10272835523E+04 -0.21084723426E+04  0.23500978496E+04  0.10100000352E+00 0.  1.
</event>
<event>
 5   0  0.3638028E-07  0.2900917E+04  0.7818609E-02  0.8272605E-01
       -1   -1    0    0    0  501  0.00000000000E+00  0.00000000000E+00  0.71160216654E+03  0.71160216656E+03  0.50400001928E-02 0. -1.
        1   -1    0    0  501    0  0.00000000000E+00  0.00000000000E+00 -0.29564684257E+04  0.29564684258E+04  0.50400001928E-02 0.  1.
    10030    2    1    2    0    0  0.00000000000E+00  0.00000000000E+00 -0.22448662592E+04  0.36680705923E+04  0.29009166394E+04 0.  0.
        4    1    3    3  502    0 -0.90546805374E+02 -0.55024776775E+03 -0.28155041972E+04  0.28701980467E+04  0.12699999809E+01 0.  1.
       -4    1    3    3    0  502  0.90546805374E+02  0.55024776775E+03  0.57063793800E+03  0.79787254562E+03  0.12699999809E+01 0. -1.
</event>
<event>
 5   0  0.3638028E-07  0.2898174E+04  0.7818609E-02  0.8273421E-01
       -1   -1    0    0    0  501  0.00000000000E+00  0.00000000000E+00  0.15787716164E+04  0.15787716164E+04  0.50400001928E-02 0.  1.
        1   -1    0    0  501    0  0.00000000000E+00  0.00000000000E+00 -0.13300550775E+04  0.13300550775E+04  0.50400001928E-02 0. -1.
    10030    2    1    2    0    0  0.00000000000E+00  0.00000000000E+00  0.24871653885E+03  0.29088266939E+04  0.28981740490E+04 0.  0.
        4    1    3    3  502    0  0.50033582478E+03  0.43639851239E+03 -0.11684258233E+04  0.13438750376E+04  0.12699999809E+01 0. -1.
       -4    1    3    3    0  502 -0.50033582478E+03 -0.43639851239E+03  0.14171423622E+04  0.15649516563E+04  0.12699999809E+01 0.  1.
</event>
<event>
 5   0  0.1063979E-06  0.2900182E+04  0.7818609E-02  0.8272823E-01
        2   -1    0    0  501    0  0.00000000000E+00  0.00000000000E+00  0.96749898514E+03  0.96749898514E+03  0.25500000920E-02 0.  1.
       -2   -1    0    0    0  501  0.00000000000E+00  0.00000000000E+00 -0.21734015494E+04  0.21734015494E+04  0.25500000920E-02 0. -1.
    10030    2    1    2    0    0  0.00000000000E+00  0.00000000000E+00 -0.12059025643E+04  0.31409005346E+04  0.29001819208E+04 0.  0.
        1    1    3    3  502    0 -0.15961689811E+03  0.40761022744E+03 -0.21001353943E+04  0.21452720868E+04  0.50400001928E-02 0. -1.
       -1    1    3    3    0  502  0.15961689811E+03 -0.40761022744E+03  0.89423283006E+03  0.99562844779E+03  0.50400001928E-02 0.  1.
</event>
<event>
 5   0  0.1006893E-06  0.2900854E+04  0.7818609E-02  0.8272623E-01
       -2   -1    0    0    0  501  0.00000000000E+00  0.00000000000E+00  0.14410682145E+04  0.14410682145E+04  0.25500000920E-02 0. -1.
        2   -1    0    0  501    0  0.00000000000E+00  0.00000000000E+00 -0.14598469153E+04  0.14598469153E+04  0.25500000920E-02 0.  1.
    10030    2    1    2    0    0  0.00000000000E+00  0.00000000000E+00 -0.18778700802E+02  0.29009151298E+04  0.29008543484E+04 0.  0.
        4    1    3    3  502    0  0.92303868308E+03 -0.75702149597E+03 -0.83321206124E+03  0.14557904752E+04  0.12699999809E+01 0.  1.
       -4    1    3    3    0  502 -0.92303868308E+03  0.75702149597E+03  0.81443336044E+03  0.14451246546E+04  0.12699999809E+01 0. -1.
</event>
<event>
 5   0  0.3786210E-07  0.2894690E+04  0.7818609E-02  0.8274459E-01
       -1   -1    0    0    0  501  0.00000000000E+00  0.00000000000E+00  0.20447461147E+04  0.20447461147E+04  0.50400001928E-02 0.  1.
        1   -1    0    0  501    0  0.00000000000E+00  0.00000000000E+00 -0.10244832076E+04  0.10244832076E+04  0.50400001928E-02 0. -1.
    10030    2    1    2    0    0  0.00000000000E+00  0.00000000000E+00  0.10202629071E+04  0.30692293223E+04  0.28946903519E+04 0.  0.
        5    1    3    3  502    0  0.10842727039E+04 -0.40642453644E+03  0.14307945495E+04  0.18406583966E+04  0.46999998093E+01 0.  1.
       -5    1    3    3    0  502 -0.10842727039E+04  0.40642453644E+03 -0.41053164238E+03  0.12285709257E+04  0.46999998093E+01 0. -1.
</event>
<event>
 5   0  0.1063979E-06  0.2877485E+04  0.7818609E-02  0.8279608E-01
        2   -1    0    0  501    0  0.00000000000E+00  0.00000000000E+00  0.18039284794E+04  0.18039284794E+04  0.25500000920E-02 0. -1.
       -2   -1    0    0    0  501  0.00000000000E+00  0.00000000000E+00 -0.11474844354E+04  0.11474844354E+04  0.25500000920E-02 0.  1.
    10030    2    1    2    0    0  0.00000000000E+00  0.00000000000E+00  0.65644404395E+03  0.29514129148E+04  0.28774849106E+04 0.  0.
        1    1    3    3  502    0 -0.59516541768E+03 -0.12991662023E+04  0.15682047782E+03  0.14375838612E+04  0.50400001928E-02 0.  1.
       -1    1    3    3    0  502  0.59516541768E+03  0.12991662023E+04  0.49962356613E+03  0.15138290536E+04  0.50400001928E-02 0. -1.
</event>
<event>
 5   0  0.9950999E-07  0.2897777E+04  0.7818609E-02  0.8273539E-01
       -2   -1    0    0    0  501  0.00000000000E+00  0.00000000000E+00  0.14148068271E+04  0.14148068271E+04  0.25500000920E-02 0.  1.
        2   -1    0    0  501    0  0.00000000000E+00  0.00000000000E+00 -0.14837912673E+04  0.14837912673E+04  0.25500000920E-02 0. -1.
    10030    2    1    2    0    0  0.00000000000E+00  0.00000000000E+00 -0.68984440160E+02  0.28985980944E+04  0.28977770894E+04 0.  0.
        3    1    3    3  502    0 -0.14183638485E+04 -0.18801917242E+03  0.19398175101E+03  0.14438615397E+04  0.10100000352E+00 0. -1.
       -3    1    3    3    0  502  0.14183638485E+04  0.18801917242E+03 -0.26296619117E+03  0.14547365547E+04  0.10100000352E+00 0.  1.
</event>
<event>
 5   0  0.3770467E-07  0.2901845E+04  0.7818609E-02  0.8272329E-01
        1   -1    0    0  501    0  0.00000000000E+00  0.00000000000E+00  0.24521552517E+04  0.24521552517E+04  0.50400001928E-02 0.  1.
       -1   -1    0    0    0  501  0.00000000000E+00  0.00000000000E+00 -0.85850059782E+03  0.85850059784E+03  0.50400001928E-02 0. -1.
    10030    2    1    2    0    0  0.00000000000E+00  0.00000000000E+00  0.15936546539E+04  0.33106558495E+04  0.29018454470E+04 0.  0.
        1    1    3    3  502    0  0.94769288510E+02  0.47252856149E+03 -0.76451624223E+03  0.90374196767E+03  0.50400001928E-02 0. -1.
       -1    1    3    3    0  502 -0.94769288510E+02 -0.47252856149E+03  0.23581708961E+04  0.24069138819E+04  0.50400001928E-02 0.  1.
</event>
<event>
 5   0  0.3770467E-07  0.2903340E+04  0.7818609E-02  0.8271885E-01
        1   -1    0    0  501    0  0.00000000000E+00  0.00000000000E+00  0.10376207146E+04  0.10376207146E+04  0.50400001928E-02 0. -1.
       -1   -1    0    0    0  501  0.00000000000E+00  0.00000000000E+00 -0.20309399307E+04  0.20309399307E+04  0.50400001928E-02 0.  1.
    10030    2    1    2    0    0  0.00000000000E+00  0.00000000000E+00 -0.99331921611E+03  0.30685606454E+04  0.29033396924E+04 0.  0.
        1    1    3    3  502    0 -0.11627882857E+04 -0.74339168893E+03 -0.97242934484E+03  0.16882910387E+04  0.50400001928E-02 0.  1.
       -1    1    3    3    0  502  0.11627882857E+04  0.74339168893E+03 -0.20889871276E+02  0.13802696067E+04  0.50400001928E-02 0. -1.
</event>
<event>
 5   0  0.3769563E-07  0.2911229E+04  0.7818609E-02  0.8269544E-01
       -1   -1    0    0    0  501  0.00000000000E+00  0.00000000000E+00  0.11826315525E+04  0.11826315525E+04  0.50400001928E-02 0. -1.
        1   -1    0    0  501    0  0.00000000000E+00  0.00000000000E+00 -0.17916095572E+04  0.17916095572E+04  0.50400001928E-02 0.  1.
    10030    2    1    2    0    0  0.00000000000E+00  0.00000000000E+00 -0.60897800477E+03  0.29742411097E+04  0.29112292882E+04 0.  0.
        3    1    3    3  502    0  0.14137079225E+04  0.56471529895E+02 -0.65402707070E+03  0.15586887256E+04  0.10100000352E+00 0.  1.
       -3    1    3    3    0  502 -0.14137079225E+04 -0.56471529895E+02  0.45049065933E+02  0.14155523842E+04  0.10100000352E+00 0. -1.
</event>
<event>
 5   0  0.3786210E-07  0.2905221E+04  0.7818609E-02  0.8271326E-01
        1   -1    0    0  501    0  0.00000000000E+00  0.00000000000E+00  0.20670506363E+04  0.20670506363E+04  0.50400001928E-02 0. -1.
       -1   -1    0    0    0  501  0.00000000000E+00  0.00000000000E+00 -0.10208156822E+04  0.10208156822E+04  0.50400001928E-02 0.  1.
    10030    2    1    2    0    0  0.00000000000E+00  0.00000000000E+00  0.10462349541E+04  0.30878663186E+04  0.29052213035E+04 0.  0.
        5    1    3    3  502    0  0.10112962892E+04  0.51518678094E+03  0.14867102170E+04  0.18704189271E+04  0.46999998093E+01 0. -1.
       -5    1    3    3    0  502 -0.10112962892E+04 -0.51518678094E+03 -0.44047526287E+03  0.12174473914E+04  0.46999998093E+01 0.  1.
</event>
<event>
 5   0  0.3769563E-07  0.2900901E+04  0.7818609E-02  0.8272609E-01
        1   -1    0    0  501    0  0.00000000000E+00  0.00000000000E+00  0.97086445066E+03  0.97086445067E+03  0.50400001928E-02 0. -1.
       -1   -1    0    0    0  501  0.00000000000E+00  0.00000000000E+00 -0.21669418255E+04  0.21669418256E+04  0.50400001928E-02 0.  1.
    10030    2    1    2    0    0  0.00000000000E+00  0.00000000000E+00 -0.11960773749E+04  0.31378062762E+04  0.29009010911E+04 0.  0.
        3    1    3    3  502    0  0.80909330228E+03 -0.11661554867E+03  0.69796501608E+03  0.10748889858E+04  0.10100000352E+00 0. -1.
       -3    1    3    3    0  502 -0.80909330228E+03  0.11661554867E+03 -0.18940423910E+04  0.20629172904E+04  0.10100000352E+00 0.  1.
</event>
<event>
 5   0  0.1006893E-06  0.2887324E+04  0.7818609E-02  0.8276659E-01
       -2   -1    0    0    0  501  0.00000000000E+00  0.00000000000E+00  0.11485818625E+04  0.11485818625E+04  0.25500000920E-02 0. -1.
        2   -1    0    0  501    0  0.00000000000E+00  0.00000000000E+00 -0.18145501918E+04  0.18145501918E+04  0.25500000920E-02 0.  1.
    10030    2    1    2    0    0  0.00000000000E+00  0.00000000000E+00 -0.66596832928E+03  0.29631320543E+04  0.28873236319E+04 0.  0.
        4    1    3    3  502    0  0.64572516446E+03  0.80023955480E+03 -0.13729075022E+04  0.17152903415E+04  0.12699999809E+01 0.  1.
       -4    1    3    3    0  502 -0.64572516446E+03 -0.80023955480E+03  0.70693917291E+03  0.12478417128E+04  0.12699999809E+01 0. -1.
</event>
<event>
 5   0  0.1063979E-06  0.2901051E+04  0.7818609E-02  0.8272565E-01
       -2   -1    0    0    0  501  0.00000000000E+00  0.00000000000E+00  0.16034327993E+04  0.16034327993E+04  0.25500000920E-02 0. -1.
        2   -1    0    0  501    0  0.00000000000E+00  0.00000000000E+00 -0.13121994394E+04  0.13121994394E+04  0.25500000920E-02 0.  1.
    10030    2    1    2    0    0  0.00000000000E+00  0.00000000000E+00  0.29123335984E+03  0.29156322387E+04  0.29010505824E+04 0.  0.
        1    1    3    3  502    0 -0.31736755632E+02  0.61118165941E+03  0.14673212239E+04  0.15898370409E+04  0.50400001928E-02 0. -1.
       -1    1    3    3    0  502  0.31736755632E+02 -0.61118165941E+03 -0.11760878641E+04  0.13257951978E+04  0.50400001928E-02 0.  1.
</event>
<event>
 5   0  0.3885904E-07  0.2909726E+04  0.7818609E-02  0.8269989E-01
        1   -1    0    0  501    0  0.00000000000E+00  0.00000000000E+00  0.24320228721E+04  0.24320228722E+04  0.50400001928E-02 0.  1.
       -1   -1    0    0    0  501  0.00000000000E+00  0.00000000000E+00 -0.87031536547E+03  0.87031536549E+03  0.50400001928E-02 0. -1.
    10030    2    1    2    0    0  0.00000000000E+00  0.00000000000E+00  0.15617075067E+04  0.33023382376E+04  0.29097263616E+04 0.  0.
        2    1    3    3  502    0  0.34187888250E+03 -0.14080065549E+04  0.92997194664E+03  0.17216885463E+04  0.25500000920E-02 0.  1.
       -2    1    3    3    0  502 -0.34187888250E+03  0.14080065549E+04  0.63173556003E+03  0.15806496913E+04  0.25500000920E-02 0. -1.
</event>
<event>
 5   0  0.1031339E-06  0.2899299E+04  0.7818609E-02  0.8273086E-01
        2   -1    0    0  501    0  0.00000000000E+00  0.00000000000E+00  0.19555282572E+04  0.19555282572E+04  0.25500000920E-02 0. -1.
       -2   -1    0    0    0  501  0.00000000000E+00  0.00000000000E+00 -0.10746376918E+04  0.10746376918E+04  0.25500000920E-02 0.  1.
    10030    2    1    2    0    0  0.00000000000E+00  0.00000000000E+00  0.88089056538E+03  0.30301659491E+04  0.28992994827E+04 0.  0.
        5    1    3    3  502    0 -0.23142932268E+03 -0.74814884013E+03 -0.83452626477E+03  0.11444397734E+04  0.46999998093E+01 0.  1.
       -5    1    3    3    0  502  0.23142932268E+03  0.74814884013E+03  0.17154168301E+04  0.18857261756E+04  0.46999998093E+01 0. -1.
</event>
<event>
 5   0  0.3885904E-07  0.2893371E+04  0.7818609E-02  0.8274853E-01
        1   -1    0    0  501    0  0.00000000000E+00  0.00000000000E+00  0.19782761816E+04  0.19782761816E+04  0.50400001928E-02 0. -1.
       -1   -1    0    0    0  501  0.00000000000E+00  0.00000000000E+00 -0.10579405772E+04  0.10579405772E+04  0.50400001928E-02 0.  1.
    10030    2    1    2    0    0  0.00000000000E+00  0.00000000000E+00  0.92033560444E+03  0.30362167588E+04  0.28933707992E+04 0.  0.
        2    1    3    3  502    0 -0.12341445488E+04 -0.44971583900E+03  0.10963505617E+04  0.17109475905E+04  0.25500000920E-02 0. -1.
       -2    1    3    3    0  502  0.12341445488E+04  0.44971583900E+03 -0.17601495723E+03  0.13252691683E+04  0.25500000920E-02 0.  1.
</event>
<event>
 5   0  0.9994311E-07  0.2892117E+04  0.7818609E-02  0.8275227E-01
        2   -1    0    0  501    0  0.00000000000E+00  0.00000000000E+00  0.24199433361E+04  0.24199433361E+04  0.25500000920E-02 0. -1.
       -2   -1    0    0    0  501  0.00000000000E+00  0.00000000000E+00 -0.86410531718E+03  0.86410531718E+03  0.25500000920E-02 0.  1.
    10030    2    1    2    0    0  0.00000000000E+00  0.00000000000E+00  0.15558380189E+04  0.32840486533E+04  0.28921174969E+04 0.  0.
        2    1    3    3  502    0  0.12912176399E+04  0.62946494642E+03  0.58921537672E+03  0.15526248332E+04  0.25500000920E-02 0.  1.
       -2    1    3    3    0  502 -0.12912176399E+04 -0.62946494642E+03  0.96662264218E+03  0.17314238201E+04  0.25500000920E-02 0. -1.
</event>
<event>
 5   0  0.9950999E-07  0.2882824E+04  0.7818609E-02  0.8278006E-01
        2   -1    0    0  501    0  0.00000000000E+00  0.00000000000E+00  0.13412178082E+04  0.13412178082E+04  0.25500000920E-02 0.  1.
       -2   -1    0    0    0  501  0.00000000000E+00  0.00000000000E+00 -0.15490914815E+04  0.15490914815E+04  0.25500000920E-02 0. -1.
    10030    2    1    2    0    0  0.00000000000E+00  0.00000000000E+00 -0.20787367335E+03  0.28903092897E+04  0.28828243662E+04 0.  0.
        3    1    3    3  502    0  0.11968398788E+04 -0.54142196744E+03  0.49098871032E+03  0.14023670583E+04  0.10100000352E+00 0.  1.
       -3    1    3    3    0  502 -0.11968398788E+04  0.54142196744E+03 -0.69886238367E+03  0.14879422314E+04  0.10100000352E+00 0. -1.
</event>
<event>
 5   0  0.1063979E-06  0.2889977E+04  0.7818609E-02  0.8275866E-01
       -2   -1    0    0    0  501  0.00000000000E+00  0.00000000000E+00  0.14839151532E+04  0.14839151532E+04  0.25500000920E-02 0. -1.
        2   -1    0    0  501    0  0.00000000000E+00  0.00000000000E+00 -0.14070829216E+04  0.14070829216E+04  0.25500000920E-02 0.  1.
    10030    2    1    2    0    0  0.00000000000E+00  0.00000000000E+00  0.76832231599E+02  0.28909980747E+04  0.28899769335E+04 0.  0.
        1    1    3    3  502    0  0.10573030453E+04 -0.77232735254E+03 -0.57303827353E+03  0.14292487999E+04  0.50400001928E-02 0. -1.
       -1    1    3    3    0  502 -0.10573030453E+04  0.77232735254E+03  0.64987050513E+03  0.14617492748E+04  0.50400001928E-02 0.  1.
</event>
<event>
 5   0  0.1006893E-06  0.2903671E+04  0.7818609E-02  0.8271786E-01
        2   -1    0    0  501    0  0.00000000000E+00  0.00000000000E+00  0.15473240995E+04  0.15473240995E+04  0.25500000920E-02 0. -1.
       -2   -1    0    0    0  501  0.00000000000E+00  0.00000000000E+00 -0.13622396047E+04  0.13622396047E+04  0.25500000920E-02 0.  1.
    10030    2    1    2    0    0  0.00000000000E+00  0.00000000000E+00  0.18508449481E+03  0.29095637041E+04  0.29036708970E+04 0.  0.
        4    1    3    3  502    0  0.13012137294E+04 -0.52838006807E+03  0.46136788593E+03  0.14782437570E+04  0.12699999809E+01 0. -1.
       -4    1    3    3    0  502 -0.13012137294E+04  0.52838006807E+03 -0.27628339112E+03  0.14313199471E+04  0.12699999809E+01 0.  1.
</event>
<event>
 5   0  0.3786210E-07  0.2897988E+04  0.7818609E-02  0.8273476E-01
        1   -1    0    0  501    0  0.00000000000E+00  0.00000000000E+00  0.86104419282E+03  0.86104419284E+03  0.50400001928E-02 0. -1.
       -1   -1    0    0    0  501  0.00000000000E+00  0.00000000000E+00 -0.24384159210E+04  0.24384159210E+04  0.50400001928E-02 0.  1.
    10030    2    1    2    0    0  0.00000000000E+00  0.00000000000E+00 -0.15773717281E+04  0.32994601138E+04  0.28979881770E+04 0.  0.
        5    1    3    3  502    0  0.18966356247E+03  0.34053192894E+03  0.80022386488E+03  0.89012054548E+03  0.46999998093E+01 0. -1.
       -5    1    3    3    0  502 -0.18966356247E+03 -0.34053192894E+03 -0.23775955930E+04  0.24093395683E+04  0.46999998093E+01 0.  1.
</event>
<event>
 5   0  0.3638028E-07  0.2894395E+04  0.7818609E-02  0.8274547E-01
       -1   -1    0    0    0  501  0.00000000000E+00  0.00000000000E+00  0.86758098245E+03  0.86758098247E+03  0.50400001928E-02 0.  1.
        1   -1    0    0  501    0  0.00000000000E+00  0.00000000000E+00 -0.24140461796E+04  0.24140461796E+04  0.50400001928E-02 0. -1.
    10030    2    1    2    0    0  0.00000000000E+00  0.00000000000E+00 -0.15464651972E+04  0.32816271621E+04  0.28943949670E+04 0.  0.
        4    1    3    3  502    0 -0.89030750372E+03 -0.62400181356E+03  0.30972873338E+03  0.11304685824E+04  0.12699999809E+01 0.  1.
       -4    1    3    3    0  502  0.89030750372E+03  0.62400181356E+03 -0.18561939306E+04  0.21511585798E+04  0.12699999809E+01 0. -1.
</event>
<event>
 5   0  0.3786210E-07  0.2900850E+04  0.7818609E-02  0.8272624E-01
       -1   -1    0    0    0  501  0.00000000000E+00  0.00000000000E+00  0.13355922991E+04  0.13355922991E+04  0.50400001928E-02 0. -1.
        1   -1    0    0  501    0  0.00000000000E+00  0.00000000000E+00 -0.15751314226E+04  0.15751314226E+04  0.50400001928E-02 0.  1.
    10030    2    1    2    0    0  0.00000000000E+00  0.00000000000E+00 -0.23953912352E+03  0.29107237217E+04  0.29008504947E+04 0.  0.
        5    1    3    3  502    0 -0.18808216132E+03  0.13144364679E+04 -0.70535950940E+03  0.15035532099E+04  0.46999998093E+01 0. -1.
       -5    1    3    3    0  502  0.18808216132E+03 -0.13144364679E+04  0.46582038588E+03  0.14071705118E+04  0.46999998093E+01 0.  1.
</event>
<event>
 5   0  0.9950999E-07  0.2901963E+04  0.7818609E-02  0.8272294E-01
        2   -1    0    0  501    0  0.00000000000E+00  0.00000000000E+00  0.13859691991E+04  0.13859691991E+04  0.25500000920E-02 0. -1.
       -2   -1    0    0    0  501  0.00000000000E+00  0.00000000000E+00 -0.15190428737E+04  0.15190428737E+04  0.25500000920E-02 0.  1.
    10030    2    1    2    0    0  0.00000000000E+00  0.00000000000E+00 -0.13307367461E+03  0.29050120727E+04  0.29019625325E+04 0.  0.
        3    1    3    3  502    0  0.12972042502E+04  0.52433350935E+03 -0.45123500060E+03  0.14701284066E+04  0.10100000352E+00 0.  1.
       -3    1    3    3    0  502 -0.12972042502E+04 -0.52433350935E+03  0.31816132600E+03  0.14348836662E+04  0.10100000352E+00 0. -1.
</event>
<event>
 5   0  0.9994311E-07  0.2896622E+04  0.7818609E-02  0.8273883E-01
       -2   -1    0    0    0  501  0.00000000000E+00  0.00000000000E+00  0.13883211976E+04  0.13883211976E+04  0.25500000920E-02 0. -1.
        2   -1    0    0  501    0  0.00000000000E+00  0.00000000000E+00 -0.15108928775E+04  0.15108928775E+04  0.25500000920E-02 0.  1.
    10030    2    1    2    0    0  0.00000000000E+00  0.00000000000E+00 -0.12257167990E+03  0.28992140751E+04  0.28966219009E+04 0.  0.
        2    1    3    3  502    0 -0.45401426055E+03 -0.88352142746E+03 -0.11162051045E+04  0.14942064438E+04  0.25500000920E-02 0.  1.
       -2    1    3    3    0  502  0.45401426055E+03  0.88352142746E+03  0.99363342455E+03  0.14050076313E+04  0.25500000920E-02 0. -1.
</event>
<event>
 5   0  0.1031339E-06  0.2881354E+04  0.7818609E-02  0.8278447E-01
        2   -1    0    0  501    0  0.00000000000E+00  0.00000000000E+00  0.17316474463E+04  0.17316474463E+04  0.25500000920E-02 0.  1.
       -2   -1    0    0    0  501  0.00000000000E+00  0.00000000000E+00 -0.11985985241E+04  0.11985985241E+04  0.25500000920E-02 0. -1.
    10030    2    1    2    0    0  0.00000000000E+00  0.00000000000E+00  0.53304892214E+03  0.29302459704E+04  0.28813538994E+04 0.  0.
        5    1    3    3  502    0 -0.38549472172E+03 -0.12648434314E+04  0.84814941441E+03  0.15709279441E+04  0.46999998093E+01 0.  1.
       -5    1    3    3    0  502  0.38549472172E+03  0.12648434314E+04 -0.31510049227E+03  0.13593180263E+04  0.46999998093E+01 0. -1.
</event>
<event>
 5   0  0.3638028E-07  0.2898804E+04  0.7818609E-02  0.8273233E-01
       -1   -1    0    0    0  501  0.00000000000E+00  0.00000000000E+00  0.10348559019E+04  0.10348559019E+04  0.50400001928E-02 0. -1.
        1   -1    0    0  501    0  0.00000000000E+00  0.00000000000E+00 -0.20300079960E+04  0.20300079960E+04  0.50400001928E-02 0.  1.
    10030    2    1    2    0    0  0.00000000000E+00  0.00000000000E+00 -0.99515209410E+03  0.30648638979E+04  0.28988037226E+04 0.  0.
        4    1    3    3  502    0  0.13274312591E+04 -0.31644202877E+02 -0.11119755639E+04  0.17319256251E+04  0.12699999809E+01 0.  1.
       -4    1    3    3    0  502 -0.13274312591E+04  0.31644202877E+02  0.11682346981E+03  0.13329382728E+04  0.12699999809E+01 0. -1.
</event>
<event>
 5   0  0.3770467E-07  0.2901901E+04  0.7818609E-02  0.8272312E-01
        1   -1    0    0  501    0  0.00000000000E+00  0.00000000000E+00  0.20935355285E+04  0.20935355285E+04  0.50400001928E-02 0. -1.
       -1   -1    0    0    0  501  0.00000000000E+00  0.00000000000E+00 -0.10055990203E+04  0.10055990203E+04  0.50400001928E-02 0.  1.
    10030    2    1    2    0    0  0.00000000000E+00  0.00000000000E+00  0.10879365082E+04  0.30991345488E+04  0.29019009469E+04 0.  0.
        1    1    3    3  502    0  0.50679419660E+03  0.10258784129E+04  0.14967902241E+04  0.18840509151E+04  0.50400001928E-02 0. -1.
       -1    1    3    3    0  502 -0.50679419660E+03 -0.10258784129E+04 -0.40885371590E+03  0.12150836336E+04  0.50400001928E-02 0.  1.
</event>
<event>
 5   0  0.9994311E-07  0.2969250E+04  0.7818609E-02  0.8252567E-01
        2   -1    0    0  501    0  0.00000000000E+00  0.00000000000E+00  0.28394288254E+04  0.28394288254E+04  0.25500000920E-02 0.  1.
       -2   -1    0    0    0  501  0.00000000000E+00  0.00000000000E+00 -0.77625147613E+03  0.77625147613E+03  0.25500000920E-02 0. -1.
    10030    2    1    2    0    0  0.00000000000E+00  0.00000000000E+00  0.20631773492E+04  0.36156803015E+04  0.29692496137E+04 0.  0.
        2    1    3    3  502    0  0.10157876160E+04  0.63592933508E+03 -0.35474307851E+02  0.11989533046E+04  0.25500000920E-02 0. -1.
       -2    1    3    3    0  502 -0.10157876160E+04 -0.63592933508E+03  0.20986516571E+04  0.24167269969E+04  0.25500000920E-02 0.  1.
</event>
<event>
 5   0  0.3378750E-07  0.2900277E+04  0.7818609E-02  0.8272795E-01
        3   -1    0    0  501    0  0.00000000000E+00  0.00000000000E+00  0.14863983349E+04  0.14863983384E+04  0.10100000352E+00 0.  1.
       -3   -1    0    0    0  501  0.00000000000E+00  0.00000000000E+00 -0.14147631983E+04  0.14147632019E+04  0.10100000352E+00 0. -1.
    10030    2    1    2    0    0  0.00000000000E+00  0.00000000000E+00  0.71635136631E+02  0.29011615403E+04  0.29002770023E+04 0.  0.
        5    1    3    3  502    0  0.96450888170E+03 -0.61416919314E+03 -0.85630554163E+03  0.14285525721E+04  0.46999998093E+01 0. -1.
       -5    1    3    3    0  502 -0.96450888170E+03  0.61416919314E+03  0.92794067826E+03  0.14726089681E+04  0.46999998093E+01 0.  1.
</event>
<event>
 5   0  0.3638028E-07  0.2901732E+04  0.7818609E-02  0.8272362E-01
        1   -1    0    0  501    0  0.00000000000E+00  0.00000000000E+00  0.18423341339E+04  0.18423341339E+04  0.50400001928E-02 0.  1.
       -1   -1    0    0    0  501  0.00000000000E+00  0.00000000000E+00 -0.11425791763E+04  0.11425791763E+04  0.50400001928E-02 0. -1.
    10030    2    1    2    0    0  0.00000000000E+00  0.00000000000E+00  0.69975495764E+03  0.29849133102E+04  0.29017323220E+04 0.  0.
        4    1    3    3  502    0 -0.67936481048E+03 -0.12735120595E+04  0.19854993516E+03  0.14569808513E+04  0.12699999809E+01 0. -1.
       -4    1    3    3    0  502  0.67936481048E+03  0.12735120595E+04  0.50120502248E+03  0.15279324589E+04  0.12699999809E+01 0.  1.
</event>
<event>
 5   0  0.1006893E-06  0.2898551E+04  0.7818609E-02  0.8273309E-01
       -2   -1    0    0    0  501  0.00000000000E+00  0.00000000000E+00  0.99186864161E+03  0.99186864161E+03  0.25500000920E-02 0. -1.
        2   -1    0    0  501    0  0.00000000000E+00  0.00000000000E+00 -0.21176179286E+04  0.21176179286E+04  0.25500000920E-02 0.  1.
    10030    2    1    2    0    0  0.00000000000E+00  0.00000000000E+00 -0.11257492870E+04  0.31094865702E+04  0.28985505469E+04 0.  0.
        4    1    3    3  502    0  0.41545966197E+03 -0.78251823618E+03  0.66752421117E+03  0.11092933364E+04  0.12699999809E+01 0. -1.
       -4    1    3    3    0  502 -0.41545966197E+03  0.78251823618E+03 -0.17932734982E+04  0.20001932339E+04  0.12699999809E+01 0.  1.
</event>
<event>
 5   0  0.3786210E-07  0.2810272E+04  0.7818609E-02  0.8300086E-01
        1   -1    0    0  501    0  0.00000000000E+00  0.00000000000E+00  0.15458385881E+04  0.15458385881E+04  0.50400001928E-02 0.  1.
       -1   -1    0    0    0  501  0.00000000000E+00  0.00000000000E+00 -0.12772403288E+04  0.12772403288E+04  0.50400001928E-02 0. -1.
    10030    2    1    2    0    0  0.00000000000E+00  0.00000000000E+00  0.26859825926E+03  0.28230789169E+04  0.28102721481E+04 0.  0.
        5    1    3    3  502    0 -0.13824701002E+04  0.13736702358E+03  0.34571490031E+03  0.14316543435E+04  0.46999998093E+01 0.  1.
       -5    1    3    3    0  502  0.13824701002E+04 -0.13736702358E+03 -0.77116641047E+02  0.13914245734E+04  0.46999998093E+01 0. -1.
</event>
<event>
 5   0  0.9950999E-07  0.2901198E+04  0.7818609E-02  0.8272521E-01
       -2   -1    0    0    0  501  0.00000000000E+00  0.00000000000E+00  0.17806114197E+04  0.17806114197E+04  0.25500000920E-02 0.  1.
        2   -1    0    0  501    0  0.00000000000E+00  0.00000000000E+00 -0.11817502282E+04  0.11817502282E+04  0.25500000920E-02 0. -1.
    10030    2    1    2    0    0  0.00000000000E+00  0.00000000000E+00  0.59886119156E+03  0.29623616479E+04  0.29011983397E+04 0.  0.
        3    1    3    3  502    0 -0.14380523007E+04 -0.88849978408E+02  0.12750874256E+03  0.14464256731E+04  0.10100000352E+00 0. -1.
       -3    1    3    3    0  502  0.14380523007E+04  0.88849978408E+02  0.47135244900E+03  0.15159359748E+04  0.10100000352E+00 0.  1.
</event>
<event>
 5   0  0.1063979E-06  0.2900507E+04  0.7818609E-02  0.8272727E-01
       -2   -1    0    0    0  501  0.00000000000E+00  0.00000000000E+00  0.12604327324E+04  0.12604327324E+04  0.25500000920E-02 0.  1.
        2   -1    0    0  501    0  0.00000000000E+00  0.00000000000E+00 -0.16686617339E+04  0.16686617339E+04  0.25500000920E-02 0. -1.
    10030    2    1    2    0    0  0.00000000000E+00  0.00000000000E+00 -0.40822900148E+03  0.29290944662E+04  0.29005074512E+04 0.  0.
        1    1    3    3  502    0 -0.15734401490E+03 -0.41038186120E+03  0.11915579892E+04  0.12700318313E+04  0.50400001928E-02 0.  1.
       -1    1    3    3    0  502  0.15734401490E+03  0.41038186120E+03 -0.15997869907E+04  0.16590626349E+04  0.50400001928E-02 0. -1.
</event>
<event>
 5   0  0.3769563E-07  0.2898296E+04  0.7818609E-02  0.8273385E-01
       -1   -1    0    0    0  501  0.00000000000E+00  0.00000000000E+00  0.21697913069E+04  0.21697913069E+04  0.50400001928E-02 0.  1.
        1   -1    0    0  501    0  0.00000000000E+00  0.00000000000E+00 -0.96784897650E+03  0.96784897651E+03  0.50400001928E-02 0. -1.
    10030    2    1    2    0    0  0.00000000000E+00  0.00000000000E+00  0.12019423304E+04  0.31376402834E+04  0.28982962551E+04 0.  0.
        3    1    3    3  502    0 -0.77983113065E+03 -0.81747723907E+03 -0.38151183882E+03  0.11924583523E+04  0.10100000352E+00 0. -1.
       -3    1    3    3    0  502  0.77983113065E+03  0.81747723907E+03  0.15834541692E+04  0.19451819310E+04  0.10100000352E+00 0.  1.
</event>
<event>
 5   0  0.3638028E-07  0.2903392E+04  0.7818609E-02  0.8271869E-01
        1   -1    0    0  501    0  0.00000000000E+00  0.00000000000E+00  0.19035344399E+04  0.19035344399E+04  0.50400001928E-02 0. -1.
       -1   -1    0    0    0  501  0.00000000000E+00  0.00000000000E+00 -0.11071099066E+04  0.11071099066E+04  0.50400001928E-02 0.  1.
    10030    2    1    2    0    0  0.00000000000E+00  0.00000000000E+00  0.79642453334E+03  0.30106443465E+04  0.29033923855E+04 0.  0.
        4    1    3    3  502    0  0.76665692179E+03  0.10066201510E+04  0.11360979811E+04  0.17005196852E+04  0.12699999809E+01 0. -1.
       -4    1    3    3    0  502 -0.76665692179E+03 -0.10066201510E+04 -0.33967344780E+03  0.13101246613E+04  0.12699999809E+01 0.  1.
</event>
<event>
 5   0  0.3638028E-07  0.2900122E+04  0.7818609E-02  0.8272841E-01
        1   -1    0    0  501    0  0.00000000000E+00  0.00000000000E+00  0.10595755895E+04  0.10595755895E+04  0.50400001928E-02 0. -1.
       -1   -1    0    0    0  501  0.00000000000E+00  0.00000000000E+00 -0.19844513643E+04  0.19844513643E+04  0.50400001928E-02 0.  1.
    10030    2    1    2    0    0  0.00000000000E+00  0.00000000000E+00 -0.92487577474E+03  0.30440269538E+04  0.29001215314E+04 0.  0.
        4    1    3    3  502    0  0.37664718446E+03 -0.40080236676E+03  0.94584185444E+03  0.10941316490E+04  0.12699999809E+01 0. -1.
       -4    1    3    3    0  502 -0.37664718446E+03  0.40080236676E+03 -0.18707176292E+04  0.19498953048E+04  0.12699999809E+01 0.  1.
</event>
<event>
 5   0  0.3638028E-07  0.2898365E+04  0.7818609E-02  0.8273364E-01
        1   -1    0    0  501    0  0.00000000000E+00  0.00000000000E+00  0.12112718007E+04  0.12112718007E+04  0.50400001928E-02 0.  1.
       -1   -1    0    0    0  501  0.00000000000E+00  0.00000000000E+00 -0.17338226006E+04  0.17338226006E+04  0.50400001928E-02 0. -1.
    10030    2    1    2    0    0  0.00000000000E+00  0.00000000000E+00 -0.52255079991E+03  0.29450944013E+04  0.28983653486E+04 0.  0.
        4    1    3    3  502    0  0.15741323660E+03  0.15092172441E+03 -0.17170540505E+04  0.17308473414E+04  0.12699999809E+01 0. -1.
       -4    1    3    3    0  502 -0.15741323660E+03 -0.15092172441E+03  0.11945032506E+04  0.12142470599E+04  0.12699999809E+01 0.  1.
</event>
<event>
 5   0  0.3769563E-07  0.2909997E+04  0.7818609E-02  0.8269909E-01
        1   -1    0    0  501    0  0.00000000000E+00  0.00000000000E+00  0.15800379844E+04  0.15800379844E+04  0.50400001928E-02 0.  1.
       -1   -1    0    0    0  501  0.00000000000E+00  0.00000000000E+00 -0.13398538391E+04  0.13398538391E+04  0.50400001928E-02 0. -1.
    10030    2    1    2    0    0  0.00000000000E+00  0.00000000000E+00  0.24018414522E+03  0.29198918235E+04  0.29099965356E+04 0.  0.
        3    1    3    3  502    0 -0.41670905247E+03 -0.49025713393E+03 -0.11893441483E+04  0.13522344490E+04  0.10100000352E+00 0. -1.
       -3    1    3    3    0  502  0.41670905247E+03  0.49025713393E+03  0.14295282935E+04  0.15676573745E+04  0.10100000352E+00 0.  1.
</event>
<event>
 5   0  0.1031339E-06  0.2900211E+04  0.7818609E-02  0.8272815E-01
       -2   -1    0    0    0  501  0.00000000000E+00  0.00000000000E+00  0.12438920419E+04  0.12438920419E+04  0.25500000920E-02 0.  1.
        2   -1    0    0  501    0  0.00000000000E+00  0.00000000000E+00 -0.16905051927E+04  0.16905051927E+04  0.25500000920E-02 0. -1.
    10030    2    1    2    0    0  0.00000000000E+00  0.00000000000E+00 -0.44661315072E+03  0.29343972346E+04  0.29002109965E+04 0.  0.
        5    1    3    3  502    0  0.12155221648E+04 -0.77047966030E+03 -0.40331044207E+03  0.14945950765E+04  0.46999998093E+01 0. -1.
       -5    1    3    3    0  502 -0.12155221648E+04  0.77047966030E+03 -0.43302708658E+02  0.14398021581E+04  0.46999998093E+01 0.  1.
</event>
<event>
 5   0  0.9994311E-07  0.2881035E+04  0.7818609E-02  0.8278543E-01
        2   -1    0    0  501    0  0.00000000000E+00  0.00000000000E+00  0.23556716593E+04  0.23556716593E+04  0.25500000920E-02 0. -1.
       -2   -1    0    0    0  501  0.00000000000E+00  0.00000000000E+00 -0.88089105997E+03  0.88089105997E+03  0.25500000920E-02 0.  1.
    10030    2    1    2    0    0  0.00000000000E+00  0.00000000000E+00  0.14747805993E+04  0.32365627193E+04  0.28810346092E+04 0.  0.
        2    1    3    3  502    0 -0.13270506465E+04 -0.46534190053E+03  0.10881432528E+04  0.17781063639E+04  0.25500000920E-02 0. -1.
       -2    1    3    3    0  502  0.13270506465E+04  0.46534190053E+03  0.38663734658E+03  0.14584563554E+04  0.25500000920E-02 0.  1.
</event>
<event>
 5   0  0.3885904E-07  0.2903291E+04  0.7818609E-02  0.8271899E-01
       -1   -1    0    0    0  501  0.00000000000E+00  0.00000000000E+00  0.24389130877E+04  0.24389130877E+04  0.50400001928E-02 0. -1.
        1   -1    0    0  501    0  0.00000000000E+00  0.00000000000E+00 -0.86402219033E+03  0.86402219035E+03  0.50400001928E-02 0.  1.
    10030    2    1    2    0    0  0.00000000000E+00  0.00000000000E+00  0.15748908973E+04  0.33029352780E+04  0.29032912552E+04 0.  0.
        2    1    3    3  502    0  0.12009857183E+04  0.65689768325E+03  0.13370547626E+04  0.19135299057E+04  0.25500000920E-02 0.  1.
       -2    1    3    3    0  502 -0.12009857183E+04 -0.65689768325E+03  0.23783613478E+03  0.13894053724E+04  0.25500000920E-02 0. -1.
</event>
<event>
 5   0  0.3770467E-07  0.2907317E+04  0.7818609E-02  0.8270704E-01
        1   -1    0    0  501    0  0.00000000000E+00  0.00000000000E+00  0.19364699239E+04  0.19364699240E+04  0.50400001928E-02 0. -1.
       -1   -1    0    0    0  501  0.00000000000E+00  0.00000000000E+00 -0.10912244731E+04  0.10912244731E+04  0.50400001928E-02 0.  1.
    10030    2    1    2    0    0  0.00000000000E+00  0.00000000000E+00  0.84524545083E+03  0.30276943971E+04  0.29073172324E+04 0.  0.
        1    1    3    3  502    0 -0.17267776933E+03  0.68473126009E+03  0.17458418260E+04  0.18832520256E+04  0.50400001928E-02 0. -1.
       -1    1    3    3    0  502  0.17267776933E+03 -0.68473126009E+03 -0.90059637518E+03  0.11444423715E+04  0.50400001928E-02 0.  1.
</event>
<event>
 5   0  0.3769563E-07  0.2918151E+04  0.7818609E-02  0.8267498E-01
       -1   -1    0    0    0  501  0.00000000000E+00  0.00000000000E+00  0.11154961366E+04  0.11154961366E+04  0.50400001928E-02 0.  1.
        1   -1    0    0  501    0  0.00000000000E+00  0.00000000000E+00 -0.19084787730E+04  0.19084787730E+04  0.50400001928E-02 0. -1.
    10030    2    1    2    0    0  0.00000000000E+00  0.00000000000E+00 -0.79298263640E+03  0.30239749097E+04  0.29181505775E+04 0.  0.
        3    1    3    3  502    0  0.38195471572E+03  0.58202488570E+03  0.93229610534E+03  0.11635370259E+04  0.10100000352E+00 0.  1.
       -3    1    3    3    0  502 -0.38195471572E+03 -0.58202488570E+03 -0.17252787417E+04  0.18604378838E+04  0.10100000352E+00 0. -1.
</event>
<event>
 5   0  0.3770467E-07  0.2914013E+04  0.7818609E-02  0.8268720E-01
       -1   -1    0    0    0  501  0.00000000000E+00  0.00000000000E+00  0.17036854902E+04  0.17036854902E+04  0.50400001928E-02 0. -1.
        1   -1    0    0  501    0  0.00000000000E+00  0.00000000000E+00 -0.12460445986E+04  0.12460445986E+04  0.50400001928E-02 0.  1.
    10030    2    1    2    0    0  0.00000000000E+00  0.00000000000E+00  0.45764089153E+03  0.29497300888E+04  0.29140131110E+04 0.  0.
        1    1    3    3  502    0 -0.12457242512E+03 -0.44955130745E+02 -0.12399392538E+04  0.12469918228E+04  0.50400001928E-02 0.  1.
       -1    1    3    3    0  502  0.12457242512E+03  0.44955130745E+02  0.16975801453E+04  0.17027382661E+04  0.50400001928E-02 0. -1.
</event>
<event>
 5   0  0.3638028E-07  0.2895042E+04  0.7818609E-02  0.8274354E-01
       -1   -1    0    0    0  501  0.00000000000E+00  0.00000000000E+00  0.14729305647E+04  0.14729305647E+04  0.50400001928E-02 0. -1.
        1   -1    0    0  501    0  0.00000000000E+00  0.00000000000E+00 -0.14225496278E+04  0.14225496278E+04  0.50400001928E-02 0.  1.
    10030    2    1    2    0    0  0.00000000000E+00  0.00000000000E+00  0.50380936934E+02  0.28954801925E+04  0.28950418488E+04 0.  0.
        4    1    3    3  502    0  0.59630821153E+03  0.65542098000E+03  0.11699838322E+04  0.14676593353E+04  0.12699999809E+01 0. -1.
       -4    1    3    3    0  502 -0.59630821153E+03 -0.65542098000E+03 -0.11196028952E+04  0.14278208571E+04  0.12699999809E+01 0.  1.
</event>
<event>
 5   0  0.3638028E-07  0.2896439E+04  0.7818609E-02  0.8273938E-01
        1   -1    0    0  501    0  0.00000000000E+00  0.00000000000E+00  0.98964589016E+03  0.98964589017E+03  0.50400001928E-02 0.  1.
       -1   -1    0    0    0  501  0.00000000000E+00  0.00000000000E+00 -0.21192833342E+04  0.21192833342E+04  0.50400001928E-02 0. -1.
    10030    2    1    2    0    0  0.00000000000E+00  0.00000000000E+00 -0.11296374440E+04  0.31089292244E+04  0.28964392221E+04 0.  0.
        4    1    3    3  502    0  0.56305104948E+03  0.12713584443E+04 -0.13019351775E+03  0.13965424244E+04  0.12699999809E+01 0.  1.
       -4    1    3    3    0  502 -0.56305104948E+03 -0.12713584443E+04 -0.99944392629E+03  0.17123868000E+04  0.12699999809E+01 0. -1.
</event>
<event>
 5   0  0.3769563E-07  0.2927053E+04  0.7818609E-02  0.8264874E-01
        1   -1    0    0  501    0  0.00000000000E+00  0.00000000000E+00  0.13308410864E+04  0.13308410864E+04  0.50400001928E-02 0. -1.
       -1   -1    0    0    0  501  0.00000000000E+00  0.00000000000E+00 -0.16094411171E+04  0.16094411171E+04  0.50400001928E-02 0.  1.
    10030    2    1    2    0    0  0.00000000000E+00  0.00000000000E+00 -0.27860003076E+03  0.29402822035E+04  0.29270533748E+04 0.  0.
        3    1    3    3  502    0 -0.75837553158E+03  0.70556164850E+03  0.89927777984E+03  0.13717329267E+04  0.10100000352E+00 0. -1.
       -3    1    3    3    0  502  0.75837553158E+03 -0.70556164850E+03 -0.11778778106E+04  0.15685492768E+04  0.10100000352E+00 0.  1.
</event>
<event>
 5   0  0.9994311E-07  0.2903297E+04  0.7818609E-02  0.8271897E-01
        2   -1    0    0  501    0  0.00000000000E+00  0.00000000000E+00  0.16526963936E+04  0.16526963936E+04  0.25500000920E-02 0.  1.
       -2   -1    0    0    0  501  0.00000000000E+00  0.00000000000E+00 -0.12750580145E+04  0.12750580146E+04  0.25500000920E-02 0. -1.
    10030    2    1    2    0    0  0.00000000000E+00  0.00000000000E+00  0.37763837905E+03  0.29277544081E+04  0.29032972857E+04 0.  0.
        2    1    3    3  502    0 -0.82029039412E+03  0.40953257647E+03  0.13237735446E+04  0.16102700578E+04  0.25500000920E-02 0.  1.
       -2    1    3    3    0  502  0.82029039412E+03 -0.40953257647E+03 -0.94613516551E+03  0.13174843503E+04  0.25500000920E-02 0. -1.
</event>
<event>
 5   0  0.3786210E-07  0.2908999E+04  0.7818609E-02  0.8270205E-01
       -1   -1    0    0    0  501  0.00000000000E+00  0.00000000000E+00  0.98058728737E+03  0.98058728738E+03  0.50400001928E-02 0.  1.
        1   -1    0    0  501    0  0.00000000000E+00  0.00000000000E+00 -0.21574509182E+04  0.21574509182E+04  0.50400001928E-02 0. -1.
    10030    2    1    2    0    0  0.00000000000E+00  0.00000000000E+00 -0.11768636309E+04  0.31380382056E+04  0.29089991018E+04 0.  0.
        5    1    3    3  502    0 -0.15709663666E+03 -0.14202209938E+04 -0.29530200925E+03  0.14590861493E+04  0.46999998093E+01 0.  1.
       -5    1    3    3    0  502  0.15709663666E+03  0.14202209938E+04 -0.88156162161E+03  0.16789520563E+04  0.46999998093E+01 0. -1.
</event>
<event>
 5   0  0.1063979E-06  0.2897112E+04  0.7818609E-02  0.8273737E-01
       -2   -1    0    0    0  501  0.00000000000E+00  0.00000000000E+00  0.15121729409E+04  0.15121729409E+04  0.25500000920E-02 0. -1.
        2   -1    0    0  501    0  0.00000000000E+00  0.00000000000E+00 -0.13876151112E+04  0.13876151112E+04  0.25500000920E-02 0.  1.
    10030    2    1    2    0    0  0.00000000000E+00  0.00000000000E+00  0.12455782974E+03  0.28997880521E+04  0.28971116813E+04 0.  0.
        1    1    3    3  502    0 -0.13384918252E+04 -0.43211782210E+03  0.40904931829E+03  0.14647892419E+04  0.50400001928E-02 0. -1.
       -1    1    3    3    0  502  0.13384918252E+04  0.43211782210E+03 -0.28449148855E+03  0.14349988102E+04  0.50400001928E-02 0.  1.
</event>
<event>
 5   0  0.3769563E-07  0.2898796E+04  0.7818609E-02  0.8273236E-01
        1   -1    0    0  501    0  0.00000000000E+00  0.00000000000E+00  0.28249636964E+04  0.28249636964E+04  0.50400001928E-02 0. -1.
       -1   -1    0    0    0  501  0.00000000000E+00  0.00000000000E+00 -0.74363955559E+03  0.74363955561E+03  0.50400001928E-02 0.  1.
    10030    2    1    2    0    0  0.00000000000E+00  0.00000000000E+00  0.20813241408E+04  0.35686032520E+04  0.28987961279E+04 0.  0.
        3    1    3    3  502    0 -0.10863433881E+04  0.54240267371E+03  0.20150023807E+04  0.23525682183E+04  0.10100000352E+00 0. -1.
       -3    1    3    3    0  502  0.10863433881E+04 -0.54240267371E+03  0.66321760121E+02  0.12160350337E+04  0.10100000352E+00 0.  1.
</event>
<event>
 5   0  0.1063979E-06  0.2903599E+04  0.7818609E-02  0.8271807E-01
       -2   -1    0    0    0  501  0.00000000000E+00  0.00000000000E+00  0.12277196147E+04  0.12277196147E+04  0.25500000920E-02 0.  1.
        2   -1    0    0  501    0  0.00000000000E+00  0.00000000000E+00 -0.17167777657E+04  0.17167777657E+04  0.25500000920E-02 0. -1.
    10030    2    1    2    0    0  0.00000000000E+00  0.00000000000E+00 -0.48905815096E+03  0.29444973804E+04  0.29035989648E+04 0.  0.
        1    1    3    3  502    0  0.47269280211E+03 -0.53432363226E+03 -0.15267684166E+04  0.16852186882E+04  0.50400001928E-02 0. -1.
       -1    1    3    3    0  502 -0.47269280211E+03  0.53432363226E+03  0.10377102656E+04  0.12592786922E+04  0.50400001928E-02 0.  1.
</event>
<event>
 5   0  0.3770467E-07  0.2899602E+04  0.7818609E-02  0.8272996E-01
        1   -1    0    0  501    0  0.00000000000E+00  0.00000000000E+00  0.17026409385E+04  0.17026409385E+04  0.50400001928E-02 0. -1.
       -1   -1    0    0    0  501  0.00000000000E+00  0.00000000000E+00 -0.12345075406E+04  0.12345075406E+04  0.50400001928E-02 0.  1.
    10030    2    1    2    0    0  0.00000000000E+00  0.00000000000E+00  0.46813339787E+03  0.29371484791E+04  0.28996020951E+04 0.  0.
        1    1    3    3  502    0 -0.35262916265E+03 -0.10204909350E+04  0.12141563086E+04  0.16247844831E+04  0.50400001928E-02 0. -1.
       -1    1    3    3    0  502  0.35262916265E+03  0.10204909350E+04 -0.74602291070E+03  0.13123639960E+04  0.50400001928E-02 0.  1.
</event>
<event>
 5   0  0.1031339E-06  0.2902565E+04  0.7818609E-02  0.8272115E-01
        2   -1    0    0  501    0  0.00000000000E+00  0.00000000000E+00  0.17544684839E+04  0.17544684839E+04  0.25500000920E-02 0. -1.
       -2   -1    0    0    0  501  0.00000000000E+00  0.00000000000E+00 -0.12004897310E+04  0.12004897310E+04  0.25500000920E-02 0.  1.
    10030    2    1    2    0    0  0.00000000000E+00  0.00000000000E+00  0.55397875298E+03  0.29549582149E+04  0.29025653469E+04 0.  0.
        5    1    3    3  502    0 -0.13643542295E+03  0.14095351361E+04 -0.46224247811E+02  0.14168848562E+04  0.46999998093E+01 0.  1.
       -5    1    3    3    0  502  0.13643542295E+03 -0.14095351361E+04  0.60020300079E+03  0.15380733587E+04  0.46999998093E+01 0. -1.
</event>
<event>
 5   0  0.3885904E-07  0.2927086E+04  0.7818609E-02  0.8264864E-01
        1   -1    0    0  501    0  0.00000000000E+00  0.00000000000E+00  0.19603703473E+04  0.19603703473E+04  0.50400001928E-02 0. -1.
       -1   -1    0    0    0  501  0.00000000000E+00  0.00000000000E+00 -0.10926289449E+04  0.10926289449E+04  0.50400001928E-02 0.  1.
    10030    2    1    2    0    0  0.00000000000E+00  0.00000000000E+00  0.86774140242E+03  0.30529992922E+04  0.29270855021E+04 0.  0.
        2    1    3    3  502    0  0.12567597422E+04 -0.64723501187E+03  0.38624899412E+02  0.14141605613E+04  0.25500000920E-02 0. -1.
       -2    1    3    3    0  502 -0.12567597422E+04  0.64723501187E+03  0.82911650301E+03  0.16388387309E+04  0.25500000920E-02 0.  1.
</event>
<event>
 5   0  0.9950999E-07  0.2975938E+04  0.7818609E-02  0.8250635E-01
        2   -1    0    0  501    0  0.00000000000E+00  0.00000000000E+00  0.18617238489E+04  0.18617238489E+04  0.25500000920E-02 0.  1.
       -2   -1    0    0    0  501  0.00000000000E+00  0.00000000000E+00 -0.11892484905E+04  0.11892484905E+04  0.25500000920E-02 0. -1.
    10030    2    1    2    0    0  0.00000000000E+00  0.00000000000E+00  0.67247535843E+03  0.30509723394E+04  0.29759383575E+04 0.  0.
        3    1    3    3  502    0 -0.23549671048E+03 -0.60415203238E+03 -0.10367808455E+04  0.12228544111E+04  0.10100000352E+00 0. -1.
       -3    1    3    3    0  502  0.23549671048E+03  0.60415203238E+03  0.17092562039E+04  0.18281179283E+04  0.10100000352E+00 0.  1.
</event>
<event>
 5   0  0.9994311E-07  0.2901677E+04  0.7818609E-02  0.8272379E-01
        2   -1    0    0  501    0  0.00000000000E+00  0.00000000000E+00  0.19531040680E+04  0.19531040680E+04  0.25500000920E-02 0.  1.
       -2   -1    0    0    0  501  0.00000000000E+00  0.00000000000E+00 -0.10777366572E+04  0.10777366572E+04  0.25500000920E-02 0. -1.
    10030    2    1    2    0    0  0.00000000000E+00  0.00000000000E+00  0.87536741081E+03  0.30308407253E+04  0.29016766529E+04 0.  0.
        2    1    3    3  502    0  0.20261009799E+03  0.14231851768E+04  0.64243221773E+03  0.15745558275E+04  0.25500000920E-02 0. -1.
       -2    1    3    3    0  502 -0.20261009799E+03 -0.14231851768E+04  0.23293519308E+03  0.14562848978E+04  0.25500000920E-02 0.  1.
</event>
<event>
 5   0  0.3885904E-07  0.2907500E+04  0.7818609E-02  0.8270649E-01
        1   -1    0    0  501    0  0.00000000000E+00  0.00000000000E+00  0.15959744355E+04  0.15959744355E+04  0.50400001928E-02 0. -1.
       -1   -1    0    0    0  501  0.00000000000E+00  0.00000000000E+00 -0.13242002077E+04  0.13242002077E+04  0.50400001928E-02 0.  1.
    10030    2    1    2    0    0  0.00000000000E+00  0.00000000000E+00  0.27177422780E+03  0.29201746433E+04  0.29075004241E+04 0.  0.
        2    1    3    3  502    0  0.10643558527E+04  0.20582450403E+03 -0.83692821356E+03  0.13695495399E+04  0.25500000920E-02 0.  1.
       -2    1    3    3    0  502 -0.10643558527E+04 -0.20582450403E+03  0.11087024414E+04  0.15506251034E+04  0.25500000920E-02 0. -1.
</event>
<event>
 5   0  0.1031339E-06  0.2930240E+04  0.7818609E-02  0.8263937E-01
       -2   -1    0    0    0  501  0.00000000000E+00  0.00000000000E+00  0.13938237305E+04  0.13938237305E+04  0.25500000920E-02 0. -1.
        2   -1    0    0  501    0  0.00000000000E+00  0.00000000000E+00 -0.15400627838E+04  0.15400627838E+04  0.25500000920E-02 0.  1.
    10030    2    1    2    0    0  0.00000000000E+00  0.00000000000E+00 -0.14623905334E+03  0.29338865143E+04  0.29302396178E+04 0.  0.
        5    1    3    3  502    0 -0.11286539907E+04  0.35900815191E+03  0.79039647046E+03  0.14239014553E+04  0.46999998093E+01 0. -1.
       -5    1    3    3    0  502  0.11286539907E+04 -0.35900815191E+03 -0.93663552380E+03  0.15099850590E+04  0.46999998093E+01 0.  1.
</event>
<event>
 5   0  0.1031339E-06  0.2896718E+04  0.7818609E-02  0.8273855E-01
       -2   -1    0    0    0  501  0.00000000000E+00  0.00000000000E+00  0.14633898388E+04  0.14633898388E+04  0.25500000920E-02 0.  1.
        2   -1    0    0  501    0  0.00000000000E+00  0.00000000000E+00 -0.14334827122E+04  0.14334827122E+04  0.25500000920E-02 0. -1.
    10030    2    1    2    0    0  0.00000000000E+00  0.00000000000E+00  0.29907126520E+02  0.28968725510E+04  0.28967181672E+04 0.  0.
        5    1    3    3  502    0  0.34026655888E+02 -0.12980308001E+04  0.65661083690E+03  0.14550607041E+04  0.46999998093E+01 0.  1.
       -5    1    3    3    0  502 -0.34026655888E+02  0.12980308001E+04 -0.62670371038E+03  0.14418118469E+04  0.46999998093E+01 0. -1.
</event>
<event>
 5   0  0.9950999E-07  0.2900917E+04  0.7818609E-02  0.8272605E-01
        2   -1    0    0  501    0  0.00000000000E+00  0.00000000000E+00  0.10799223382E+04  0.10799223382E+04  0.25500000920E-02 0. -1.
       -2   -1    0    0    0  501  0.00000000000E+00  0.00000000000E+00 -0.19481300518E+04  0.19481300518E+04  0.25500000920E-02 0.  1.
    10030    2    1    2    0    0  0.00000000000E+00  0.00000000000E+00 -0.86820771366E+03  0.30280523900E+04  0.29009165176E+04 0.  0.
        3    1    3    3  502    0  0.68985750731E+03 -0.93965921458E+03 -0.13350451164E+04  0.17723454215E+04  0.10100000352E+00 0.  1.
       -3    1    3    3    0  502 -0.68985750731E+03  0.93965921458E+03  0.46683740276E+03  0.12557069685E+04  0.10100000352E+00 0. -1.
</event>
<event>
 5   0  0.1063979E-06  0.2897112E+04  0.7818609E-02  0.8273737E-01
       -2   -1    0    0    0  501  0.00000000000E+00  0.00000000000E+00  0.10472308474E+04  0.10472308474E+04  0.25500000920E-02 0.  1.
        2   -1    0    0  501    0  0.00000000000E+00  0.00000000000E+00 -0.20036796073E+04  0.20036796073E+04  0.25500000920E-02 0. -1.
    10030    2    1    2    0    0  0.00000000000E+00  0.00000000000E+00 -0.95644875991E+03  0.30509104547E+04  0.28971124197E+04 0.  0.
        1    1    3    3  502    0 -0.87339836246E+03  0.91440926264E+03 -0.12223820146E+04  0.17587457999E+04  0.50400001928E-02 0. -1.
       -1    1    3    3    0  502  0.87339836246E+03 -0.91440926264E+03  0.26593325469E+03  0.12921646548E+04  0.50400001928E-02 0.  1.
</event>
<event>
 5   0  0.3786210E-07  0.2903585E+04  0.7818609E-02  0.8271812E-01
        1   -1    0    0  501    0  0.00000000000E+00  0.00000000000E+00  0.18104344120E+04  0.18104344120E+04  0.50400001928E-02 0.  1.
       -1   -1    0    0    0  501  0.00000000000E+00  0.00000000000E+00 -0.11641966086E+04  0.11641966086E+04  0.50400001928E-02 0. -1.
    10030    2    1    2    0    0  0.00000000000E+00  0.00000000000E+00  0.64623780339E+03  0.29746310206E+04  0.29035850961E+04 0.  0.
        5    1    3    3  502    0 -0.75336408649E+03 -0.88089237756E+03  0.12186652090E+04  0.16818727090E+04  0.46999998093E+01 0.  1.
       -5    1    3    3    0  502  0.75336408649E+03  0.88089237756E+03 -0.57242740560E+03  0.12927583117E+04  0.46999998093E+01 0. -1.
</event>
<event>
 5   0  0.3770467E-07  0.2896776E+04  0.7818609E-02  0.8273837E-01
       -1   -1    0    0    0  501  0.00000000000E+00  0.00000000000E+00  0.13392497729E+04  0.13392497729E+04  0.50400001928E-02 0.  1.
        1   -1    0    0  501    0  0.00000000000E+00  0.00000000000E+00 -0.15664201634E+04  0.15664201634E+04  0.50400001928E-02 0. -1.
    10030    2    1    2    0    0  0.00000000000E+00  0.00000000000E+00 -0.22717039050E+03  0.29056699364E+04  0.28967760343E+04 0.  0.
        1    1    3    3  502    0  0.90247745932E+03 -0.45757521478E+03 -0.11531005654E+04  0.15341061097E+04  0.50400001928E-02 0. -1.
       -1    1    3    3    0  502 -0.90247745932E+03  0.45757521478E+03  0.92593017493E+03  0.13715638267E+04  0.50400001928E-02 0.  1.
</event>
<event>
 5   0  0.9994311E-07  0.2898467E+04  0.7818609E-02  0.8273334E-01
       -2   -1    0    0    0  501  0.00000000000E+00  0.00000000000E+00  0.15042373679E+04  0.15042373679E+04  0.25500000920E-02 0.  1.
        2   -1    0    0  501    0  0.00000000000E+00  0.00000000000E+00 -0.13962410508E+04  0.13962410508E+04  0.25500000920E-02 0. -1.
    10030    2    1    2    0    0  0.00000000000E+00  0.00000000000E+00  0.10799631715E+03  0.29004784187E+04  0.28984671557E+04 0.  0.
        2    1    3    3  502    0 -0.11332594693E+04  0.85730227219E+03  0.33885996924E+03  0.14608457445E+04  0.25500000920E-02 0.  1.
       -2    1    3    3    0  502  0.11332594693E+04 -0.85730227219E+03 -0.23086365209E+03  0.14396326741E+04  0.25500000920E-02 0. -1.
</event>
<event>
 5   0  0.3885904E-07  0.2903570E+04  0.7818609E-02  0.8271816E-01
        1   -1    0    0  501    0  0.00000000000E+00  0.00000000000E+00  0.13066967058E+04  0.13066967059E+04  0.50400001928E-02 0. -1.
       -1   -1    0    0    0  501  0.00000000000E+00  0.00000000000E+00 -0.16129835627E+04  0.16129835627E+04  0.50400001928E-02 0.  1.
    10030    2    1    2    0    0  0.00000000000E+00  0.00000000000E+00 -0.30628685682E+03  0.29196802685E+04  0.29035704282E+04 0.  0.
        2    1    3    3  502    0  0.18484645918E+03 -0.83422729643E+03  0.10270708324E+04  0.13360306472E+04  0.25500000920E-02 0. -1.
       -2    1    3    3    0  502 -0.18484645918E+03  0.83422729643E+03 -0.13333576892E+04  0.15836496213E+04  0.25500000920E-02 0.  1.
</event>
<event>
 5   0  0.1063979E-06  0.2900960E+04  0.7818609E-02  0.8272592E-01
        2   -1    0    0  501    0  0.00000000000E+00  0.00000000000E+00  0.24241145153E+04  0.24241145153E+04  0.25500000920E-02 0. -1.
       -2   -1    0    0    0  501  0.00000000000E+00  0.00000000000E+00 -0.86790160633E+03  0.86790160633E+03  0.25500000920E-02 0.  1.
    10030    2    1    2    0    0  0.00000000000E+00  0.00000000000E+00  0.15562129089E+04  0.32920161216E+04  0.29009604490E+04 0.  0.
        1    1    3    3  502    0 -0.19090170745E+03  0.50709487189E+03  0.23049548828E+04  0.23677849739E+04  0.50400001928E-02 0. -1.
       -1    1    3    3    0  502  0.19090170745E+03 -0.50709487189E+03 -0.74874197382E+03  0.92423114771E+03  0.50400001928E-02 0.  1.
</event>
<event>
 5   0  0.1031339E-06  0.2902691E+04  0.7818609E-02  0.8272077E-01
       -2   -1    0    0    0  501  0.00000000000E+00  0.00000000000E+00  0.18136676148E+04  0.18136676148E+04  0.25500000920E-02 0.  1.
        2   -1    0    0  501    0  0.00000000000E+00  0.00000000000E+00 -0.11614054962E+04  0.11614054962E+04  0.25500000920E-02 0. -1.
    10030    2    1    2    0    0  0.00000000000E+00  0.00000000000E+00  0.65226211857E+03  0.29750731110E+04  0.29026908455E+04 0.  0.
        5    1    3    3  502    0 -0.98881122262E+03  0.10357409195E+04  0.56840344555E+03  0.15406529308E+04  0.46999998093E+01 0.  1.
       -5    1    3    3    0  502  0.98881122262E+03 -0.10357409195E+04  0.83858673026E+02  0.14344201802E+04  0.46999998093E+01 0. -1.
</event>
<event>
 5   0  0.3769563E-07  0.2891899E+04  0.7818609E-02  0.8275292E-01
        1   -1    0    0  501    0  0.00000000000E+00  0.00000000000E+00  0.13720875094E+04  0.13720875094E+04  0.50400001928E-02 0.  1.
       -1   -1    0    0    0  501  0.00000000000E+00  0.00000000000E+00 -0.15237874354E+04  0.15237874354E+04  0.50400001928E-02 0. -1.
    10030    2    1    2    0    0  0.00000000000E+00  0.00000000000E+00 -0.15169992604E+03  0.28958749448E+04  0.28918988275E+04 0.  0.
        3    1    3    3  502    0  0.41041699696E+03 -0.10903283260E+04  0.78178057942E+03  0.14030106395E+04  0.10100000352E+00 0.  1.
       -3    1    3    3    0  502 -0.41041699696E+03  0.10903283260E+04 -0.93348050547E+03  0.14928643053E+04  0.10100000352E+00 0. -1.
</event>
<event>
 5   0  0.3786210E-07  0.2897786E+04  0.7818609E-02  0.8273536E-01
       -1   -1    0    0    0  501  0.00000000000E+00  0.00000000000E+00  0.99208654167E+03  0.99208654169E+03  0.50400001928E-02 0.  1.
        1   -1    0    0  501    0  0.00000000000E+00  0.00000000000E+00 -0.21160361855E+04  0.21160361855E+04  0.50400001928E-02 0. -1.
    10030    2    1    2    0    0  0.00000000000E+00  0.00000000000E+00 -0.11239496438E+04  0.31081227271E+04  0.28977860662E+04 0.  0.
        5    1    3    3  502    0  0.44224391423E+03 -0.11607598051E+04 -0.13619867993E+04  0.18433591989E+04  0.46999998093E+01 0. -1.
       -5    1    3    3    0  502 -0.44224391423E+03  0.11607598051E+04  0.23803715552E+03  0.12647635282E+04  0.46999998093E+01 0.  1.
</event>
<event>
 5   0  0.1063979E-06  0.2897734E+04  0.7818609E-02  0.8273552E-01
       -2   -1    0    0    0  501  0.00000000000E+00  0.00000000000E+00  0.92963026085E+03  0.92963026085E+03  0.25500000920E-02 0.  1.
        2   -1    0    0  501    0  0.00000000000E+00  0.00000000000E+00 -0.22581183934E+04  0.22581183934E+04  0.25500000920E-02 0. -1.
    10030    2    1    2    0    0  0.00000000000E+00  0.00000000000E+00 -0.13284881326E+04  0.31877486543E+04  0.28977337290E+04 0.  0.
        1    1    3    3  502    0  0.14134347067E+04  0.12405403102E+03 -0.34158356263E+03  0.14594061816E+04  0.50400001928E-02 0.  1.
       -1    1    3    3    0  502 -0.14134347067E+04 -0.12405403102E+03 -0.98690456995E+03  0.17283424727E+04  0.50400001928E-02 0. -1.
</event>
<event>
 5   0  0.1006893E-06  0.2897512E+04  0.7818609E-02  0.8273618E-01
       -2   -1    0    0    0  501  0.00000000000E+00  0.00000000000E+00  0.15358377858E+04  0.15358377858E+04  0.25500000920E-02 0.  1.
        2   -1    0    0  501    0  0.00000000000E+00  0.00000000000E+00 -0.13666117067E+04  0.13666117067E+04  0.25500000920E-02 0. -1.
    10030    2    1    2    0    0  0.00000000000E+00  0.00000000000E+00  0.16922607904E+03  0.29024494925E+04  0.28975119656E+04 0.  0.
        4    1    3    3  502    0 -0.16387785855E+03 -0.74046219367E+03  0.13211200629E+04  0.15233187606E+04  0.12699999809E+01 0.  1.
       -4    1    3    3    0  502  0.16387785855E+03  0.74046219367E+03 -0.11518939839E+04  0.13791307319E+04  0.12699999809E+01 0. -1.
</event>
<event>
 5   0  0.3885904E-07  0.2904476E+04  0.7818609E-02  0.8271547E-01
       -1   -1    0    0    0  501  0.00000000000E+00  0.00000000000E+00  0.97612899973E+03  0.97612899975E+03  0.50400001928E-02 0.  1.
        1   -1    0    0  501    0  0.00000000000E+00  0.00000000000E+00 -0.21605700437E+04  0.21605700437E+04  0.50400001928E-02 0. -1.
    10030    2    1    2    0    0  0.00000000000E+00  0.00000000000E+00 -0.11844410439E+04  0.31366990434E+04  0.29044759084E+04 0.  0.
        2    1    3    3  502    0  0.28764307799E+03 -0.12243661468E+04  0.19190612707E+03  0.12722574281E+04  0.25500000920E-02 0.  1.
       -2    1    3    3    0  502 -0.28764307799E+03  0.12243661468E+04 -0.13763471710E+04  0.18644416153E+04  0.25500000920E-02 0. -1.
</event>
<event>
 5   0  0.3638028E-07  0.2900065E+04  0.7818609E-02  0.8272858E-01
       -1   -1    0    0    0  501  0.00000000000E+00  0.00000000000E+00  0.12101794250E+04  0.12101794251E+04  0.50400001928E-02 0. -1.
        1   -1    0    0  501    0  0.00000000000E+00  0.00000000000E+00 -0.17374241387E+04  0.17374241387E+04  0.50400001928E-02 0.  1.
    10030    2    1    2    0    0  0.00000000000E+00  0.00000000000E+00 -0.52724471361E+03  0.29476035637E+04  0.29000654787E+04 0.  0.
        4    1    3    3  502    0  0.58096946100E+03 -0.26962691008E+03 -0.15858578744E+04  0.17103131280E+04  0.12699999809E+01 0.  1.
       -4    1    3    3    0  502 -0.58096946100E+03  0.26962691008E+03  0.10586131608E+04  0.12372904357E+04  0.12699999809E+01 0. -1.
</event>
<event>
 5   0  0.9950999E-07  0.2898825E+04  0.7818609E-02  0.8273227E-01
       -2   -1    0    0    0  501  0.00000000000E+00  0.00000000000E+00  0.12576125822E+04  0.12576125822E+04  0.25500000920E-02 0. -1.
        2   -1    0    0  501    0  0.00000000000E+00  0.00000000000E+00 -0.16704639077E+04  0.16704639077E+04  0.25500000920E-02 0.  1.
    10030    2    1    2    0    0  0.00000000000E+00  0.00000000000E+00 -0.41285132550E+03  0.29280764900E+04  0.28988248850E+04 0.  0.
        3    1    3    3  502    0  0.68660680053E+03 -0.27491869420E+03 -0.14655140280E+04  0.16415664968E+04  0.10100000352E+00 0.  1.
       -3    1    3    3    0  502 -0.68660680053E+03  0.27491869420E+03  0.10526627025E+04  0.12865099931E+04  0.10100000352E+00 0. -1.
</event>
<event>
 5   0  0.3770467E-07  0.2919917E+04  0.7818609E-02  0.8266976E-01
       -1   -1    0    0    0  501  0.00000000000E+00  0.00000000000E+00  0.10776368026E+04  0.10776368026E+04  0.50400001928E-02 0. -1.
        1   -1    0    0  501    0  0.00000000000E+00  0.00000000000E+00 -0.19779196130E+04  0.19779196130E+04  0.50400001928E-02 0.  1.
    10030    2    1    2    0    0  0.00000000000E+00  0.00000000000E+00 -0.90028281039E+03  0.30555564156E+04  0.29199170999E+04 0.  0.
        1    1    3    3  502    0  0.68820658062E+03 -0.11315042517E+04  0.19285172275E+03  0.13383280450E+04  0.50400001928E-02 0. -1.
       -1    1    3    3    0  502 -0.68820658062E+03  0.11315042517E+04 -0.10931345331E+04  0.17172283706E+04  0.50400001928E-02 0.  1.
</event>
<event>
 5   0  0.9950999E-07  0.2899062E+04  0.7818609E-02  0.8273157E-01
        2   -1    0    0  501    0  0.00000000000E+00  0.00000000000E+00  0.20723962320E+04  0.20723962320E+04  0.25500000920E-02 0. -1.
       -2   -1    0    0    0  501  0.00000000000E+00  0.00000000000E+00 -0.10138697009E+04  0.10138697009E+04  0.25500000920E-02 0.  1.
    10030    2    1    2    0    0  0.00000000000E+00  0.00000000000E+00  0.10585265311E+04  0.30862659328E+04  0.28990617432E+04 0.  0.
        3    1    3    3  502    0  0.56063414823E+03 -0.83638658005E+03  0.16393269463E+04  0.19238622629E+04  0.10100000352E+00 0. -1.
       -3    1    3    3    0  502 -0.56063414823E+03  0.83638658005E+03 -0.58080041518E+03  0.11624036700E+04  0.10100000352E+00 0.  1.
</event>
<event>
 5   0  0.3885904E-07  0.2910941E+04  0.7818609E-02  0.8269630E-01
       -1   -1    0    0    0  501  0.00000000000E+00  0.00000000000E+00  0.97965161740E+03  0.97965161741E+03  0.50400001928E-02 0. -1.
        1   -1    0    0  501    0  0.00000000000E+00  0.00000000000E+00 -0.21623955906E+04  0.21623955906E+04  0.50400001928E-02 0.  1.
    10030    2    1    2    0    0  0.00000000000E+00  0.00000000000E+00 -0.11827439732E+04  0.31420472080E+04  0.29109409735E+04 0.  0.
        2    1    3    3  502    0  0.10468673631E+04 -0.10086886135E+04 -0.66777544745E+03  0.15997837489E+04  0.25500000920E-02 0.  1.
       -2    1    3    3    0  502 -0.10468673631E+04  0.10086886135E+04 -0.51496852574E+03  0.15422634591E+04  0.25500000920E-02 0. -1.
</event>
<event>
 5   0  0.1063979E-06  0.2898168E+04  0.7818609E-02  0.8273423E-01
        2   -1    0    0  501    0  0.00000000000E+00  0.00000000000E+00  0.20028214751E+04  0.20028214751E+04  0.25500000920E-02 0.  1.
       -2   -1    0    0    0  501  0.00000000000E+00  0.00000000000E+00 -0.10484433009E+04  0.10484433009E+04  0.25500000920E-02 0. -1.
    10030    2    1    2    0    0  0.00000000000E+00  0.00000000000E+00  0.95437817415E+03  0.30512647760E+04  0.28981682204E+04 0.  0.
        1    1    3    3  502    0  0.12832385876E+02  0.11143945735E+04 -0.49791403608E+03  0.12206384898E+04  0.50400001928E-02 0. -1.
       -1    1    3    3    0  502 -0.12832385876E+02 -0.11143945735E+04  0.14522922102E+04  0.18306262861E+04  0.50400001928E-02 0.  1.
</event>
<event>
 5   0  0.9994311E-07  0.2897231E+04  0.7818609E-02  0.8273702E-01
        2   -1    0    0  501    0  0.00000000000E+00  0.00000000000E+00  0.25586635061E+04  0.25586635061E+04  0.25500000920E-02 0. -1.
       -2   -1    0    0    0  501  0.00000000000E+00  0.00000000000E+00 -0.82014935311E+03  0.82014935312E+03  0.25500000920E-02 0.  1.
    10030    2    1    2    0    0  0.00000000000E+00  0.00000000000E+00  0.17385141530E+04  0.33788128592E+04  0.28972305530E+04 0.  0.
        2    1    3    3  502    0  0.10314904284E+04 -0.82573678251E+03  0.17668198402E+03  0.13330529852E+04  0.25500000920E-02 0.  1.
       -2    1    3    3    0  502 -0.10314904284E+04  0.82573678251E+03  0.15618321690E+04  0.20457598740E+04  0.25500000920E-02 0. -1.
</event>
<event>
 5   0  0.3378750E-07  0.2898640E+04  0.7818609E-02  0.8273282E-01
       -3   -1    0    0    0  501  0.00000000000E+00  0.00000000000E+00  0.28337360037E+04  0.28337360055E+04  0.10100000352E+00 0. -1.
        3   -1    0    0  501    0  0.00000000000E+00  0.00000000000E+00 -0.74125760820E+03  0.74125761508E+03  0.10100000352E+00 0.  1.
    10030    2    1    2    0    0  0.00000000000E+00  0.00000000000E+00  0.20924783955E+04  0.35749936206E+04  0.28986399486E+04 0.  0.
        1    1    3    3  502    0  0.42267054159E+03  0.13180953083E+04  0.15760031833E+04  0.20975728026E+04  0.50400001928E-02 0.  1.
       -1    1    3    3    0  502 -0.42267054159E+03 -0.13180953083E+04  0.51647521222E+03  0.14774208180E+04  0.50400001928E-02 0. -1.
</event>
<event>
 5   0  0.3638028E-07  0.2893070E+04  0.7818609E-02  0.8274942E-01
        1   -1    0    0  501    0  0.00000000000E+00  0.00000000000E+00  0.10080167284E+04  0.10080167284E+04  0.50400001928E-02 0.  1.
       -1   -1    0    0    0  501  0.00000000000E+00  0.00000000000E+00 -0.20758220330E+04  0.20758220330E+04  0.50400001928E-02 0. -1.
    10030    2    1    2    0    0  0.00000000000E+00  0.00000000000E+00 -0.10678053045E+04  0.30838387614E+04  0.28930698813E+04 0.  0.
        4    1    3    3  502    0 -0.36356306468E+03 -0.13867106480E+04 -0.73981730639E+03  0.16132190747E+04  0.12699999809E+01 0.  1.
       -4    1    3    3    0  502  0.36356306468E+03  0.13867106480E+04 -0.32798799814E+03  0.14706196867E+04  0.12699999809E+01 0. -1.
</event>
<event>
 5   0  0.1006893E-06  0.2899556E+04  0.7818609E-02  0.8273010E-01
       -2   -1    0    0    0  501  0.00000000000E+00  0.00000000000E+00  0.10674184458E+04  0.10674184458E+04  0.25500000920E-02 0. -1.
        2   -1    0    0  501    0  0.00000000000E+00  0.00000000000E+00 -0.19691025361E+04  0.19691025361E+04  0.25500000920E-02 0.  1.
    10030    2    1    2    0    0  0.00000000000E+00  0.00000000000E+00 -0.90168409030E+03  0.30365209819E+04  0.28995560824E+04 0.  0.
        4    1    3    3  502    0 -0.29755175054E+03  0.10053447842E+03  0.10313622603E+04  0.10781252017E+04  0.12699999809E+01 0. -1.
       -4    1    3    3    0  502  0.29755175054E+03 -0.10053447842E+03 -0.19330463506E+04  0.19583957802E+04  0.12699999809E+01 0.  1.
</event>
<event>
 5   0  0.1031339E-06  0.2897209E+04  0.7818609E-02  0.8273708E-01
       -2   -1    0    0    0  501  0.00000000000E+00  0.00000000000E+00  0.97414620188E+03  0.97414620188E+03  0.25500000920E-02 0.  1.
        2   -1    0    0  501    0  0.00000000000E+00  0.00000000000E+00 -0.21541474226E+04  0.21541474226E+04  0.25500000920E-02 0. -1.
    10030    2    1    2    0    0  0.00000000000E+00  0.00000000000E+00 -0.11800012207E+04  0.31282936245E+04  0.28972086773E+04 0.  0.
        5    1    3    3  502    0  0.56429324375E+03  0.13202961488E+04 -0.79720129011E+03  0.16423034958E+04  0.46999998093E+01 0. -1.
       -5    1    3    3    0  502 -0.56429324375E+03 -0.13202961488E+04 -0.38279993057E+03  0.14859901286E+04  0.46999998093E+01 0.  1.
</event>
<event>
 5   0  0.3770467E-07  0.2896673E+04  0.7818609E-02  0.8273868E-01
       -1   -1    0    0    0  501  0.00000000000E+00  0.00000000000E+00  0.18090832212E+04  0.18090832212E+04  0.50400001928E-02 0. -1.
        1   -1    0    0  501    0  0.00000000000E+00  0.00000000000E+00 -0.11595256737E+04  0.11595256737E+04  0.50400001928E-02 0.  1.
    10030    2    1    2    0    0  0.00000000000E+00  0.00000000000E+00  0.64955754744E+03  0.29686088949E+04  0.28966728782E+04 0.  0.
        1    1    3    3  502    0 -0.10918768524E+04 -0.17732700033E+03 -0.63333882330E+03  0.12746599512E+04  0.50400001928E-02 0.  1.
       -1    1    3    3    0  502  0.10918768524E+04  0.17732700033E+03  0.12828963707E+04  0.16939489438E+04  0.50400001928E-02 0. -1.
</event>
<event>
 5   0  0.1006893E-06  0.2897750E+04  0.7818609E-02  0.8273547E-01
        2   -1    0    0  501    0  0.00000000000E+00  0.00000000000E+00  0.15435124940E+04  0.15435124940E+04  0.25500000920E-02 0. -1.
       -2   -1    0    0    0  501  0.00000000000E+00  0.00000000000E+00 -0.13600396756E+04  0.13600396756E+04  0.25500000920E-02 0.  1.
    10030    2    1    2    0    0  0.00000000000E+00  0.00000000000E+00  0.18347281837E+03  0.29035521697E+04  0.28977496315E+04 0.  0.
        4    1    3    3  502    0  0.11575862056E+04 -0.16012747792E+03  0.94995016549E+03  0.15060058308E+04  0.12699999809E+01 0. -1.
       -4    1    3    3    0  502 -0.11575862056E+04  0.16012747792E+03 -0.76647734711E+03  0.13975463388E+04  0.12699999809E+01 0.  1.
</event>
<event>
 5   0  0.3769563E-07  0.2896888E+04  0.7818609E-02  0.8273804E-01
        1   -1    0    0  501    0  0.00000000000E+00  0.00000000000E+00  0.18992538700E+04  0.18992538700E+04  0.50400001928E-02 0.  1.
       -1   -1    0    0    0  501  0.00000000000E+00  0.00000000000E+00 -0.11046390112E+04  0.11046390112E+04  0.50400001928E-02 0. -1.
    10030    2    1    2    0    0  0.00000000000E+00  0.00000000000E+00  0.79461485877E+03  0.30038928812E+04  0.28968879281E+04 0.  0.
        3    1    3    3  502    0 -0.44664658307E+03 -0.13610963870E+04  0.17511856232E+03  0.14431711839E+04  0.10100000352E+00 0.  1.
       -3    1    3    3    0  502  0.44664658307E+03  0.13610963870E+04  0.61949629645E+03  0.15607216973E+04  0.10100000352E+00 0. -1.
</event>
<event>
 5   0  0.3885904E-07  0.2895853E+04  0.7818609E-02  0.8274112E-01
        1   -1    0    0  501    0  0.00000000000E+00  0.00000000000E+00  0.21047265726E+04  0.21047265726E+04  0.50400001928E-02 0. -1.
       -1   -1    0    0    0  501  0.00000000000E+00  0.00000000000E+00 -0.99608744592E+03  0.99608744594E+03  0.50400001928E-02 0.  1.
    10030    2    1    2    0    0  0.00000000000E+00  0.00000000000E+00  0.11086391267E+04  0.31008140185E+04  0.28958533914E+04 0.  0.
        2    1    3    3  502    0  0.72958825140E+02 -0.31814321333E+03  0.20648192000E+04  0.20904584242E+04  0.25500000920E-02 0. -1.
       -2    1    3    3    0  502 -0.72958825140E+02  0.31814321333E+03 -0.95618007337E+03  0.10103555944E+04  0.25500000920E-02 0.  1.
</event>
<event>
 5   0  0.3885904E-07  0.2896396E+04  0.7818609E-02  0.8273951E-01
       -1   -1    0    0    0  501  0.00000000000E+00  0.00000000000E+00  0.13147271412E+04  0.13147271412E+04  0.50400001928E-02 0. -1.
        1   -1    0    0  501    0  0.00000000000E+00  0.00000000000E+00 -0.15952189094E+04  0.15952189094E+04  0.50400001928E-02 0.  1.
    10030    2    1    2    0    0  0.00000000000E+00  0.00000000000E+00 -0.28049176821E+03  0.29099460506E+04  0.28963961030E+04 0.  0.
        2    1    3    3  502    0 -0.99270114532E+01  0.10977433744E+04 -0.10891954516E+04  0.15464429486E+04  0.25500000920E-02 0.  1.
       -2    1    3    3    0  502  0.99270114532E+01 -0.10977433744E+04  0.80870368339E+03  0.13635031020E+04  0.25500000920E-02 0. -1.
</event>
<event>
 5   0  0.3770467E-07  0.2901810E+04  0.7818609E-02  0.8272339E-01
        1   -1    0    0  501    0  0.00000000000E+00  0.00000000000E+00  0.18176802747E+04  0.18176802747E+04  0.50400001928E-02 0. -1.
       -1   -1    0    0    0  501  0.00000000000E+00  0.00000000000E+00 -0.11581381073E+04  0.11581381073E+04  0.50400001928E-02 0.  1.
    10030    2    1    2    0    0  0.00000000000E+00  0.00000000000E+00  0.65954216736E+03  0.29758183820E+04  0.29018096375E+04 0.  0.
        1    1    3    3  502    0 -0.14341243212E+04  0.96388451512E+02  0.12693500706E+03  0.14429538448E+04  0.50400001928E-02 0.  1.
       -1    1    3    3    0  502  0.14341243212E+04 -0.96388451512E+02  0.53260716030E+03  0.15328645372E+04  0.50400001928E-02 0. -1.
</event>
<event>
 5   0  0.3786210E-07  0.2896372E+04  0.7818609E-02  0.8273958E-01
       -1   -1    0    0    0  501  0.00000000000E+00  0.00000000000E+00  0.12642141085E+04  0.12642141085E+04  0.50400001928E-02 0. -1.
        1   -1    0    0  501    0  0.00000000000E+00  0.00000000000E+00 -0.16589301100E+04  0.16589301100E+04  0.50400001928E-02 0.  1.
    10030    2    1    2    0    0  0.00000000000E+00  0.00000000000E+00 -0.39471600150E+03  0.29231442185E+04  0.28963721101E+04 0.  0.
        5    1    3    3  502    0  0.25890389584E+03 -0.57954802321E+03  0.11163316752E+04  0.12841828676E+04  0.46999998093E+01 0. -1.
       -5    1    3    3    0  502 -0.25890389584E+03  0.57954802321E+03 -0.15110476767E+04  0.16389613509E+04  0.46999998093E+01 0.  1.
</event>
<event>
 5   0  0.3885904E-07  0.2899833E+04  0.7818609E-02  0.8272927E-01
        1   -1    0    0  501    0  0.00000000000E+00  0.00000000000E+00  0.10907806258E+04  0.10907806258E+04  0.50400001928E-02 0. -1.
       -1   -1    0    0    0  501  0.00000000000E+00  0.00000000000E+00 -0.19272973104E+04  0.19272973104E+04  0.50400001928E-02 0.  1.
    10030    2    1    2    0    0  0.00000000000E+00  0.00000000000E+00 -0.83651668461E+03  0.30180779361E+04  0.28998334892E+04 0.  0.
        2    1    3    3  502    0  0.11565650525E+04  0.82518483305E+03 -0.71933935722E+03  0.15924891962E+04  0.25500000920E-02 0. -1.
       -2    1    3    3    0  502 -0.11565650525E+04 -0.82518483305E+03 -0.11717732739E+03  0.14255887399E+04  0.25500000920E-02 0.  1.
</event>
<event>
 5   0  0.1006893E-06  0.2899752E+04  0.7818609E-02  0.8272951E-01
        2   -1    0    0  501    0  0.00000000000E+00  0.00000000000E+00  0.14531077017E+04  0.14531077017E+04  0.25500000920E-02 0. -1.
       -2   -1    0    0    0  501  0.00000000000E+00  0.00000000000E+00 -0.14466509932E+04  0.14466509932E+04  0.25500000920E-02 0.  1.
    10030    2    1    2    0    0  0.00000000000E+00  0.00000000000E+00  0.64567084343E+01  0.28997586949E+04  0.28997515065E+04 0.  0.
        4    1    3    3  502    0  0.13443162684E+04 -0.49852121327E+03  0.21870152558E+03  0.14503591279E+04  0.12699999809E+01 0. -1.
       -4    1    3    3    0  502 -0.13443162684E+04  0.49852121327E+03 -0.21224481714E+03  0.14493995670E+04  0.12699999809E+01 0.  1.
</event>
<event>
 5   0  0.1006893E-06  0.2897964E+04  0.7818609E-02  0.8273483E-01
       -2   -1    0    0    0  501  0.00000000000E+00  0.00000000000E+00  0.11876496626E+04  0.11876496626E+04  0.25500000920E-02 0.  1.
        2   -1    0    0  501    0  0.00000000000E+00  0.00000000000E+00 -0.17678184250E+04  0.17678184250E+04  0.25500000920E-02 0. -1.
    10030    2    1    2    0    0  0.00000000000E+00  0.00000000000E+00 -0.58016876247E+03  0.29554680876E+04  0.28979640826E+04 0.  0.
        4    1    3    3  502    0 -0.57855034447E+03  0.80141963858E+03  0.79044550020E+03  0.12656222343E+04  0.12699999809E+01 0.  1.
       -4    1    3    3    0  502  0.57855034447E+03 -0.80141963858E+03 -0.13706142627E+04  0.16898458534E+04  0.12699999809E+01 0. -1.
</event>
<event>
 5   0  0.1063979E-06  0.2887499E+04  0.7818609E-02  0.8276607E-01
       -2   -1    0    0    0  501  0.00000000000E+00  0.00000000000E+00  0.14000941859E+04  0.14000941859E+04  0.25500000920E-02 0.  1.
        2   -1    0    0  501    0  0.00000000000E+00  0.00000000000E+00 -0.14887662754E+04  0.14887662754E+04  0.25500000920E-02 0. -1.
    10030    2    1    2    0    0  0.00000000000E+00  0.00000000000E+00 -0.88672089560E+02  0.28888604613E+04  0.28874992685E+04 0.  0.
        1    1    3    3  502    0  0.12707684049E+04  0.85571874256E+02 -0.72453750821E+03  0.14653086656E+04  0.50400001928E-02 0. -1.
       -1    1    3    3    0  502 -0.12707684049E+04 -0.85571874256E+02  0.63586541865E+03  0.14235517958E+04  0.50400001928E-02 0.  1.
</event>
<event>
 5   0  0.3638028E-07  0.2899422E+04  0.7818609E-02  0.8273049E-01
       -1   -1    0    0    0  501  0.00000000000E+00  0.00000000000E+00  0.10624706403E+04  0.10624706403E+04  0.50400001928E-02 0. -1.
        1   -1    0    0  501    0  0.00000000000E+00  0.00000000000E+00 -0.19780896706E+04  0.19780896706E+04  0.50400001928E-02 0.  1.
    10030    2    1    2    0    0  0.00000000000E+00  0.00000000000E+00 -0.91561903031E+03  0.30405603109E+04  0.28994221486E+04 0.  0.
        4    1    3    3  502    0  0.12995393607E+04  0.59776256826E+03 -0.21067290539E+03  0.14458586805E+04  0.12699999809E+01 0. -1.
       -4    1    3    3    0  502 -0.12995393607E+04 -0.59776256826E+03 -0.70494612492E+03  0.15947016304E+04  0.12699999809E+01 0.  1.
</event>
<event>
 5   0  0.3638028E-07  0.2899135E+04  0.7818609E-02  0.8273135E-01
       -1   -1    0    0    0  501  0.00000000000E+00  0.00000000000E+00  0.20768637015E+04  0.20768637015E+04  0.50400001928E-02 0.  1.
        1   -1    0    0  501    0  0.00000000000E+00  0.00000000000E+00 -0.10117402568E+04  0.10117402568E+04  0.50400001928E-02 0. -1.
    10030    2    1    2    0    0  0.00000000000E+00  0.00000000000E+00  0.10651234447E+04  0.30886039582E+04  0.28991354674E+04 0.  0.
        4    1    3    3  502    0  0.27300371275E+02  0.10478423240E+04  0.15992599430E+04  0.19121592048E+04  0.12699999809E+01 0.  1.
       -4    1    3    3    0  502 -0.27300371275E+02 -0.10478423240E+04 -0.53413649835E+03  0.11764447535E+04  0.12699999809E+01 0. -1.
</event>
<event>
 5   0  0.1031339E-06  0.2808516E+04  0.7818609E-02  0.8300629E-01
       -2   -1    0    0    0  501  0.00000000000E+00  0.00000000000E+00  0.83034455229E+03  0.83034455229E+03  0.25500000920E-02 0.  1.
        2   -1    0    0  501    0  0.00000000000E+00  0.00000000000E+00 -0.23748460247E+04  0.23748460247E+04  0.25500000920E-02 0. -1.
    10030    2    1    2    0    0  0.00000000000E+00  0.00000000000E+00 -0.15445014724E+04  0.32051905769E+04  0.28085159491E+04 0.  0.
        5    1    3    3  502    0 -0.65108914663E+03 -0.11908766083E+04 -0.36106498468E+03  0.14044551207E+04  0.46999998093E+01 0.  1.
       -5    1    3    3    0  502  0.65108914663E+03  0.11908766083E+04 -0.11834364877E+04  0.18007354562E+04  0.46999998093E+01 0. -1.
</event>
<event>
 5   0  0.3786210E-07  0.2936776E+04  0.7818609E-02  0.8262019E-01
        1   -1    0    0  501    0  0.00000000000E+00  0.00000000000E+00  0.19587340176E+04  0.19587340176E+04  0.50400001928E-02 0. -1.
       -1   -1    0    0    0  501  0.00000000000E+00  0.00000000000E+00 -0.11007944944E+04  0.11007944944E+04  0.50400001928E-02 0.  1.
    10030    2    1    2    0    0  0.00000000000E+00  0.00000000000E+00  0.85793952326E+03  0.30595285120E+04  0.29367762070E+04 0.  0.
        5    1    3    3  502    0 -0.65529278514E+03  0.87251707734E+03 -0.59467162471E+03  0.12427192425E+04  0.46999998093E+01 0.  1.
       -5    1    3    3    0  502  0.65529278514E+03 -0.87251707734E+03  0.14526111480E+04  0.18168092695E+04  0.46999998093E+01 0. -1.
</event>
<event>
 5   0  0.3786210E-07  0.2898881E+04  0.7818609E-02  0.8273210E-01
       -1   -1    0    0    0  501  0.00000000000E+00  0.00000000000E+00  0.19075839326E+04  0.19075839327E+04  0.50400001928E-02 0. -1.
        1   -1    0    0  501    0  0.00000000000E+00  0.00000000000E+00 -0.11013291978E+04  0.11013291978E+04  0.50400001928E-02 0.  1.
    10030    2    1    2    0    0  0.00000000000E+00  0.00000000000E+00  0.80625473486E+03  0.30089131305E+04  0.28988810823E+04 0.  0.
        5    1    3    3  502    0  0.34453702451E+03  0.13010207420E+04  0.96159734088E+03  0.16541016500E+04  0.46999998093E+01 0. -1.
       -5    1    3    3    0  502 -0.34453702451E+03 -0.13010207420E+04 -0.15534260602E+03  0.13548114805E+04  0.46999998093E+01 0.  1.
</event>
<event>
 5   0  0.9994311E-07  0.2898003E+04  0.7818609E-02  0.8273472E-01
        2   -1    0    0  501    0  0.00000000000E+00  0.00000000000E+00  0.20574093814E+04  0.20574093814E+04  0.25500000920E-02 0.  1.
       -2   -1    0    0    0  501  0.00000000000E+00  0.00000000000E+00 -0.10205090901E+04  0.10205090901E+04  0.25500000920E-02 0. -1.
    10030    2    1    2    0    0  0.00000000000E+00  0.00000000000E+00  0.10369002913E+04  0.30779184715E+04  0.28980027439E+04 0.  0.
        2    1    3    3  502    0 -0.25735514234E+02  0.82656206525E+03  0.17821668764E+04  0.19646846922E+04  0.25500000920E-02 0.  1.
       -2    1    3    3    0  502  0.25735514234E+02 -0.82656206525E+03 -0.74526658518E+03  0.11132337793E+04  0.25500000920E-02 0. -1.
</event>
<event>
 5   0  0.3769563E-07  0.2899419E+04  0.7818609E-02  0.8273050E-01
       -1   -1    0    0    0  501  0.00000000000E+00  0.00000000000E+00  0.97776065238E+03  0.97776065240E+03  0.50400001928E-02 0. -1.
        1   -1    0    0  501    0  0.00000000000E+00  0.00000000000E+00 -0.21494600776E+04  0.21494600776E+04  0.50400001928E-02 0.  1.
    10030    2    1    2    0    0  0.00000000000E+00  0.00000000000E+00 -0.11716994252E+04  0.31272207300E+04  0.28994188988E+04 0.  0.
        3    1    3    3  502    0  0.10047172831E+04 -0.84148250352E+03  0.82608348859E+02  0.13131541312E+04  0.10100000352E+00 0. -1.
       -3    1    3    3    0  502 -0.10047172831E+04  0.84148250352E+03 -0.12543077740E+04  0.18140665988E+04  0.10100000352E+00 0.  1.
</event>
<event>
 5   0  0.9950999E-07  0.2901375E+04  0.7818609E-02  0.8272469E-01
       -2   -1    0    0    0  501  0.00000000000E+00  0.00000000000E+00  0.14511558487E+04  0.14511558487E+04  0.25500000920E-02 0. -1.
        2   -1    0    0  501    0  0.00000000000E+00  0.00000000000E+00 -0.14502189893E+04  0.14502189893E+04  0.25500000920E-02 0.  1.
    10030    2    1    2    0    0  0.00000000000E+00  0.00000000000E+00  0.93685943818E+00  0.29013748380E+04  0.29013746868E+04 0.  0.
        3    1    3    3  502    0 -0.54457514248E+03 -0.88387138207E+03 -0.10127951881E+04  0.14503602343E+04  0.10100000352E+00 0.  1.
       -3    1    3    3    0  502  0.54457514248E+03  0.88387138207E+03  0.10137320476E+04  0.14510146038E+04  0.10100000352E+00 0. -1.
</event>
<event>
 5   0  0.1006893E-06  0.2901133E+04  0.7818609E-02  0.8272540E-01
        2   -1    0    0  501    0  0.00000000000E+00  0.00000000000E+00  0.19273888219E+04  0.19273888219E+04  0.25500000920E-02 0. -1.
       -2   -1    0    0    0  501  0.00000000000E+00  0.00000000000E+00 -0.10917067061E+04  0.10917067061E+04  0.25500000920E-02 0.  1.
    10030    2    1    2    0    0  0.00000000000E+00  0.00000000000E+00  0.83568211579E+03  0.30190955280E+04  0.29011330905E+04 0.  0.
        4    1    3    3  502    0  0.30852823095E+03 -0.13500516964E+04 -0.31348989914E+02  0.13852124834E+04  0.12699999809E+01 0.  1.
       -4    1    3    3    0  502 -0.30852823095E+03  0.13500516964E+04  0.86703110571E+03  0.16338830446E+04  0.12699999809E+01 0. -1.
</event>
<event>
 5   0  0.1006893E-06  0.2902876E+04  0.7818609E-02  0.8272022E-01
        2   -1    0    0  501    0  0.00000000000E+00  0.00000000000E+00  0.11884039854E+04  0.11884039854E+04  0.25500000920E-02 0. -1.
       -2   -1    0    0    0  501  0.00000000000E+00  0.00000000000E+00 -0.17726908975E+04  0.17726908975E+04  0.25500000920E-02 0.  1.
    10030    2    1    2    0    0  0.00000000000E+00  0.00000000000E+00 -0.58428691203E+03  0.29610948829E+04  0.29028764545E+04 0.  0.
        4    1    3    3  502    0 -0.10064322646E+04 -0.28201827464E+03  0.73514458796E+03  0.12778416915E+04  0.12699999809E+01 0. -1.
       -4    1    3    3    0  502  0.10064322646E+04  0.28201827464E+03 -0.13194315000E+04  0.16832531914E+04  0.12699999809E+01 0.  1.
</event>
<event>
 5   0  0.3885904E-07  0.2899209E+04  0.7818609E-02  0.8273113E-01
        1   -1    0    0  501    0  0.00000000000E+00  0.00000000000E+00  0.16270964007E+04  0.16270964007E+04  0.50400001928E-02 0. -1.
       -1   -1    0    0    0  501  0.00000000000E+00  0.00000000000E+00 -0.12914741130E+04  0.12914741130E+04  0.50400001928E-02 0.  1.
    10030    2    1    2    0    0  0.00000000000E+00  0.00000000000E+00  0.33562228773E+03  0.29185705138E+04  0.28992087755E+04 0.  0.
        2    1    3    3  502    0 -0.51591176155E+02 -0.25635227507E+03 -0.12675351474E+04  0.12942269848E+04  0.25500000920E-02 0.  1.
       -2    1    3    3    0  502  0.51591176155E+02  0.25635227507E+03  0.16031574351E+04  0.16243435290E+04  0.25500000920E-02 0. -1.
</event>
<event>
 5   0  0.1063979E-06  0.2892053E+04  0.7818609E-02  0.8275246E-01
       -2   -1    0    0    0  501  0.00000000000E+00  0.00000000000E+00  0.76681692423E+03  0.76681692423E+03  0.25500000920E-02 0. -1.
        2   -1    0    0  501    0  0.00000000000E+00  0.00000000000E+00 -0.27268473067E+04  0.27268473067E+04  0.25500000920E-02 0.  1.
    10030    2    1    2    0    0  0.00000000000E+00  0.00000000000E+00 -0.19600303825E+04  0.34936642309E+04  0.28920530179E+04 0.  0.
        1    1    3    3  502    0 -0.57231039993E+03 -0.29920650347E+03 -0.25429592069E+04  0.26236816220E+04  0.50400001928E-02 0.  1.
       -1    1    3    3    0  502  0.57231039993E+03  0.29920650347E+03  0.58292882439E+03  0.86998260898E+03  0.50400001928E-02 0. -1.
</event>
<event>
 5   0  0.3770467E-07  0.2897281E+04  0.7818609E-02  0.8273687E-01
       -1   -1    0    0    0  501  0.00000000000E+00  0.00000000000E+00  0.88053800956E+03  0.88053800957E+03  0.50400001928E-02 0.  1.
        1   -1    0    0  501    0  0.00000000000E+00  0.00000000000E+00 -0.23832695022E+04  0.23832695022E+04  0.50400001928E-02 0. -1.
    10030    2    1    2    0    0  0.00000000000E+00  0.00000000000E+00 -0.15027314927E+04  0.32638075118E+04  0.28972810590E+04 0.  0.
        1    1    3    3  502    0 -0.30725016148E+03 -0.10752461448E+04 -0.17887328313E+04  0.21095312454E+04  0.50400001928E-02 0. -1.
       -1    1    3    3    0  502  0.30725016148E+03  0.10752461448E+04  0.28600133860E+03  0.11542762664E+04  0.50400001928E-02 0.  1.
</event>
<event>
 5   0  0.3786210E-07  0.2907367E+04  0.7818609E-02  0.8270689E-01
        1   -1    0    0  501    0  0.00000000000E+00  0.00000000000E+00  0.86739755679E+03  0.86739755681E+03  0.50400001928E-02 0. -1.
       -1   -1    0    0    0  501  0.00000000000E+00  0.00000000000E+00 -0.24362490149E+04  0.24362490149E+04  0.50400001928E-02 0.  1.
    10030    2    1    2    0    0  0.00000000000E+00  0.00000000000E+00 -0.15688514581E+04  0.33036465717E+04  0.29073674988E+04 0.  0.
        5    1    3    3  502    0  0.16020695460E+03 -0.14384154343E+04 -0.93885043783E+03  0.17251572289E+04  0.46999998093E+01 0. -1.
       -5    1    3    3    0  502 -0.16020695460E+03  0.14384154343E+04 -0.63000102029E+03  0.15784893428E+04  0.46999998093E+01 0.  1.
</event>
<event>
 5   0  0.1063979E-06  0.2903921E+04  0.7818609E-02  0.8271712E-01
        2   -1    0    0  501    0  0.00000000000E+00  0.00000000000E+00  0.16429103065E+04  0.16429103065E+04  0.25500000920E-02 0. -1.
       -2   -1    0    0    0  501  0.00000000000E+00  0.00000000000E+00 -0.12832044576E+04  0.12832044576E+04  0.25500000920E-02 0.  1.
    10030    2    1    2    0    0  0.00000000000E+00  0.00000000000E+00  0.35970584889E+03  0.29261147641E+04  0.29039213686E+04 0.  0.
        1    1    3    3  502    0  0.12401159608E+04  0.72587990662E+03 -0.30067327178E+02  0.14372519888E+04  0.50400001928E-02 0. -1.
       -1    1    3    3    0  502 -0.12401159608E+04 -0.72587990662E+03  0.38977317606E+03  0.14888627754E+04  0.50400001928E-02 0.  1.
</event>
<event>
 5   0  0.3786210E-07  0.2896501E+04  0.7818609E-02  0.8273919E-01
        1   -1    0    0  501    0  0.00000000000E+00  0.00000000000E+00  0.12032208331E+04  0.12032208331E+04  0.50400001928E-02 0. -1.
       -1   -1    0    0    0  501  0.00000000000E+00  0.00000000000E+00 -0.17431788596E+04  0.17431788596E+04  0.50400001928E-02 0.  1.
    10030    2    1    2    0    0  0.00000000000E+00  0.00000000000E+00 -0.53995802653E+03  0.29463996927E+04  0.28965007300E+04 0.  0.
        5    1    3    3  502    0  0.13688712029E+03  0.55130440354E+03  0.10851619000E+04  0.12248563460E+04  0.46999998093E+01 0. -1.
       -5    1    3    3    0  502 -0.13688712029E+03 -0.55130440354E+03 -0.16251199265E+04  0.17215433467E+04  0.46999998093E+01 0.  1.
</event>
<event>
 5   0  0.3769563E-07  0.2902206E+04  0.7818609E-02  0.8272221E-01
        1   -1    0    0  501    0  0.00000000000E+00  0.00000000000E+00  0.16891215971E+04  0.16891215971E+04  0.50400001928E-02 0.  1.
       -1   -1    0    0    0  501  0.00000000000E+00  0.00000000000E+00 -0.12466242171E+04  0.12466242171E+04  0.50400001928E-02 0. -1.
    10030    2    1    2    0    0  0.00000000000E+00  0.00000000000E+00  0.44249737996E+03  0.29357458142E+04  0.29022059807E+04 0.  0.
        3    1    3    3  502    0  0.72272675234E+03  0.99142467127E+03  0.10050863498E+04  0.15860187320E+04  0.10100000352E+00 0.  1.
       -3    1    3    3    0  502 -0.72272675234E+03 -0.99142467127E+03 -0.56258896987E+03  0.13497270823E+04  0.10100000352E+00 0. -1.
</event>
<event>
 5   0  0.3638028E-07  0.2908543E+04  0.7818609E-02  0.8270340E-01
        1   -1    0    0  501    0  0.00000000000E+00  0.00000000000E+00  0.19251567779E+04  0.19251567779E+04  0.50400001928E-02 0.  1.
       -1   -1    0    0    0  501  0.00000000000E+00  0.00000000000E+00 -0.10985631053E+04  0.10985631053E+04  0.50400001928E-02 0. -1.
    10030    2    1    2    0    0  0.00000000000E+00  0.00000000000E+00  0.82659367261E+03  0.30237198832E+04  0.29085434211E+04 0.  0.
        4    1    3    3  502    0  0.28883482402E+03  0.65466501181E+03 -0.90289210633E+03  0.11520536454E+04  0.12699999809E+01 0. -1.
       -4    1    3    3    0  502 -0.28883482402E+03 -0.65466501181E+03  0.17294857789E+04  0.18716662378E+04  0.12699999809E+01 0.  1.
</event>
<event>
 5   0  0.1031339E-06  0.2895321E+04  0.7818609E-02  0.8274271E-01
       -2   -1    0    0    0  501  0.00000000000E+00  0.00000000000E+00  0.16213977211E+04  0.16213977211E+04  0.25500000920E-02 0.  1.
        2   -1    0    0  501    0  0.00000000000E+00  0.00000000000E+00 -0.12925396018E+04  0.12925396018E+04  0.25500000920E-02 0. -1.
    10030    2    1    2    0    0  0.00000000000E+00  0.00000000000E+00  0.32885811928E+03  0.29139373229E+04  0.28953208905E+04 0.  0.
        5    1    3    3  502    0 -0.43875612641E+03 -0.63406355519E+03 -0.10686652444E+04  0.13178053821E+04  0.46999998093E+01 0. -1.
       -5    1    3    3    0  502  0.43875612641E+03  0.63406355519E+03  0.13975233637E+04  0.15961319408E+04  0.46999998093E+01 0.  1.
</event>
<event>
 5   0  0.1063979E-06  0.2899331E+04  0.7818609E-02  0.8273076E-01
        2   -1    0    0  501    0  0.00000000000E+00  0.00000000000E+00  0.20752727670E+04  0.20752727670E+04  0.25500000920E-02 0. -1.
       -2   -1    0    0    0  501  0.00000000000E+00  0.00000000000E+00 -0.10126526594E+04  0.10126526594E+04  0.25500000920E-02 0.  1.
    10030    2    1    2    0    0  0.00000000000E+00  0.00000000000E+00  0.10626201076E+04  0.30879254264E+04  0.28993312929E+04 0.  0.
        1    1    3    3  502    0  0.27298502482E+03  0.11804676954E+04 -0.31639391833E+03  0.12522499412E+04  0.50400001928E-02 0.  1.
       -1    1    3    3    0  502 -0.27298502482E+03 -0.11804676954E+04  0.13790140259E+04  0.18356754853E+04  0.50400001928E-02 0. -1.
</event>
<event>
 5   0  0.3885904E-07  0.2855264E+04  0.7818609E-02  0.8286313E-01
        1   -1    0    0  501    0  0.00000000000E+00  0.00000000000E+00  0.15154238223E+04  0.15154238223E+04  0.50400001928E-02 0.  1.
       -1   -1    0    0    0  501  0.00000000000E+00  0.00000000000E+00 -0.13449263756E+04  0.13449263756E+04  0.50400001928E-02 0. -1.
    10030    2    1    2    0    0  0.00000000000E+00  0.00000000000E+00  0.17049744668E+03  0.28603501980E+04  0.28552642392E+04 0.  0.
        2    1    3    3  502    0  0.30644058931E+03  0.13581534169E+04 -0.23098258440E+03  0.14113254383E+04  0.25500000920E-02 0.  1.
       -2    1    3    3    0  502 -0.30644058931E+03 -0.13581534169E+04  0.40148003108E+03  0.14490247596E+04  0.25500000920E-02 0. -1.
</event>
<event>
 5   0  0.3786210E-07  0.2868867E+04  0.7818609E-02  0.8282201E-01
        1   -1    0    0  501    0  0.00000000000E+00  0.00000000000E+00  0.16618321031E+04  0.16618321031E+04  0.50400001928E-02 0. -1.
       -1   -1    0    0    0  501  0.00000000000E+00  0.00000000000E+00 -0.12381508921E+04  0.12381508921E+04  0.50400001928E-02 0.  1.
    10030    2    1    2    0    0  0.00000000000E+00  0.00000000000E+00  0.42368121098E+03  0.28999829952E+04  0.28688666062E+04 0.  0.
        5    1    3    3  502    0 -0.19491705891E+02 -0.29024603870E+03 -0.12080130674E+04  0.12425539628E+04  0.46999998093E+01 0.  1.
       -5    1    3    3    0  502  0.19491705891E+02  0.29024603870E+03  0.16316942783E+04  0.16574290324E+04  0.46999998093E+01 0. -1.
</event>
<event>
 5   0  0.9950999E-07  0.2901307E+04  0.7818609E-02  0.8272489E-01
        2   -1    0    0  501    0  0.00000000000E+00  0.00000000000E+00  0.16354271192E+04  0.16354271192E+04  0.25500000920E-02 0. -1.
       -2   -1    0    0    0  501  0.00000000000E+00  0.00000000000E+00 -0.12867557515E+04  0.12867557515E+04  0.25500000920E-02 0.  1.
    10030    2    1    2    0    0  0.00000000000E+00  0.00000000000E+00  0.34867136763E+03  0.29221828707E+04  0.29013067758E+04 0.  0.
        3    1    3    3  502    0 -0.33807120787E+03 -0.99370885005E+03  0.11828626443E+04  0.15814276669E+04  0.10100000352E+00 0. -1.
       -3    1    3    3    0  502  0.33807120787E+03  0.99370885005E+03 -0.83419127665E+03  0.13407552038E+04  0.10100000352E+00 0.  1.
</event>
<event>
 5   0  0.1063979E-06  0.2899800E+04  0.7818609E-02  0.8272937E-01
        2   -1    0    0  501    0  0.00000000000E+00  0.00000000000E+00  0.11907744944E+04  0.11907744944E+04  0.25500000920E-02 0. -1.
       -2   -1    0    0    0  501  0.00000000000E+00  0.00000000000E+00 -0.17654137705E+04  0.17654137705E+04  0.25500000920E-02 0.  1.
    10030    2    1    2    0    0  0.00000000000E+00  0.00000000000E+00 -0.57463927604E+03  0.29561882649E+04  0.28997997793E+04 0.  0.
        1    1    3    3  502    0  0.84381531573E+03  0.75005293924E+03  0.64009914873E+03  0.12978176370E+04  0.50400001928E-02 0. -1.
       -1    1    3    3    0  502 -0.84381531573E+03 -0.75005293924E+03 -0.12147384248E+04  0.16583706279E+04  0.50400001928E-02 0.  1.
</event>
<event>
 5   0  0.3378750E-07  0.2899400E+04  0.7818609E-02  0.8273056E-01
        3   -1    0    0  501    0  0.00000000000E+00  0.00000000000E+00  0.14801503447E+04  0.14801503482E+04  0.10100000352E+00 0. -1.
       -3   -1    0    0    0  501  0.00000000000E+00  0.00000000000E+00 -0.14198757929E+04  0.14198757965E+04  0.10100000352E+00 0.  1.
    10030    2    1    2    0    0  0.00000000000E+00  0.00000000000E+00  0.60274551838E+02  0.29000261446E+04  0.28993996996E+04 0.  0.
        2    1    3    3  502    0 -0.12582857514E+04 -0.37337521389E+03  0.64584933236E+03  0.14628101184E+04  0.25500000920E-02 0. -1.
       -2    1    3    3    0  502  0.12582857514E+04  0.37337521389E+03 -0.58557478052E+03  0.14372160262E+04  0.25500000920E-02 0.  1.
</event>
<event>
 5   0  0.3885904E-07  0.2916168E+04  0.7818609E-02  0.8268083E-01
       -1   -1    0    0    0  501  0.00000000000E+00  0.00000000000E+00  0.12942206601E+04  0.12942206601E+04  0.50400001928E-02 0.  1.
        1   -1    0    0  501    0  0.00000000000E+00  0.00000000000E+00 -0.16426946293E+04  0.16426946293E+04  0.50400001928E-02 0. -1.
    10030    2    1    2    0    0  0.00000000000E+00  0.00000000000E+00 -0.34847396923E+03  0.29369152894E+04  0.29161682582E+04 0.  0.
        2    1    3    3  502    0 -0.52482777462E+03 -0.10712054108E+04  0.67022962237E+03  0.13682591026E+04  0.25500000920E-02 0. -1.
       -2    1    3    3    0  502  0.52482777462E+03  0.10712054108E+04 -0.10187035916E+04  0.15686561869E+04  0.25500000920E-02 0.  1.
</event>
<event>
 5   0  0.3786210E-07  0.2904126E+04  0.7818609E-02  0.8271651E-01
        1   -1    0    0  501    0  0.00000000000E+00  0.00000000000E+00  0.12824300758E+04  0.12824300758E+04  0.50400001928E-02 0. -1.
       -1   -1    0    0    0  501  0.00000000000E+00  0.00000000000E+00 -0.16441344992E+04  0.16441344992E+04  0.50400001928E-02 0.  1.
    10030    2    1    2    0    0  0.00000000000E+00  0.00000000000E+00 -0.36170442338E+03  0.29265645750E+04  0.29041263956E+04 0.  0.
        5    1    3    3  502    0  0.42248770748E+03 -0.13459851585E+04  0.16574342756E+03  0.14204453117E+04  0.46999998093E+01 0. -1.
       -5    1    3    3    0  502 -0.42248770748E+03  0.13459851585E+04 -0.52744785094E+03  0.15061192633E+04  0.46999998093E+01 0.  1.
</event>
<event>
 5   0  0.3885904E-07  0.2897529E+04  0.7818609E-02  0.8273613E-01
       -1   -1    0    0    0  501  0.00000000000E+00  0.00000000000E+00  0.13578565723E+04  0.13578565723E+04  0.50400001928E-02 0.  1.
        1   -1    0    0  501    0  0.00000000000E+00  0.00000000000E+00 -0.15457587996E+04  0.15457587996E+04  0.50400001928E-02 0. -1.
    10030    2    1    2    0    0  0.00000000000E+00  0.00000000000E+00 -0.18790222726E+03  0.29036153719E+04  0.28975291165E+04 0.  0.
        2    1    3    3  502    0  0.27655261588E+03  0.20540102137E+02  0.13310116586E+04  0.13595937925E+04  0.25500000920E-02 0.  1.
       -2    1    3    3    0  502 -0.27655261588E+03 -0.20540102137E+02 -0.15189138859E+04  0.15440215795E+04  0.25500000920E-02 0. -1.
</event>
<event>
 5   0  0.3786210E-07  0.2935740E+04  0.7818609E-02  0.8262322E-01
       -1   -1    0    0    0  501  0.00000000000E+00  0.00000000000E+00  0.70468028347E+03  0.70468028349E+03  0.50400001928E-02 0.  1.
        1   -1    0    0  501    0  0.00000000000E+00  0.00000000000E+00 -0.30576172967E+04  0.30576172967E+04  0.50400001928E-02 0. -1.
    10030    2    1    2    0    0  0.00000000000E+00  0.00000000000E+00 -0.23529370132E+04  0.37622975801E+04  0.29357401952E+04 0.  0.
        5    1    3    3  502    0  0.13969952698E+03  0.77704154663E+01  0.69610536330E+03  0.71004302969E+03  0.46999998093E+01 0.  1.
       -5    1    3    3    0  502 -0.13969952698E+03 -0.77704154663E+01 -0.30490423765E+04  0.30522545505E+04  0.46999998093E+01 0. -1.
</event>
<event>
 5   0  0.3885904E-07  0.2893301E+04  0.7818609E-02  0.8274873E-01
       -1   -1    0    0    0  501  0.00000000000E+00  0.00000000000E+00  0.11662043163E+04  0.11662043163E+04  0.50400001928E-02 0.  1.
        1   -1    0    0  501    0  0.00000000000E+00  0.00000000000E+00 -0.17945378474E+04  0.17945378474E+04  0.50400001928E-02 0. -1.
    10030    2    1    2    0    0  0.00000000000E+00  0.00000000000E+00 -0.62833353112E+03  0.29607421637E+04  0.28933010790E+04 0.  0.
        2    1    3    3  502    0 -0.72740330491E+03 -0.73892632525E+03  0.71814402544E+03  0.12612924020E+04  0.25500000920E-02 0.  1.
       -2    1    3    3    0  502  0.72740330491E+03  0.73892632525E+03 -0.13464775566E+04  0.16994497617E+04  0.25500000920E-02 0. -1.
</event>
<event>
 5   0  0.9950999E-07  0.2896891E+04  0.7818609E-02  0.8273803E-01
        2   -1    0    0  501    0  0.00000000000E+00  0.00000000000E+00  0.25473607049E+04  0.25473607049E+04  0.25500000920E-02 0. -1.
       -2   -1    0    0    0  501  0.00000000000E+00  0.00000000000E+00 -0.82359521577E+03  0.82359521577E+03  0.25500000920E-02 0.  1.
    10030    2    1    2    0    0  0.00000000000E+00  0.00000000000E+00  0.17237654892E+04  0.33709559207E+04  0.28968908087E+04 0.  0.
        3    1    3    3  502    0  0.98585314965E+03 -0.76607187290E+03  0.17163679757E+04  0.21224258728E+04  0.10100000352E+00 0. -1.
       -3    1    3    3    0  502 -0.98585314965E+03  0.76607187290E+03  0.73975134128E+01  0.12485300479E+04  0.10100000352E+00 0.  1.
</event>
<event>
 5   0  0.9994311E-07  0.2901912E+04  0.7818609E-02  0.8272309E-01
       -2   -1    0    0    0  501  0.00000000000E+00  0.00000000000E+00  0.15384437263E+04  0.15384437263E+04  0.25500000920E-02 0. -1.
        2   -1    0    0  501    0  0.00000000000E+00  0.00000000000E+00 -0.13684430631E+04  0.13684430631E+04  0.25500000920E-02 0.  1.
    10030    2    1    2    0    0  0.00000000000E+00  0.00000000000E+00  0.17000066314E+03  0.29068867894E+04  0.29019115391E+04 0.  0.
        2    1    3    3  502    0  0.99520341093E+03  0.83530499408E+03 -0.56194622843E+03  0.14156086415E+04  0.25500000920E-02 0.  1.
       -2    1    3    3    0  502 -0.99520341093E+03 -0.83530499408E+03  0.73194689157E+03  0.14912781479E+04  0.25500000920E-02 0. -1.
</event>
<event>
 5   0  0.1063979E-06  0.2905170E+04  0.7818609E-02  0.8271341E-01
       -2   -1    0    0    0  501  0.00000000000E+00  0.00000000000E+00  0.10962127031E+04  0.10962127031E+04  0.25500000920E-02 0. -1.
        2   -1    0    0  501    0  0.00000000000E+00  0.00000000000E+00 -0.19248122423E+04  0.19248122423E+04  0.25500000920E-02 0.  1.
    10030    2    1    2    0    0  0.00000000000E+00  0.00000000000E+00 -0.82859953913E+03  0.30210249454E+04  0.29051703090E+04 0.  0.
        1    1    3    3  502    0 -0.13219136315E+04 -0.59546828210E+03 -0.50710862702E+03  0.15359678655E+04  0.50400001928E-02 0.  1.
       -1    1    3    3    0  502  0.13219136315E+04  0.59546828210E+03 -0.32149091211E+03  0.14850570799E+04  0.50400001928E-02 0. -1.
</event>
<event>
 5   0  0.3885904E-07  0.2863778E+04  0.7818609E-02  0.8283737E-01
        1   -1    0    0  501    0  0.00000000000E+00  0.00000000000E+00  0.79453432010E+03  0.79453432012E+03  0.50400001928E-02 0.  1.
       -1   -1    0    0    0  501  0.00000000000E+00  0.00000000000E+00 -0.25805122859E+04  0.25805122859E+04  0.50400001928E-02 0. -1.
    10030    2    1    2    0    0  0.00000000000E+00  0.00000000000E+00 -0.17859779658E+04  0.33750466060E+04  0.28637776273E+04 0.  0.
        2    1    3    3  502    0 -0.71009883523E+03  0.10098732939E+03 -0.23535417628E+04  0.24604059880E+04  0.25500000920E-02 0. -1.
       -2    1    3    3    0  502  0.71009883523E+03 -0.10098732939E+03  0.56756379700E+03  0.91464061803E+03  0.25500000920E-02 0.  1.
</event>
<event>
 5   0  0.1006893E-06  0.2900238E+04  0.7818609E-02  0.8272807E-01
       -2   -1    0    0    0  501  0.00000000000E+00  0.00000000000E+00  0.16894411781E+04  0.16894411781E+04  0.25500000920E-02 0. -1.
        2   -1    0    0  501    0  0.00000000000E+00  0.00000000000E+00 -0.12446989916E+04  0.12446989916E+04  0.25500000920E-02 0.  1.
    10030    2    1    2    0    0  0.00000000000E+00  0.00000000000E+00  0.44474218647E+03  0.29341401697E+04  0.29002384252E+04 0.  0.
        4    1    3    3  502    0  0.85227806305E+03  0.27083516328E+02  0.14089979835E+04  0.16469330114E+04  0.12699999809E+01 0. -1.
       -4    1    3    3    0  502 -0.85227806305E+03 -0.27083516328E+02 -0.96425579699E+03  0.12872071584E+04  0.12699999809E+01 0.  1.
</event>
<event>
 5   0  0.3770467E-07  0.2900238E+04  0.7818609E-02  0.8272807E-01
       -1   -1    0    0    0  501  0.00000000000E+00  0.00000000000E+00  0.10006645910E+04  0.10006645910E+04  0.50400001928E-02 0.  1.
        1   -1    0    0  501    0  0.00000000000E+00  0.00000000000E+00 -0.21014478775E+04  0.21014478776E+04  0.50400001928E-02 0. -1.
    10030    2    1    2    0    0  0.00000000000E+00  0.00000000000E+00 -0.11007832865E+04  0.31021124686E+04  0.29002375633E+04 0.  0.
        1    1    3    3  502    0 -0.66014109643E+03 -0.97117689392E+02  0.82671409966E+03  0.10623908487E+04  0.50400001928E-02 0.  1.
       -1    1    3    3    0  502  0.66014109643E+03  0.97117689392E+02 -0.19274973862E+04  0.20397216199E+04  0.50400001928E-02 0. -1.
</event>
<event>
 5   0  0.3638028E-07  0.2899076E+04  0.7818609E-02  0.8273152E-01
       -1   -1    0    0    0  501  0.00000000000E+00  0.00000000000E+00  0.12420102320E+04  0.12420102320E+04  0.50400001928E-02 0.  1.
        1   -1    0    0  501    0  0.00000000000E+00  0.00000000000E+00 -0.16917417218E+04  0.16917417218E+04  0.50400001928E-02 0. -1.
    10030    2    1    2    0    0  0.00000000000E+00  0.00000000000E+00 -0.44973148981E+03  0.29337519537E+04  0.28990760792E+04 0.  0.
        4    1    3    3  502    0 -0.11416733769E+04  0.28634921029E+03  0.63127058037E+03  0.13356339799E+04  0.12699999809E+01 0.  1.
       -4    1    3    3    0  502  0.11416733769E+04 -0.28634921029E+03 -0.10810020702E+04  0.15981179738E+04  0.12699999809E+01 0. -1.
</event>
<event>
 5   0  0.9950999E-07  0.2899621E+04  0.7818609E-02  0.8272990E-01
        2   -1    0    0  501    0  0.00000000000E+00  0.00000000000E+00  0.28393304041E+04  0.28393304041E+04  0.25500000920E-02 0. -1.
       -2   -1    0    0    0  501  0.00000000000E+00  0.00000000000E+00 -0.74029816582E+03  0.74029816582E+03  0.25500000920E-02 0.  1.
    10030    2    1    2    0    0  0.00000000000E+00  0.00000000000E+00  0.20990322383E+04  0.35796285699E+04  0.28996214169E+04 0.  0.
        3    1    3    3  502    0 -0.11159499037E+04 -0.49661817881E+03  0.20136858546E+04  0.23551867303E+04  0.10100000352E+00 0. -1.
       -3    1    3    3    0  502  0.11159499037E+04  0.49661817881E+03  0.85346383627E+02  0.12244418396E+04  0.10100000352E+00 0.  1.
</event>
<event>
 5   0  0.3786210E-07  0.2900140E+04  0.7818609E-02  0.8272836E-01
       -1   -1    0    0    0  501  0.00000000000E+00  0.00000000000E+00  0.99986870540E+03  0.99986870541E+03  0.50400001928E-02 0.  1.
        1   -1    0    0  501    0  0.00000000000E+00  0.00000000000E+00 -0.21029789059E+04  0.21029789059E+04  0.50400001928E-02 0. -1.
    10030    2    1    2    0    0  0.00000000000E+00  0.00000000000E+00 -0.11031102005E+04  0.31028476113E+04  0.29001398560E+04 0.  0.
        5    1    3    3  502    0  0.37288532419E+02  0.62299538913E+03 -0.19519204534E+04  0.20492752953E+04  0.46999998093E+01 0. -1.
       -5    1    3    3    0  502 -0.37288532419E+02 -0.62299538913E+03  0.84881025294E+03  0.10535723160E+04  0.46999998093E+01 0.  1.
</event>
<event>
 5   0  0.9950999E-07  0.2888524E+04  0.7818609E-02  0.8276300E-01
        2   -1    0    0  501    0  0.00000000000E+00  0.00000000000E+00  0.30346827585E+04  0.30346827585E+04  0.25500000920E-02 0. -1.
       -2   -1    0    0    0  501  0.00000000000E+00  0.00000000000E+00 -0.68735122361E+03  0.68735122361E+03  0.25500000920E-02 0.  1.
    10030    2    1    2    0    0  0.00000000000E+00  0.00000000000E+00  0.23473315349E+04  0.37220339822E+04  0.28885241265E+04 0.  0.
        3    1    3    3  502    0  0.81711657210E+03 -0.15907952719E+03 -0.34711079930E+03  0.90192666308E+03  0.10100000352E+00 0.  1.
       -3    1    3    3    0  502 -0.81711657210E+03  0.15907952719E+03  0.26944423342E+04  0.28201073191E+04  0.10100000352E+00 0. -1.
</event>
<event>
 5   0  0.3638028E-07  0.2895531E+04  0.7818609E-02  0.8274208E-01
        1   -1    0    0  501    0  0.00000000000E+00  0.00000000000E+00  0.21028663866E+04  0.21028663866E+04  0.50400001928E-02 0. -1.
       -1   -1    0    0    0  501  0.00000000000E+00  0.00000000000E+00 -0.99674636717E+03  0.99674636718E+03  0.50400001928E-02 0.  1.
    10030    2    1    2    0    0  0.00000000000E+00  0.00000000000E+00  0.11061200194E+04  0.30996127538E+04  0.28955306467E+04 0.  0.
        4    1    3    3  502    0  0.63733902731E+03 -0.82513120220E+03  0.16283376446E+04  0.19335272520E+04  0.12699999809E+01 0. -1.
       -4    1    3    3    0  502 -0.63733902731E+03  0.82513120220E+03 -0.52221762515E+03  0.11660855018E+04  0.12699999809E+01 0.  1.
</event>
<event>
 5   0  0.3786210E-07  0.2898351E+04  0.7818609E-02  0.8273368E-01
       -1   -1    0    0    0  501  0.00000000000E+00  0.00000000000E+00  0.92131454230E+03  0.92131454231E+03  0.50400001928E-02 0.  1.
        1   -1    0    0  501    0  0.00000000000E+00  0.00000000000E+00 -0.22794704140E+04  0.22794704140E+04  0.50400001928E-02 0. -1.
    10030    2    1    2    0    0  0.00000000000E+00  0.00000000000E+00 -0.13581558717E+04  0.32007849564E+04  0.28983507319E+04 0.  0.
        5    1    3    3  502    0 -0.73933199714E+03  0.20212639752E+03 -0.20372991714E+04  0.21767124032E+04  0.46999998093E+01 0. -1.
       -5    1    3    3    0  502  0.73933199714E+03 -0.20212639752E+03  0.67914329967E+03  0.10240725531E+04  0.46999998093E+01 0.  1.
</event>
<event>
 5   0  0.1031339E-06  0.2901389E+04  0.7818609E-02  0.8272464E-01
       -2   -1    0    0    0  501  0.00000000000E+00  0.00000000000E+00  0.12043455873E+04  0.12043455873E+04  0.25500000920E-02 0. -1.
        2   -1    0    0  501    0  0.00000000000E+00  0.00000000000E+00 -0.17474343317E+04  0.17474343317E+04  0.25500000920E-02 0.  1.
    10030    2    1    2    0    0  0.00000000000E+00  0.00000000000E+00 -0.54308874440E+03  0.29517799190E+04  0.29013892028E+04 0.  0.
        5    1    3    3  502    0  0.12133676656E+04  0.45280493483E+03  0.39341217682E+03  0.13535466862E+04  0.46999998093E+01 0. -1.
       -5    1    3    3    0  502 -0.12133676656E+04 -0.45280493483E+03 -0.93650092122E+03  0.15982332328E+04  0.46999998093E+01 0.  1.
</event>
<event>
 5   0  0.3770467E-07  0.2898767E+04  0.7818609E-02  0.8273244E-01
       -1   -1    0    0    0  501  0.00000000000E+00  0.00000000000E+00  0.15982799681E+04  0.15982799681E+04  0.50400001928E-02 0. -1.
        1   -1    0    0  501    0  0.00000000000E+00  0.00000000000E+00 -0.13143585345E+04  0.13143585346E+04  0.50400001928E-02 0.  1.
    10030    2    1    2    0    0  0.00000000000E+00  0.00000000000E+00  0.28392143355E+03  0.29126385027E+04  0.28987672667E+04 0.  0.
        1    1    3    3  502    0 -0.92167080979E+03  0.17113411074E+03 -0.96874694873E+03  0.13480484473E+04  0.50400001928E-02 0.  1.
       -1    1    3    3    0  502  0.92167080979E+03 -0.17113411074E+03  0.12526683823E+04  0.15645900554E+04  0.50400001928E-02 0. -1.
</event>
<event>
 5   0  0.1031339E-06  0.2896570E+04  0.7818609E-02  0.8273899E-01
       -2   -1    0    0    0  501  0.00000000000E+00  0.00000000000E+00  0.12346265535E+04  0.12346265535E+04  0.25500000920E-02 0.  1.
        2   -1    0    0  501    0  0.00000000000E+00  0.00000000000E+00 -0.16989184073E+04  0.16989184073E+04  0.25500000920E-02 0. -1.
    10030    2    1    2    0    0  0.00000000000E+00  0.00000000000E+00 -0.46429185379E+03  0.29335449608E+04  0.28965702324E+04 0.  0.
        5    1    3    3  502    0  0.26577310659E+03  0.90209651364E+03  0.88331908604E+03  0.12902279496E+04  0.46999998093E+01 0.  1.
       -5    1    3    3    0  502 -0.26577310659E+03 -0.90209651364E+03 -0.13476109398E+04  0.16433170112E+04  0.46999998093E+01 0. -1.
</event>
<event>
 5   0  0.3885904E-07  0.2899616E+04  0.7818609E-02  0.8272992E-01
       -1   -1    0    0    0  501  0.00000000000E+00  0.00000000000E+00  0.31186344157E+04  0.31186344157E+04  0.50400001928E-02 0.  1.
        1   -1    0    0  501    0  0.00000000000E+00  0.00000000000E+00 -0.67399490394E+03  0.67399490396E+03  0.50400001928E-02 0. -1.
    10030    2    1    2    0    0  0.00000000000E+00  0.00000000000E+00  0.24446395118E+04  0.37926293197E+04  0.28996163219E+04 0.  0.
        2    1    3    3  502    0 -0.97207599041E+03  0.10204965943E+04  0.16670291333E+04  0.21829638479E+04  0.25500000920E-02 0.  1.
       -2    1    3    3    0  502  0.97207599041E+03 -0.10204965943E+04  0.77761037847E+03  0.16096654717E+04  0.25500000920E-02 0. -1.
</event>
<event>
 5   0  0.3769563E-07  0.2903164E+04  0.7818609E-02  0.8271937E-01
        1   -1    0    0  501    0  0.00000000000E+00  0.00000000000E+00  0.14967145134E+04  0.14967145134E+04  0.50400001928E-02 0. -1.
       -1   -1    0    0    0  501  0.00000000000E+00  0.00000000000E+00 -0.14078109016E+04  0.14078109016E+04  0.50400001928E-02 0.  1.
    10030    2    1    2    0    0  0.00000000000E+00  0.00000000000E+00  0.88903611821E+02  0.29045254150E+04  0.29031644862E+04 0.  0.
        3    1    3    3  502    0 -0.14002836614E+04  0.37542687992E+03 -0.28735228067E+02  0.14500225509E+04  0.10100000352E+00 0.  1.
       -3    1    3    3    0  502  0.14002836614E+04 -0.37542687992E+03  0.11763883989E+03  0.14545028640E+04  0.10100000352E+00 0. -1.
</event>
<event>
 5   0  0.3786210E-07  0.2894632E+04  0.7818609E-02  0.8274476E-01
       -1   -1    0    0    0  501  0.00000000000E+00  0.00000000000E+00  0.12514075715E+04  0.12514075715E+04  0.50400001928E-02 0. -1.
        1   -1    0    0  501    0  0.00000000000E+00  0.00000000000E+00 -0.16738945133E+04  0.16738945133E+04  0.50400001928E-02 0.  1.
    10030    2    1    2    0    0  0.00000000000E+00  0.00000000000E+00 -0.42248694173E+03  0.29253020848E+04  0.28946324588E+04 0.  0.
        5    1    3    3  502    0  0.72578106732E+03  0.93713364858E+03  0.62805249100E+03  0.13414356691E+04  0.46999998093E+01 0. -1.
       -5    1    3    3    0  502 -0.72578106732E+03 -0.93713364858E+03 -0.10505394327E+04  0.15838664157E+04  0.46999998093E+01 0.  1.
</event>
<event>
 5   0  0.9994311E-07  0.2903393E+04  0.7818609E-02  0.8271869E-01
       -2   -1    0    0    0  501  0.00000000000E+00  0.00000000000E+00  0.91997008667E+03  0.91997008668E+03  0.25500000920E-02 0.  1.
        2   -1    0    0  501    0  0.00000000000E+00  0.00000000000E+00 -0.22907518588E+04  0.22907518589E+04  0.25500000920E-02 0. -1.
    10030    2    1    2    0    0  0.00000000000E+00  0.00000000000E+00 -0.13707817722E+04  0.32107219455E+04  0.29033933155E+04 0.  0.
        2    1    3    3  502    0  0.82034855954E+03  0.38781575575E+03  0.56771524093E+03  0.10703613476E+04  0.25500000920E-02 0.  1.
       -2    1    3    3    0  502 -0.82034855954E+03 -0.38781575575E+03 -0.19384970131E+04  0.21403605980E+04  0.25500000920E-02 0. -1.
</event>
<event>
 5   0  0.1063979E-06  0.2897525E+04  0.7818609E-02  0.8273614E-01
        2   -1    0    0  501    0  0.00000000000E+00  0.00000000000E+00  0.10298336366E+04  0.10298336366E+04  0.25500000920E-02 0.  1.
       -2   -1    0    0    0  501  0.00000000000E+00  0.00000000000E+00 -0.20381080884E+04  0.20381080884E+04  0.25500000920E-02 0. -1.
    10030    2    1    2    0    0  0.00000000000E+00  0.00000000000E+00 -0.10082744519E+04  0.30679417250E+04  0.28975246432E+04 0.  0.
        1    1    3    3  502    0  0.12995535021E+03  0.75597216715E+03  0.79718437444E+03  0.11062934680E+04  0.50400001928E-02 0.  1.
       -1    1    3    3    0  502 -0.12995535021E+03 -0.75597216715E+03 -0.18054588263E+04  0.19616482570E+04  0.50400001928E-02 0. -1.
</event>
<event>
 5   0  0.3770467E-07  0.2900652E+04  0.7818609E-02  0.8272683E-01
       -1   -1    0    0    0  501  0.00000000000E+00  0.00000000000E+00  0.12749313506E+04  0.12749313506E+04  0.50400001928E-02 0. -1.
        1   -1    0    0  501    0  0.00000000000E+00  0.00000000000E+00 -0.16498504670E+04  0.16498504670E+04  0.50400001928E-02 0.  1.
    10030    2    1    2    0    0  0.00000000000E+00  0.00000000000E+00 -0.37491911642E+03  0.29247818175E+04  0.29006523984E+04 0.  0.
        1    1    3    3  502    0  0.95271446259E+03 -0.85385397952E+03  0.50138857896E+03  0.13740895068E+04  0.50400001928E-02 0. -1.
       -1    1    3    3    0  502 -0.95271446259E+03  0.85385397952E+03 -0.87630769538E+03  0.15506923107E+04  0.50400001928E-02 0.  1.
</event>
<event>
 5   0  0.3769563E-07  0.2900943E+04  0.7818609E-02  0.8272597E-01
       -1   -1    0    0    0  501  0.00000000000E+00  0.00000000000E+00  0.92023234472E+03  0.92023234474E+03  0.50400001928E-02 0. -1.
        1   -1    0    0  501    0  0.00000000000E+00  0.00000000000E+00 -0.22862350499E+04  0.22862350499E+04  0.50400001928E-02 0.  1.
    10030    2    1    2    0    0  0.00000000000E+00  0.00000000000E+00 -0.13660027051E+04  0.32064673946E+04  0.29009429092E+04 0.  0.
        3    1    3    3  502    0 -0.10062049188E+04  0.98204017917E+03 -0.10769296387E+04  0.17710529945E+04  0.10100000352E+00 0.  1.
       -3    1    3    3    0  502  0.10062049188E+04 -0.98204017917E+03 -0.28907306641E+03  0.14354144001E+04  0.10100000352E+00 0. -1.
</event>
<event>
 5   0  0.3769563E-07  0.2903474E+04  0.7818609E-02  0.8271845E-01
       -1   -1    0    0    0  501  0.00000000000E+00  0.00000000000E+00  0.18608364010E+04  0.18608364010E+04  0.50400001928E-02 0. -1.
        1   -1    0    0  501    0  0.00000000000E+00  0.00000000000E+00 -0.11325769566E+04  0.11325769566E+04  0.50400001928E-02 0.  1.
    10030    2    1    2    0    0  0.00000000000E+00  0.00000000000E+00  0.72825944441E+03  0.29934133576E+04  0.29034740762E+04 0.  0.
        3    1    3    3  502    0 -0.74586116332E+03 -0.48682955442E+03 -0.81777967193E+03  0.12091631371E+04  0.10100000352E+00 0.  1.
       -3    1    3    3    0  502  0.74586116332E+03  0.48682955442E+03  0.15460391163E+04  0.17842502205E+04  0.10100000352E+00 0. -1.
</event>
<event>
 5   0  0.3885904E-07  0.2902792E+04  0.7818609E-02  0.8272047E-01
        1   -1    0    0  501    0  0.00000000000E+00  0.00000000000E+00  0.21766303823E+04  0.21766303823E+04  0.50400001928E-02 0. -1.
       -1   -1    0    0    0  501  0.00000000000E+00  0.00000000000E+00 -0.96780367543E+03  0.96780367545E+03  0.50400001928E-02 0.  1.
    10030    2    1    2    0    0  0.00000000000E+00  0.00000000000E+00  0.12088267068E+04  0.31444340577E+04  0.29027923688E+04 0.  0.
        2    1    3    3  502    0  0.12464313249E+04  0.34065591541E+03  0.13204317702E+04  0.18474787036E+04  0.25500000920E-02 0. -1.
       -2    1    3    3    0  502 -0.12464313249E+04 -0.34065591541E+03 -0.11160506336E+03  0.12969553541E+04  0.25500000920E-02 0.  1.
</event>
<event>
 5   0  0.1063979E-06  0.2903120E+04  0.7818609E-02  0.8271950E-01
       -2   -1    0    0    0  501  0.00000000000E+00  0.00000000000E+00  0.15822960334E+04  0.15822960334E+04  0.25500000920E-02 0.  1.
        2   -1    0    0  501    0  0.00000000000E+00  0.00000000000E+00 -0.13316257820E+04  0.13316257820E+04  0.25500000920E-02 0. -1.
    10030    2    1    2    0    0  0.00000000000E+00  0.00000000000E+00  0.25067025145E+03  0.29139218154E+04  0.29031198342E+04 0.  0.
        1    1    3    3  502    0 -0.12329229896E+04  0.76213295824E+03  0.47067756306E+02  0.14502279539E+04  0.50400001928E-02 0. -1.
       -1    1    3    3    0  502  0.12329229896E+04 -0.76213295824E+03  0.20360249514E+03  0.14636938616E+04  0.50400001928E-02 0.  1.
</event>
<event>
 5   0  0.9950999E-07  0.2901433E+04  0.7818609E-02  0.8272451E-01
        2   -1    0    0  501    0  0.00000000000E+00  0.00000000000E+00  0.16399427277E+04  0.16399427277E+04  0.25500000920E-02 0.  1.
       -2   -1    0    0    0  501  0.00000000000E+00  0.00000000000E+00 -0.12833247247E+04  0.12833247247E+04  0.25500000920E-02 0. -1.
    10030    2    1    2    0    0  0.00000000000E+00  0.00000000000E+00  0.35661800302E+03  0.29232674524E+04  0.29014334729E+04 0.  0.
        3    1    3    3  502    0  0.13450318508E+04  0.54301152873E+03  0.20312848769E+03  0.14646615284E+04  0.10100000352E+00 0. -1.
       -3    1    3    3    0  502 -0.13450318508E+04 -0.54301152873E+03  0.15348951533E+03  0.14586059240E+04  0.10100000352E+00 0.  1.
</event>
<event>
 5   0  0.3769563E-07  0.2875127E+04  0.7818609E-02  0.8280317E-01
       -1   -1    0    0    0  501  0.00000000000E+00  0.00000000000E+00  0.98933385881E+03  0.98933385882E+03  0.50400001928E-02 0. -1.
        1   -1    0    0  501    0  0.00000000000E+00  0.00000000000E+00 -0.20888686892E+04  0.20888686892E+04  0.50400001928E-02 0.  1.
    10030    2    1    2    0    0  0.00000000000E+00  0.00000000000E+00 -0.10995348304E+04  0.30782025480E+04  0.28751267943E+04 0.  0.
        3    1    3    3  502    0  0.13371236753E+04 -0.24875095891E+03 -0.51248551042E+02  0.13610301932E+04  0.10100000352E+00 0.  1.
       -3    1    3    3    0  502 -0.13371236753E+04  0.24875095891E+03 -0.10482862794E+04  0.17171723548E+04  0.10100000352E+00 0. -1.
</event>
<event>
 5   0  0.1006893E-06  0.2898485E+04  0.7818609E-02  0.8273328E-01
        2   -1    0    0  501    0  0.00000000000E+00  0.00000000000E+00  0.19773629044E+04  0.19773629044E+04  0.25500000920E-02 0. -1.
       -2   -1    0    0    0  501  0.00000000000E+00  0.00000000000E+00 -0.10621743610E+04  0.10621743610E+04  0.25500000920E-02 0.  1.
    10030    2    1    2    0    0  0.00000000000E+00  0.00000000000E+00  0.91518854340E+03  0.30395372654E+04  0.28984852454E+04 0.  0.
        4    1    3    3  502    0 -0.25421982851E+03  0.46579161483E+03  0.18718191274E+04  0.19455842331E+04  0.12699999809E+01 0. -1.
       -4    1    3    3    0  502  0.25421982851E+03 -0.46579161483E+03 -0.95663058398E+03  0.10939530322E+04  0.12699999809E+01 0.  1.
</event>
<event>
 5   0  0.3769563E-07  0.2892147E+04  0.7818609E-02  0.8275218E-01
        1   -1    0    0  501    0  0.00000000000E+00  0.00000000000E+00  0.59479588107E+03  0.59479588109E+03  0.50400001928E-02 0.  1.
       -1   -1    0    0    0  501  0.00000000000E+00  0.00000000000E+00 -0.35157079833E+04  0.35157079833E+04  0.50400001928E-02 0. -1.
    10030    2    1    2    0    0  0.00000000000E+00  0.00000000000E+00 -0.29209121022E+04  0.41105038644E+04  0.28921470416E+04 0.  0.
        3    1    3    3  502    0 -0.39682563347E+03 -0.80189911281E+03 -0.30750866853E+04  0.32026037692E+04  0.10100000352E+00 0. -1.
       -3    1    3    3    0  502  0.39682563347E+03  0.80189911281E+03  0.15417458306E+03  0.90790009515E+03  0.10100000352E+00 0.  1.
</event>
<event>
 5   0  0.3769563E-07  0.2895537E+04  0.7818609E-02  0.8274207E-01
        1   -1    0    0  501    0  0.00000000000E+00  0.00000000000E+00  0.22513057189E+04  0.22513057189E+04  0.50400001928E-02 0. -1.
       -1   -1    0    0    0  501  0.00000000000E+00  0.00000000000E+00 -0.93103036772E+03  0.93103036773E+03  0.50400001928E-02 0.  1.
    10030    2    1    2    0    0  0.00000000000E+00  0.00000000000E+00  0.13202753512E+04  0.31823360866E+04  0.28955372499E+04 0.  0.
        3    1    3    3  502    0  0.61319811649E+03 -0.10972355766E+04  0.14496923206E+04  0.19187354365E+04  0.10100000352E+00 0. -1.
       -3    1    3    3    0  502 -0.61319811649E+03  0.10972355766E+04 -0.12941696947E+03  0.12636006501E+04  0.10100000352E+00 0.  1.
</event>
<event>
 5   0  0.9950999E-07  0.2897566E+04  0.7818609E-02  0.8273602E-01
       -2   -1    0    0    0  501  0.00000000000E+00  0.00000000000E+00  0.18891649664E+04  0.18891649664E+04  0.25500000920E-02 0. -1.
        2   -1    0    0  501    0  0.00000000000E+00  0.00000000000E+00 -0.11110580927E+04  0.11110580927E+04  0.25500000920E-02 0.  1.
    10030    2    1    2    0    0  0.00000000000E+00  0.00000000000E+00  0.77810687370E+03  0.30002230591E+04  0.28975658918E+04 0.  0.
        3    1    3    3  502    0  0.27832488414E+03 -0.18325607120E+03 -0.10708366694E+04  0.11214895057E+04  0.10100000352E+00 0.  1.
       -3    1    3    3    0  502 -0.27832488414E+03  0.18325607120E+03  0.18489435431E+04  0.18787335534E+04  0.10100000352E+00 0. -1.
</event>
<event>
 5   0  0.3638028E-07  0.2903404E+04  0.7818609E-02  0.8271866E-01
        1   -1    0    0  501    0  0.00000000000E+00  0.00000000000E+00  0.20561677976E+04  0.20561677976E+04  0.50400001928E-02 0. -1.
       -1   -1    0    0    0  501  0.00000000000E+00  0.00000000000E+00 -0.10249349215E+04  0.10249349215E+04  0.50400001928E-02 0.  1.
    10030    2    1    2    0    0  0.00000000000E+00  0.00000000000E+00  0.10312328761E+04  0.30811027191E+04  0.29034036442E+04 0.  0.
        4    1    3    3  502    0 -0.56917812761E+03  0.11805288983E+04 -0.14695580708E+03  0.13187910535E+04  0.12699999809E+01 0.  1.
       -4    1    3    3    0  502  0.56917812761E+03 -0.11805288983E+04  0.11781886832E+04  0.17623116656E+04  0.12699999809E+01 0. -1.
</event>
<event>
 5   0  0.3769563E-07  0.2901289E+04  0.7818609E-02  0.8272494E-01
        1   -1    0    0  501    0  0.00000000000E+00  0.00000000000E+00  0.18724792408E+04  0.18724792408E+04  0.50400001928E-02 0.  1.
       -1   -1    0    0    0  501  0.00000000000E+00  0.00000000000E+00 -0.11238415565E+04  0.11238415565E+04  0.50400001928E-02 0. -1.
    10030    2    1    2    0    0  0.00000000000E+00  0.00000000000E+00  0.74863768436E+03  0.29963207973E+04  0.29012893579E+04 0.  0.
        3    1    3    3  502    0  0.30925019335E+03  0.10943040369E+04  0.13045054003E+04  0.17305696626E+04  0.10100000352E+00 0.  1.
       -3    1    3    3    0  502 -0.30925019335E+03 -0.10943040369E+04 -0.55586771599E+03  0.12657511348E+04  0.10100000352E+00 0. -1.
</event>
<event>
 5   0  0.9994311E-07  0.2897677E+04  0.7818609E-02  0.8273569E-01
        2   -1    0    0  501    0  0.00000000000E+00  0.00000000000E+00  0.27418246937E+04  0.27418246937E+04  0.25500000920E-02 0.  1.
       -2   -1    0    0    0  501  0.00000000000E+00  0.00000000000E+00 -0.76559683804E+03  0.76559683804E+03  0.25500000920E-02 0. -1.
    10030    2    1    2    0    0  0.00000000000E+00  0.00000000000E+00  0.19762278557E+04  0.35074215318E+04  0.28976765285E+04 0.  0.
        2    1    3    3  502    0  0.46652132280E+03 -0.10732531672E+04 -0.45803305503E+02  0.11711585923E+04  0.25500000920E-02 0. -1.
       -2    1    3    3    0  502 -0.46652132280E+03  0.10732531672E+04  0.20220311612E+04  0.23362629395E+04  0.25500000920E-02 0.  1.
</event>
<event>
 5   0  0.3638028E-07  0.2899617E+04  0.7818609E-02  0.8272991E-01
        1   -1    0    0  501    0  0.00000000000E+00  0.00000000000E+00  0.73901612866E+03  0.73901612868E+03  0.50400001928E-02 0.  1.
       -1   -1    0    0    0  501  0.00000000000E+00  0.00000000000E+00 -0.28442474923E+04  0.28442474923E+04  0.50400001928E-02 0. -1.
    10030    2    1    2    0    0  0.00000000000E+00  0.00000000000E+00 -0.21052313637E+04  0.35832636210E+04  0.28996170580E+04 0.  0.
        4    1    3    3  502    0  0.77260683271E+03  0.26428702112E+03 -0.25330543677E+04  0.26614159746E+04  0.12699999809E+01 0. -1.
       -4    1    3    3    0  502 -0.77260683271E+03 -0.26428702112E+03  0.42782300401E+03  0.92184764639E+03  0.12699999809E+01 0.  1.
</event>
<event>
 5   0  0.1063979E-06  0.2897939E+04  0.7818609E-02  0.8273491E-01
       -2   -1    0    0    0  501  0.00000000000E+00  0.00000000000E+00  0.91199710722E+03  0.91199710722E+03  0.25500000920E-02 0.  1.
        2   -1    0    0  501    0  0.00000000000E+00  0.00000000000E+00 -0.23021045157E+04  0.23021045157E+04  0.25500000920E-02 0. -1.
    10030    2    1    2    0    0  0.00000000000E+00  0.00000000000E+00 -0.13901074085E+04  0.32141016230E+04  0.28979390324E+04 0.  0.
        1    1    3    3  502    0 -0.12606868198E+03  0.96577495864E+03 -0.18848943253E+04  0.21216600106E+04  0.50400001928E-02 0. -1.
       -1    1    3    3    0  502  0.12606868198E+03 -0.96577495864E+03  0.49478691675E+03  0.10924416123E+04  0.50400001928E-02 0.  1.
</event>
<event>
 5   0  0.3885904E-07  0.2898156E+04  0.7818609E-02  0.8273426E-01
        1   -1    0    0  501    0  0.00000000000E+00  0.00000000000E+00  0.13915972684E+04  0.13915972685E+04  0.50400001928E-02 0.  1.
       -1   -1    0    0    0  501  0.00000000000E+00  0.00000000000E+00 -0.15089332579E+04  0.15089332580E+04  0.50400001928E-02 0. -1.
    10030    2    1    2    0    0  0.00000000000E+00  0.00000000000E+00 -0.11733598949E+03  0.29005305264E+04  0.28981562415E+04 0.  0.
        2    1    3    3  502    0  0.84658899547E+03  0.18672545647E+03 -0.12207600989E+04  0.14972757069E+04  0.25500000920E-02 0. -1.
       -2    1    3    3    0  502 -0.84658899547E+03 -0.18672545647E+03  0.11034241094E+04  0.14032548195E+04  0.25500000920E-02 0.  1.
</event>
<event>
 5   0  0.3638028E-07  0.2899294E+04  0.7818609E-02  0.8273088E-01
       -1   -1    0    0    0  501  0.00000000000E+00  0.00000000000E+00  0.12119307493E+04  0.12119307493E+04  0.50400001928E-02 0. -1.
        1   -1    0    0  501    0  0.00000000000E+00  0.00000000000E+00 -0.17339902919E+04  0.17339902919E+04  0.50400001928E-02 0.  1.
    10030    2    1    2    0    0  0.00000000000E+00  0.00000000000E+00 -0.52205954260E+03  0.29459210412E+04  0.28992938131E+04 0.  0.
        4    1    3    3  502    0 -0.14418002316E+04 -0.10373404138E+03 -0.15006781115E+03  0.14532964667E+04  0.12699999809E+01 0. -1.
       -4    1    3    3    0  502  0.14418002316E+04  0.10373404138E+03 -0.37199173145E+03  0.14926245745E+04  0.12699999809E+01 0.  1.
</event>
<event>
 5   0  0.9950999E-07  0.2897415E+04  0.7818609E-02  0.8273647E-01
       -2   -1    0    0    0  501  0.00000000000E+00  0.00000000000E+00  0.12266523770E+04  0.12266523770E+04  0.25500000920E-02 0. -1.
        2   -1    0    0  501    0  0.00000000000E+00  0.00000000000E+00 -0.17109599860E+04  0.17109599860E+04  0.25500000920E-02 0.  1.
    10030    2    1    2    0    0  0.00000000000E+00  0.00000000000E+00 -0.48430760901E+03  0.29376123629E+04  0.28974148020E+04 0.  0.
        3    1    3    3  502    0  0.11543013002E+04  0.86370623972E+03 -0.38679758751E+03  0.14926527875E+04  0.10100000352E+00 0.  1.
       -3    1    3    3    0  502 -0.11543013002E+04 -0.86370623972E+03 -0.97510021503E+02  0.14449595754E+04  0.10100000352E+00 0. -1.
</event>
<event>
 5   0  0.3769563E-07  0.2896804E+04  0.7818609E-02  0.8273829E-01
       -1   -1    0    0    0  501  0.00000000000E+00  0.00000000000E+00  0.16514147977E+04  0.16514147977E+04  0.50400001928E-02 0. -1.
        1   -1    0    0  501    0  0.00000000000E+00  0.00000000000E+00 -0.12703464361E+04  0.12703464361E+04  0.50400001928E-02 0.  1.
    10030    2    1    2    0    0  0.00000000000E+00  0.00000000000E+00  0.38106836161E+03  0.29217612338E+04  0.28968043792E+04 0.  0.
        3    1    3    3  502    0  0.92760991209E+03  0.59113346558E+03  0.11409741541E+04  0.15848409869E+04  0.10100000352E+00 0. -1.
       -3    1    3    3    0  502 -0.92760991209E+03 -0.59113346558E+03 -0.75990579246E+03  0.13369202470E+04  0.10100000352E+00 0.  1.
</event>
<event>
 5   0  0.9994311E-07  0.2931185E+04  0.7818609E-02  0.8263659E-01
        2   -1    0    0  501    0  0.00000000000E+00  0.00000000000E+00  0.19461991234E+04  0.19461991234E+04  0.25500000920E-02 0. -1.
       -2   -1    0    0    0  501  0.00000000000E+00  0.00000000000E+00 -0.11036695772E+04  0.11036695772E+04  0.25500000920E-02 0.  1.
    10030    2    1    2    0    0  0.00000000000E+00  0.00000000000E+00  0.84252954617E+03  0.30498687006E+04  0.29311845821E+04 0.  0.
        2    1    3    3  502    0  0.13102400534E+04  0.55521584257E+02 -0.25956024007E+03  0.13368556998E+04  0.25500000920E-02 0.  1.
       -2    1    3    3    0  502 -0.13102400534E+04 -0.55521584257E+02  0.11020897862E+04  0.17130130008E+04  0.25500000920E-02 0. -1.
</event>
<event>
 5   0  0.9950999E-07  0.2906309E+04  0.7818609E-02  0.8271003E-01
       -2   -1    0    0    0  501  0.00000000000E+00  0.00000000000E+00  0.13086518784E+04  0.13086518784E+04  0.25500000920E-02 0.  1.
        2   -1    0    0  501    0  0.00000000000E+00  0.00000000000E+00 -0.16136133611E+04  0.16136133611E+04  0.25500000920E-02 0. -1.
    10030    2    1    2    0    0  0.00000000000E+00  0.00000000000E+00 -0.30496148271E+03  0.29222652394E+04  0.29063091067E+04 0.  0.
        3    1    3    3  502    0  0.21363337360E+03  0.99201132092E+02  0.12893297790E+04  0.13106682922E+04  0.10100000352E+00 0.  1.
       -3    1    3    3    0  502 -0.21363337360E+03 -0.99201132092E+02 -0.15942912617E+04  0.16115969472E+04  0.10100000352E+00 0. -1.
</event>
<event>
 5   0  0.9994311E-07  0.2899020E+04  0.7818609E-02  0.8273169E-01
       -2   -1    0    0    0  501  0.00000000000E+00  0.00000000000E+00  0.26634357134E+04  0.26634357134E+04  0.25500000920E-02 0.  1.
        2   -1    0    0  501    0  0.00000000000E+00  0.00000000000E+00 -0.78886037703E+03  0.78886037704E+03  0.25500000920E-02 0. -1.
    10030    2    1    2    0    0  0.00000000000E+00  0.00000000000E+00  0.18745753363E+04  0.34522960904E+04  0.28990197661E+04 0.  0.
        2    1    3    3  502    0  0.21436205641E+02  0.14402753475E+04  0.74443507472E+03  0.16214302847E+04  0.25500000920E-02 0. -1.
       -2    1    3    3    0  502 -0.21436205641E+02 -0.14402753475E+04  0.11301402616E+04  0.18308658057E+04  0.25500000920E-02 0.  1.
</event>
<event>
 5   0  0.9994311E-07  0.2898239E+04  0.7818609E-02  0.8273401E-01
       -2   -1    0    0    0  501  0.00000000000E+00  0.00000000000E+00  0.87193476621E+03  0.87193476622E+03  0.25500000920E-02 0. -1.
        2   -1    0    0  501    0  0.00000000000E+00  0.00000000000E+00 -0.24083773929E+04  0.24083773929E+04  0.25500000920E-02 0.  1.
    10030    2    1    2    0    0  0.00000000000E+00  0.00000000000E+00 -0.15364426266E+04  0.32803121591E+04  0.28982394511E+04 0.  0.
        2    1    3    3  502    0  0.13661789130E+04  0.40743609422E+03 -0.47416565963E+03  0.15024253945E+04  0.25500000920E-02 0.  1.
       -2    1    3    3    0  502 -0.13661789130E+04 -0.40743609422E+03 -0.10622769670E+04  0.17778867646E+04  0.25500000920E-02 0. -1.
</event>
<event>
 5   0  0.3786210E-07  0.2897732E+04  0.7818609E-02  0.8273553E-01
        1   -1    0    0  501    0  0.00000000000E+00  0.00000000000E+00  0.10692374151E+04  0.10692374151E+04  0.50400001928E-02 0. -1.
       -1   -1    0    0    0  501  0.00000000000E+00  0.00000000000E+00 -0.19632800897E+04  0.19632800897E+04  0.50400001928E-02 0.  1.
    10030    2    1    2    0    0  0.00000000000E+00  0.00000000000E+00 -0.89404267464E+03  0.30325175048E+04  0.28977318911E+04 0.  0.
        5    1    3    3  502    0  0.86848886997E+03  0.49829455689E+03  0.64888441896E+03  0.11931653120E+04  0.46999998093E+01 0. -1.
       -5    1    3    3    0  502 -0.86848886997E+03 -0.49829455689E+03 -0.15429270936E+04  0.18393521927E+04  0.46999998093E+01 0.  1.
</event>
<event>
 5   0  0.3638028E-07  0.2899721E+04  0.7818609E-02  0.8272961E-01
       -1   -1    0    0    0  501  0.00000000000E+00  0.00000000000E+00  0.17847947341E+04  0.17847947341E+04  0.50400001928E-02 0.  1.
        1   -1    0    0  501    0  0.00000000000E+00  0.00000000000E+00 -0.11777798490E+04  0.11777798490E+04  0.50400001928E-02 0. -1.
    10030    2    1    2    0    0  0.00000000000E+00  0.00000000000E+00  0.60701488515E+03  0.29625745831E+04  0.28997208641E+04 0.  0.
        4    1    3    3  502    0  0.11475798924E+04 -0.84602618600E+03  0.34370537177E+02  0.14261426519E+04  0.12699999809E+01 0. -1.
       -4    1    3    3    0  502 -0.11475798924E+04  0.84602618600E+03  0.57264434797E+03  0.15364319312E+04  0.12699999809E+01 0.  1.
</event>
<event>
 5   0  0.9994311E-07  0.2910280E+04  0.7818609E-02  0.8269825E-01
       -2   -1    0    0    0  501  0.00000000000E+00  0.00000000000E+00  0.10496659041E+04  0.10496659041E+04  0.25500000920E-02 0. -1.
        2   -1    0    0  501    0  0.00000000000E+00  0.00000000000E+00 -0.20172446688E+04  0.20172446688E+04  0.25500000920E-02 0.  1.
    10030    2    1    2    0    0  0.00000000000E+00  0.00000000000E+00 -0.96757876479E+03  0.30669105729E+04  0.29102803638E+04 0.  0.
        2    1    3    3  502    0  0.20223229400E+02  0.10907340686E+04  0.53101383926E+03  0.12132952999E+04  0.25500000920E-02 0. -1.
       -2    1    3    3    0  502 -0.20223229400E+02 -0.10907340686E+04 -0.14985926040E+04  0.18536152730E+04  0.25500000920E-02 0.  1.
</event>
<event>
 5   0  0.9994311E-07  0.2899083E+04  0.7818609E-02  0.8273150E-01
        2   -1    0    0  501    0  0.00000000000E+00  0.00000000000E+00  0.22200520751E+04  0.22200520751E+04  0.25500000920E-02 0.  1.
       -2   -1    0    0    0  501  0.00000000000E+00  0.00000000000E+00 -0.94645121246E+03  0.94645121246E+03  0.25500000920E-02 0. -1.
    10030    2    1    2    0    0  0.00000000000E+00  0.00000000000E+00  0.12736008626E+04  0.31665032876E+04  0.28990832884E+04 0.  0.
        2    1    3    3  502    0  0.15683443114E+03  0.61292837915E+03  0.20612848877E+04  0.21561942457E+04  0.25500000920E-02 0.  1.
       -2    1    3    3    0  502 -0.15683443114E+03 -0.61292837915E+03 -0.78768402507E+03  0.10103090419E+04  0.25500000920E-02 0. -1.
</event>
<event>
 5   0  0.3378750E-07  0.2914860E+04  0.7818609E-02  0.8268470E-01
       -3   -1    0    0    0  501  0.00000000000E+00  0.00000000000E+00  0.81926866091E+03  0.81926866714E+03  0.10100000352E+00 0.  1.
        3   -1    0    0  501    0  0.00000000000E+00  0.00000000000E+00 -0.25926806869E+04  0.25926806888E+04  0.10100000352E+00 0. -1.
    10030    2    1    2    0    0  0.00000000000E+00  0.00000000000E+00 -0.17734120260E+04  0.34119493560E+04  0.29148598927E+04 0.  0.
        5    1    3    3  502    0 -0.97452355084E+03 -0.14833047684E+03  0.36985361326E+03  0.10528589016E+04  0.46999998093E+01 0.  1.
       -5    1    3    3    0  502  0.97452355084E+03  0.14833047684E+03 -0.21432656392E+04  0.23590904543E+04  0.46999998093E+01 0. -1.
</event>
<event>
 5   0  0.9950999E-07  0.2877329E+04  0.7818609E-02  0.8279655E-01
       -2   -1    0    0    0  501  0.00000000000E+00  0.00000000000E+00  0.93145345503E+03  0.93145345504E+03  0.25500000920E-02 0. -1.
        2   -1    0    0  501    0  0.00000000000E+00  0.00000000000E+00 -0.22220706914E+04  0.22220706914E+04  0.25500000920E-02 0.  1.
    10030    2    1    2    0    0  0.00000000000E+00  0.00000000000E+00 -0.12906172364E+04  0.31535241465E+04  0.28773289161E+04 0.  0.
        3    1    3    3  502    0 -0.13376455439E+04 -0.40251585632E+03 -0.26812110133E+03  0.14223935991E+04  0.10100000352E+00 0. -1.
       -3    1    3    3    0  502  0.13376455439E+04  0.40251585632E+03 -0.10224961351E+04  0.17311305474E+04  0.10100000352E+00 0.  1.
</event>
<event>
 5   0  0.3885904E-07  0.2903035E+04  0.7818609E-02  0.8271975E-01
       -1   -1    0    0    0  501  0.00000000000E+00  0.00000000000E+00  0.12584338315E+04  0.12584338315E+04  0.50400001928E-02 0.  1.
        1   -1    0    0  501    0  0.00000000000E+00  0.00000000000E+00 -0.16742266558E+04  0.16742266558E+04  0.50400001928E-02 0. -1.
    10030    2    1    2    0    0  0.00000000000E+00  0.00000000000E+00 -0.41579282431E+03  0.29326604873E+04  0.29030352841E+04 0.  0.
        2    1    3    3  502    0 -0.56492920067E+03 -0.82743709169E+02  0.11402302457E+04  0.12751927448E+04  0.25500000920E-02 0.  1.
       -2    1    3    3    0  502  0.56492920067E+03  0.82743709169E+02 -0.15560230700E+04  0.16574677425E+04  0.25500000920E-02 0. -1.
</event>
<event>
 5   0  0.3770467E-07  0.2902220E+04  0.7818609E-02  0.8272217E-01
       -1   -1    0    0    0  501  0.00000000000E+00  0.00000000000E+00  0.14527754753E+04  0.14527754753E+04  0.50400001928E-02 0.  1.
        1   -1    0    0  501    0  0.00000000000E+00  0.00000000000E+00 -0.14494465698E+04  0.14494465698E+04  0.50400001928E-02 0. -1.
    10030    2    1    2    0    0  0.00000000000E+00  0.00000000000E+00  0.33289054398E+01  0.29022220451E+04  0.29022201359E+04 0.  0.
        1    1    3    3  502    0  0.13360348108E+04 -0.30372837894E+03 -0.47633218540E+03  0.14505627511E+04  0.50400001928E-02 0. -1.
       -1    1    3    3    0  502 -0.13360348108E+04  0.30372837894E+03  0.47966109084E+03  0.14516592940E+04  0.50400001928E-02 0.  1.
</event>
<event>
 5   0  0.9994311E-07  0.2897565E+04  0.7818609E-02  0.8273602E-01
       -2   -1    0    0    0  501  0.00000000000E+00  0.00000000000E+00  0.81663010036E+03  0.81663010036E+03  0.25500000920E-02 0.  1.
        2   -1    0    0  501    0  0.00000000000E+00  0.00000000000E+00 -0.25702835411E+04  0.25702835411E+04  0.25500000920E-02 0. -1.
    10030    2    1    2    0    0  0.00000000000E+00  0.00000000000E+00 -0.17536534407E+04  0.33869136414E+04  0.28975651200E+04 0.  0.
        2    1    3    3  502    0  0.11593712923E+03 -0.14327139854E+04 -0.66493913135E+03  0.15837470853E+04  0.25500000920E-02 0. -1.
       -2    1    3    3    0  502 -0.11593712923E+03  0.14327139854E+04 -0.10887143094E+04  0.18031665561E+04  0.25500000920E-02 0.  1.
</event>
<event>
 5   0  0.1031339E-06  0.2913264E+04  0.7818609E-02  0.8268942E-01
       -2   -1    0    0    0  501  0.00000000000E+00  0.00000000000E+00  0.10287223243E+04  0.10287223243E+04  0.25500000920E-02 0.  1.
        2   -1    0    0  501    0  0.00000000000E+00  0.00000000000E+00 -0.20625354351E+04  0.20625354351E+04  0.25500000920E-02 0. -1.
    10030    2    1    2    0    0  0.00000000000E+00  0.00000000000E+00 -0.10338131107E+04  0.30912577594E+04  0.29132636316E+04 0.  0.
        5    1    3    3  502    0 -0.39609504631E+01  0.14355779397E+04 -0.25514757465E+03  0.14580885038E+04  0.46999998093E+01 0.  1.
       -5    1    3    3    0  502  0.39609504631E+01 -0.14355779397E+04 -0.77866553609E+03  0.16331692555E+04  0.46999998093E+01 0. -1.
</event>
<event>
 5   0  0.3885904E-07  0.2883388E+04  0.7818609E-02  0.8277837E-01
       -1   -1    0    0    0  501  0.00000000000E+00  0.00000000000E+00  0.12042377634E+04  0.12042377634E+04  0.50400001928E-02 0.  1.
        1   -1    0    0  501    0  0.00000000000E+00  0.00000000000E+00 -0.17259724163E+04  0.17259724163E+04  0.50400001928E-02 0. -1.
    10030    2    1    2    0    0  0.00000000000E+00  0.00000000000E+00 -0.52173465293E+03  0.29302101797E+04  0.28833877036E+04 0.  0.
        2    1    3    3  502    0 -0.77497710858E+03 -0.33043287501E+03 -0.14497822487E+04  0.16767957456E+04  0.25500000920E-02 0. -1.
       -2    1    3    3    0  502  0.77497710858E+03  0.33043287501E+03  0.92804759575E+03  0.12534144341E+04  0.25500000920E-02 0.  1.
</event>
<event>
 5   0  0.3786210E-07  0.2896208E+04  0.7818609E-02  0.8274007E-01
        1   -1    0    0  501    0  0.00000000000E+00  0.00000000000E+00  0.20527230263E+04  0.20527230263E+04  0.50400001928E-02 0.  1.
       -1   -1    0    0    0  501  0.00000000000E+00  0.00000000000E+00 -0.10215725001E+04  0.10215725001E+04  0.50400001928E-02 0. -1.
    10030    2    1    2    0    0  0.00000000000E+00  0.00000000000E+00  0.10311505263E+04  0.30742955264E+04  0.28962081376E+04 0.  0.
        5    1    3    3  502    0 -0.11260231047E+04  0.71539038132E+03  0.11134794996E+04  0.17376910300E+04  0.46999998093E+01 0.  1.
       -5    1    3    3    0  502  0.11260231047E+04 -0.71539038132E+03 -0.82328973310E+02  0.13366044964E+04  0.46999998093E+01 0. -1.
</event>
<event>
 5   0  0.1006893E-06  0.2895374E+04  0.7818609E-02  0.8274255E-01
       -2   -1    0    0    0  501  0.00000000000E+00  0.00000000000E+00  0.96699914254E+03  0.96699914255E+03  0.25500000920E-02 0. -1.
        2   -1    0    0  501    0  0.00000000000E+00  0.00000000000E+00 -0.21673211503E+04  0.21673211503E+04  0.25500000920E-02 0.  1.
    10030    2    1    2    0    0  0.00000000000E+00  0.00000000000E+00 -0.12003220078E+04  0.31343202929E+04  0.28953740304E+04 0.  0.
        4    1    3    3  502    0  0.70262227506E+03 -0.33781298000E+03  0.72034452895E+03  0.10614582065E+04  0.12699999809E+01 0. -1.
       -4    1    3    3    0  502 -0.70262227506E+03  0.33781298000E+03 -0.19206665367E+04  0.20728620864E+04  0.12699999809E+01 0.  1.
</event>
<event>
 5   0  0.3769563E-07  0.2907720E+04  0.7818609E-02  0.8270584E-01
        1   -1    0    0  501    0  0.00000000000E+00  0.00000000000E+00  0.19906889444E+04  0.19906889444E+04  0.50400001928E-02 0.  1.
       -1   -1    0    0    0  501  0.00000000000E+00  0.00000000000E+00 -0.10617979943E+04  0.10617979943E+04  0.50400001928E-02 0. -1.
    10030    2    1    2    0    0  0.00000000000E+00  0.00000000000E+00  0.92889095005E+03  0.30524869387E+04  0.29077204325E+04 0.  0.
        3    1    3    3  502    0  0.38825600663E+03 -0.36259664043E+03  0.18851491289E+04  0.19585725156E+04  0.10100000352E+00 0.  1.
       -3    1    3    3    0  502 -0.38825600663E+03  0.36259664043E+03 -0.95625817884E+03  0.10939144231E+04  0.10100000352E+00 0. -1.
</event>
<event>
 5   0  0.3885904E-07  0.2901872E+04  0.7818609E-02  0.8272321E-01
       -1   -1    0    0    0  501  0.00000000000E+00  0.00000000000E+00  0.10962239437E+04  0.10962239437E+04  0.50400001928E-02 0.  1.
        1   -1    0    0  501    0  0.00000000000E+00  0.00000000000E+00 -0.19204238356E+04  0.19204238356E+04  0.50400001928E-02 0. -1.
    10030    2    1    2    0    0  0.00000000000E+00  0.00000000000E+00 -0.82419989186E+03  0.30166477793E+04  0.29018715276E+04 0.  0.
        2    1    3    3  502    0 -0.24403975425E+03  0.79473184134E+03 -0.16482762597E+04  0.18460684521E+04  0.25500000920E-02 0. -1.
       -2    1    3    3    0  502  0.24403975425E+03 -0.79473184134E+03  0.82407636787E+03  0.11705793272E+04  0.25500000920E-02 0.  1.
</event>
<event>
 5   0  0.9994311E-07  0.2900259E+04  0.7818609E-02  0.8272800E-01
        2   -1    0    0  501    0  0.00000000000E+00  0.00000000000E+00  0.16240202638E+04  0.16240202638E+04  0.25500000920E-02 0. -1.
       -2   -1    0    0    0  501  0.00000000000E+00  0.00000000000E+00 -0.12948582086E+04  0.12948582086E+04  0.25500000920E-02 0.  1.
    10030    2    1    2    0    0  0.00000000000E+00  0.00000000000E+00  0.32916205518E+03  0.29188784723E+04  0.29002592777E+04 0.  0.
        2    1    3    3  502    0  0.80713127334E+03 -0.91938683251E+03  0.94813101947E+03  0.15478002036E+04  0.25500000920E-02 0.  1.
       -2    1    3    3    0  502 -0.80713127334E+03  0.91938683251E+03 -0.61896896430E+03  0.13710782687E+04  0.25500000920E-02 0. -1.
</event>
<event>
 5   0  0.9950999E-07  0.2900811E+04  0.7818609E-02  0.8272636E-01
        2   -1    0    0  501    0  0.00000000000E+00  0.00000000000E+00  0.23816837771E+04  0.23816837771E+04  0.25500000920E-02 0. -1.
       -2   -1    0    0    0  501  0.00000000000E+00  0.00000000000E+00 -0.88327281730E+03  0.88327281731E+03  0.25500000920E-02 0.  1.
    10030    2    1    2    0    0  0.00000000000E+00  0.00000000000E+00  0.14984109598E+04  0.32649565944E+04  0.29008112932E+04 0.  0.
        3    1    3    3  502    0  0.17112948772E+02 -0.10223913251E+04 -0.40856166450E+03  0.11011355587E+04  0.10100000352E+00 0.  1.
       -3    1    3    3    0  502 -0.17112948772E+02  0.10223913251E+04  0.19069726243E+04  0.21638210357E+04  0.10100000352E+00 0. -1.
</event>
<event>
 5   0  0.3638028E-07  0.2910972E+04  0.7818609E-02  0.8269621E-01
       -1   -1    0    0    0  501  0.00000000000E+00  0.00000000000E+00  0.11900207294E+04  0.11900207295E+04  0.50400001928E-02 0.  1.
        1   -1    0    0  501    0  0.00000000000E+00  0.00000000000E+00 -0.17801700084E+04  0.17801700084E+04  0.50400001928E-02 0. -1.
    10030    2    1    2    0    0  0.00000000000E+00  0.00000000000E+00 -0.59014927893E+03  0.29701907378E+04  0.29109718047E+04 0.  0.
        4    1    3    3  502    0 -0.41965560457E+03  0.91310256036E+02 -0.17140451303E+04  0.17670316100E+04  0.12699999809E+01 0. -1.
       -4    1    3    3    0  502  0.41965560457E+03 -0.91310256036E+02  0.11238958513E+04  0.12031591278E+04  0.12699999809E+01 0.  1.
</event>
<event>
 5   0  0.9950999E-07  0.2901989E+04  0.7818609E-02  0.8272286E-01
        2   -1    0    0  501    0  0.00000000000E+00  0.00000000000E+00  0.20325565558E+04  0.20325565558E+04  0.25500000920E-02 0. -1.
       -2   -1    0    0    0  501  0.00000000000E+00  0.00000000000E+00 -0.10358306200E+04  0.10358306200E+04  0.25500000920E-02 0.  1.
    10030    2    1    2    0    0  0.00000000000E+00  0.00000000000E+00  0.99672593575E+03  0.30683871758E+04  0.29019885027E+04 0.  0.
        3    1    3    3  502    0 -0.16888029978E+03  0.98922637155E+03 -0.60972429379E+03  0.11742457556E+04  0.10100000352E+00 0.  1.
       -3    1    3    3    0  502  0.16888029978E+03 -0.98922637155E+03  0.16064502295E+04  0.18941414203E+04  0.10100000352E+00 0. -1.
</event>
<event>
 5   0  0.3769563E-07  0.2898554E+04  0.7818609E-02  0.8273308E-01
       -1   -1    0    0    0  501  0.00000000000E+00  0.00000000000E+00  0.14437502819E+04  0.14437502819E+04  0.50400001928E-02 0.  1.
        1   -1    0    0  501    0  0.00000000000E+00  0.00000000000E+00 -0.14548250877E+04  0.14548250877E+04  0.50400001928E-02 0. -1.
    10030    2    1    2    0    0  0.00000000000E+00  0.00000000000E+00 -0.11074805870E+02  0.28985753696E+04  0.28985542124E+04 0.  0.
        3    1    3    3  502    0 -0.80188983606E+03  0.11242925912E+04 -0.44524844771E+03  0.14509677220E+04  0.10100000352E+00 0.  1.
       -3    1    3    3    0  502  0.80188983606E+03 -0.11242925912E+04  0.43417364184E+03  0.14476076476E+04  0.10100000352E+00 0. -1.
</event>
<event>
 5   0  0.9994311E-07  0.2899220E+04  0.7818609E-02  0.8273110E-01
        2   -1    0    0  501    0  0.00000000000E+00  0.00000000000E+00  0.11919321922E+04  0.11919321922E+04  0.25500000920E-02 0. -1.
       -2   -1    0    0    0  501  0.00000000000E+00  0.00000000000E+00 -0.17629941375E+04  0.17629941375E+04  0.25500000920E-02 0.  1.
    10030    2    1    2    0    0  0.00000000000E+00  0.00000000000E+00 -0.57106194530E+03  0.29549263298E+04  0.28992202174E+04 0.  0.
        2    1    3    3  502    0 -0.77187494966E+03 -0.85518012134E+03  0.61128801625E+03  0.13041460872E+04  0.25500000920E-02 0. -1.
       -2    1    3    3    0  502  0.77187494966E+03  0.85518012134E+03 -0.11823499615E+04  0.16507802426E+04  0.25500000920E-02 0.  1.
</event>
<event>
 5   0  0.9950999E-07  0.2904360E+04  0.7818609E-02  0.8271581E-01
        2   -1    0    0  501    0  0.00000000000E+00  0.00000000000E+00  0.18602877834E+04  0.18602877834E+04  0.25500000920E-02 0. -1.
       -2   -1    0    0    0  501  0.00000000000E+00  0.00000000000E+00 -0.11336025729E+04  0.11336025729E+04  0.25500000920E-02 0.  1.
    10030    2    1    2    0    0  0.00000000000E+00  0.00000000000E+00  0.72668521052E+03  0.29938903563E+04  0.29043601826E+04 0.  0.
        3    1    3    3  502    0  0.12729282828E+04 -0.28045476638E+03  0.10232530794E+04  0.16571204433E+04  0.10100000352E+00 0. -1.
       -3    1    3    3    0  502 -0.12729282828E+04  0.28045476638E+03 -0.29656786884E+03  0.13367699129E+04  0.10100000352E+00 0.  1.
</event>
<event>
 5   0  0.1063979E-06  0.2915181E+04  0.7818609E-02  0.8268375E-01
       -2   -1    0    0    0  501  0.00000000000E+00  0.00000000000E+00  0.20417784835E+04  0.20417784835E+04  0.25500000920E-02 0.  1.
        2   -1    0    0  501    0  0.00000000000E+00  0.00000000000E+00 -0.10405486674E+04  0.10405486674E+04  0.25500000920E-02 0. -1.
    10030    2    1    2    0    0  0.00000000000E+00  0.00000000000E+00  0.10012298161E+04  0.30823271510E+04  0.29151808728E+04 0.  0.
        1    1    3    3  502    0 -0.11133885057E+04  0.29678299198E+03  0.14444651408E+04  0.18477536773E+04  0.50400001928E-02 0.  1.
       -1    1    3    3    0  502  0.11133885057E+04 -0.29678299198E+03 -0.44323532470E+03  0.12345734737E+04  0.50400001928E-02 0. -1.
</event>
<event>
 5   0  0.3770467E-07  0.2890773E+04  0.7818609E-02  0.8275628E-01
        1   -1    0    0  501    0  0.00000000000E+00  0.00000000000E+00  0.20629360924E+04  0.20629360924E+04  0.50400001928E-02 0.  1.
       -1   -1    0    0    0  501  0.00000000000E+00  0.00000000000E+00 -0.10127030783E+04  0.10127030783E+04  0.50400001928E-02 0. -1.
    10030    2    1    2    0    0  0.00000000000E+00  0.00000000000E+00  0.10502330141E+04  0.30756391706E+04  0.28907727209E+04 0.  0.
        1    1    3    3  502    0 -0.12777390683E+04  0.63189747304E+03  0.27058941174E+03  0.14509066727E+04  0.50400001928E-02 0. -1.
       -1    1    3    3    0  502  0.12777390683E+04 -0.63189747304E+03  0.77964360236E+03  0.16247324979E+04  0.50400001928E-02 0.  1.
</event>
<event>
 5   0  0.9950999E-07  0.2899379E+04  0.7818609E-02  0.8273062E-01
       -2   -1    0    0    0  501  0.00000000000E+00  0.00000000000E+00  0.12601381312E+04  0.12601381312E+04  0.25500000920E-02 0. -1.
        2   -1    0    0  501    0  0.00000000000E+00  0.00000000000E+00 -0.16677529989E+04  0.16677529989E+04  0.25500000920E-02 0.  1.
    10030    2    1    2    0    0  0.00000000000E+00  0.00000000000E+00 -0.40761486775E+03  0.29278911301E+04  0.28993786557E+04 0.  0.
        3    1    3    3  502    0  0.42103912806E+03 -0.52309485424E+03 -0.15012366182E+04  0.16445709373E+04  0.10100000352E+00 0.  1.
       -3    1    3    3    0  502 -0.42103912806E+03  0.52309485424E+03  0.10936217504E+04  0.12833201928E+04  0.10100000352E+00 0. -1.
</event>
<event>
 5   0  0.3638028E-07  0.2901110E+04  0.7818609E-02  0.8272547E-01
       -1   -1    0    0    0  501  0.00000000000E+00  0.00000000000E+00  0.10480839958E+04  0.10480839958E+04  0.50400001928E-02 0.  1.
        1   -1    0    0  501    0  0.00000000000E+00  0.00000000000E+00 -0.20075776116E+04  0.20075776116E+04  0.50400001928E-02 0. -1.
    10030    2    1    2    0    0  0.00000000000E+00  0.00000000000E+00 -0.95949361579E+03  0.30556616074E+04  0.29011101082E+04 0.  0.
        4    1    3    3  502    0 -0.80855504359E+03 -0.74237987534E+02 -0.17457951666E+04  0.19253765642E+04  0.12699999809E+01 0.  1.
       -4    1    3    3    0  502  0.80855504359E+03  0.74237987534E+02  0.78630155077E+03  0.11302850432E+04  0.12699999809E+01 0. -1.
</event>
<event>
 5   0  0.1031339E-06  0.2900327E+04  0.7818609E-02  0.8272780E-01
       -2   -1    0    0    0  501  0.00000000000E+00  0.00000000000E+00  0.11055228015E+04  0.11055228015E+04  0.25500000920E-02 0.  1.
        2   -1    0    0  501    0  0.00000000000E+00  0.00000000000E+00 -0.19022436210E+04  0.19022436210E+04  0.25500000920E-02 0. -1.
    10030    2    1    2    0    0  0.00000000000E+00  0.00000000000E+00 -0.79672081946E+03  0.30077664225E+04  0.29003266693E+04 0.  0.
        5    1    3    3  502    0 -0.90619177484E+03  0.11276851690E+04 -0.50255228988E+03  0.15314823757E+04  0.46999998093E+01 0.  1.
       -5    1    3    3    0  502  0.90619177484E+03 -0.11276851690E+04 -0.29416852958E+03  0.14762840468E+04  0.46999998093E+01 0. -1.
</event>
<event>
 5   0  0.3638028E-07  0.2883994E+04  0.7818609E-02  0.8277656E-01
       -1   -1    0    0    0  501  0.00000000000E+00  0.00000000000E+00  0.10001091691E+04  0.10001091691E+04  0.50400001928E-02 0. -1.
        1   -1    0    0  501    0  0.00000000000E+00  0.00000000000E+00 -0.20791285033E+04  0.20791285033E+04  0.50400001928E-02 0.  1.
    10030    2    1    2    0    0  0.00000000000E+00  0.00000000000E+00 -0.10790193342E+04  0.30792376723E+04  0.28839940914E+04 0.  0.
        4    1    3    3  502    0 -0.98275014172E+03  0.49417487122E+03  0.45599999747E+03  0.11907746449E+04  0.12699999809E+01 0. -1.
       -4    1    3    3    0  502  0.98275014172E+03 -0.49417487122E+03 -0.15350193317E+04  0.18884630274E+04  0.12699999809E+01 0.  1.
</event>
<event>
 5   0  0.3769563E-07  0.2900983E+04  0.7818609E-02  0.8272585E-01
       -1   -1    0    0    0  501  0.00000000000E+00  0.00000000000E+00  0.13765031689E+04  0.13765031689E+04  0.50400001928E-02 0.  1.
        1   -1    0    0  501    0  0.00000000000E+00  0.00000000000E+00 -0.15284563514E+04  0.15284563514E+04  0.50400001928E-02 0. -1.
    10030    2    1    2    0    0  0.00000000000E+00  0.00000000000E+00 -0.15195318248E+03  0.29049595203E+04  0.29009825999E+04 0.  0.
        3    1    3    3  502    0  0.12736954627E+04  0.24159525108E+03 -0.72745020816E+03  0.14865571676E+04  0.10100000352E+00 0. -1.
       -3    1    3    3    0  502 -0.12736954627E+04 -0.24159525108E+03  0.57549702569E+03  0.14184023526E+04  0.10100000352E+00 0.  1.
</event>
<event>
 5   0  0.1063979E-06  0.2900161E+04  0.7818609E-02  0.8272829E-01
        2   -1    0    0  501    0  0.00000000000E+00  0.00000000000E+00  0.15415828210E+04  0.15415828210E+04  0.25500000920E-02 0.  1.
       -2   -1    0    0    0  501  0.00000000000E+00  0.00000000000E+00 -0.13640097908E+04  0.13640097908E+04  0.25500000920E-02 0. -1.
    10030    2    1    2    0    0  0.00000000000E+00  0.00000000000E+00  0.17757303019E+03  0.29055926118E+04  0.29001614170E+04 0.  0.
        1    1    3    3  502    0  0.26213699728E+03 -0.73287396891E+03  0.13145621297E+04  0.15277086282E+04  0.50400001928E-02 0.  1.
       -1    1    3    3    0  502 -0.26213699728E+03  0.73287396891E+03 -0.11369890996E+04  0.13778839836E+04  0.50400001928E-02 0. -1.
</event>
<event>
 5   0  0.1006893E-06  0.2905984E+04  0.7818609E-02  0.8271099E-01
       -2   -1    0    0    0  501  0.00000000000E+00  0.00000000000E+00  0.13237909584E+04  0.13237909584E+04  0.25500000920E-02 0.  1.
        2   -1    0    0  501    0  0.00000000000E+00  0.00000000000E+00 -0.15948032995E+04  0.15948032995E+04  0.25500000920E-02 0. -1.
    10030    2    1    2    0    0  0.00000000000E+00  0.00000000000E+00 -0.27101234104E+03  0.29185942579E+04  0.29059843002E+04 0.  0.
        4    1    3    3  502    0 -0.31841986519E+03  0.88574445094E+03 -0.12472195671E+04  0.15625276651E+04  0.12699999809E+01 0. -1.
       -4    1    3    3    0  502  0.31841986519E+03 -0.88574445094E+03  0.97620722603E+03  0.13560665928E+04  0.12699999809E+01 0.  1.
</event>
<event>
 5   0  0.9950999E-07  0.2899041E+04  0.7818609E-02  0.8273163E-01
        2   -1    0    0  501    0  0.00000000000E+00  0.00000000000E+00  0.10948830868E+04  0.10948830868E+04  0.25500000920E-02 0. -1.
       -2   -1    0    0    0  501  0.00000000000E+00  0.00000000000E+00 -0.19190261643E+04  0.19190261643E+04  0.25500000920E-02 0.  1.
    10030    2    1    2    0    0  0.00000000000E+00  0.00000000000E+00 -0.82414307758E+03  0.30139092511E+04  0.28990407313E+04 0.  0.
        3    1    3    3  502    0 -0.78095590445E+03  0.70712620039E+03  0.62296157133E+03  0.12239283956E+04  0.10100000352E+00 0. -1.
       -3    1    3    3    0  502  0.78095590445E+03 -0.70712620039E+03 -0.14471046489E+04  0.17899808555E+04  0.10100000352E+00 0.  1.
</event>
<event>
 5   0  0.3638028E-07  0.2892040E+04  0.7818609E-02  0.8275250E-01
       -1   -1    0    0    0  501  0.00000000000E+00  0.00000000000E+00  0.80208087289E+03  0.80208087290E+03  0.50400001928E-02 0. -1.
        1   -1    0    0  501    0  0.00000000000E+00  0.00000000000E+00 -0.26069370387E+04  0.26069370387E+04  0.50400001928E-02 0.  1.
    10030    2    1    2    0    0  0.00000000000E+00  0.00000000000E+00 -0.18048561658E+04  0.34090179116E+04  0.28920403424E+04 0.  0.
        4    1    3    3  502    0  0.22078656238E+03  0.11371417241E+04 -0.19226740762E+04  0.22446637216E+04  0.12699999809E+01 0.  1.
       -4    1    3    3    0  502 -0.22078656238E+03 -0.11371417241E+04  0.11781791039E+03  0.11643541900E+04  0.12699999809E+01 0. -1.
</event>
<event>
 5   0  0.3885904E-07  0.2904119E+04  0.7818609E-02  0.8271653E-01
       -1   -1    0    0    0  501  0.00000000000E+00  0.00000000000E+00  0.15375542368E+04  0.15375542368E+04  0.50400001928E-02 0. -1.
        1   -1    0    0  501    0  0.00000000000E+00  0.00000000000E+00 -0.13713184289E+04  0.13713184289E+04  0.50400001928E-02 0.  1.
    10030    2    1    2    0    0  0.00000000000E+00  0.00000000000E+00  0.16623580797E+03  0.29088726657E+04  0.29041187719E+04 0.  0.
        2    1    3    3  502    0 -0.12017608828E+04  0.81337523434E+03  0.31380963742E+02  0.14514796781E+04  0.25500000920E-02 0. -1.
       -2    1    3    3    0  502  0.12017608828E+04 -0.81337523434E+03  0.13485484423E+03  0.14573929876E+04  0.25500000920E-02 0.  1.
</event>
<event>
 5   0  0.1031339E-06  0.2899833E+04  0.7818609E-02  0.8272927E-01
       -2   -1    0    0    0  501  0.00000000000E+00  0.00000000000E+00  0.11873685823E+04  0.11873685823E+04  0.25500000920E-02 0. -1.
        2   -1    0    0  501    0  0.00000000000E+00  0.00000000000E+00 -0.17705188751E+04  0.17705188751E+04  0.25500000920E-02 0.  1.
    10030    2    1    2    0    0  0.00000000000E+00  0.00000000000E+00 -0.58315029278E+03  0.29578874573E+04  0.28998334342E+04 0.  0.
        5    1    3    3  502    0  0.62700683553E+02  0.13520438879E+04 -0.82187002511E+03  0.15834918625E+04  0.46999998093E+01 0.  1.
       -5    1    3    3    0  502 -0.62700683553E+02 -0.13520438879E+04  0.23871973233E+03  0.13743955948E+04  0.46999998093E+01 0. -1.
</event>
<event>
 5   0  0.3770467E-07  0.2898645E+04  0.7818609E-02  0.8273281E-01
        1   -1    0    0  501    0  0.00000000000E+00  0.00000000000E+00  0.27435925596E+04  0.27435925596E+04  0.50400001928E-02 0. -1.
       -1   -1    0    0    0  501  0.00000000000E+00  0.00000000000E+00 -0.76561483552E+03  0.76561483553E+03  0.50400001928E-02 0.  1.
    10030    2    1    2    0    0  0.00000000000E+00  0.00000000000E+00  0.19779777241E+04  0.35092073951E+04  0.28986446255E+04 0.  0.
        1    1    3    3  502    0 -0.10394590269E+04 -0.76373242580E+03  0.18889324037E+03  0.13036268419E+04  0.50400001928E-02 0.  1.
       -1    1    3    3    0  502  0.10394590269E+04  0.76373242580E+03  0.17890844837E+04  0.22055805532E+04  0.50400001928E-02 0. -1.
</event>
<event>
 5   0  0.9950999E-07  0.2894067E+04  0.7818609E-02  0.8274645E-01
        2   -1    0    0  501    0  0.00000000000E+00  0.00000000000E+00  0.10342277603E+04  0.10342277603E+04  0.25500000920E-02 0. -1.
       -2   -1    0    0    0  501  0.00000000000E+00  0.00000000000E+00 -0.20246080453E+04  0.20246080453E+04  0.25500000920E-02 0.  1.
    10030    2    1    2    0    0  0.00000000000E+00  0.00000000000E+00 -0.99038028499E+03  0.30588358055E+04  0.28940669267E+04 0.  0.
        3    1    3    3  502    0  0.19165031800E+02 -0.23033331381E+03  0.10145920858E+04  0.10405853375E+04  0.10100000352E+00 0. -1.
       -3    1    3    3    0  502 -0.19165031800E+02  0.23033331381E+03 -0.20049723708E+04  0.20182504680E+04  0.10100000352E+00 0.  1.
</event>
<event>
 5   0  0.3885904E-07  0.2822998E+04  0.7818609E-02  0.8296164E-01
        1   -1    0    0  501    0  0.00000000000E+00  0.00000000000E+00  0.11190836180E+04  0.11190836180E+04  0.50400001928E-02 0.  1.
       -1   -1    0    0    0  501  0.00000000000E+00  0.00000000000E+00 -0.17803223214E+04  0.17803223214E+04  0.50400001928E-02 0. -1.
    10030    2    1    2    0    0  0.00000000000E+00  0.00000000000E+00 -0.66123870342E+03  0.28994059395E+04  0.28229980834E+04 0.  0.
        2    1    3    3  502    0  0.11374916573E+04  0.37236678835E+03 -0.10990579411E+04  0.16249531234E+04  0.25500000920E-02 0. -1.
       -2    1    3    3    0  502 -0.11374916573E+04 -0.37236678835E+03  0.43781923768E+03  0.12744528160E+04  0.25500000920E-02 0.  1.
</event>
<event>
 5   0  0.3638028E-07  0.2902811E+04  0.7818609E-02  0.8272042E-01
       -1   -1    0    0    0  501  0.00000000000E+00  0.00000000000E+00  0.11170725937E+04  0.11170725937E+04  0.50400001928E-02 0. -1.
        1   -1    0    0  501    0  0.00000000000E+00  0.00000000000E+00 -0.18858024923E+04  0.18858024923E+04  0.50400001928E-02 0.  1.
    10030    2    1    2    0    0  0.00000000000E+00  0.00000000000E+00 -0.76872989860E+03  0.30028750860E+04  0.29028112452E+04 0.  0.
        4    1    3    3  502    0  0.76607444088E+03 -0.34919095459E+02  0.89038219730E+03  0.11751048729E+04  0.12699999809E+01 0. -1.
       -4    1    3    3    0  502 -0.76607444088E+03  0.34919095459E+02 -0.16591120959E+04  0.18277702131E+04  0.12699999809E+01 0.  1.
</event>
<event>
 5   0  0.3378750E-07  0.2901632E+04  0.7818609E-02  0.8272392E-01
       -3   -1    0    0    0  501  0.00000000000E+00  0.00000000000E+00  0.16648043465E+04  0.16648043496E+04  0.10100000352E+00 0.  1.
        3   -1    0    0  501    0  0.00000000000E+00  0.00000000000E+00 -0.12643327110E+04  0.12643327150E+04  0.10100000352E+00 0. -1.
    10030    2    1    2    0    0  0.00000000000E+00  0.00000000000E+00  0.40047163554E+03  0.29291370646E+04  0.29016316811E+04 0.  0.
        4    1    3    3  502    0  0.77281461884E+03 -0.83845410884E+03 -0.70527174705E+03  0.13407675331E+04  0.12699999809E+01 0. -1.
       -4    1    3    3    0  502 -0.77281461884E+03  0.83845410884E+03  0.11057433826E+04  0.15883695315E+04  0.12699999809E+01 0.  1.
</event>
<event>
 5   0  0.1006893E-06  0.2903856E+04  0.7818609E-02  0.8271731E-01
        2   -1    0    0  501    0  0.00000000000E+00  0.00000000000E+00  0.81063523294E+03  0.81063523295E+03  0.25500000920E-02 0.  1.
       -2   -1    0    0    0  501  0.00000000000E+00  0.00000000000E+00 -0.26005464869E+04  0.26005464869E+04  0.25500000920E-02 0. -1.
    10030    2    1    2    0    0  0.00000000000E+00  0.00000000000E+00 -0.17899112540E+04  0.34111817199E+04  0.29038557865E+04 0.  0.
        4    1    3    3  502    0 -0.32820860204E+03  0.58555405025E+03 -0.24073198380E+04  0.24991568273E+04  0.12699999809E+01 0. -1.
       -4    1    3    3    0  502  0.32820860204E+03 -0.58555405025E+03  0.61740858398E+03  0.91202489258E+03  0.12699999809E+01 0.  1.
</event>
<event>
 5   0  0.3786210E-07  0.2903963E+04  0.7818609E-02  0.8271699E-01
       -1   -1    0    0    0  501  0.00000000000E+00  0.00000000000E+00  0.18382394887E+04  0.18382394887E+04  0.50400001928E-02 0. -1.
        1   -1    0    0  501    0  0.00000000000E+00  0.00000000000E+00 -0.11468851632E+04  0.11468851633E+04  0.50400001928E-02 0.  1.
    10030    2    1    2    0    0  0.00000000000E+00  0.00000000000E+00  0.69135432545E+03  0.29851246520E+04  0.29039625315E+04 0.  0.
        5    1    3    3  502    0  0.13067726615E+04 -0.23481762852E+03  0.94983946766E+03  0.16324862057E+04  0.46999998093E+01 0. -1.
       -5    1    3    3    0  502 -0.13067726615E+04  0.23481762852E+03 -0.25848514221E+03  0.13526384462E+04  0.46999998093E+01 0.  1.
</event>
<event>
 5   0  0.9994311E-07  0.2900429E+04  0.7818609E-02  0.8272750E-01
        2   -1    0    0  501    0  0.00000000000E+00  0.00000000000E+00  0.13847850303E+04  0.13847850303E+04  0.25500000920E-02 0.  1.
       -2   -1    0    0    0  501  0.00000000000E+00  0.00000000000E+00 -0.15187351100E+04  0.15187351100E+04  0.25500000920E-02 0. -1.
    10030    2    1    2    0    0  0.00000000000E+00  0.00000000000E+00 -0.13395007976E+03  0.29035201403E+04  0.29004286893E+04 0.  0.
        2    1    3    3  502    0  0.12051194993E+04  0.54237439024E+03  0.53085379646E+03  0.14241800237E+04  0.25500000920E-02 0.  1.
       -2    1    3    3    0  502 -0.12051194993E+04 -0.54237439024E+03 -0.66480387622E+03  0.14793401166E+04  0.25500000920E-02 0. -1.
</event>
<event>
 5   0  0.3638028E-07  0.2914351E+04  0.7818609E-02  0.8268620E-01
       -1   -1    0    0    0  501  0.00000000000E+00  0.00000000000E+00  0.61123287759E+03  0.61123287761E+03  0.50400001928E-02 0.  1.
        1   -1    0    0  501    0  0.00000000000E+00  0.00000000000E+00 -0.34738969868E+04  0.34738969868E+04  0.50400001928E-02 0. -1.
    10030    2    1    2    0    0  0.00000000000E+00  0.00000000000E+00 -0.28626641092E+04  0.40851298644E+04  0.29143507351E+04 0.  0.
        4    1    3    3  502    0  0.93956317854E+03 -0.94311682282E+03 -0.60074390488E+03  0.14605283839E+04  0.12699999809E+01 0.  1.
       -4    1    3    3    0  502 -0.93956317854E+03  0.94311682282E+03 -0.22619202043E+04  0.26246014805E+04  0.12699999809E+01 0. -1.
</event>
<event>
 5   0  0.3770467E-07  0.2903924E+04  0.7818609E-02  0.8271711E-01
        1   -1    0    0  501    0  0.00000000000E+00  0.00000000000E+00  0.19342681825E+04  0.19342681825E+04  0.50400001928E-02 0. -1.
       -1   -1    0    0    0  501  0.00000000000E+00  0.00000000000E+00 -0.10899178132E+04  0.10899178132E+04  0.50400001928E-02 0.  1.
    10030    2    1    2    0    0  0.00000000000E+00  0.00000000000E+00  0.84435036932E+03  0.30241859958E+04  0.29039237922E+04 0.  0.
        1    1    3    3  502    0 -0.13072194706E+04  0.62336535604E+03  0.31401728451E+03  0.14818953966E+04  0.50400001928E-02 0.  1.
       -1    1    3    3    0  502  0.13072194706E+04 -0.62336535604E+03  0.53033308481E+03  0.15422905992E+04  0.50400001928E-02 0. -1.
</event>
<event>
 5   0  0.9994311E-07  0.2896737E+04  0.7818609E-02  0.8273849E-01
        2   -1    0    0  501    0  0.00000000000E+00  0.00000000000E+00  0.21163666897E+04  0.21163666897E+04  0.25500000920E-02 0. -1.
       -2   -1    0    0    0  501  0.00000000000E+00  0.00000000000E+00 -0.99121348087E+03  0.99121348087E+03  0.25500000920E-02 0.  1.
    10030    2    1    2    0    0  0.00000000000E+00  0.00000000000E+00  0.11251532089E+04  0.31075801706E+04  0.28967369182E+04 0.  0.
        2    1    3    3  502    0 -0.10952725027E+04 -0.93199216805E+03  0.37819479711E+03  0.14870314594E+04  0.25500000920E-02 0.  1.
       -2    1    3    3    0  502  0.10952725027E+04  0.93199216805E+03  0.74695841176E+03  0.16205487112E+04  0.25500000920E-02 0. -1.
</event>
<event>
 5   0  0.1006893E-06  0.2903655E+04  0.7818609E-02  0.8271791E-01
       -2   -1    0    0    0  501  0.00000000000E+00  0.00000000000E+00  0.88868649885E+03  0.88868649885E+03  0.25500000920E-02 0.  1.
        2   -1    0    0  501    0  0.00000000000E+00  0.00000000000E+00 -0.23718182809E+04  0.23718182809E+04  0.25500000920E-02 0. -1.
    10030    2    1    2    0    0  0.00000000000E+00  0.00000000000E+00 -0.14831317821E+04  0.32605047798E+04  0.29036548583E+04 0.  0.
        4    1    3    3  502    0  0.10578774562E+04  0.16615138947E+03 -0.18424001573E+04  0.21309976418E+04  0.12699999809E+01 0. -1.
       -4    1    3    3    0  502 -0.10578774562E+04 -0.16615138947E+03  0.35926837524E+03  0.11295071380E+04  0.12699999809E+01 0.  1.
</event>
<event>
 5   0  0.3885904E-07  0.2898652E+04  0.7818609E-02  0.8273279E-01
       -1   -1    0    0    0  501  0.00000000000E+00  0.00000000000E+00  0.11827911875E+04  0.11827911875E+04  0.50400001928E-02 0.  1.
        1   -1    0    0  501    0  0.00000000000E+00  0.00000000000E+00 -0.17759231126E+04  0.17759231126E+04  0.50400001928E-02 0. -1.
    10030    2    1    2    0    0  0.00000000000E+00  0.00000000000E+00 -0.59313192513E+03  0.29587143001E+04  0.28986522435E+04 0.  0.
        2    1    3    3  502    0 -0.52702963753E+03 -0.44779339905E+03 -0.15966400066E+04  0.17399823211E+04  0.25500000920E-02 0. -1.
       -2    1    3    3    0  502  0.52702963753E+03  0.44779339905E+03  0.10035080815E+04  0.12187319790E+04  0.25500000920E-02 0.  1.
</event>
<event>
 5   0  0.3770467E-07  0.2894685E+04  0.7818609E-02  0.8274461E-01
        1   -1    0    0  501    0  0.00000000000E+00  0.00000000000E+00  0.15205856452E+04  0.15205856452E+04  0.50400001928E-02 0. -1.
       -1   -1    0    0    0  501  0.00000000000E+00  0.00000000000E+00 -0.13776271496E+04  0.13776271496E+04  0.50400001928E-02 0.  1.
    10030    2    1    2    0    0  0.00000000000E+00  0.00000000000E+00  0.14295849560E+03  0.28982127947E+04  0.28946848312E+04 0.  0.
        1    1    3    3  502    0 -0.65206773079E+03 -0.80232447961E+03  0.10855726030E+04  0.14991280040E+04  0.50400001928E-02 0. -1.
       -1    1    3    3    0  502  0.65206773079E+03  0.80232447961E+03 -0.94261410737E+03  0.13990847907E+04  0.50400001928E-02 0.  1.
</event>
<event>
 5   0  0.3638028E-07  0.2900509E+04  0.7818609E-02  0.8272726E-01
        1   -1    0    0  501    0  0.00000000000E+00  0.00000000000E+00  0.12002395434E+04  0.12002395434E+04  0.50400001928E-02 0.  1.
       -1   -1    0    0    0  501  0.00000000000E+00  0.00000000000E+00 -0.17523486655E+04  0.17523486655E+04  0.50400001928E-02 0. -1.
    10030    2    1    2    0    0  0.00000000000E+00  0.00000000000E+00 -0.55210912208E+03  0.29525882089E+04  0.29005090327E+04 0.  0.
        4    1    3    3  502    0 -0.69642785952E+03 -0.18181808823E+03 -0.15576948931E+04  0.17159500499E+04  0.12699999809E+01 0. -1.
       -4    1    3    3    0  502  0.69642785952E+03  0.18181808823E+03  0.10055857710E+04  0.12366381591E+04  0.12699999809E+01 0.  1.
</event>
<event>
 5   0  0.1006893E-06  0.2896715E+04  0.7818609E-02  0.8273856E-01
        2   -1    0    0  501    0  0.00000000000E+00  0.00000000000E+00  0.27070713767E+04  0.27070713767E+04  0.25500000920E-02 0.  1.
       -2   -1    0    0    0  501  0.00000000000E+00  0.00000000000E+00 -0.77491105944E+03  0.77491105944E+03  0.25500000920E-02 0. -1.
    10030    2    1    2    0    0  0.00000000000E+00  0.00000000000E+00  0.19321603172E+04  0.34819824361E+04  0.28967150695E+04 0.  0.
        4    1    3    3  502    0 -0.12761549803E+04 -0.54984223188E+03  0.14570680550E+04  0.20134415670E+04  0.12699999809E+01 0.  1.
       -4    1    3    3    0  502  0.12761549803E+04  0.54984223188E+03  0.47509226220E+03  0.14685408691E+04  0.12699999809E+01 0. -1.
</event>
<event>
 5   0  0.3769563E-07  0.2824862E+04  0.7818609E-02  0.8295591E-01
       -1   -1    0    0    0  501  0.00000000000E+00  0.00000000000E+00  0.84212619184E+03  0.84212619186E+03  0.50400001928E-02 0. -1.
        1   -1    0    0  501    0  0.00000000000E+00  0.00000000000E+00 -0.23689571677E+04  0.23689571677E+04  0.50400001928E-02 0.  1.
    10030    2    1    2    0    0  0.00000000000E+00  0.00000000000E+00 -0.15268309759E+04  0.32110833596E+04  0.28248616804E+04 0.  0.
        3    1    3    3  502    0  0.57362510650E+03  0.89113693741E+03 -0.18247697056E+04  0.21102026663E+04  0.10100000352E+00 0.  1.
       -3    1    3    3    0  502 -0.57362510650E+03 -0.89113693741E+03  0.29793872973E+03  0.11008806933E+04  0.10100000352E+00 0. -1.
</event>
<event>
 5   0  0.3770467E-07  0.2898669E+04  0.7818609E-02  0.8273274E-01
       -1   -1    0    0    0  501  0.00000000000E+00  0.00000000000E+00  0.18723867368E+04  0.18723867368E+04  0.50400001928E-02 0.  1.
        1   -1    0    0  501    0  0.00000000000E+00  0.00000000000E+00 -0.11218675420E+04  0.11218675421E+04  0.50400001928E-02 0. -1.
    10030    2    1    2    0    0  0.00000000000E+00  0.00000000000E+00  0.75051919472E+03  0.29942542788E+04  0.28986685952E+04 0.  0.
        1    1    3    3  502    0 -0.40790013733E+02 -0.57935389259E+03  0.17469234498E+04  0.18409389717E+04  0.50400001928E-02 0.  1.
       -1    1    3    3    0  502  0.40790013733E+02  0.57935389259E+03 -0.99640425508E+03  0.11533153071E+04  0.50400001928E-02 0. -1.
</event>
<event>
 5   0  0.3770467E-07  0.2901598E+04  0.7818609E-02  0.8272402E-01
       -1   -1    0    0    0  501  0.00000000000E+00  0.00000000000E+00  0.87790440176E+03  0.87790440178E+03  0.50400001928E-02 0. -1.
        1   -1    0    0  501    0  0.00000000000E+00  0.00000000000E+00 -0.23975474129E+04  0.23975474129E+04  0.50400001928E-02 0.  1.
    10030    2    1    2    0    0  0.00000000000E+00  0.00000000000E+00 -0.15196430111E+04  0.32754518146E+04  0.29015977855E+04 0.  0.
        1    1    3    3  502    0  0.10049478379E+04  0.90926381948E+03 -0.17528446813E+03  0.13665304589E+04  0.50400001928E-02 0. -1.
       -1    1    3    3    0  502 -0.10049478379E+04 -0.90926381948E+03 -0.13443585430E+04  0.19089213557E+04  0.50400001928E-02 0.  1.
</event>
<event>
 5   0  0.1006893E-06  0.2907603E+04  0.7818609E-02  0.8270619E-01
        2   -1    0    0  501    0  0.00000000000E+00  0.00000000000E+00  0.18822180674E+04  0.18822180674E+04  0.25500000920E-02 0.  1.
       -2   -1    0    0    0  501  0.00000000000E+00  0.00000000000E+00 -0.11228976900E+04  0.11228976900E+04  0.25500000920E-02 0. -1.
    10030    2    1    2    0    0  0.00000000000E+00  0.00000000000E+00  0.75932037739E+03  0.30051157575E+04  0.29076026689E+04 0.  0.
        4    1    3    3  502    0  0.57346723944E+03 -0.56159018433E+03 -0.87313387326E+03  0.11860069913E+04  0.12699999809E+01 0. -1.
       -4    1    3    3    0  502 -0.57346723944E+03  0.56159018433E+03  0.16324542506E+04  0.18191087662E+04  0.12699999809E+01 0.  1.
</event>
<event>
 5   0  0.9950999E-07  0.2902134E+04  0.7818609E-02  0.8272243E-01
       -2   -1    0    0    0  501  0.00000000000E+00  0.00000000000E+00  0.11797118696E+04  0.11797118697E+04  0.25500000920E-02 0.  1.
        2   -1    0    0  501    0  0.00000000000E+00  0.00000000000E+00 -0.17848388058E+04  0.17848388058E+04  0.25500000920E-02 0. -1.
    10030    2    1    2    0    0  0.00000000000E+00  0.00000000000E+00 -0.60512693615E+03  0.29645506755E+04  0.29021340594E+04 0.  0.
        3    1    3    3  502    0 -0.69674153726E+03  0.12474611170E+04 -0.44165555787E+02  0.14295309073E+04  0.10100000352E+00 0. -1.
       -3    1    3    3    0  502  0.69674153726E+03 -0.12474611170E+04 -0.56096138037E+03  0.15350197682E+04  0.10100000352E+00 0.  1.
</event>
<event>
 5   0  0.1031339E-06  0.2900656E+04  0.7818609E-02  0.8272682E-01
       -2   -1    0    0    0  501  0.00000000000E+00  0.00000000000E+00  0.11846382631E+04  0.11846382631E+04  0.25500000920E-02 0. -1.
        2   -1    0    0  501    0  0.00000000000E+00  0.00000000000E+00 -0.17756063233E+04  0.17756063233E+04  0.25500000920E-02 0.  1.
    10030    2    1    2    0    0  0.00000000000E+00  0.00000000000E+00 -0.59096806015E+03  0.29602445864E+04  0.29006559194E+04 0.  0.
        5    1    3    3  502    0 -0.10804803321E+04  0.19483894815E+00  0.69185723833E+03  0.12830145418E+04  0.46999998093E+01 0. -1.
       -5    1    3    3    0  502  0.10804803321E+04 -0.19483894815E+00 -0.12828252985E+04  0.16772300446E+04  0.46999998093E+01 0.  1.
</event>
<event>
 5   0  0.9950999E-07  0.2900997E+04  0.7818609E-02  0.8272581E-01
       -2   -1    0    0    0  501  0.00000000000E+00  0.00000000000E+00  0.16398378369E+04  0.16398378369E+04  0.25500000920E-02 0.  1.
        2   -1    0    0  501    0  0.00000000000E+00  0.00000000000E+00 -0.12830206888E+04  0.12830206888E+04  0.25500000920E-02 0. -1.
    10030    2    1    2    0    0  0.00000000000E+00  0.00000000000E+00  0.35681714818E+03  0.29228585257E+04  0.29009969810E+04 0.  0.
        3    1    3    3  502    0 -0.24989508542E+03 -0.10095399595E+04  0.11971301715E+04  0.15857929062E+04  0.10100000352E+00 0.  1.
       -3    1    3    3    0  502  0.24989508542E+03  0.10095399595E+04 -0.84031302329E+03  0.13370656195E+04  0.10100000352E+00 0. -1.
</event>
<event>
 5   0  0.3786210E-07  0.2908592E+04  0.7818609E-02  0.8270326E-01
        1   -1    0    0  501    0  0.00000000000E+00  0.00000000000E+00  0.17187764673E+04  0.17187764673E+04  0.50400001928E-02 0.  1.
       -1   -1    0    0    0  501  0.00000000000E+00  0.00000000000E+00 -0.12305133032E+04  0.12305133032E+04  0.50400001928E-02 0. -1.
    10030    2    1    2    0    0  0.00000000000E+00  0.00000000000E+00  0.48826316408E+03  0.29492897706E+04  0.29085923113E+04 0.  0.
        5    1    3    3  502    0 -0.50384075362E+03 -0.81938807517E+02  0.16249438370E+04  0.17032422131E+04  0.46999998093E+01 0.  1.
       -5    1    3    3    0  502  0.50384075362E+03  0.81938807517E+02 -0.11366806729E+04  0.12460475574E+04  0.46999998093E+01 0. -1.
</event>
<event>
 5   0  0.1031339E-06  0.2900347E+04  0.7818609E-02  0.8272774E-01
        2   -1    0    0  501    0  0.00000000000E+00  0.00000000000E+00  0.19426396775E+04  0.19426396775E+04  0.25500000920E-02 0. -1.
       -2   -1    0    0    0  501  0.00000000000E+00  0.00000000000E+00 -0.10825490228E+04  0.10825490228E+04  0.25500000920E-02 0.  1.
    10030    2    1    2    0    0  0.00000000000E+00  0.00000000000E+00  0.86009065472E+03  0.30251887004E+04  0.29003466583E+04 0.  0.
        5    1    3    3  502    0 -0.63870698111E+03  0.77780575470E+03 -0.65895047870E+03  0.12029822206E+04  0.46999998093E+01 0.  1.
       -5    1    3    3    0  502  0.63870698111E+03 -0.77780575470E+03  0.15190411334E+04  0.18222064797E+04  0.46999998093E+01 0. -1.
</event>
<event>
 5   0  0.9994311E-07  0.2899201E+04  0.7818609E-02  0.8273115E-01
       -2   -1    0    0    0  501  0.00000000000E+00  0.00000000000E+00  0.13602360214E+04  0.13602360214E+04  0.25500000920E-02 0. -1.
        2   -1    0    0  501    0  0.00000000000E+00  0.00000000000E+00 -0.15448360421E+04  0.15448360421E+04  0.25500000920E-02 0.  1.
    10030    2    1    2    0    0  0.00000000000E+00  0.00000000000E+00 -0.18460002069E+03  0.29050720635E+04  0.28992010152E+04 0.  0.
        2    1    3    3  502    0 -0.41491498018E+03 -0.19192647998E+03  0.12861133593E+04  0.13649460749E+04  0.25500000920E-02 0. -1.
       -2    1    3    3    0  502  0.41491498018E+03  0.19192647998E+03 -0.14707133800E+04  0.15401259885E+04  0.25500000920E-02 0.  1.
</event>
<event>
 5   0  0.1031339E-06  0.2903804E+04  0.7818609E-02  0.8271747E-01
        2   -1    0    0  501    0  0.00000000000E+00  0.00000000000E+00  0.24208574832E+04  0.24208574832E+04  0.25500000920E-02 0.  1.
       -2   -1    0    0    0  501  0.00000000000E+00  0.00000000000E+00 -0.87077359407E+03  0.87077359407E+03  0.25500000920E-02 0. -1.
    10030    2    1    2    0    0  0.00000000000E+00  0.00000000000E+00  0.15500838891E+04  0.32916310773E+04  0.29038035549E+04 0.  0.
        5    1    3    3  502    0 -0.14259167432E+04  0.27313723873E+03  0.76096701552E+03  0.16391874202E+04  0.46999998093E+01 0. -1.
       -5    1    3    3    0  502  0.14259167432E+04 -0.27313723873E+03  0.78911687363E+03  0.16524436571E+04  0.46999998093E+01 0.  1.
</event>
<event>
 5   0  0.3770467E-07  0.2902844E+04  0.7818609E-02  0.8272032E-01
       -1   -1    0    0    0  501  0.00000000000E+00  0.00000000000E+00  0.15723235322E+04  0.15723235322E+04  0.50400001928E-02 0. -1.
        1   -1    0    0  501    0  0.00000000000E+00  0.00000000000E+00 -0.13398168163E+04  0.13398168163E+04  0.50400001928E-02 0.  1.
    10030    2    1    2    0    0  0.00000000000E+00  0.00000000000E+00  0.23250671592E+03  0.29121403485E+04  0.29028437844E+04 0.  0.
        1    1    3    3  502    0  0.19996683659E+03 -0.28489744977E+03 -0.12973271360E+04  0.13432092132E+04  0.50400001928E-02 0.  1.
       -1    1    3    3    0  502 -0.19996683659E+03  0.28489744977E+03  0.15298338519E+04  0.15689311353E+04  0.50400001928E-02 0. -1.
</event>
<event>
 5   0  0.9994311E-07  0.2903038E+04  0.7818609E-02  0.8271974E-01
        2   -1    0    0  501    0  0.00000000000E+00  0.00000000000E+00  0.14241626997E+04  0.14241626997E+04  0.25500000920E-02 0. -1.
       -2   -1    0    0    0  501  0.00000000000E+00  0.00000000000E+00 -0.14794006102E+04  0.14794006102E+04  0.25500000920E-02 0.  1.
    10030    2    1    2    0    0  0.00000000000E+00  0.00000000000E+00 -0.55237910482E+02  0.29035633099E+04  0.29030378344E+04 0.  0.
        2    1    3    3  502    0 -0.94237637361E+03  0.40440806007E+01  0.10765815955E+04  0.14307751452E+04  0.25500000920E-02 0. -1.
       -2    1    3    3    0  502  0.94237637361E+03 -0.40440806007E+01 -0.11318195060E+04  0.14727881648E+04  0.25500000920E-02 0.  1.
</event>
<event>
 5   0  0.3786210E-07  0.2900676E+04  0.7818609E-02  0.8272676E-01
        1   -1    0    0  501    0  0.00000000000E+00  0.00000000000E+00  0.13596888747E+04  0.13596888747E+04  0.50400001928E-02 0. -1.
       -1   -1    0    0    0  501  0.00000000000E+00  0.00000000000E+00 -0.15470303352E+04  0.15470303352E+04  0.50400001928E-02 0.  1.
    10030    2    1    2    0    0  0.00000000000E+00  0.00000000000E+00 -0.18734146049E+03  0.29067192099E+04  0.29006757389E+04 0.  0.
        5    1    3    3  502    0 -0.14025151500E+04 -0.21758897869E+03 -0.39272866360E+03  0.14726342393E+04  0.46999998093E+01 0. -1.
       -5    1    3    3    0  502  0.14025151500E+04  0.21758897869E+03  0.20538720311E+03  0.14340849705E+04  0.46999998093E+01 0.  1.
</event>
<event>
 5   0  0.3769563E-07  0.2950948E+04  0.7818609E-02  0.8257878E-01
       -1   -1    0    0    0  501  0.00000000000E+00  0.00000000000E+00  0.10782955765E+04  0.10782955765E+04  0.50400001928E-02 0.  1.
        1   -1    0    0  501    0  0.00000000000E+00  0.00000000000E+00 -0.20189484210E+04  0.20189484210E+04  0.50400001928E-02 0. -1.
    10030    2    1    2    0    0  0.00000000000E+00  0.00000000000E+00 -0.94065284444E+03  0.30972439975E+04  0.29509477471E+04 0.  0.
        3    1    3    3  502    0 -0.92394327969E+02  0.10603369434E+04 -0.15428328934E+04  0.18743490850E+04  0.10100000352E+00 0. -1.
       -3    1    3    3    0  502  0.92394327969E+02 -0.10603369434E+04  0.60218004891E+03  0.12228949125E+04  0.10100000352E+00 0.  1.
</event>
<event>
 5   0  0.1006893E-06  0.2898991E+04  0.7818609E-02  0.8273178E-01
       -2   -1    0    0    0  501  0.00000000000E+00  0.00000000000E+00  0.13217090377E+04  0.13217090377E+04  0.25500000920E-02 0. -1.
        2   -1    0    0  501    0  0.00000000000E+00  0.00000000000E+00 -0.15896367861E+04  0.15896367861E+04  0.25500000920E-02 0.  1.
    10030    2    1    2    0    0  0.00000000000E+00  0.00000000000E+00 -0.26792774840E+03  0.29113458239E+04  0.28989910707E+04 0.  0.
        4    1    3    3  502    0 -0.11362745698E+04 -0.88952232570E+03  0.32413193279E+01  0.14430460786E+04  0.12699999809E+01 0.  1.
       -4    1    3    3    0  502  0.11362745698E+04  0.88952232570E+03 -0.27116906773E+03  0.14682997453E+04  0.12699999809E+01 0. -1.
</event>
<event>
 5   0  0.3786210E-07  0.2893665E+04  0.7818609E-02  0.8274765E-01
       -1   -1    0    0    0  501  0.00000000000E+00  0.00000000000E+00  0.11215487052E+04  0.11215487052E+04  0.50400001928E-02 0.  1.
        1   -1    0    0  501    0  0.00000000000E+00  0.00000000000E+00 -0.18664584104E+04  0.18664584104E+04  0.50400001928E-02 0. -1.
    10030    2    1    2    0    0  0.00000000000E+00  0.00000000000E+00 -0.74490970523E+03  0.29880071156E+04  0.28936648137E+04 0.  0.
        5    1    3    3  502    0 -0.92922978336E+03  0.13633514055E+03 -0.15089031981E+04  0.17773199521E+04  0.46999998093E+01 0. -1.
       -5    1    3    3    0  502  0.92922978336E+03 -0.13633514055E+03  0.76399349289E+03  0.12106871636E+04  0.46999998093E+01 0.  1.
</event>
<event>
 5   0  0.3770467E-07  0.2903494E+04  0.7818609E-02  0.8271839E-01
       -1   -1    0    0    0  501  0.00000000000E+00  0.00000000000E+00  0.20594330592E+04  0.20594330592E+04  0.50400001928E-02 0. -1.
        1   -1    0    0  501    0  0.00000000000E+00  0.00000000000E+00 -0.10233738640E+04  0.10233738640E+04  0.50400001928E-02 0.  1.
    10030    2    1    2    0    0  0.00000000000E+00  0.00000000000E+00  0.10360591952E+04  0.30828069232E+04  0.29034944239E+04 0.  0.
        1    1    3    3  502    0  0.13202126434E+04 -0.37853170516E+03  0.18526818694E+02  0.13735322780E+04  0.50400001928E-02 0.  1.
       -1    1    3    3    0  502 -0.13202126434E+04  0.37853170516E+03  0.10175323765E+04  0.17092746452E+04  0.50400001928E-02 0. -1.
</event>
<event>
 5   0  0.3769563E-07  0.2903985E+04  0.7818609E-02  0.8271693E-01
       -1   -1    0    0    0  501  0.00000000000E+00  0.00000000000E+00  0.33149802790E+04  0.33149802790E+04  0.50400001928E-02 0. -1.
        1   -1    0    0  501    0  0.00000000000E+00  0.00000000000E+00 -0.63598654366E+03  0.63598654368E+03  0.50400001928E-02 0.  1.
    10030    2    1    2    0    0  0.00000000000E+00  0.00000000000E+00  0.26789937354E+04  0.39509668227E+04  0.29039854339E+04 0.  0.
        3    1    3    3  502    0  0.67342678673E+03  0.50628624729E+02 -0.40931202790E+03  0.78968553305E+03  0.10100000352E+00 0.  1.
       -3    1    3    3    0  502 -0.67342678673E+03 -0.50628624729E+02  0.30883057633E+04  0.31612812897E+04  0.10100000352E+00 0. -1.
</event>
<event>
 5   0  0.1031339E-06  0.2898142E+04  0.7818609E-02  0.8273431E-01
       -2   -1    0    0    0  501  0.00000000000E+00  0.00000000000E+00  0.12443461159E+04  0.12443461159E+04  0.25500000920E-02 0.  1.
        2   -1    0    0  501    0  0.00000000000E+00  0.00000000000E+00 -0.16874774798E+04  0.16874774798E+04  0.25500000920E-02 0. -1.
    10030    2    1    2    0    0  0.00000000000E+00  0.00000000000E+00 -0.44313136396E+03  0.29318235957E+04  0.28981415063E+04 0.  0.
        5    1    3    3  502    0  0.65053191899E+03 -0.12653979815E+04 -0.49927411261E+03  0.15078861226E+04  0.46999998093E+01 0. -1.
       -5    1    3    3    0  502 -0.65053191899E+03  0.12653979815E+04  0.56142748650E+02  0.14239374731E+04  0.46999998093E+01 0.  1.
</event>
<event>
 5   0  0.3638028E-07  0.2878128E+04  0.7818609E-02  0.8279415E-01
       -1   -1    0    0    0  501  0.00000000000E+00  0.00000000000E+00  0.13765690958E+04  0.13765690958E+04  0.50400001928E-02 0. -1.
        1   -1    0    0  501    0  0.00000000000E+00  0.00000000000E+00 -0.15043960809E+04  0.15043960809E+04  0.50400001928E-02 0.  1.
    10030    2    1    2    0    0  0.00000000000E+00  0.00000000000E+00 -0.12782698509E+03  0.28809651767E+04  0.28781279699E+04 0.  0.
        4    1    3    3  502    0 -0.33904045651E+03  0.45558125332E+03  0.12596610666E+04  0.13817562466E+04  0.12699999809E+01 0. -1.
       -4    1    3    3    0  502  0.33904045651E+03 -0.45558125332E+03 -0.13874880517E+04  0.14992089300E+04  0.12699999809E+01 0.  1.
</event>
<event>
 5   0  0.3786210E-07  0.2900308E+04  0.7818609E-02  0.8272786E-01
        1   -1    0    0  501    0  0.00000000000E+00  0.00000000000E+00  0.25894651805E+04  0.25894651805E+04  0.50400001928E-02 0. -1.
       -1   -1    0    0    0  501  0.00000000000E+00  0.00000000000E+00 -0.81211604685E+03  0.81211604687E+03  0.50400001928E-02 0.  1.
    10030    2    1    2    0    0  0.00000000000E+00  0.00000000000E+00  0.17773491337E+04  0.34015812274E+04  0.29003077257E+04 0.  0.
        5    1    3    3  502    0  0.70979255330E+03  0.15797118371E+03  0.23601795031E+04  0.24696618676E+04  0.46999998093E+01 0. -1.
       -5    1    3    3    0  502 -0.70979255330E+03 -0.15797118371E+03 -0.58283036942E+03  0.93191935977E+03  0.46999998093E+01 0.  1.
</event>
<event>
 5   0  0.1031339E-06  0.2902031E+04  0.7818609E-02  0.8272273E-01
       -2   -1    0    0    0  501  0.00000000000E+00  0.00000000000E+00  0.10657355029E+04  0.10657355029E+04  0.25500000920E-02 0. -1.
        2   -1    0    0  501    0  0.00000000000E+00  0.00000000000E+00 -0.19755800435E+04  0.19755800435E+04  0.25500000920E-02 0.  1.
    10030    2    1    2    0    0  0.00000000000E+00  0.00000000000E+00 -0.90984454062E+03  0.30413155463E+04  0.29020308689E+04 0.  0.
        5    1    3    3  502    0  0.23707099900E+03  0.83417509502E+02 -0.19525892072E+04  0.19687020703E+04  0.46999998093E+01 0.  1.
       -5    1    3    3    0  502 -0.23707099900E+03 -0.83417509502E+02  0.10427446665E+04  0.10726134761E+04  0.46999998093E+01 0. -1.
</event>
<event>
 5   0  0.3786210E-07  0.2897779E+04  0.7818609E-02  0.8273539E-01
        1   -1    0    0  501    0  0.00000000000E+00  0.00000000000E+00  0.20855224298E+04  0.20855224298E+04  0.50400001928E-02 0.  1.
       -1   -1    0    0    0  501  0.00000000000E+00  0.00000000000E+00 -0.10065970417E+04  0.10065970417E+04  0.50400001928E-02 0. -1.
    10030    2    1    2    0    0  0.00000000000E+00  0.00000000000E+00  0.10789253881E+04  0.30921194716E+04  0.28977789483E+04 0.  0.
        5    1    3    3  502    0  0.38736292258E+03 -0.62064655384E+03 -0.79501181083E+03  0.10804249386E+04  0.46999998093E+01 0. -1.
       -5    1    3    3    0  502 -0.38736292258E+03  0.62064655384E+03  0.18739371989E+04  0.20116945330E+04  0.46999998093E+01 0.  1.
</event>
<event>
 5   0  0.1006893E-06  0.2886341E+04  0.7818609E-02  0.8276953E-01
        2   -1    0    0  501    0  0.00000000000E+00  0.00000000000E+00  0.18714830251E+04  0.18714830251E+04  0.25500000920E-02 0. -1.
       -2   -1    0    0    0  501  0.00000000000E+00  0.00000000000E+00 -0.11128828250E+04  0.11128828250E+04  0.25500000920E-02 0.  1.
    10030    2    1    2    0    0  0.00000000000E+00  0.00000000000E+00  0.75860020008E+03  0.29843658501E+04  0.28863411551E+04 0.  0.
        4    1    3    3  502    0  0.24423281412E+03 -0.55062527275E+03  0.17352893016E+04  0.18368637488E+04  0.12699999809E+01 0. -1.
       -4    1    3    3    0  502 -0.24423281412E+03  0.55062527275E+03 -0.97668910153E+03  0.11475021013E+04  0.12699999809E+01 0.  1.
</event>
<event>
 5   0  0.3638028E-07  0.2890026E+04  0.7818609E-02  0.8275851E-01
        1   -1    0    0  501    0  0.00000000000E+00  0.00000000000E+00  0.22726274266E+04  0.22726274267E+04  0.50400001928E-02 0. -1.
       -1   -1    0    0    0  501  0.00000000000E+00  0.00000000000E+00 -0.91878787375E+03  0.91878787377E+03  0.50400001928E-02 0.  1.
    10030    2    1    2    0    0  0.00000000000E+00  0.00000000000E+00  0.13538395529E+04  0.31914153004E+04  0.28900259661E+04 0.  0.
        4    1    3    3  502    0 -0.73654959566E+03 -0.11509515091E+04  0.15794502182E+03  0.13755518624E+04  0.12699999809E+01 0.  1.
       -4    1    3    3    0  502  0.73654959566E+03  0.11509515091E+04  0.11958945311E+04  0.18158634380E+04  0.12699999809E+01 0. -1.
</event>
<event>
 5   0  0.3885904E-07  0.2898907E+04  0.7818609E-02  0.8273203E-01
        1   -1    0    0  501    0  0.00000000000E+00  0.00000000000E+00  0.10999484307E+04  0.10999484307E+04  0.50400001928E-02 0.  1.
       -1   -1    0    0    0  501  0.00000000000E+00  0.00000000000E+00 -0.19100121526E+04  0.19100121526E+04  0.50400001928E-02 0. -1.
    10030    2    1    2    0    0  0.00000000000E+00  0.00000000000E+00 -0.81006372186E+03  0.30099605833E+04  0.28989066007E+04 0.  0.
        2    1    3    3  502    0 -0.96431707645E+03  0.94900737697E+03  0.13488123436E+03  0.13596747305E+04  0.25500000920E-02 0.  1.
       -2    1    3    3    0  502  0.96431707645E+03 -0.94900737697E+03 -0.94494495622E+03  0.16502858527E+04  0.25500000920E-02 0. -1.
</event>
<event>
 5   0  0.3769563E-07  0.2889216E+04  0.7818609E-02  0.8276093E-01
        1   -1    0    0  501    0  0.00000000000E+00  0.00000000000E+00  0.93936431183E+03  0.93936431185E+03  0.50400001928E-02 0. -1.
       -1   -1    0    0    0  501  0.00000000000E+00  0.00000000000E+00 -0.22216001542E+04  0.22216001542E+04  0.50400001928E-02 0.  1.
    10030    2    1    2    0    0  0.00000000000E+00  0.00000000000E+00 -0.12822358424E+04  0.31609644661E+04  0.28892157414E+04 0.  0.
        3    1    3    3  502    0  0.43064861067E+03 -0.10901434801E+04 -0.15649451496E+04  0.19552300029E+04  0.10100000352E+00 0.  1.
       -3    1    3    3    0  502 -0.43064861067E+03  0.10901434801E+04  0.28270930717E+03  0.12057344631E+04  0.10100000352E+00 0. -1.
</event>
<event>
 5   0  0.9950999E-07  0.2909740E+04  0.7818609E-02  0.8269985E-01
       -2   -1    0    0    0  501  0.00000000000E+00  0.00000000000E+00  0.13470826695E+04  0.13470826695E+04  0.25500000920E-02 0.  1.
        2   -1    0    0  501    0  0.00000000000E+00  0.00000000000E+00 -0.15712824790E+04  0.15712824790E+04  0.25500000920E-02 0. -1.
    10030    2    1    2    0    0  0.00000000000E+00  0.00000000000E+00 -0.22419980956E+03  0.29183651485E+04  0.29097404670E+04 0.  0.
        3    1    3    3  502    0 -0.29461056555E+03  0.16567802347E+03  0.13071572670E+04  0.13501498893E+04  0.10100000352E+00 0.  1.
       -3    1    3    3    0  502  0.29461056555E+03 -0.16567802347E+03 -0.15313570766E+04  0.15682152591E+04  0.10100000352E+00 0. -1.
</event>
<event>
 5   0  0.3885904E-07  0.2914736E+04  0.7818609E-02  0.8268507E-01
       -1   -1    0    0    0  501  0.00000000000E+00  0.00000000000E+00  0.12063855350E+04  0.12063855350E+04  0.50400001928E-02 0.  1.
        1   -1    0    0  501    0  0.00000000000E+00  0.00000000000E+00 -0.17605655362E+04  0.17605655362E+04  0.50400001928E-02 0. -1.
    10030    2    1    2    0    0  0.00000000000E+00  0.00000000000E+00 -0.55418000122E+03  0.29669510712E+04  0.29147355258E+04 0.  0.
        2    1    3    3  502    0 -0.23057863029E+03 -0.95734985716E+02  0.11844553142E+04  0.12104817568E+04  0.25500000920E-02 0.  1.
       -2    1    3    3    0  502  0.23057863029E+03  0.95734985716E+02 -0.17386353155E+04  0.17564693144E+04  0.25500000920E-02 0. -1.
</event>
<event>
 5   0  0.3885904E-07  0.2928694E+04  0.7818609E-02  0.8264391E-01
       -1   -1    0    0    0  501  0.00000000000E+00  0.00000000000E+00  0.15905023797E+04  0.15905023797E+04  0.50400001928E-02 0. -1.
        1   -1    0    0  501    0  0.00000000000E+00  0.00000000000E+00 -0.13481981585E+04  0.13481981585E+04  0.50400001928E-02 0.  1.
    10030    2    1    2    0    0  0.00000000000E+00  0.00000000000E+00  0.24230422118E+03  0.29387005383E+04  0.29286941660E+04 0.  0.
        2    1    3    3  502    0 -0.17031462042E+03  0.93440047885E+01 -0.13381959225E+04  0.13490228714E+04  0.25500000920E-02 0.  1.
       -2    1    3    3    0  502  0.17031462042E+03 -0.93440047885E+01  0.15805001437E+04  0.15896776669E+04  0.25500000920E-02 0. -1.
</event>
<event>
 5   0  0.1031339E-06  0.2905130E+04  0.7818609E-02  0.8271353E-01
        2   -1    0    0  501    0  0.00000000000E+00  0.00000000000E+00  0.17684542233E+04  0.17684542233E+04  0.25500000920E-02 0. -1.
       -2   -1    0    0    0  501  0.00000000000E+00  0.00000000000E+00 -0.11931011406E+04  0.11931011406E+04  0.25500000920E-02 0.  1.
    10030    2    1    2    0    0  0.00000000000E+00  0.00000000000E+00  0.57535308275E+03  0.29615553639E+04  0.29051297739E+04 0.  0.
        5    1    3    3  502    0  0.10677295392E+04 -0.94763168787E+03  0.56097021541E+03  0.15338715257E+04  0.46999998093E+01 0. -1.
       -5    1    3    3    0  502 -0.10677295392E+04  0.94763168787E+03  0.14382867347E+02  0.14276838381E+04  0.46999998093E+01 0.  1.
</event>
<event>
 5   0  0.1006893E-06  0.2899733E+04  0.7818609E-02  0.8272957E-01
        2   -1    0    0  501    0  0.00000000000E+00  0.00000000000E+00  0.16191191126E+04  0.16191191126E+04  0.25500000920E-02 0. -1.
       -2   -1    0    0    0  501  0.00000000000E+00  0.00000000000E+00 -0.12983061020E+04  0.12983061020E+04  0.25500000920E-02 0.  1.
    10030    2    1    2    0    0  0.00000000000E+00  0.00000000000E+00  0.32081301061E+03  0.29174252147E+04  0.28997325558E+04 0.  0.
        4    1    3    3  502    0  0.10385779139E+04 -0.10064970865E+04  0.57655303614E+02  0.14474136297E+04  0.12699999809E+01 0. -1.
       -4    1    3    3    0  502 -0.10385779139E+04  0.10064970865E+04  0.26315770700E+03  0.14700115850E+04  0.12699999809E+01 0.  1.
</event>
<event>
 5   0  0.3885904E-07  0.2890374E+04  0.7818609E-02  0.8275747E-01
        1   -1    0    0  501    0  0.00000000000E+00  0.00000000000E+00  0.14799754739E+04  0.14799754739E+04  0.50400001928E-02 0. -1.
       -1   -1    0    0    0  501  0.00000000000E+00  0.00000000000E+00 -0.14112160346E+04  0.14112160346E+04  0.50400001928E-02 0.  1.
    10030    2    1    2    0    0  0.00000000000E+00  0.00000000000E+00  0.68759439247E+02  0.28911915085E+04  0.28903737610E+04 0.  0.
        2    1    3    3  502    0 -0.35632064499E+03 -0.12302466418E+04 -0.63520784307E+03  0.14296713628E+04  0.25500000920E-02 0.  1.
       -2    1    3    3    0  502  0.35632064499E+03  0.12302466418E+04  0.70396728231E+03  0.14615201457E+04  0.25500000920E-02 0. -1.
</event>
<event>
 5   0  0.3769563E-07  0.2898343E+04  0.7818609E-02  0.8273371E-01
        1   -1    0    0  501    0  0.00000000000E+00  0.00000000000E+00  0.19408754438E+04  0.19408754438E+04  0.50400001928E-02 0.  1.
       -1   -1    0    0    0  501  0.00000000000E+00  0.00000000000E+00 -0.10820366668E+04  0.10820366668E+04  0.50400001928E-02 0. -1.
    10030    2    1    2    0    0  0.00000000000E+00  0.00000000000E+00  0.85883877697E+03  0.30229121106E+04  0.28983432481E+04 0.  0.
        3    1    3    3  502    0 -0.12088729442E+04  0.41469159888E+03 -0.28313892370E+03  0.13090112977E+04  0.10100000352E+00 0. -1.
       -3    1    3    3    0  502  0.12088729442E+04 -0.41469159888E+03  0.11419777007E+04  0.17139008129E+04  0.10100000352E+00 0.  1.
</event>
<event>
 5   0  0.3769563E-07  0.2900788E+04  0.7818609E-02  0.8272643E-01
       -1   -1    0    0    0  501  0.00000000000E+00  0.00000000000E+00  0.17188180628E+04  0.17188180628E+04  0.50400001928E-02 0. -1.
        1   -1    0    0  501    0  0.00000000000E+00  0.00000000000E+00 -0.12238889370E+04  0.12238889370E+04  0.50400001928E-02 0.  1.
    10030    2    1    2    0    0  0.00000000000E+00  0.00000000000E+00  0.49492912576E+03  0.29427069998E+04  0.29007877632E+04 0.  0.
        3    1    3    3  502    0  0.50605410907E+03  0.11362237608E+04 -0.50933708820E+03  0.13440682555E+04  0.10100000352E+00 0. -1.
       -3    1    3    3    0  502 -0.50605410907E+03 -0.11362237608E+04  0.10042662140E+04  0.15986387443E+04  0.10100000352E+00 0.  1.
</event>
<event>
 5   0  0.9994311E-07  0.2897994E+04  0.7818609E-02  0.8273475E-01
       -2   -1    0    0    0  501  0.00000000000E+00  0.00000000000E+00  0.98549068456E+03  0.98549068457E+03  0.25500000920E-02 0. -1.
        2   -1    0    0  501    0  0.00000000000E+00  0.00000000000E+00 -0.21305040176E+04  0.21305040176E+04  0.25500000920E-02 0.  1.
    10030    2    1    2    0    0  0.00000000000E+00  0.00000000000E+00 -0.11450133330E+04  0.31159947021E+04  0.28979936941E+04 0.  0.
        2    1    3    3  502    0  0.13479312528E+03 -0.14271243933E+04 -0.79993296005E+03  0.16415681409E+04  0.25500000920E-02 0.  1.
       -2    1    3    3    0  502 -0.13479312528E+03  0.14271243933E+04 -0.34508037294E+03  0.14744265612E+04  0.25500000920E-02 0. -1.
</event>
<event>
 5   0  0.3770467E-07  0.2886952E+04  0.7818609E-02  0.8276770E-01
       -1   -1    0    0    0  501  0.00000000000E+00  0.00000000000E+00  0.18777606029E+04  0.18777606029E+04  0.50400001928E-02 0.  1.
        1   -1    0    0  501    0  0.00000000000E+00  0.00000000000E+00 -0.11096316481E+04  0.11096316481E+04  0.50400001928E-02 0. -1.
    10030    2    1    2    0    0  0.00000000000E+00  0.00000000000E+00  0.76812895485E+03  0.29873922510E+04  0.28869517436E+04 0.  0.
        1    1    3    3  502    0  0.41433602113E+03  0.40864101450E+03 -0.98286327214E+03  0.11422267852E+04  0.50400001928E-02 0. -1.
       -1    1    3    3    0  502 -0.41433602113E+03 -0.40864101450E+03  0.17509922270E+04  0.18451654658E+04  0.50400001928E-02 0.  1.
</event>
<event>
 5   0  0.1031339E-06  0.2902996E+04  0.7818609E-02  0.8271986E-01
       -2   -1    0    0    0  501  0.00000000000E+00  0.00000000000E+00  0.14033823627E+04  0.14033823627E+04  0.25500000920E-02 0.  1.
        2   -1    0    0  501    0  0.00000000000E+00  0.00000000000E+00 -0.15012638017E+04  0.15012638017E+04  0.25500000920E-02 0. -1.
    10030    2    1    2    0    0  0.00000000000E+00  0.00000000000E+00 -0.97881438949E+02  0.29046461644E+04  0.29029964803E+04 0.  0.
        5    1    3    3  502    0  0.10822008401E+04  0.66289380647E+03 -0.75378279291E+03  0.14760750136E+04  0.46999998093E+01 0. -1.
       -5    1    3    3    0  502 -0.10822008401E+04 -0.66289380647E+03  0.65590135396E+03  0.14285711508E+04  0.46999998093E+01 0.  1.
</event>
<event>
 5   0  0.3769563E-07  0.2917571E+04  0.7818609E-02  0.8267669E-01
       -1   -1    0    0    0  501  0.00000000000E+00  0.00000000000E+00  0.15932796459E+04  0.15932796459E+04  0.50400001928E-02 0.  1.
        1   -1    0    0  501    0  0.00000000000E+00  0.00000000000E+00 -0.13356441392E+04  0.13356441392E+04  0.50400001928E-02 0. -1.
    10030    2    1    2    0    0  0.00000000000E+00  0.00000000000E+00  0.25763550670E+03  0.29289237852E+04  0.29175706478E+04 0.  0.
        3    1    3    3  502    0 -0.94148127712E+03  0.20762791932E+03  0.12278647528E+04  0.15611368324E+04  0.10100000352E+00 0.  1.
       -3    1    3    3    0  502  0.94148127712E+03 -0.20762791932E+03 -0.97022924609E+03  0.13677869528E+04  0.10100000352E+00 0. -1.
</event>
<event>
 5   0  0.9994311E-07  0.2897087E+04  0.7818609E-02  0.8273745E-01
       -2   -1    0    0    0  501  0.00000000000E+00  0.00000000000E+00  0.13673267502E+04  0.13673267502E+04  0.25500000920E-02 0.  1.
        2   -1    0    0  501    0  0.00000000000E+00  0.00000000000E+00 -0.15345846769E+04  0.15345846769E+04  0.25500000920E-02 0. -1.
    10030    2    1    2    0    0  0.00000000000E+00  0.00000000000E+00 -0.16725792674E+03  0.29019114271E+04  0.28970872815E+04 0.  0.
        2    1    3    3  502    0 -0.29579063618E+03 -0.17611346785E+03 -0.14930151516E+04  0.15321887276E+04  0.25500000920E-02 0. -1.
       -2    1    3    3    0  502  0.29579063618E+03  0.17611346785E+03  0.13257572249E+04  0.13697226995E+04  0.25500000920E-02 0.  1.
</event>
<event>
 5   0  0.3378750E-07  0.2901471E+04  0.7818609E-02  0.8272440E-01
        3   -1    0    0  501    0  0.00000000000E+00  0.00000000000E+00  0.11752386395E+04  0.11752386438E+04  0.10100000352E+00 0. -1.
       -3   -1    0    0    0  501  0.00000000000E+00  0.00000000000E+00 -0.17908132888E+04  0.17908132916E+04  0.10100000352E+00 0.  1.
    10030    2    1    2    0    0  0.00000000000E+00  0.00000000000E+00 -0.61557464934E+03  0.29660519354E+04  0.29014706503E+04 0.  0.
        5    1    3    3  502    0 -0.33554782815E+03 -0.25593089902E+03  0.11110973448E+04  0.11885505331E+04  0.46999998093E+01 0. -1.
       -5    1    3    3    0  502  0.33554782815E+03  0.25593089902E+03 -0.17266719941E+04  0.17775014024E+04  0.46999998093E+01 0.  1.
</event>
<event>
 5   0  0.1031339E-06  0.2897505E+04  0.7818609E-02  0.8273620E-01
       -2   -1    0    0    0  501  0.00000000000E+00  0.00000000000E+00  0.77046891598E+03  0.77046891599E+03  0.25500000920E-02 0.  1.
        2   -1    0    0  501    0  0.00000000000E+00  0.00000000000E+00 -0.27241646261E+04  0.27241646261E+04  0.25500000920E-02 0. -1.
    10030    2    1    2    0    0  0.00000000000E+00  0.00000000000E+00 -0.19536957101E+04  0.34946335421E+04  0.28975052486E+04 0.  0.
        5    1    3    3  502    0 -0.14130598275E+04 -0.29363357584E+03 -0.11289451033E+04  0.18323476442E+04  0.46999998093E+01 0. -1.
       -5    1    3    3    0  502  0.14130598275E+04  0.29363357584E+03 -0.82475060686E+03  0.16622858979E+04  0.46999998093E+01 0.  1.
</event>
<event>
 5   0  0.3770467E-07  0.2894212E+04  0.7818609E-02  0.8274602E-01
       -1   -1    0    0    0  501  0.00000000000E+00  0.00000000000E+00  0.14363378179E+04  0.14363378179E+04  0.50400001928E-02 0. -1.
        1   -1    0    0  501    0  0.00000000000E+00  0.00000000000E+00 -0.14579550925E+04  0.14579550925E+04  0.50400001928E-02 0.  1.
    10030    2    1    2    0    0  0.00000000000E+00  0.00000000000E+00 -0.21617274529E+02  0.28942929104E+04  0.28942121803E+04 0.  0.
        1    1    3    3  502    0 -0.82614169474E+03 -0.30844419939E+03 -0.11582150846E+04  0.14557163550E+04  0.50400001928E-02 0.  1.
       -1    1    3    3    0  502  0.82614169474E+03  0.30844419939E+03  0.11365978101E+04  0.14385765554E+04  0.50400001928E-02 0. -1.
</event>
<event>
 5   0  0.3638028E-07  0.2900813E+04  0.7818609E-02  0.8272636E-01
        1   -1    0    0  501    0  0.00000000000E+00  0.00000000000E+00  0.24185635083E+04  0.24185635083E+04  0.50400001928E-02 0. -1.
       -1   -1    0    0    0  501  0.00000000000E+00  0.00000000000E+00 -0.86980506809E+03  0.86980506811E+03  0.50400001928E-02 0.  1.
    10030    2    1    2    0    0  0.00000000000E+00  0.00000000000E+00  0.15487584402E+04  0.32883685764E+04  0.29008128496E+04 0.  0.
        4    1    3    3  502    0  0.69460927834E+02  0.10974235890E+04  0.18465261559E+04  0.21491449024E+04  0.12699999809E+01 0. -1.
       -4    1    3    3    0  502 -0.69460927834E+02 -0.10974235890E+04 -0.29776771569E+03  0.11392236740E+04  0.12699999809E+01 0.  1.
</event>
<event>
 5   0  0.9950999E-07  0.2909630E+04  0.7818609E-02  0.8270018E-01
        2   -1    0    0  501    0  0.00000000000E+00  0.00000000000E+00  0.19510659679E+04  0.19510659679E+04  0.25500000920E-02 0.  1.
       -2   -1    0    0    0  501  0.00000000000E+00  0.00000000000E+00 -0.10847848073E+04  0.10847848073E+04  0.25500000920E-02 0. -1.
    10030    2    1    2    0    0  0.00000000000E+00  0.00000000000E+00  0.86628116061E+03  0.30358507753E+04  0.29096300247E+04 0.  0.
        3    1    3    3  502    0 -0.92387793988E+03 -0.58642721475E+03  0.14333932338E+04  0.18033478585E+04  0.10100000352E+00 0.  1.
       -3    1    3    3    0  502  0.92387793988E+03  0.58642721475E+03 -0.56711207319E+03  0.12325029167E+04  0.10100000352E+00 0. -1.
</event>
<event>
 5   0  0.3786210E-07  0.2909961E+04  0.7818609E-02  0.8269920E-01
       -1   -1    0    0    0  501  0.00000000000E+00  0.00000000000E+00  0.11273080722E+04  0.11273080722E+04  0.50400001928E-02 0. -1.
        1   -1    0    0  501    0  0.00000000000E+00  0.00000000000E+00 -0.18778966656E+04  0.18778966656E+04  0.50400001928E-02 0.  1.
    10030    2    1    2    0    0  0.00000000000E+00  0.00000000000E+00 -0.75058859347E+03  0.30052047378E+04  0.29099608725E+04 0.  0.
        5    1    3    3  502    0  0.14533443242E+02  0.93598723950E+03 -0.15256013130E+04  0.17899063634E+04  0.46999998093E+01 0.  1.
       -5    1    3    3    0  502 -0.14533443242E+02 -0.93598723950E+03  0.77501271953E+03  0.12152983744E+04  0.46999998093E+01 0. -1.
</event>
<event>
 5   0  0.1063979E-06  0.2901244E+04  0.7818609E-02  0.8272508E-01
       -2   -1    0    0    0  501  0.00000000000E+00  0.00000000000E+00  0.13500526188E+04  0.13500526188E+04  0.25500000920E-02 0.  1.
        2   -1    0    0  501    0  0.00000000000E+00  0.00000000000E+00 -0.15586827456E+04  0.15586827456E+04  0.25500000920E-02 0. -1.
    10030    2    1    2    0    0  0.00000000000E+00  0.00000000000E+00 -0.20863012680E+03  0.29087353644E+04  0.29012436799E+04 0.  0.
        1    1    3    3  502    0  0.10398525871E+04 -0.34216892915E+03 -0.10585767838E+04  0.15228124593E+04  0.50400001928E-02 0. -1.
       -1    1    3    3    0  502 -0.10398525871E+04  0.34216892915E+03  0.84994665700E+03  0.13859229051E+04  0.50400001928E-02 0.  1.
</event>
<event>
 5   0  0.3770467E-07  0.2900173E+04  0.7818609E-02  0.8272826E-01
        1   -1    0    0  501    0  0.00000000000E+00  0.00000000000E+00  0.14705010856E+04  0.14705010856E+04  0.50400001928E-02 0.  1.
       -1   -1    0    0    0  501  0.00000000000E+00  0.00000000000E+00 -0.14299552995E+04  0.14299552995E+04  0.50400001928E-02 0. -1.
    10030    2    1    2    0    0  0.00000000000E+00  0.00000000000E+00  0.40545786057E+02  0.29004563851E+04  0.29001729744E+04 0.  0.
        1    1    3    3  502    0 -0.75509120844E+03  0.43668019788E+02  0.12576008077E+04  0.14675249301E+04  0.50400001928E-02 0.  1.
       -1    1    3    3    0  502  0.75509120844E+03 -0.43668019788E+02 -0.12170550216E+04  0.14329314550E+04  0.50400001928E-02 0. -1.
</event>
<event>
 5   0  0.9994311E-07  0.2898339E+04  0.7818609E-02  0.8273372E-01
        2   -1    0    0  501    0  0.00000000000E+00  0.00000000000E+00  0.16765984108E+04  0.16765984108E+04  0.25500000920E-02 0. -1.
       -2   -1    0    0    0  501  0.00000000000E+00  0.00000000000E+00 -0.12525909995E+04  0.12525909995E+04  0.25500000920E-02 0.  1.
    10030    2    1    2    0    0  0.00000000000E+00  0.00000000000E+00  0.42400741133E+03  0.29291894103E+04  0.28983388892E+04 0.  0.
        2    1    3    3  502    0 -0.39237501678E+03  0.13713582772E+04 -0.46670676136E+02  0.14271509487E+04  0.25500000920E-02 0.  1.
       -2    1    3    3    0  502  0.39237501678E+03 -0.13713582772E+04  0.47067808747E+03  0.15020384617E+04  0.25500000920E-02 0. -1.
</event>
<event>
 5   0  0.3769563E-07  0.2901066E+04  0.7818609E-02  0.8272560E-01
       -1   -1    0    0    0  501  0.00000000000E+00  0.00000000000E+00  0.84850069329E+03  0.84850069331E+03  0.50400001928E-02 0. -1.
        1   -1    0    0  501    0  0.00000000000E+00  0.00000000000E+00 -0.24797220029E+04  0.24797220029E+04  0.50400001928E-02 0.  1.
    10030    2    1    2    0    0  0.00000000000E+00  0.00000000000E+00 -0.16312213096E+04  0.33282226962E+04  0.29010658998E+04 0.  0.
        3    1    3    3  502    0  0.91367219285E+03  0.61297342290E+02 -0.21061891227E+04  0.22966468755E+04  0.10100000352E+00 0.  1.
       -3    1    3    3    0  502 -0.91367219285E+03 -0.61297342290E+02  0.47496781307E+03  0.10315758207E+04  0.10100000352E+00 0. -1.
</event>
<event>
 5   0  0.1006893E-06  0.2889805E+04  0.7818609E-02  0.8275917E-01
       -2   -1    0    0    0  501  0.00000000000E+00  0.00000000000E+00  0.13487194124E+04  0.13487194124E+04  0.25500000920E-02 0.  1.
        2   -1    0    0  501    0  0.00000000000E+00  0.00000000000E+00 -0.15479443996E+04  0.15479443996E+04  0.25500000920E-02 0. -1.
    10030    2    1    2    0    0  0.00000000000E+00  0.00000000000E+00 -0.19922498725E+03  0.28966638120E+04  0.28898046031E+04 0.  0.
        4    1    3    3  502    0  0.45929159228E+02  0.13045152328E+04  0.52143181831E+03  0.14056180969E+04  0.12699999809E+01 0.  1.
       -4    1    3    3    0  502 -0.45929159228E+02 -0.13045152328E+04 -0.72065680556E+03  0.14910457151E+04  0.12699999809E+01 0. -1.
</event>
<event>
 5   0  0.1063979E-06  0.2895770E+04  0.7818609E-02  0.8274137E-01
       -2   -1    0    0    0  501  0.00000000000E+00  0.00000000000E+00  0.14978145097E+04  0.14978145098E+04  0.25500000920E-02 0. -1.
        2   -1    0    0  501    0  0.00000000000E+00  0.00000000000E+00 -0.13996201508E+04  0.13996201508E+04  0.25500000920E-02 0.  1.
    10030    2    1    2    0    0  0.00000000000E+00  0.00000000000E+00  0.98194358912E+02  0.28974346606E+04  0.28957702741E+04 0.  0.
        1    1    3    3  502    0 -0.51424398249E+03  0.69462343600E+03 -0.11132170748E+04  0.14093263806E+04  0.50400001928E-02 0.  1.
       -1    1    3    3    0  502  0.51424398249E+03 -0.69462343600E+03  0.12114114337E+04  0.14881082800E+04  0.50400001928E-02 0. -1.
</event>
<event>
 5   0  0.3769563E-07  0.2899089E+04  0.7818609E-02  0.8273149E-01
       -1   -1    0    0    0  501  0.00000000000E+00  0.00000000000E+00  0.15967463486E+04  0.15967463486E+04  0.50400001928E-02 0. -1.
        1   -1    0    0  501    0  0.00000000000E+00  0.00000000000E+00 -0.13159130421E+04  0.13159130421E+04  0.50400001928E-02 0.  1.
    10030    2    1    2    0    0  0.00000000000E+00  0.00000000000E+00  0.28083330649E+03  0.29126593907E+04  0.28990890604E+04 0.  0.
        3    1    3    3  502    0  0.26747646175E+03  0.13183020972E+04 -0.40221823889E+03  0.14040098287E+04  0.10100000352E+00 0.  1.
       -3    1    3    3    0  502 -0.26747646175E+03 -0.13183020972E+04  0.68305154537E+03  0.15086495620E+04  0.10100000352E+00 0. -1.
</event>
<event>
 5   0  0.3786210E-07  0.2899013E+04  0.7818609E-02  0.8273171E-01
       -1   -1    0    0    0  501  0.00000000000E+00  0.00000000000E+00  0.14675567012E+04  0.14675567012E+04  0.50400001928E-02 0.  1.
        1   -1    0    0  501    0  0.00000000000E+00  0.00000000000E+00 -0.14316780769E+04  0.14316780769E+04  0.50400001928E-02 0. -1.
    10030    2    1    2    0    0  0.00000000000E+00  0.00000000000E+00  0.35878624334E+02  0.28992347781E+04  0.28990127670E+04 0.  0.
        5    1    3    3  502    0  0.12386555848E+04 -0.50896119176E+03  0.57272273759E+03  0.14564829476E+04  0.46999998093E+01 0.  1.
       -5    1    3    3    0  502 -0.12386555848E+04  0.50896119176E+03 -0.53684411326E+03  0.14427518305E+04  0.46999998093E+01 0. -1.
</event>
<event>
 5   0  0.3769563E-07  0.2928268E+04  0.7818609E-02  0.8264516E-01
        1   -1    0    0  501    0  0.00000000000E+00  0.00000000000E+00  0.26431633986E+04  0.26431633986E+04  0.50400001928E-02 0.  1.
       -1   -1    0    0    0  501  0.00000000000E+00  0.00000000000E+00 -0.81103108702E+03  0.81103108704E+03  0.50400001928E-02 0. -1.
    10030    2    1    2    0    0  0.00000000000E+00  0.00000000000E+00  0.18321323116E+04  0.34541944856E+04  0.29282675318E+04 0.  0.
        3    1    3    3  502    0  0.13350103876E+04 -0.34307569342E+03  0.33370272035E+03  0.14182070308E+04  0.10100000352E+00 0. -1.
       -3    1    3    3    0  502 -0.13350103876E+04  0.34307569342E+03  0.14984295912E+04  0.20359874549E+04  0.10100000352E+00 0.  1.
</event>
<event>
 5   0  0.3786210E-07  0.2889253E+04  0.7818609E-02  0.8276082E-01
        1   -1    0    0  501    0  0.00000000000E+00  0.00000000000E+00  0.21555317177E+04  0.21555317177E+04  0.50400001928E-02 0. -1.
       -1   -1    0    0    0  501  0.00000000000E+00  0.00000000000E+00 -0.96818122058E+03  0.96818122059E+03  0.50400001928E-02 0.  1.
    10030    2    1    2    0    0  0.00000000000E+00  0.00000000000E+00  0.11873504972E+04  0.31237129383E+04  0.28892527266E+04 0.  0.
        5    1    3    3  502    0  0.81834044171E+03 -0.65524856067E+03  0.16682588422E+04  0.19703150533E+04  0.46999998093E+01 0. -1.
       -5    1    3    3    0  502 -0.81834044171E+03  0.65524856067E+03 -0.48090834504E+03  0.11533978850E+04  0.46999998093E+01 0.  1.
</event>
<event>
 5   0  0.9994311E-07  0.2901876E+04  0.7818609E-02  0.8272319E-01
       -2   -1    0    0    0  501  0.00000000000E+00  0.00000000000E+00  0.70475015698E+03  0.70475015698E+03  0.25500000920E-02 0.  1.
        2   -1    0    0  501    0  0.00000000000E+00  0.00000000000E+00 -0.29871884710E+04  0.29871884710E+04  0.25500000920E-02 0. -1.
    10030    2    1    2    0    0  0.00000000000E+00  0.00000000000E+00 -0.22824383140E+04  0.36919386279E+04  0.29018763198E+04 0.  0.
        2    1    3    3  502    0 -0.11778729435E+04 -0.46067064014E+03 -0.20458834595E+04  0.24052528431E+04  0.25500000920E-02 0. -1.
       -2    1    3    3    0  502  0.11778729435E+04  0.46067064014E+03 -0.23655485452E+03  0.12866857848E+04  0.25500000920E-02 0.  1.
</event>
<event>
 5   0  0.3769563E-07  0.2931498E+04  0.7818609E-02  0.8263567E-01
        1   -1    0    0  501    0  0.00000000000E+00  0.00000000000E+00  0.18923588916E+04  0.18923588916E+04  0.50400001928E-02 0. -1.
       -1   -1    0    0    0  501  0.00000000000E+00  0.00000000000E+00 -0.11353129916E+04  0.11353129916E+04  0.50400001928E-02 0.  1.
    10030    2    1    2    0    0  0.00000000000E+00  0.00000000000E+00  0.75704590002E+03  0.30276718832E+04  0.29314976612E+04 0.  0.
        3    1    3    3  502    0  0.10556368015E+04  0.59643009126E+03 -0.47210003832E+03  0.13011442529E+04  0.10100000352E+00 0.  1.
       -3    1    3    3    0  502 -0.10556368015E+04 -0.59643009126E+03  0.12291459383E+04  0.17265276304E+04  0.10100000352E+00 0. -1.
</event>
<event>
 5   0  0.1063979E-06  0.2896849E+04  0.7818609E-02  0.8273816E-01
        2   -1    0    0  501    0  0.00000000000E+00  0.00000000000E+00  0.91595138336E+03  0.91595138337E+03  0.25500000920E-02 0. -1.
       -2   -1    0    0    0  501  0.00000000000E+00  0.00000000000E+00 -0.22904416417E+04  0.22904416417E+04  0.25500000920E-02 0.  1.
    10030    2    1    2    0    0  0.00000000000E+00  0.00000000000E+00 -0.13744902583E+04  0.32063930250E+04  0.28968487639E+04 0.  0.
        1    1    3    3  502    0  0.41420758502E+03 -0.12881923371E+04 -0.12591004735E+04  0.18483347703E+04  0.50400001928E-02 0.  1.
       -1    1    3    3    0  502 -0.41420758502E+03  0.12881923371E+04 -0.11538978483E+03  0.13580582547E+04  0.50400001928E-02 0. -1.
</event>
<event>
 5   0  0.1006893E-06  0.2889215E+04  0.7818609E-02  0.8276094E-01
        2   -1    0    0  501    0  0.00000000000E+00  0.00000000000E+00  0.22170386190E+04  0.22170386190E+04  0.25500000920E-02 0. -1.
       -2   -1    0    0    0  501  0.00000000000E+00  0.00000000000E+00 -0.94129634348E+03  0.94129634349E+03  0.25500000920E-02 0.  1.
    10030    2    1    2    0    0  0.00000000000E+00  0.00000000000E+00  0.12757422755E+04  0.31583349625E+04  0.28892146652E+04 0.  0.
        4    1    3    3  502    0  0.83383768158E+03 -0.60229222138E+03  0.17466728494E+04  0.20270443643E+04  0.12699999809E+01 0. -1.
       -4    1    3    3    0  502 -0.83383768158E+03  0.60229222138E+03 -0.47093057390E+03  0.11312905982E+04  0.12699999809E+01 0.  1.
</event>
<event>
 5   0  0.3769563E-07  0.2900389E+04  0.7818609E-02  0.8272762E-01
       -1   -1    0    0    0  501  0.00000000000E+00  0.00000000000E+00  0.22500663978E+04  0.22500663978E+04  0.50400001928E-02 0. -1.
        1   -1    0    0  501    0  0.00000000000E+00  0.00000000000E+00 -0.93466741728E+03  0.93466741730E+03  0.50400001928E-02 0.  1.
    10030    2    1    2    0    0  0.00000000000E+00  0.00000000000E+00  0.13153989805E+04  0.31847338151E+04  0.29003887662E+04 0.  0.
        3    1    3    3  502    0 -0.87757155545E+03  0.17716828206E+02  0.19252631077E+04  0.21159120409E+04  0.10100000352E+00 0. -1.
       -3    1    3    3    0  502  0.87757155545E+03 -0.17716828206E+02 -0.60986412723E+03  0.10688217741E+04  0.10100000352E+00 0.  1.
</event>
<event>
 5   0  0.9950999E-07  0.2897690E+04  0.7818609E-02  0.8273565E-01
       -2   -1    0    0    0  501  0.00000000000E+00  0.00000000000E+00  0.14407759837E+04  0.14407759837E+04  0.25500000920E-02 0. -1.
        2   -1    0    0  501    0  0.00000000000E+00  0.00000000000E+00 -0.14569594992E+04  0.14569594992E+04  0.25500000920E-02 0.  1.
    10030    2    1    2    0    0  0.00000000000E+00  0.00000000000E+00 -0.16183515499E+02  0.28977354829E+04  0.28976902910E+04 0.  0.
        3    1    3    3  502    0  0.13701347021E+04 -0.87768976236E+02 -0.47089455690E+03  0.14514524412E+04  0.10100000352E+00 0. -1.
       -3    1    3    3    0  502 -0.13701347021E+04  0.87768976236E+02  0.45471104140E+03  0.14462830416E+04  0.10100000352E+00 0.  1.
</event>
<event>
 5   0  0.9950999E-07  0.2904750E+04  0.7818609E-02  0.8271466E-01
        2   -1    0    0  501    0  0.00000000000E+00  0.00000000000E+00  0.19579627372E+04  0.19579627372E+04  0.25500000920E-02 0.  1.
       -2   -1    0    0    0  501  0.00000000000E+00  0.00000000000E+00 -0.10773408087E+04  0.10773408088E+04  0.25500000920E-02 0. -1.
    10030    2    1    2    0    0  0.00000000000E+00  0.00000000000E+00  0.88062192841E+03  0.30353035459E+04  0.29047500125E+04 0.  0.
        3    1    3    3  502    0  0.95029327007E+03  0.20750448563E+03  0.15673399234E+04  0.18446327159E+04  0.10100000352E+00 0.  1.
       -3    1    3    3    0  502 -0.95029327007E+03 -0.20750448563E+03 -0.68671799500E+03  0.11906708301E+04  0.10100000352E+00 0. -1.
</event>
<event>
 5   0  0.3885904E-07  0.2899948E+04  0.7818609E-02  0.8272893E-01
       -1   -1    0    0    0  501  0.00000000000E+00  0.00000000000E+00  0.13526494467E+04  0.13526494467E+04  0.50400001928E-02 0. -1.
        1   -1    0    0  501    0  0.00000000000E+00  0.00000000000E+00 -0.15543012683E+04  0.15543012683E+04  0.50400001928E-02 0.  1.
    10030    2    1    2    0    0  0.00000000000E+00  0.00000000000E+00 -0.20165182159E+03  0.29069507149E+04  0.28999481033E+04 0.  0.
        2    1    3    3  502    0 -0.14323265746E+03 -0.91164189336E+03 -0.12219263977E+04  0.15312448065E+04  0.25500000920E-02 0.  1.
       -2    1    3    3    0  502  0.14323265746E+03  0.91164189336E+03  0.10202745761E+04  0.13757059085E+04  0.25500000920E-02 0. -1.
</event>
<event>
 5   0  0.3786210E-07  0.2894109E+04  0.7818609E-02  0.8274632E-01
       -1   -1    0    0    0  501  0.00000000000E+00  0.00000000000E+00  0.93517124377E+03  0.93517124379E+03  0.50400001928E-02 0.  1.
        1   -1    0    0  501    0  0.00000000000E+00  0.00000000000E+00 -0.22391268050E+04  0.22391268050E+04  0.50400001928E-02 0. -1.
    10030    2    1    2    0    0  0.00000000000E+00  0.00000000000E+00 -0.13039555613E+04  0.31742980488E+04  0.28941091889E+04 0.  0.
        5    1    3    3  502    0 -0.10126567974E+04  0.99826255675E+03 -0.94616718373E+03  0.17079977608E+04  0.46999998093E+01 0. -1.
       -5    1    3    3    0  502  0.10126567974E+04 -0.99826255675E+03 -0.35778837753E+03  0.14663002880E+04  0.46999998093E+01 0.  1.
</event>
<event>
 5   0  0.3770467E-07  0.2906333E+04  0.7818609E-02  0.8270996E-01
        1   -1    0    0  501    0  0.00000000000E+00  0.00000000000E+00  0.15618158855E+04  0.15618158855E+04  0.50400001928E-02 0. -1.
       -1   -1    0    0    0  501  0.00000000000E+00  0.00000000000E+00 -0.13520751836E+04  0.13520751836E+04  0.50400001928E-02 0.  1.
    10030    2    1    2    0    0  0.00000000000E+00  0.00000000000E+00  0.20974070189E+03  0.29138910691E+04  0.29063327408E+04 0.  0.
        1    1    3    3  502    0 -0.12195685184E+04 -0.78956802031E+03  0.13540395045E+03  0.14591433307E+04  0.50400001928E-02 0. -1.
       -1    1    3    3    0  502  0.12195685184E+04  0.78956802031E+03  0.74336751444E+02  0.14547477384E+04  0.50400001928E-02 0.  1.
</event>
<event>
 5   0  0.1031339E-06  0.2909219E+04  0.7818609E-02  0.8270140E-01
       -2   -1    0    0    0  501  0.00000000000E+00  0.00000000000E+00  0.15758268973E+04  0.15758268973E+04  0.25500000920E-02 0. -1.
        2   -1    0    0  501    0  0.00000000000E+00  0.00000000000E+00 -0.13427169238E+04  0.13427169238E+04  0.25500000920E-02 0.  1.
    10030    2    1    2    0    0  0.00000000000E+00  0.00000000000E+00  0.23310997356E+03  0.29185438211E+04  0.29092194444E+04 0.  0.
        5    1    3    3  502    0  0.32709788053E+03 -0.11388011298E+04  0.96306414374E+03  0.15268843020E+04  0.46999998093E+01 0. -1.
       -5    1    3    3    0  502 -0.32709788053E+03  0.11388011298E+04 -0.72995417018E+03  0.13916595191E+04  0.46999998093E+01 0.  1.
</event>
<event>
 5   0  0.9950999E-07  0.2909953E+04  0.7818609E-02  0.8269922E-01
       -2   -1    0    0    0  501  0.00000000000E+00  0.00000000000E+00  0.10417271668E+04  0.10417271668E+04  0.25500000920E-02 0.  1.
        2   -1    0    0  501    0  0.00000000000E+00  0.00000000000E+00 -0.20321601597E+04  0.20321601597E+04  0.25500000920E-02 0. -1.
    10030    2    1    2    0    0  0.00000000000E+00  0.00000000000E+00 -0.99043299285E+03  0.30738873265E+04  0.29099528833E+04 0.  0.
        3    1    3    3  502    0  0.30025584251E+03  0.86608819143E+03  0.69834668806E+03  0.11523673170E+04  0.10100000352E+00 0.  1.
       -3    1    3    3    0  502 -0.30025584251E+03 -0.86608819143E+03 -0.16887796809E+04  0.19215200096E+04  0.10100000352E+00 0. -1.
</event>
<event>
 5   0  0.1006893E-06  0.2915924E+04  0.7818609E-02  0.8268155E-01
       -2   -1    0    0    0  501  0.00000000000E+00  0.00000000000E+00  0.10544724098E+04  0.10544724099E+04  0.25500000920E-02 0. -1.
        2   -1    0    0  501    0  0.00000000000E+00  0.00000000000E+00 -0.20158456027E+04  0.20158456027E+04  0.25500000920E-02 0.  1.
    10030    2    1    2    0    0  0.00000000000E+00  0.00000000000E+00 -0.96137319287E+03  0.30703180126E+04  0.29159242587E+04 0.  0.
        4    1    3    3  502    0 -0.57071672561E+03 -0.73859795329E+03 -0.16599923901E+04  0.19044213992E+04  0.12699999809E+01 0.  1.
       -4    1    3    3    0  502  0.57071672561E+03  0.73859795329E+03  0.69861919724E+03  0.11658966134E+04  0.12699999809E+01 0. -1.
</event>
<event>
 5   0  0.9950999E-07  0.2897631E+04  0.7818609E-02  0.8273583E-01
       -2   -1    0    0    0  501  0.00000000000E+00  0.00000000000E+00  0.89658010276E+03  0.89658010276E+03  0.25500000920E-02 0.  1.
        2   -1    0    0  501    0  0.00000000000E+00  0.00000000000E+00 -0.23411924712E+04  0.23411924713E+04  0.25500000920E-02 0. -1.
    10030    2    1    2    0    0  0.00000000000E+00  0.00000000000E+00 -0.14446123685E+04  0.32377725740E+04  0.28976311611E+04 0.  0.
        3    1    3    3  502    0  0.31885900516E+03  0.12046293810E+04  0.10354986474E+03  0.12504101709E+04  0.10100000352E+00 0.  1.
       -3    1    3    3    0  502 -0.31885900516E+03 -0.12046293810E+04 -0.15481622332E+04  0.19873624031E+04  0.10100000352E+00 0. -1.
</event>
<event>
 5   0  0.3786210E-07  0.2900079E+04  0.7818609E-02  0.8272854E-01
       -1   -1    0    0    0  501  0.00000000000E+00  0.00000000000E+00  0.96930425992E+03  0.96930425994E+03  0.50400001928E-02 0.  1.
        1   -1    0    0  501    0  0.00000000000E+00  0.00000000000E+00 -0.21692002652E+04  0.21692002652E+04  0.50400001928E-02 0. -1.
    10030    2    1    2    0    0  0.00000000000E+00  0.00000000000E+00 -0.11998960053E+04  0.31385045252E+04  0.29000793491E+04 0.  0.
        5    1    3    3  502    0  0.15630971967E+03 -0.12760354152E+04 -0.13258331507E+04  0.18467687302E+04  0.46999998093E+01 0. -1.
       -5    1    3    3    0  502 -0.15630971967E+03  0.12760354152E+04  0.12593714539E+03  0.12917357950E+04  0.46999998093E+01 0.  1.
</event>
<event>
 5   0  0.3638028E-07  0.2916356E+04  0.7818609E-02  0.8268028E-01
       -1   -1    0    0    0  501  0.00000000000E+00  0.00000000000E+00  0.18579681444E+04  0.18579681444E+04  0.50400001928E-02 0. -1.
        1   -1    0    0  501    0  0.00000000000E+00  0.00000000000E+00 -0.11444133726E+04  0.11444133726E+04  0.50400001928E-02 0.  1.
    10030    2    1    2    0    0  0.00000000000E+00  0.00000000000E+00  0.71355477179E+03  0.30023815171E+04  0.29163563503E+04 0.  0.
        4    1    3    3  502    0  0.77514186755E+03  0.90044957505E+02 -0.91135666224E+03  0.11998023120E+04  0.12699999809E+01 0.  1.
       -4    1    3    3    0  502 -0.77514186755E+03 -0.90044957505E+02  0.16249114340E+04  0.18025792051E+04  0.12699999809E+01 0. -1.
</event>
<event>
 5   0  0.3786210E-07  0.2912168E+04  0.7818609E-02  0.8269266E-01
       -1   -1    0    0    0  501  0.00000000000E+00  0.00000000000E+00  0.13545418901E+04  0.13545418901E+04  0.50400001928E-02 0. -1.
        1   -1    0    0  501    0  0.00000000000E+00  0.00000000000E+00 -0.15652386408E+04  0.15652386409E+04  0.50400001928E-02 0.  1.
    10030    2    1    2    0    0  0.00000000000E+00  0.00000000000E+00 -0.21069675078E+03  0.29197805309E+04  0.29121684752E+04 0.  0.
        5    1    3    3  502    0 -0.13294728768E+03 -0.66886048870E+03 -0.13952218980E+04  0.15529699190E+04  0.46999998093E+01 0.  1.
       -5    1    3    3    0  502  0.13294728768E+03  0.66886048870E+03  0.11845251472E+04  0.13668106120E+04  0.46999998093E+01 0. -1.
</event>
<event>
 5   0  0.3638028E-07  0.2884841E+04  0.7818609E-02  0.8277402E-01
        1   -1    0    0  501    0  0.00000000000E+00  0.00000000000E+00  0.81992291952E+03  0.81992291954E+03  0.50400001928E-02 0.  1.
       -1   -1    0    0    0  501  0.00000000000E+00  0.00000000000E+00 -0.25375276749E+04  0.25375276749E+04  0.50400001928E-02 0. -1.
    10030    2    1    2    0    0  0.00000000000E+00  0.00000000000E+00 -0.17176047554E+04  0.33574505944E+04  0.28848411392E+04 0.  0.
        4    1    3    3  502    0 -0.98122296806E+03  0.10174606140E+04 -0.52441601138E+03  0.15076599020E+04  0.12699999809E+01 0.  1.
       -4    1    3    3    0  502  0.98122296806E+03 -0.10174606140E+04 -0.11931887440E+04  0.18497906925E+04  0.12699999809E+01 0. -1.
</event>
<event>
 5   0  0.9950999E-07  0.2902342E+04  0.7818609E-02  0.8272181E-01
       -2   -1    0    0    0  501  0.00000000000E+00  0.00000000000E+00  0.14665362568E+04  0.14665362568E+04  0.25500000920E-02 0. -1.
        2   -1    0    0  501    0  0.00000000000E+00  0.00000000000E+00 -0.14359666172E+04  0.14359666172E+04  0.25500000920E-02 0.  1.
    10030    2    1    2    0    0  0.00000000000E+00  0.00000000000E+00  0.30569639568E+02  0.29025028741E+04  0.29023418873E+04 0.  0.
        3    1    3    3  502    0 -0.13821723993E+04 -0.14065032703E+03 -0.40392101896E+03  0.14468362919E+04  0.10100000352E+00 0.  1.
       -3    1    3    3    0  502  0.13821723993E+04  0.14065032703E+03  0.43449065853E+03  0.14556665821E+04  0.10100000352E+00 0. -1.
</event>
<event>
 5   0  0.3769563E-07  0.2900887E+04  0.7818609E-02  0.8272614E-01
        1   -1    0    0  501    0  0.00000000000E+00  0.00000000000E+00  0.24665869406E+04  0.24665869406E+04  0.50400001928E-02 0.  1.
       -1   -1    0    0    0  501  0.00000000000E+00  0.00000000000E+00 -0.85291366413E+03  0.85291366415E+03  0.50400001928E-02 0. -1.
    10030    2    1    2    0    0  0.00000000000E+00  0.00000000000E+00  0.16136732765E+04  0.33195006048E+04  0.29008865579E+04 0.  0.
        3    1    3    3  502    0  0.55756429256E+03 -0.11277281123E+04  0.16329087977E+04  0.20613199139E+04  0.10100000352E+00 0.  1.
       -3    1    3    3    0  502 -0.55756429256E+03  0.11277281123E+04 -0.19235521206E+02  0.12581806909E+04  0.10100000352E+00 0. -1.
</event>
<event>
 5   0  0.1031339E-06  0.2922790E+04  0.7818609E-02  0.8266129E-01
        2   -1    0    0  501    0  0.00000000000E+00  0.00000000000E+00  0.82712563154E+03  0.82712563155E+03  0.25500000920E-02 0. -1.
       -2   -1    0    0    0  501  0.00000000000E+00  0.00000000000E+00 -0.25820447419E+04  0.25820447419E+04  0.25500000920E-02 0.  1.
    10030    2    1    2    0    0  0.00000000000E+00  0.00000000000E+00 -0.17549191103E+04  0.34091703734E+04  0.29227900286E+04 0.  0.
        5    1    3    3  502    0  0.11978246282E+04 -0.58126367931E+03 -0.15802172237E+04  0.20663397274E+04  0.46999998093E+01 0.  1.
       -5    1    3    3    0  502 -0.11978246282E+04  0.58126367931E+03 -0.17470188658E+03  0.13428306460E+04  0.46999998093E+01 0. -1.
</event>
<event>
 5   0  0.9950999E-07  0.2904060E+04  0.7818609E-02  0.8271671E-01
       -2   -1    0    0    0  501  0.00000000000E+00  0.00000000000E+00  0.94091726339E+03  0.94091726339E+03  0.25500000920E-02 0.  1.
        2   -1    0    0  501    0  0.00000000000E+00  0.00000000000E+00 -0.22407824386E+04  0.22407824386E+04  0.25500000920E-02 0. -1.
    10030    2    1    2    0    0  0.00000000000E+00  0.00000000000E+00 -0.12998651752E+04  0.31816997019E+04  0.29040598341E+04 0.  0.
        3    1    3    3  502    0  0.92438902020E+03  0.85417221354E+03  0.14336769309E+03  0.12667515686E+04  0.10100000352E+00 0.  1.
       -3    1    3    3    0  502 -0.92438902020E+03 -0.85417221354E+03 -0.14432328683E+04  0.19149481333E+04  0.10100000352E+00 0. -1.
</event>
<event>
 5   0  0.3769563E-07  0.2898479E+04  0.7818609E-02  0.8273330E-01
       -1   -1    0    0    0  501  0.00000000000E+00  0.00000000000E+00  0.15609079805E+04  0.15609079805E+04  0.50400001928E-02 0.  1.
        1   -1    0    0  501    0  0.00000000000E+00  0.00000000000E+00 -0.13455600651E+04  0.13455600651E+04  0.50400001928E-02 0. -1.
    10030    2    1    2    0    0  0.00000000000E+00  0.00000000000E+00  0.21534791543E+03  0.29064680456E+04  0.28984792177E+04 0.  0.
        3    1    3    3  502    0  0.17682890504E+03 -0.13245446390E+04  0.67011961519E+03  0.14949071112E+04  0.10100000352E+00 0.  1.
       -3    1    3    3    0  502 -0.17682890504E+03  0.13245446390E+04 -0.45477169976E+03  0.14115609344E+04  0.10100000352E+00 0. -1.
</event>
<event>
 5   0  0.1006893E-06  0.2901087E+04  0.7818609E-02  0.8272554E-01
        2   -1    0    0  501    0  0.00000000000E+00  0.00000000000E+00  0.88419786468E+03  0.88419786469E+03  0.25500000920E-02 0.  1.
       -2   -1    0    0    0  501  0.00000000000E+00  0.00000000000E+00 -0.23796450272E+04  0.23796450272E+04  0.25500000920E-02 0. -1.
    10030    2    1    2    0    0  0.00000000000E+00  0.00000000000E+00 -0.14954471625E+04  0.32638428919E+04  0.29010874180E+04 0.  0.
        4    1    3    3  502    0 -0.65928889292E+03  0.12769947603E+04 -0.96903945218E+03  0.17333252825E+04  0.12699999809E+01 0. -1.
       -4    1    3    3    0  502  0.65928889292E+03 -0.12769947603E+04 -0.52640771034E+03  0.15305176094E+04  0.12699999809E+01 0.  1.
</event>
<event>
 5   0  0.1031339E-06  0.2909452E+04  0.7818609E-02  0.8270071E-01
        2   -1    0    0  501    0  0.00000000000E+00  0.00000000000E+00  0.15105539644E+04  0.15105539644E+04  0.25500000920E-02 0.  1.
       -2   -1    0    0    0  501  0.00000000000E+00  0.00000000000E+00 -0.14009609999E+04  0.14009609999E+04  0.25500000920E-02 0. -1.
    10030    2    1    2    0    0  0.00000000000E+00  0.00000000000E+00  0.10959296449E+03  0.29115149643E+04  0.29094516269E+04 0.  0.
        5    1    3    3  502    0  0.88425957992E+03 -0.13804386388E+03  0.12024463144E+04  0.14989564177E+04  0.46999998093E+01 0.  1.
       -5    1    3    3    0  502 -0.88425957992E+03  0.13804386388E+03 -0.10928533499E+04  0.14125585466E+04  0.46999998093E+01 0. -1.
</event>
<event>
 5   0  0.3885904E-07  0.2911599E+04  0.7818609E-02  0.8269435E-01
       -1   -1    0    0    0  501  0.00000000000E+00  0.00000000000E+00  0.15328877143E+04  0.15328877143E+04  0.50400001928E-02 0.  1.
        1   -1    0    0  501    0  0.00000000000E+00  0.00000000000E+00 -0.13825882342E+04  0.13825882342E+04  0.50400001928E-02 0. -1.
    10030    2    1    2    0    0  0.00000000000E+00  0.00000000000E+00  0.15029948006E+03  0.29154759485E+04  0.29115992294E+04 0.  0.
        2    1    3    3  502    0 -0.34363300694E+03  0.61309988542E+03 -0.12014506605E+04  0.13919262921E+04  0.25500000920E-02 0. -1.
       -2    1    3    3    0  502  0.34363300694E+03 -0.61309988542E+03  0.13517501406E+04  0.15235496564E+04  0.25500000920E-02 0.  1.
</event>
<event>
 5   0  0.3638028E-07  0.2901828E+04  0.7818609E-02  0.8272334E-01
        1   -1    0    0  501    0  0.00000000000E+00  0.00000000000E+00  0.14638030611E+04  0.14638030611E+04  0.50400001928E-02 0. -1.
       -1   -1    0    0    0  501  0.00000000000E+00  0.00000000000E+00 -0.14381386424E+04  0.14381386424E+04  0.50400001928E-02 0.  1.
    10030    2    1    2    0    0  0.00000000000E+00  0.00000000000E+00  0.25664418698E+02  0.29019417035E+04  0.29018282148E+04 0.  0.
        4    1    3    3  502    0 -0.64719897924E+03  0.50109522983E+03  0.12108720446E+04  0.14615661700E+04  0.12699999809E+01 0. -1.
       -4    1    3    3    0  502  0.64719897924E+03 -0.50109522983E+03 -0.11852076259E+04  0.14403755335E+04  0.12699999809E+01 0.  1.
</event>
<event>
 5   0  0.3769563E-07  0.2898172E+04  0.7818609E-02  0.8273422E-01
       -1   -1    0    0    0  501  0.00000000000E+00  0.00000000000E+00  0.91491809408E+03  0.91491809409E+03  0.50400001928E-02 0.  1.
        1   -1    0    0  501    0  0.00000000000E+00  0.00000000000E+00 -0.22951233818E+04  0.22951233818E+04  0.50400001928E-02 0. -1.
    10030    2    1    2    0    0  0.00000000000E+00  0.00000000000E+00 -0.13802052877E+04  0.32100414759E+04  0.28981717755E+04 0.  0.
        3    1    3    3  502    0  0.10479506298E+04  0.86608087091E+03 -0.13458029833E+03  0.13661656065E+04  0.10100000352E+00 0.  1.
       -3    1    3    3    0  502 -0.10479506298E+04 -0.86608087091E+03 -0.12456249894E+04  0.18438758694E+04  0.10100000352E+00 0. -1.
</event>
<event>
 5   0  0.3786210E-07  0.2898932E+04  0.7818609E-02  0.8273195E-01
        1   -1    0    0  501    0  0.00000000000E+00  0.00000000000E+00  0.16587951067E+04  0.16587951067E+04  0.50400001928E-02 0.  1.
       -1   -1    0    0    0  501  0.00000000000E+00  0.00000000000E+00 -0.12665532701E+04  0.12665532701E+04  0.50400001928E-02 0. -1.
    10030    2    1    2    0    0  0.00000000000E+00  0.00000000000E+00  0.39224183665E+03  0.29253483768E+04  0.28989324703E+04 0.  0.
        5    1    3    3  502    0  0.29361310648E+03  0.12010148090E+04  0.95950956124E+03  0.15650322411E+04  0.46999998093E+01 0.  1.
       -5    1    3    3    0  502 -0.29361310648E+03 -0.12010148090E+04 -0.56726772460E+03  0.13603161357E+04  0.46999998093E+01 0. -1.
</event>
<event>
 5   0  0.9950999E-07  0.2908955E+04  0.7818609E-02  0.8270218E-01
       -2   -1    0    0    0  501  0.00000000000E+00  0.00000000000E+00  0.13252168010E+04  0.13252168010E+04  0.25500000920E-02 0.  1.
        2   -1    0    0  501    0  0.00000000000E+00  0.00000000000E+00 -0.15963457279E+04  0.15963457279E+04  0.25500000920E-02 0. -1.
    10030    2    1    2    0    0  0.00000000000E+00  0.00000000000E+00 -0.27112892695E+03  0.29215625289E+04  0.29089545743E+04 0.  0.
        3    1    3    3  502    0 -0.10941417409E+03  0.15509054356E+03 -0.15838546289E+04  0.15951865201E+04  0.10100000352E+00 0. -1.
       -3    1    3    3    0  502  0.10941417409E+03 -0.15509054356E+03  0.13127257019E+04  0.13263760089E+04  0.10100000352E+00 0.  1.
</event>
<event>
 5   0  0.3770467E-07  0.2898087E+04  0.7818609E-02  0.8273447E-01
        1   -1    0    0  501    0  0.00000000000E+00  0.00000000000E+00  0.20078088952E+04  0.20078088952E+04  0.50400001928E-02 0.  1.
       -1   -1    0    0    0  501  0.00000000000E+00  0.00000000000E+00 -0.10457804502E+04  0.10457804502E+04  0.50400001928E-02 0. -1.
    10030    2    1    2    0    0  0.00000000000E+00  0.00000000000E+00  0.96202844497E+03  0.30535893455E+04  0.28980871557E+04 0.  0.
        1    1    3    3  502    0 -0.14457993129E+04  0.55603544309E+02  0.39738357893E+03  0.15004469721E+04  0.50400001928E-02 0.  1.
       -1    1    3    3    0  502  0.14457993129E+04 -0.55603544309E+02  0.56464486604E+03  0.15531423734E+04  0.50400001928E-02 0. -1.
</event>
<event>
 5   0  0.1063979E-06  0.2911140E+04  0.7818609E-02  0.8269571E-01
       -2   -1    0    0    0  501  0.00000000000E+00  0.00000000000E+00  0.15515727897E+04  0.15515727897E+04  0.25500000920E-02 0.  1.
        2   -1    0    0  501    0  0.00000000000E+00  0.00000000000E+00 -0.13655075642E+04  0.13655075642E+04  0.25500000920E-02 0. -1.
    10030    2    1    2    0    0  0.00000000000E+00  0.00000000000E+00  0.18606522557E+03  0.29170803539E+04  0.29111402445E+04 0.  0.
        1    1    3    3  502    0 -0.32259974367E+02 -0.50443903163E+03 -0.12747379311E+04  0.13712972820E+04  0.50400001928E-02 0. -1.
       -1    1    3    3    0  502  0.32259974367E+02  0.50443903163E+03  0.14608031567E+04  0.15457830719E+04  0.50400001928E-02 0.  1.
</event>
<event>
 5   0  0.3769563E-07  0.2908606E+04  0.7818609E-02  0.8270322E-01
        1   -1    0    0  501    0  0.00000000000E+00  0.00000000000E+00  0.15926722952E+04  0.15926722952E+04  0.50400001928E-02 0.  1.
       -1   -1    0    0    0  501  0.00000000000E+00  0.00000000000E+00 -0.13279551803E+04  0.13279551804E+04  0.50400001928E-02 0. -1.
    10030    2    1    2    0    0  0.00000000000E+00  0.00000000000E+00  0.26471711485E+03  0.29206274756E+04  0.29086061439E+04 0.  0.
        3    1    3    3  502    0 -0.99172292087E+03  0.38752236431E+03  0.11270634328E+04  0.15504708725E+04  0.10100000352E+00 0.  1.
       -3    1    3    3    0  502  0.99172292087E+03 -0.38752236431E+03 -0.86234631798E+03  0.13701566031E+04  0.10100000352E+00 0. -1.
</event>
<event>
 5   0  0.3885904E-07  0.2897377E+04  0.7818609E-02  0.8273658E-01
       -1   -1    0    0    0  501  0.00000000000E+00  0.00000000000E+00  0.10527346664E+04  0.10527346664E+04  0.50400001928E-02 0.  1.
        1   -1    0    0  501    0  0.00000000000E+00  0.00000000000E+00 -0.19935678723E+04  0.19935678723E+04  0.50400001928E-02 0. -1.
    10030    2    1    2    0    0  0.00000000000E+00  0.00000000000E+00 -0.94083320588E+03  0.30463025387E+04  0.28973767508E+04 0.  0.
        2    1    3    3  502    0 -0.34694061427E+03  0.24062523590E+03  0.98660929129E+03  0.10731571123E+04  0.25500000920E-02 0.  1.
       -2    1    3    3    0  502  0.34694061427E+03 -0.24062523590E+03 -0.19274424972E+04  0.19731454264E+04  0.25500000920E-02 0. -1.
</event>
<event>
 5   0  0.3786210E-07  0.2899228E+04  0.7818609E-02  0.8273107E-01
       -1   -1    0    0    0  501  0.00000000000E+00  0.00000000000E+00  0.17902458202E+04  0.17902458202E+04  0.50400001928E-02 0.  1.
        1   -1    0    0  501    0  0.00000000000E+00  0.00000000000E+00 -0.11737946268E+04  0.11737946268E+04  0.50400001928E-02 0. -1.
    10030    2    1    2    0    0  0.00000000000E+00  0.00000000000E+00  0.61645119338E+03  0.29640404471E+04  0.28992281211E+04 0.  0.
        5    1    3    3  502    0  0.29428354458E+03  0.12679016665E+04 -0.34414698447E+03  0.13463419616E+04  0.46999998093E+01 0. -1.
       -5    1    3    3    0  502 -0.29428354458E+03 -0.12679016665E+04  0.96059817786E+03  0.16176984855E+04  0.46999998093E+01 0.  1.
</event>
<event>
 5   0  0.1031339E-06  0.2917595E+04  0.7818609E-02  0.8267661E-01
       -2   -1    0    0    0  501  0.00000000000E+00  0.00000000000E+00  0.74234398448E+03  0.74234398448E+03  0.25500000920E-02 0. -1.
        2   -1    0    0  501    0  0.00000000000E+00  0.00000000000E+00 -0.28667179455E+04  0.28667179455E+04  0.25500000920E-02 0.  1.
    10030    2    1    2    0    0  0.00000000000E+00  0.00000000000E+00 -0.21243739610E+04  0.36090619300E+04  0.29175954634E+04 0.  0.
        5    1    3    3  502    0  0.71676322779E+03 -0.69243780317E+03 -0.23799530395E+04  0.25801973173E+04  0.46999998093E+01 0.  1.
       -5    1    3    3    0  502 -0.71676322779E+03  0.69243780317E+03  0.25557907845E+03  0.10288646127E+04  0.46999998093E+01 0. -1.
</event>
<event>
 5   0  0.1031339E-06  0.2900062E+04  0.7818609E-02  0.8272859E-01
        2   -1    0    0  501    0  0.00000000000E+00  0.00000000000E+00  0.12387262046E+04  0.12387262046E+04  0.25500000920E-02 0. -1.
       -2   -1    0    0    0  501  0.00000000000E+00  0.00000000000E+00 -0.16973807645E+04  0.16973807645E+04  0.25500000920E-02 0.  1.
    10030    2    1    2    0    0  0.00000000000E+00  0.00000000000E+00 -0.45865455991E+03  0.29361069691E+04  0.29000620905E+04 0.  0.
        5    1    3    3  502    0 -0.24278700884E+02 -0.65891286072E+03  0.10781620926E+04  0.12638082138E+04  0.46999998093E+01 0. -1.
       -5    1    3    3    0  502  0.24278700884E+02  0.65891286072E+03 -0.15368166526E+04  0.16722987553E+04  0.46999998093E+01 0.  1.
</event>
<event>
 5   0  0.1031339E-06  0.2899278E+04  0.7818609E-02  0.8273092E-01
        2   -1    0    0  501    0  0.00000000000E+00  0.00000000000E+00  0.17093577748E+04  0.17093577748E+04  0.25500000920E-02 0. -1.
       -2   -1    0    0    0  501  0.00000000000E+00  0.00000000000E+00 -0.12293815408E+04  0.12293815408E+04  0.25500000920E-02 0.  1.
    10030    2    1    2    0    0  0.00000000000E+00  0.00000000000E+00  0.47997623407E+03  0.29387393156E+04  0.28992777687E+04 0.  0.
        5    1    3    3  502    0 -0.66674457065E+03  0.41275739959E+03 -0.99583328501E+03  0.12675263370E+04  0.46999998093E+01 0.  1.
       -5    1    3    3    0  502  0.66674457065E+03 -0.41275739959E+03  0.14758095191E+04  0.16712129786E+04  0.46999998093E+01 0. -1.
</event>
<event>
 5   0  0.3638028E-07  0.2901314E+04  0.7818609E-02  0.8272487E-01
       -1   -1    0    0    0  501  0.00000000000E+00  0.00000000000E+00  0.71166945856E+03  0.71166945857E+03  0.50400001928E-02 0.  1.
        1   -1    0    0  501    0  0.00000000000E+00  0.00000000000E+00 -0.29569989829E+04  0.29569989829E+04  0.50400001928E-02 0. -1.
    10030    2    1    2    0    0  0.00000000000E+00  0.00000000000E+00 -0.22453295244E+04  0.36686684415E+04  0.29013140920E+04 0.  0.
        4    1    3    3  502    0  0.84343450815E+03  0.10958328385E+04 -0.56834577148E+03  0.14950752183E+04  0.12699999809E+01 0. -1.
       -4    1    3    3    0  502 -0.84343450815E+03 -0.10958328385E+04 -0.16769837529E+04  0.21735932232E+04  0.12699999809E+01 0.  1.
</event>
<event>
 5   0  0.9994311E-07  0.2897286E+04  0.7818609E-02  0.8273685E-01
       -2   -1    0    0    0  501  0.00000000000E+00  0.00000000000E+00  0.13639730564E+04  0.13639730564E+04  0.25500000920E-02 0. -1.
        2   -1    0    0  501    0  0.00000000000E+00  0.00000000000E+00 -0.15385693129E+04  0.15385693129E+04  0.25500000920E-02 0.  1.
    10030    2    1    2    0    0  0.00000000000E+00  0.00000000000E+00 -0.17459625651E+03  0.29025423692E+04  0.28972863774E+04 0.  0.
        2    1    3    3  502    0  0.12860106103E+02  0.38486822600E+03 -0.14863551697E+04  0.15354284823E+04  0.25500000920E-02 0.  1.
       -2    1    3    3    0  502 -0.12860106103E+02 -0.38486822600E+03  0.13117589132E+04  0.13671138870E+04  0.25500000920E-02 0. -1.
</event>
<event>
 5   0  0.9950999E-07  0.2896565E+04  0.7818609E-02  0.8273900E-01
       -2   -1    0    0    0  501  0.00000000000E+00  0.00000000000E+00  0.26794887603E+04  0.26794887603E+04  0.25500000920E-02 0. -1.
        2   -1    0    0  501    0  0.00000000000E+00  0.00000000000E+00 -0.78280712513E+03  0.78280712513E+03  0.25500000920E-02 0.  1.
    10030    2    1    2    0    0  0.00000000000E+00  0.00000000000E+00  0.18966816351E+04  0.34622958854E+04  0.28965654788E+04 0.  0.
        3    1    3    3  502    0  0.70817924556E+03 -0.46032608387E+03  0.23545998917E+04  0.25015112648E+04  0.10100000352E+00 0. -1.
       -3    1    3    3    0  502 -0.70817924556E+03  0.46032608387E+03 -0.45791825661E+03  0.96078462064E+03  0.10100000352E+00 0.  1.
</event>
<event>
 5   0  0.3770467E-07  0.2927466E+04  0.7818609E-02  0.8264752E-01
       -1   -1    0    0    0  501  0.00000000000E+00  0.00000000000E+00  0.19638953136E+04  0.19638953136E+04  0.50400001928E-02 0. -1.
        1   -1    0    0  501    0  0.00000000000E+00  0.00000000000E+00 -0.10909516256E+04  0.10909516256E+04  0.50400001928E-02 0.  1.
    10030    2    1    2    0    0  0.00000000000E+00  0.00000000000E+00  0.87294368799E+03  0.30548469392E+04  0.29274663345E+04 0.  0.
        1    1    3    3  502    0 -0.28681093235E+03 -0.11580199025E+04 -0.44851277694E+03  0.12745329798E+04  0.50400001928E-02 0.  1.
       -1    1    3    3    0  502  0.28681093235E+03  0.11580199025E+04  0.13214564649E+04  0.17803139594E+04  0.50400001928E-02 0. -1.
</event>
<event>
 5   0  0.9950999E-07  0.2903057E+04  0.7818609E-02  0.8271969E-01
        2   -1    0    0  501    0  0.00000000000E+00  0.00000000000E+00  0.94460430324E+03  0.94460430324E+03  0.25500000920E-02 0. -1.
       -2   -1    0    0    0  501  0.00000000000E+00  0.00000000000E+00 -0.22304948417E+04  0.22304948417E+04  0.25500000920E-02 0.  1.
    10030    2    1    2    0    0  0.00000000000E+00  0.00000000000E+00 -0.12858905385E+04  0.31750991450E+04  0.29030570272E+04 0.  0.
        3    1    3    3  502    0 -0.57554848140E+03 -0.76847748175E+03 -0.18335925642E+04  0.20697524964E+04  0.10100000352E+00 0.  1.
       -3    1    3    3    0  502  0.57554848140E+03  0.76847748175E+03  0.54770202574E+03  0.11053466486E+04  0.10100000352E+00 0. -1.
</event>
<event>
 5   0  0.3638028E-07  0.2910860E+04  0.7818609E-02  0.8269654E-01
        1   -1    0    0  501    0  0.00000000000E+00  0.00000000000E+00  0.17747596032E+04  0.17747596032E+04  0.50400001928E-02 0. -1.
       -1   -1    0    0    0  501  0.00000000000E+00  0.00000000000E+00 -0.11935568436E+04  0.11935568436E+04  0.50400001928E-02 0.  1.
    10030    2    1    2    0    0  0.00000000000E+00  0.00000000000E+00  0.58120275958E+03  0.29683164469E+04  0.29108599899E+04 0.  0.
        4    1    3    3  502    0 -0.71322568380E+03  0.11975023027E+04 -0.13668276461E+03  0.14004950668E+04  0.12699999809E+01 0.  1.
       -4    1    3    3    0  502  0.71322568380E+03 -0.11975023027E+04  0.71788552419E+03  0.15678213801E+04  0.12699999809E+01 0. -1.
</event>
<event>
 5   0  0.1031339E-06  0.2901985E+04  0.7818609E-02  0.8272287E-01
        2   -1    0    0  501    0  0.00000000000E+00  0.00000000000E+00  0.21555917467E+04  0.21555917467E+04  0.25500000920E-02 0.  1.
       -2   -1    0    0    0  501  0.00000000000E+00  0.00000000000E+00 -0.97670559367E+03  0.97670559367E+03  0.25500000920E-02 0. -1.
    10030    2    1    2    0    0  0.00000000000E+00  0.00000000000E+00  0.11788861531E+04  0.31322973404E+04  0.29019845049E+04 0.  0.
        5    1    3    3  502    0  0.63754971407E+03  0.27549428134E+03 -0.78562998155E+03  0.10486197094E+04  0.46999998093E+01 0. -1.
       -5    1    3    3    0  502 -0.63754971407E+03 -0.27549428134E+03  0.19645161346E+04  0.20836776310E+04  0.46999998093E+01 0.  1.
</event>
<event>
 5   0  0.3769563E-07  0.2899633E+04  0.7818609E-02  0.8272987E-01
       -1   -1    0    0    0  501  0.00000000000E+00  0.00000000000E+00  0.13120645532E+04  0.13120645532E+04  0.50400001928E-02 0.  1.
        1   -1    0    0  501    0  0.00000000000E+00  0.00000000000E+00 -0.16020303856E+04  0.16020303856E+04  0.50400001928E-02 0. -1.
    10030    2    1    2    0    0  0.00000000000E+00  0.00000000000E+00 -0.28996583241E+03  0.29140949387E+04  0.28996325850E+04 0.  0.
        3    1    3    3  502    0 -0.80272331160E+03 -0.83119067618E+03 -0.10249783701E+04  0.15446110593E+04  0.10100000352E+00 0. -1.
       -3    1    3    3    0  502  0.80272331160E+03  0.83119067618E+03  0.73501253773E+03  0.13694838794E+04  0.10100000352E+00 0.  1.
</event>
<event>
 5   0  0.9994311E-07  0.2899767E+04  0.7818609E-02  0.8272947E-01
        2   -1    0    0  501    0  0.00000000000E+00  0.00000000000E+00  0.14028122835E+04  0.14028122835E+04  0.25500000920E-02 0.  1.
       -2   -1    0    0    0  501  0.00000000000E+00  0.00000000000E+00 -0.14985342456E+04  0.14985342456E+04  0.25500000920E-02 0. -1.
    10030    2    1    2    0    0  0.00000000000E+00  0.00000000000E+00 -0.95721962171E+02  0.29013465291E+04  0.28997670575E+04 0.  0.
        2    1    3    3  502    0 -0.22534154771E+03  0.55392533027E+03  0.12736726564E+04  0.14070728909E+04  0.25500000920E-02 0.  1.
       -2    1    3    3    0  502  0.22534154771E+03 -0.55392533027E+03 -0.13693946185E+04  0.14942736382E+04  0.25500000920E-02 0. -1.
</event>
<event>
 5   0  0.3786210E-07  0.2898454E+04  0.7818609E-02  0.8273338E-01
        1   -1    0    0  501    0  0.00000000000E+00  0.00000000000E+00  0.98921487433E+03  0.98921487435E+03  0.50400001928E-02 0. -1.
       -1   -1    0    0    0  501  0.00000000000E+00  0.00000000000E+00 -0.21231577873E+04  0.21231577873E+04  0.50400001928E-02 0.  1.
    10030    2    1    2    0    0  0.00000000000E+00  0.00000000000E+00 -0.11339429130E+04  0.31123726617E+04  0.28984542527E+04 0.  0.
        5    1    3    3  502    0  0.54240500833E+02  0.68713349493E+03  0.80192592495E+03  0.10574505903E+04  0.46999998093E+01 0. -1.
       -5    1    3    3    0  502 -0.54240500833E+02 -0.68713349493E+03 -0.19358688379E+04  0.20549220714E+04  0.46999998093E+01 0.  1.
</event>
<event>
 5   0  0.3885904E-07  0.2912387E+04  0.7818609E-02  0.8269201E-01
        1   -1    0    0  501    0  0.00000000000E+00  0.00000000000E+00  0.20220194416E+04  0.20220194416E+04  0.50400001928E-02 0. -1.
       -1   -1    0    0    0  501  0.00000000000E+00  0.00000000000E+00 -0.10487040389E+04  0.10487040390E+04  0.50400001928E-02 0.  1.
    10030    2    1    2    0    0  0.00000000000E+00  0.00000000000E+00  0.97331540268E+03  0.30707234806E+04  0.29123873062E+04 0.  0.
        2    1    3    3  502    0  0.45384274489E+03 -0.69134216081E+03 -0.77707548421E+03  0.11348010965E+04  0.25500000920E-02 0.  1.
       -2    1    3    3    0  502 -0.45384274489E+03  0.69134216081E+03  0.17503908869E+04  0.19359223841E+04  0.25500000920E-02 0. -1.
</event>
<event>
 5   0  0.3786210E-07  0.2888484E+04  0.7818609E-02  0.8276312E-01
       -1   -1    0    0    0  501  0.00000000000E+00  0.00000000000E+00  0.79476596032E+03  0.79476596034E+03  0.50400001928E-02 0.  1.
        1   -1    0    0  501    0  0.00000000000E+00  0.00000000000E+00 -0.26244642911E+04  0.26244642911E+04  0.50400001928E-02 0. -1.
    10030    2    1    2    0    0  0.00000000000E+00  0.00000000000E+00 -0.18296983308E+04  0.34192302515E+04  0.28884839502E+04 0.  0.
        5    1    3    3  502    0  0.95450086515E+03 -0.58047008256E+03 -0.19983453032E+04  0.22894155279E+04  0.46999998093E+01 0. -1.
       -5    1    3    3    0  502 -0.95450086515E+03  0.58047008256E+03  0.16864697243E+03  0.11298147236E+04  0.46999998093E+01 0.  1.
</event>
<event>
 5   0  0.1031339E-06  0.2892511E+04  0.7818609E-02  0.8275109E-01
       -2   -1    0    0    0  501  0.00000000000E+00  0.00000000000E+00  0.28564017800E+04  0.28564017800E+04  0.25500000920E-02 0.  1.
        2   -1    0    0  501    0  0.00000000000E+00  0.00000000000E+00 -0.73226937609E+03  0.73226937610E+03  0.25500000920E-02 0. -1.
    10030    2    1    2    0    0  0.00000000000E+00  0.00000000000E+00  0.21241324039E+04  0.35886711561E+04  0.28925113997E+04 0.  0.
        5    1    3    3  502    0 -0.15175342484E+03 -0.54704954665E+03  0.27123718044E+04  0.27711505199E+04  0.46999998093E+01 0.  1.
       -5    1    3    3    0  502  0.15175342484E+03  0.54704954665E+03 -0.58823940047E+03  0.81752063626E+03  0.46999998093E+01 0. -1.
</event>
<event>
 5   0  0.3786210E-07  0.2900823E+04  0.7818609E-02  0.8272633E-01
       -1   -1    0    0    0  501  0.00000000000E+00  0.00000000000E+00  0.11804453344E+04  0.11804453344E+04  0.50400001928E-02 0. -1.
        1   -1    0    0  501    0  0.00000000000E+00  0.00000000000E+00 -0.17821185199E+04  0.17821185199E+04  0.50400001928E-02 0.  1.
    10030    2    1    2    0    0  0.00000000000E+00  0.00000000000E+00 -0.60167318547E+03  0.29625638543E+04  0.29008229812E+04 0.  0.
        5    1    3    3  502    0  0.13903678730E+04  0.10606942688E+03  0.10677962844E+03  0.13984983105E+04  0.46999998093E+01 0. -1.
       -5    1    3    3    0  502 -0.13903678730E+04 -0.10606942688E+03 -0.70845281391E+03  0.15640655437E+04  0.46999998093E+01 0.  1.
</event>
<event>
 5   0  0.1063979E-06  0.2899388E+04  0.7818609E-02  0.8273059E-01
       -2   -1    0    0    0  501  0.00000000000E+00  0.00000000000E+00  0.14432163719E+04  0.14432163719E+04  0.25500000920E-02 0.  1.
        2   -1    0    0  501    0  0.00000000000E+00  0.00000000000E+00 -0.14562010691E+04  0.14562010691E+04  0.25500000920E-02 0. -1.
    10030    2    1    2    0    0  0.00000000000E+00  0.00000000000E+00 -0.12984697157E+02  0.28994174410E+04  0.28993883657E+04 0.  0.
        1    1    3    3  502    0  0.10434320051E+04  0.69572656273E+03  0.72072015869E+03  0.14464519855E+04  0.50400001928E-02 0.  1.
       -1    1    3    3    0  502 -0.10434320051E+04 -0.69572656273E+03 -0.73370485585E+03  0.14529654555E+04  0.50400001928E-02 0. -1.
</event>
<event>
 5   0  0.1031339E-06  0.2871363E+04  0.7818609E-02  0.8281449E-01
        2   -1    0    0  501    0  0.00000000000E+00  0.00000000000E+00  0.15548783758E+04  0.15548783758E+04  0.25500000920E-02 0.  1.
       -2   -1    0    0    0  501  0.00000000000E+00  0.00000000000E+00 -0.13256226867E+04  0.13256226867E+04  0.25500000920E-02 0. -1.
    10030    2    1    2    0    0  0.00000000000E+00  0.00000000000E+00  0.22925568913E+03  0.28805010625E+04  0.28713634740E+04 0.  0.
        5    1    3    3  502    0  0.16965594436E+03 -0.27956750562E+03  0.15170102846E+04  0.15518644990E+04  0.46999998093E+01 0.  1.
       -5    1    3    3    0  502 -0.16965594436E+03  0.27956750562E+03 -0.12877545955E+04  0.13286365635E+04  0.46999998093E+01 0. -1.
</event>
<event>
 5   0  0.1031339E-06  0.2903985E+04  0.7818609E-02  0.8271693E-01
        2   -1    0    0  501    0  0.00000000000E+00  0.00000000000E+00  0.12066484862E+04  0.12066484862E+04  0.25500000920E-02 0. -1.
       -2   -1    0    0    0  501  0.00000000000E+00  0.00000000000E+00 -0.17472212005E+04  0.17472212005E+04  0.25500000920E-02 0.  1.
    10030    2    1    2    0    0  0.00000000000E+00  0.00000000000E+00 -0.54057271431E+03  0.29538696867E+04  0.29039847222E+04 0.  0.
        5    1    3    3  502    0  0.71077360631E+03  0.10912689084E+04 -0.92333749924E+03  0.15964464217E+04  0.46999998093E+01 0.  1.
       -5    1    3    3    0  502 -0.71077360631E+03 -0.10912689084E+04  0.38276478493E+03  0.13574232650E+04  0.46999998093E+01 0. -1.
</event>
<event>
 5   0  0.3786210E-07  0.2895777E+04  0.7818609E-02  0.8274135E-01
        1   -1    0    0  501    0  0.00000000000E+00  0.00000000000E+00  0.22767070629E+04  0.22767070629E+04  0.50400001928E-02 0.  1.
       -1   -1    0    0    0  501  0.00000000000E+00  0.00000000000E+00 -0.92079519899E+03  0.92079519900E+03  0.50400001928E-02 0. -1.
    10030    2    1    2    0    0  0.00000000000E+00  0.00000000000E+00  0.13559118639E+04  0.31975022619E+04  0.28957768789E+04 0.  0.
        5    1    3    3  502    0  0.10976018996E+03 -0.12796620979E+04 -0.60102769960E+02  0.12857747925E+04  0.46999998093E+01 0.  1.
       -5    1    3    3    0  502 -0.10976018996E+03  0.12796620979E+04  0.14160146339E+04  0.19117274694E+04  0.46999998093E+01 0. -1.
</event>
<event>
 5   0  0.3786210E-07  0.2908540E+04  0.7818609E-02  0.8270341E-01
        1   -1    0    0  501    0  0.00000000000E+00  0.00000000000E+00  0.91449759239E+03  0.91449759241E+03  0.50400001928E-02 0.  1.
       -1   -1    0    0    0  501  0.00000000000E+00  0.00000000000E+00 -0.23126379440E+04  0.23126379440E+04  0.50400001928E-02 0. -1.
    10030    2    1    2    0    0  0.00000000000E+00  0.00000000000E+00 -0.13981403516E+04  0.32271355364E+04  0.29085404119E+04 0.  0.
        5    1    3    3  502    0  0.71624267791E+03  0.10259845728E+04 -0.15213505983E+04  0.19698166539E+04  0.46999998093E+01 0. -1.
       -5    1    3    3    0  502 -0.71624267791E+03 -0.10259845728E+04  0.12321024666E+03  0.12573188825E+04  0.46999998093E+01 0.  1.
</event>
<event>
 5   0  0.1031339E-06  0.2900087E+04  0.7818609E-02  0.8272852E-01
        2   -1    0    0  501    0  0.00000000000E+00  0.00000000000E+00  0.16582895099E+04  0.16582895099E+04  0.25500000920E-02 0.  1.
       -2   -1    0    0    0  501  0.00000000000E+00  0.00000000000E+00 -0.12679485815E+04  0.12679485815E+04  0.25500000920E-02 0. -1.
    10030    2    1    2    0    0  0.00000000000E+00  0.00000000000E+00  0.39034092833E+03  0.29262380914E+04  0.29000867793E+04 0.  0.
        5    1    3    3  502    0 -0.53747237171E+03  0.20506971707E+03  0.15382153363E+04  0.16422724043E+04  0.46999998093E+01 0.  1.
       -5    1    3    3    0  502  0.53747237171E+03 -0.20506971707E+03 -0.11478744079E+04  0.12839656871E+04  0.46999998093E+01 0. -1.
</event>
<event>
 5   0  0.3638028E-07  0.2907774E+04  0.7818609E-02  0.8270568E-01
       -1   -1    0    0    0  501  0.00000000000E+00  0.00000000000E+00  0.69248841416E+03  0.69248841418E+03  0.50400001928E-02 0.  1.
        1   -1    0    0  501    0  0.00000000000E+00  0.00000000000E+00 -0.30524510444E+04  0.30524510444E+04  0.50400001928E-02 0. -1.
    10030    2    1    2    0    0  0.00000000000E+00  0.00000000000E+00 -0.23599626303E+04  0.37449394586E+04  0.29077737072E+04 0.  0.
        4    1    3    3  502    0  0.43497306262E+02 -0.75590635819E+03  0.41852698914E+03  0.86513171918E+03  0.12699999809E+01 0.  1.
       -4    1    3    3    0  502 -0.43497306262E+02  0.75590635819E+03 -0.27784896194E+04  0.28798077394E+04  0.12699999809E+01 0. -1.
</event>
<event>
 5   0  0.1063979E-06  0.2834413E+04  0.7818609E-02  0.8292663E-01
       -2   -1    0    0    0  501  0.00000000000E+00  0.00000000000E+00  0.10779017539E+04  0.10779017539E+04  0.25500000920E-02 0. -1.
        2   -1    0    0  501    0  0.00000000000E+00  0.00000000000E+00 -0.18633184239E+04  0.18633184239E+04  0.25500000920E-02 0.  1.
    10030    2    1    2    0    0  0.00000000000E+00  0.00000000000E+00 -0.78541666996E+03  0.29412201778E+04  0.28344129531E+04 0.  0.
        1    1    3    3  502    0  0.23707731924E+03 -0.11285895569E+04 -0.12474928960E+04  0.16988697916E+04  0.50400001928E-02 0.  1.
       -1    1    3    3    0  502 -0.23707731924E+03  0.11285895569E+04  0.46207622607E+03  0.12423503862E+04  0.50400001928E-02 0. -1.
</event>
<event>
 5   0  0.3786210E-07  0.2901868E+04  0.7818609E-02  0.8272322E-01
        1   -1    0    0  501    0  0.00000000000E+00  0.00000000000E+00  0.17823388446E+04  0.17823388446E+04  0.50400001928E-02 0.  1.
       -1   -1    0    0    0  501  0.00000000000E+00  0.00000000000E+00 -0.11811499473E+04  0.11811499473E+04  0.50400001928E-02 0. -1.
    10030    2    1    2    0    0  0.00000000000E+00  0.00000000000E+00  0.60118889728E+03  0.29634887919E+04  0.29018679725E+04 0.  0.
        5    1    3    3  502    0 -0.11211278487E+04 -0.82833075701E+03  0.71179571793E+03  0.15651628446E+04  0.46999998093E+01 0.  1.
       -5    1    3    3    0  502  0.11211278487E+04  0.82833075701E+03 -0.11060682066E+03  0.13983259473E+04  0.46999998093E+01 0. -1.
</event>
<event>
 5   0  0.3770467E-07  0.2901271E+04  0.7818609E-02  0.8272499E-01
       -1   -1    0    0    0  501  0.00000000000E+00  0.00000000000E+00  0.10314678427E+04  0.10314678427E+04  0.50400001928E-02 0. -1.
        1   -1    0    0  501    0  0.00000000000E+00  0.00000000000E+00 -0.20401450546E+04  0.20401450546E+04  0.50400001928E-02 0.  1.
    10030    2    1    2    0    0  0.00000000000E+00  0.00000000000E+00 -0.10086772119E+04  0.30716128973E+04  0.29012714581E+04 0.  0.
        1    1    3    3  502    0 -0.81440543216E+03  0.11783900974E+04 -0.74688454988E+03  0.16154553415E+04  0.50400001928E-02 0. -1.
       -1    1    3    3    0  502  0.81440543216E+03 -0.11783900974E+04 -0.26179266197E+03  0.14561575558E+04  0.50400001928E-02 0.  1.
</event>
<event>
 5   0  0.3770467E-07  0.2878842E+04  0.7818609E-02  0.8279201E-01
       -1   -1    0    0    0  501  0.00000000000E+00  0.00000000000E+00  0.14644391178E+04  0.14644391178E+04  0.50400001928E-02 0.  1.
        1   -1    0    0  501    0  0.00000000000E+00  0.00000000000E+00 -0.14148298033E+04  0.14148298033E+04  0.50400001928E-02 0. -1.
    10030    2    1    2    0    0  0.00000000000E+00  0.00000000000E+00  0.49609314525E+02  0.28792689211E+04  0.28788415094E+04 0.  0.
        1    1    3    3  502    0  0.10834566181E+04  0.92539405488E+03  0.22904004080E+03  0.14431534015E+04  0.50400001928E-02 0. -1.
       -1    1    3    3    0  502 -0.10834566181E+04 -0.92539405488E+03 -0.17943072627E+03  0.14361155196E+04  0.50400001928E-02 0.  1.
</event>
<event>
 5   0  0.3638028E-07  0.2913869E+04  0.7818609E-02  0.8268763E-01
       -1   -1    0    0    0  501  0.00000000000E+00  0.00000000000E+00  0.11965812797E+04  0.11965812797E+04  0.50400001928E-02 0. -1.
        1   -1    0    0  501    0  0.00000000000E+00  0.00000000000E+00 -0.17739361044E+04  0.17739361044E+04  0.50400001928E-02 0.  1.
    10030    2    1    2    0    0  0.00000000000E+00  0.00000000000E+00 -0.57735482476E+03  0.29705173841E+04  0.29138694095E+04 0.  0.
        4    1    3    3  502    0  0.14026036886E+04  0.31821425582E+03 -0.51562184171E+02  0.14391725719E+04  0.12699999809E+01 0. -1.
       -4    1    3    3    0  502 -0.14026036886E+04 -0.31821425582E+03 -0.52579264059E+03  0.15313448122E+04  0.12699999809E+01 0.  1.
</event>
<event>
 5   0  0.1006893E-06  0.2896304E+04  0.7818609E-02  0.8273978E-01
        2   -1    0    0  501    0  0.00000000000E+00  0.00000000000E+00  0.15226331013E+04  0.15226331013E+04  0.25500000920E-02 0. -1.
       -2   -1    0    0    0  501  0.00000000000E+00  0.00000000000E+00 -0.13773140286E+04  0.13773140286E+04  0.25500000920E-02 0.  1.
    10030    2    1    2    0    0  0.00000000000E+00  0.00000000000E+00  0.14531907276E+03  0.28999471299E+04  0.28963038037E+04 0.  0.
        4    1    3    3  502    0 -0.26880635389E+03  0.14021710580E+04  0.31545536705E+03  0.14621402919E+04  0.12699999809E+01 0. -1.
       -4    1    3    3    0  502  0.26880635389E+03 -0.14021710580E+04 -0.17013629429E+03  0.14378068380E+04  0.12699999809E+01 0.  1.
</event>
<event>
 5   0  0.9950999E-07  0.2901705E+04  0.7818609E-02  0.8272370E-01
       -2   -1    0    0    0  501  0.00000000000E+00  0.00000000000E+00  0.13303972618E+04  0.13303972618E+04  0.25500000920E-02 0.  1.
        2   -1    0    0  501    0  0.00000000000E+00  0.00000000000E+00 -0.15822136728E+04  0.15822136728E+04  0.25500000920E-02 0. -1.
    10030    2    1    2    0    0  0.00000000000E+00  0.00000000000E+00 -0.25181641097E+03  0.29126109346E+04  0.29017048353E+04 0.  0.
        3    1    3    3  502    0  0.14108435584E+04  0.19833354241E+03  0.14926993010E+03  0.14325143149E+04  0.10100000352E+00 0.  1.
       -3    1    3    3    0  502 -0.14108435584E+04 -0.19833354241E+03 -0.40108634108E+03  0.14800966196E+04  0.10100000352E+00 0. -1.
</event>
<event>
 5   0  0.3638028E-07  0.2897803E+04  0.7818609E-02  0.8273531E-01
       -1   -1    0    0    0  501  0.00000000000E+00  0.00000000000E+00  0.14295723607E+04  0.14295723607E+04  0.50400001928E-02 0.  1.
        1   -1    0    0  501    0  0.00000000000E+00  0.00000000000E+00 -0.14684918202E+04  0.14684918202E+04  0.50400001928E-02 0. -1.
    10030    2    1    2    0    0  0.00000000000E+00  0.00000000000E+00 -0.38919459567E+02  0.28980641809E+04  0.28978028353E+04 0.  0.
        4    1    3    3  502    0 -0.75606190641E+03 -0.27286056607E+03  0.11861493896E+04  0.14328414016E+04  0.12699999809E+01 0.  1.
       -4    1    3    3    0  502  0.75606190641E+03  0.27286056607E+03 -0.12250688492E+04  0.14652227793E+04  0.12699999809E+01 0. -1.
</event>
<event>
 5   0  0.1031339E-06  0.2894903E+04  0.7818609E-02  0.8274396E-01
        2   -1    0    0  501    0  0.00000000000E+00  0.00000000000E+00  0.84017452713E+03  0.84017452713E+03  0.25500000920E-02 0. -1.
       -2   -1    0    0    0  501  0.00000000000E+00  0.00000000000E+00 -0.24936670774E+04  0.24936670774E+04  0.25500000920E-02 0.  1.
    10030    2    1    2    0    0  0.00000000000E+00  0.00000000000E+00 -0.16534925502E+04  0.33338416045E+04  0.28949028015E+04 0.  0.
        5    1    3    3  502    0 -0.33116392297E+03 -0.13837463276E+04 -0.52060027011E+03  0.15150809134E+04  0.46999998093E+01 0. -1.
       -5    1    3    3    0  502  0.33116392297E+03  0.13837463276E+04 -0.11328922801E+04  0.18187606911E+04  0.46999998093E+01 0.  1.
</event>
<event>
 5   0  0.9950999E-07  0.2902890E+04  0.7818609E-02  0.8272018E-01
       -2   -1    0    0    0  501  0.00000000000E+00  0.00000000000E+00  0.14113017312E+04  0.14113017312E+04  0.25500000920E-02 0. -1.
        2   -1    0    0  501    0  0.00000000000E+00  0.00000000000E+00 -0.14927297446E+04  0.14927297447E+04  0.25500000920E-02 0.  1.
    10030    2    1    2    0    0  0.00000000000E+00  0.00000000000E+00 -0.81428013415E+02  0.29040314759E+04  0.29028896451E+04 0.  0.
        3    1    3    3  502    0  0.10644737661E+04  0.89430744725E+03  0.37634547126E+03  0.14403215380E+04  0.10100000352E+00 0. -1.
       -3    1    3    3    0  502 -0.10644737661E+04 -0.89430744725E+03 -0.45777348468E+03  0.14637099379E+04  0.10100000352E+00 0.  1.
</event>
<event>
 5   0  0.1006893E-06  0.2897591E+04  0.7818609E-02  0.8273594E-01
       -2   -1    0    0    0  501  0.00000000000E+00  0.00000000000E+00  0.77091744961E+03  0.77091744962E+03  0.25500000920E-02 0.  1.
        2   -1    0    0  501    0  0.00000000000E+00  0.00000000000E+00 -0.27227413292E+04  0.27227413292E+04  0.25500000920E-02 0. -1.
    10030    2    1    2    0    0  0.00000000000E+00  0.00000000000E+00 -0.19518238795E+04  0.34936587788E+04  0.28975912765E+04 0.  0.
        4    1    3    3  502    0  0.40623294714E+03 -0.12944787558E+03  0.69356309049E+03  0.81413348612E+03  0.12699999809E+01 0.  1.
       -4    1    3    3    0  502 -0.40623294714E+03  0.12944787558E+03 -0.26453869700E+04  0.26795252926E+04  0.12699999809E+01 0. -1.
</event>
<event>
 5   0  0.9994311E-07  0.2898363E+04  0.7818609E-02  0.8273365E-01
       -2   -1    0    0    0  501  0.00000000000E+00  0.00000000000E+00  0.11490482576E+04  0.11490482576E+04  0.25500000920E-02 0. -1.
        2   -1    0    0  501    0  0.00000000000E+00  0.00000000000E+00 -0.18277098912E+04  0.18277098912E+04  0.25500000920E-02 0.  1.
    10030    2    1    2    0    0  0.00000000000E+00  0.00000000000E+00 -0.67866163360E+03  0.29767581488E+04  0.28983628936E+04 0.  0.
        2    1    3    3  502    0 -0.95676128592E+03 -0.50542614561E+03  0.65073457419E+03  0.12626572112E+04  0.25500000920E-02 0. -1.
       -2    1    3    3    0  502  0.95676128592E+03  0.50542614561E+03 -0.13293962078E+04  0.17141009376E+04  0.25500000920E-02 0.  1.
</event>
<event>
 5   0  0.9994311E-07  0.2899217E+04  0.7818609E-02  0.8273110E-01
       -2   -1    0    0    0  501  0.00000000000E+00  0.00000000000E+00  0.13071590414E+04  0.13071590414E+04  0.25500000920E-02 0. -1.
        2   -1    0    0  501    0  0.00000000000E+00  0.00000000000E+00 -0.16075816474E+04  0.16075816474E+04  0.25500000920E-02 0.  1.
    10030    2    1    2    0    0  0.00000000000E+00  0.00000000000E+00 -0.30042260598E+03  0.29147406888E+04  0.28992170565E+04 0.  0.
        2    1    3    3  502    0 -0.68610937883E+03  0.88122383313E+03 -0.10793151072E+04  0.15531331638E+04  0.25500000920E-02 0.  1.
       -2    1    3    3    0  502  0.68610937883E+03 -0.88122383313E+03  0.77889250119E+03  0.13616075250E+04  0.25500000920E-02 0. -1.
</event>
<event>
 5   0  0.9994311E-07  0.2911785E+04  0.7818609E-02  0.8269380E-01
       -2   -1    0    0    0  501  0.00000000000E+00  0.00000000000E+00  0.13843308445E+04  0.13843308445E+04  0.25500000920E-02 0.  1.
        2   -1    0    0  501    0  0.00000000000E+00  0.00000000000E+00 -0.15311531584E+04  0.15311531584E+04  0.25500000920E-02 0. -1.
    10030    2    1    2    0    0  0.00000000000E+00  0.00000000000E+00 -0.14682231389E+03  0.29154840029E+04  0.29117847069E+04 0.  0.
        2    1    3    3  502    0  0.87976361636E+03 -0.10849104243E+04  0.33772943411E+03  0.14370371672E+04  0.25500000920E-02 0.  1.
       -2    1    3    3    0  502 -0.87976361636E+03  0.10849104243E+04 -0.48455174800E+03  0.14784468357E+04  0.25500000920E-02 0. -1.
</event>
<event>
 5   0  0.9950999E-07  0.2890273E+04  0.7818609E-02  0.8275777E-01
        2   -1    0    0  501    0  0.00000000000E+00  0.00000000000E+00  0.22371593243E+04  0.22371593243E+04  0.25500000920E-02 0. -1.
       -2   -1    0    0    0  501  0.00000000000E+00  0.00000000000E+00 -0.93351394233E+03  0.93351394233E+03  0.25500000920E-02 0.  1.
    10030    2    1    2    0    0  0.00000000000E+00  0.00000000000E+00  0.13036453819E+04  0.31706732666E+04  0.28902729424E+04 0.  0.
        3    1    3    3  502    0 -0.46526184159E+03 -0.14001074714E+03 -0.84122576574E+03  0.97145889759E+03  0.10100000352E+00 0.  1.
       -3    1    3    3    0  502  0.46526184159E+03  0.14001074714E+03  0.21448711477E+04  0.21992143690E+04  0.10100000352E+00 0. -1.
</event>
<event>
 5   0  0.1006893E-06  0.2857185E+04  0.7818609E-02  0.8285731E-01
        2   -1    0    0  501    0  0.00000000000E+00  0.00000000000E+00  0.21780362356E+04  0.21780362356E+04  0.25500000920E-02 0.  1.
       -2   -1    0    0    0  501  0.00000000000E+00  0.00000000000E+00 -0.93702586832E+03  0.93702586832E+03  0.25500000920E-02 0. -1.
    10030    2    1    2    0    0  0.00000000000E+00  0.00000000000E+00  0.12410103673E+04  0.31150621039E+04  0.28571848347E+04 0.  0.
        4    1    3    3  502    0 -0.73636358924E+03 -0.67243761672E+03  0.17358058753E+04  0.20018559722E+04  0.12699999809E+01 0.  1.
       -4    1    3    3    0  502  0.73636358924E+03  0.67243761672E+03 -0.49479550803E+03  0.11132061317E+04  0.12699999809E+01 0. -1.
</event>
<event>
 5   0  0.1063979E-06  0.2901420E+04  0.7818609E-02  0.8272455E-01
       -2   -1    0    0    0  501  0.00000000000E+00  0.00000000000E+00  0.13870068592E+04  0.13870068592E+04  0.25500000920E-02 0. -1.
        2   -1    0    0  501    0  0.00000000000E+00  0.00000000000E+00 -0.15173392995E+04  0.15173392995E+04  0.25500000920E-02 0.  1.
    10030    2    1    2    0    0  0.00000000000E+00  0.00000000000E+00 -0.13033244026E+03  0.29043461587E+04  0.29014203530E+04 0.  0.
        1    1    3    3  502    0 -0.22189922637E+03  0.11278245693E+04 -0.95111944640E+03  0.14919302018E+04  0.50400001928E-02 0.  1.
       -1    1    3    3    0  502  0.22189922637E+03 -0.11278245693E+04  0.82078700614E+03  0.14124159569E+04  0.50400001928E-02 0. -1.
</event>
<event>
 5   0  0.3770467E-07  0.2897781E+04  0.7818609E-02  0.8273538E-01
       -1   -1    0    0    0  501  0.00000000000E+00  0.00000000000E+00  0.13072648616E+04  0.13072648616E+04  0.50400001928E-02 0. -1.
        1   -1    0    0  501    0  0.00000000000E+00  0.00000000000E+00 -0.16058595838E+04  0.16058595838E+04  0.50400001928E-02 0.  1.
    10030    2    1    2    0    0  0.00000000000E+00  0.00000000000E+00 -0.29859472214E+03  0.29131244454E+04  0.28977810867E+04 0.  0.
        1    1    3    3  502    0  0.19488987546E+03  0.78671652782E+03  0.10580525002E+04  0.13328090830E+04  0.50400001928E-02 0. -1.
       -1    1    3    3    0  502 -0.19488987546E+03 -0.78671652782E+03 -0.13566472223E+04  0.15803153624E+04  0.50400001928E-02 0.  1.
</event>
<event>
 5   0  0.3769563E-07  0.2903573E+04  0.7818609E-02  0.8271815E-01
        1   -1    0    0  501    0  0.00000000000E+00  0.00000000000E+00  0.17999797032E+04  0.17999797032E+04  0.50400001928E-02 0. -1.
       -1   -1    0    0    0  501  0.00000000000E+00  0.00000000000E+00 -0.11709489197E+04  0.11709489197E+04  0.50400001928E-02 0.  1.
    10030    2    1    2    0    0  0.00000000000E+00  0.00000000000E+00  0.62903078355E+03  0.29709286229E+04  0.29035731704E+04 0.  0.
        3    1    3    3  502    0 -0.24816359624E+03  0.10871262470E+03 -0.11448528119E+04  0.11764742140E+04  0.10100000352E+00 0.  1.
       -3    1    3    3    0  502  0.24816359624E+03 -0.10871262470E+03  0.17738835954E+04  0.17944544089E+04  0.10100000352E+00 0. -1.
</event>
<event>
 5   0  0.3770467E-07  0.2900587E+04  0.7818609E-02  0.8272703E-01
       -1   -1    0    0    0  501  0.00000000000E+00  0.00000000000E+00  0.10159679090E+04  0.10159679090E+04  0.50400001928E-02 0. -1.
        1   -1    0    0  501    0  0.00000000000E+00  0.00000000000E+00 -0.20702926318E+04  0.20702926318E+04  0.50400001928E-02 0.  1.
    10030    2    1    2    0    0  0.00000000000E+00  0.00000000000E+00 -0.10543247228E+04  0.30862605408E+04  0.29005867518E+04 0.  0.
        1    1    3    3  502    0 -0.85125502534E+03 -0.10339121965E+04 -0.11193322296E+04  0.17454266494E+04  0.50400001928E-02 0.  1.
       -1    1    3    3    0  502  0.85125502534E+03  0.10339121965E+04  0.65007506746E+02  0.13408338914E+04  0.50400001928E-02 0. -1.
</event>
<event>
 5   0  0.1006893E-06  0.2890926E+04  0.7818609E-02  0.8275582E-01
        2   -1    0    0  501    0  0.00000000000E+00  0.00000000000E+00  0.28321098264E+04  0.28321098264E+04  0.25500000920E-02 0. -1.
       -2   -1    0    0    0  501  0.00000000000E+00  0.00000000000E+00 -0.73774094021E+03  0.73774094022E+03  0.25500000920E-02 0.  1.
    10030    2    1    2    0    0  0.00000000000E+00  0.00000000000E+00  0.20943688862E+04  0.35698507666E+04  0.28909260565E+04 0.  0.
        4    1    3    3  502    0 -0.12202792210E+04 -0.42857878745E+02  0.20024512410E+04  0.23453636734E+04  0.12699999809E+01 0. -1.
       -4    1    3    3    0  502  0.12202792210E+04  0.42857878745E+02  0.91917645123E+02  0.12244870932E+04  0.12699999809E+01 0.  1.
</event>
<event>
 5   0  0.9994311E-07  0.2899911E+04  0.7818609E-02  0.8272904E-01
       -2   -1    0    0    0  501  0.00000000000E+00  0.00000000000E+00  0.81837259257E+03  0.81837259258E+03  0.25500000920E-02 0. -1.
        2   -1    0    0  501    0  0.00000000000E+00  0.00000000000E+00 -0.25689652710E+04  0.25689652710E+04  0.25500000920E-02 0.  1.
    10030    2    1    2    0    0  0.00000000000E+00  0.00000000000E+00 -0.17505926785E+04  0.33873378636E+04  0.28999108739E+04 0.  0.
        2    1    3    3  502    0 -0.43942314382E+03  0.12864870037E+04 -0.14642574674E+04  0.19980469066E+04  0.25500000920E-02 0.  1.
       -2    1    3    3    0  502  0.43942314382E+03 -0.12864870037E+04 -0.28633521106E+03  0.13892909570E+04  0.25500000920E-02 0. -1.
</event>
<event>
 5   0  0.9994311E-07  0.2899050E+04  0.7818609E-02  0.8273160E-01
       -2   -1    0    0    0  501  0.00000000000E+00  0.00000000000E+00  0.10677476273E+04  0.10677476273E+04  0.25500000920E-02 0.  1.
        2   -1    0    0  501    0  0.00000000000E+00  0.00000000000E+00 -0.19678081835E+04  0.19678081835E+04  0.25500000920E-02 0. -1.
    10030    2    1    2    0    0  0.00000000000E+00  0.00000000000E+00 -0.90006055621E+03  0.30355558108E+04  0.28990498574E+04 0.  0.
        2    1    3    3  502    0 -0.33541321159E+03 -0.10160051982E+04  0.57395063610E+03  0.12141614053E+04  0.25500000920E-02 0.  1.
       -2    1    3    3    0  502  0.33541321159E+03  0.10160051982E+04 -0.14740111923E+04  0.18213944055E+04  0.25500000920E-02 0. -1.
</event>
<event>
 5   0  0.1063979E-06  0.2904019E+04  0.7818609E-02  0.8271683E-01
       -2   -1    0    0    0  501  0.00000000000E+00  0.00000000000E+00  0.12227450655E+04  0.12227450655E+04  0.25500000920E-02 0.  1.
        2   -1    0    0  501    0  0.00000000000E+00  0.00000000000E+00 -0.17242605506E+04  0.17242605507E+04  0.25500000920E-02 0. -1.
    10030    2    1    2    0    0  0.00000000000E+00  0.00000000000E+00 -0.50151548518E+03  0.29470056161E+04  0.29040186500E+04 0.  0.
        1    1    3    3  502    0  0.49021983680E+02  0.59125857715E+03  0.10941299193E+04  0.12446325322E+04  0.50400001928E-02 0.  1.
       -1    1    3    3    0  502 -0.49021983680E+02 -0.59125857715E+03 -0.15956454045E+04  0.17023730839E+04  0.50400001928E-02 0. -1.
</event>
<event>
 5   0  0.1031339E-06  0.2896872E+04  0.7818609E-02  0.8273809E-01
       -2   -1    0    0    0  501  0.00000000000E+00  0.00000000000E+00  0.71426442069E+03  0.71426442069E+03  0.25500000920E-02 0. -1.
        2   -1    0    0  501    0  0.00000000000E+00  0.00000000000E+00 -0.29372420506E+04  0.29372420506E+04  0.25500000920E-02 0.  1.
    10030    2    1    2    0    0  0.00000000000E+00  0.00000000000E+00 -0.22229776299E+04  0.36515064713E+04  0.28968724457E+04 0.  0.
        5    1    3    3  502    0  0.80423413942E+03 -0.43470797233E+02  0.40596794672E+03  0.90195028964E+03  0.46999998093E+01 0. -1.
       -5    1    3    3    0  502 -0.80423413942E+03  0.43470797233E+02 -0.26289455767E+04  0.27495561817E+04  0.46999998093E+01 0.  1.
</event>
<event>
 5   0  0.3885904E-07  0.2897002E+04  0.7818609E-02  0.8273770E-01
        1   -1    0    0  501    0  0.00000000000E+00  0.00000000000E+00  0.17874856505E+04  0.17874856505E+04  0.50400001928E-02 0. -1.
       -1   -1    0    0    0  501  0.00000000000E+00  0.00000000000E+00 -0.11738023041E+04  0.11738023042E+04  0.50400001928E-02 0.  1.
    10030    2    1    2    0    0  0.00000000000E+00  0.00000000000E+00  0.61368334634E+03  0.29612879546E+04  0.28970017433E+04 0.  0.
        2    1    3    3  502    0  0.64742094922E+03 -0.51116267259E+03 -0.91025797848E+03  0.12284179870E+04  0.25500000920E-02 0.  1.
       -2    1    3    3    0  502 -0.64742094922E+03  0.51116267259E+03  0.15239413248E+04  0.17328699677E+04  0.25500000920E-02 0. -1.
</event>
<event>
 5   0  0.3769563E-07  0.2899900E+04  0.7818609E-02  0.8272907E-01
       -1   -1    0    0    0  501  0.00000000000E+00  0.00000000000E+00  0.89854252489E+03  0.89854252490E+03  0.50400001928E-02 0. -1.
        1   -1    0    0  501    0  0.00000000000E+00  0.00000000000E+00 -0.23397393286E+04  0.23397393286E+04  0.50400001928E-02 0.  1.
    10030    2    1    2    0    0  0.00000000000E+00  0.00000000000E+00 -0.14411968037E+04  0.32382818535E+04  0.28999001941E+04 0.  0.
        3    1    3    3  502    0  0.90932741365E+03 -0.12102045244E+03 -0.19744911049E+04  0.21771856670E+04  0.10100000352E+00 0.  1.
       -3    1    3    3    0  502 -0.90932741365E+03  0.12102045244E+03  0.53329430118E+03  0.10610961865E+04  0.10100000352E+00 0. -1.
</event>
<event>
 5   0  0.3770467E-07  0.2892889E+04  0.7818609E-02  0.8274996E-01
        1   -1    0    0  501    0  0.00000000000E+00  0.00000000000E+00  0.12533353294E+04  0.12533353294E+04  0.50400001928E-02 0. -1.
       -1   -1    0    0    0  501  0.00000000000E+00  0.00000000000E+00 -0.16693072435E+04  0.16693072435E+04  0.50400001928E-02 0.  1.
    10030    2    1    2    0    0  0.00000000000E+00  0.00000000000E+00 -0.41597191405E+03  0.29226425729E+04  0.28928890362E+04 0.  0.
        1    1    3    3  502    0  0.73619704736E+03 -0.94079371975E+02  0.10463002261E+04  0.12828020829E+04  0.50400001928E-02 0. -1.
       -1    1    3    3    0  502 -0.73619704736E+03  0.94079371975E+02 -0.14622721402E+04  0.16398404900E+04  0.50400001928E-02 0.  1.
</event>
<event>
 5   0  0.3885904E-07  0.2900154E+04  0.7818609E-02  0.8272832E-01
       -1   -1    0    0    0  501  0.00000000000E+00  0.00000000000E+00  0.26645698151E+04  0.26645698151E+04  0.50400001928E-02 0. -1.
        1   -1    0    0  501    0  0.00000000000E+00  0.00000000000E+00 -0.78914175122E+03  0.78914175124E+03  0.50400001928E-02 0.  1.
    10030    2    1    2    0    0  0.00000000000E+00  0.00000000000E+00  0.18754280639E+04  0.34537115664E+04  0.29001539892E+04 0.  0.
        2    1    3    3  502    0  0.87457413023E+03  0.72734008068E+03  0.20087175336E+04  0.23084301228E+04  0.25500000920E-02 0. -1.
       -2    1    3    3    0  502 -0.87457413023E+03 -0.72734008068E+03 -0.13328946967E+03  0.11452814436E+04  0.25500000920E-02 0.  1.
</event>
<event>
 5   0  0.9950999E-07  0.2893748E+04  0.7818609E-02  0.8274740E-01
       -2   -1    0    0    0  501  0.00000000000E+00  0.00000000000E+00  0.14014524722E+04  0.14014524722E+04  0.25500000920E-02 0.  1.
        2   -1    0    0  501    0  0.00000000000E+00  0.00000000000E+00 -0.14937673557E+04  0.14937673557E+04  0.25500000920E-02 0. -1.
    10030    2    1    2    0    0  0.00000000000E+00  0.00000000000E+00 -0.92314883454E+02  0.28952198279E+04  0.28937477109E+04 0.  0.
        3    1    3    3  502    0 -0.76918170628E+02  0.33732039716E+03  0.13594567218E+04  0.14027915183E+04  0.10100000352E+00 0.  1.
       -3    1    3    3    0  502  0.76918170628E+02 -0.33732039716E+03 -0.14517716052E+04  0.14924283096E+04  0.10100000352E+00 0. -1.
</event>
<event>
 5   0  0.3885904E-07  0.2901504E+04  0.7818609E-02  0.8272430E-01
        1   -1    0    0  501    0  0.00000000000E+00  0.00000000000E+00  0.17858788311E+04  0.17858788311E+04  0.50400001928E-02 0.  1.
       -1   -1    0    0    0  501  0.00000000000E+00  0.00000000000E+00 -0.11785127908E+04  0.11785127908E+04  0.50400001928E-02 0. -1.
    10030    2    1    2    0    0  0.00000000000E+00  0.00000000000E+00  0.60736604029E+03  0.29643916219E+04  0.29015037792E+04 0.  0.
        2    1    3    3  502    0 -0.56121744877E+03 -0.11100437331E+04  0.10665384574E+04  0.16384951618E+04  0.25500000920E-02 0.  1.
       -2    1    3    3    0  502  0.56121744877E+03  0.11100437331E+04 -0.45917241708E+03  0.13258964601E+04  0.25500000920E-02 0. -1.
</event>
<event>
 5   0  0.1031339E-06  0.2902279E+04  0.7818609E-02  0.8272200E-01
        2   -1    0    0  501    0  0.00000000000E+00  0.00000000000E+00  0.24263848725E+04  0.24263848725E+04  0.25500000920E-02 0.  1.
       -2   -1    0    0    0  501  0.00000000000E+00  0.00000000000E+00 -0.86787783802E+03  0.86787783803E+03  0.25500000920E-02 0. -1.
    10030    2    1    2    0    0  0.00000000000E+00  0.00000000000E+00  0.15585070344E+04  0.32942627105E+04  0.29022788683E+04 0.  0.
        5    1    3    3  502    0  0.33330640559E+03  0.10295655944E+04  0.18766201459E+04  0.21662926245E+04  0.46999998093E+01 0.  1.
       -5    1    3    3    0  502 -0.33330640559E+03 -0.10295655944E+04 -0.31811311144E+03  0.11279700860E+04  0.46999998093E+01 0. -1.
</event>
<event>
 5   0  0.1006893E-06  0.2895441E+04  0.7818609E-02  0.8274235E-01
       -2   -1    0    0    0  501  0.00000000000E+00  0.00000000000E+00  0.86620675841E+03  0.86620675842E+03  0.25500000920E-02 0.  1.
        2   -1    0    0  501    0  0.00000000000E+00  0.00000000000E+00 -0.24196236140E+04  0.24196236140E+04  0.25500000920E-02 0. -1.
    10030    2    1    2    0    0  0.00000000000E+00  0.00000000000E+00 -0.15534168555E+04  0.32858303724E+04  0.28954407797E+04 0.  0.
        4    1    3    3  502    0 -0.87100133941E+03 -0.46530422221E+03 -0.19780960497E+04  0.22108860095E+04  0.12699999809E+01 0. -1.
       -4    1    3    3    0  502  0.87100133941E+03  0.46530422221E+03  0.42467919411E+03  0.10749443629E+04  0.12699999809E+01 0.  1.
</event>
<event>
 5   0  0.3786210E-07  0.2910570E+04  0.7818609E-02  0.8269740E-01
        1   -1    0    0  501    0  0.00000000000E+00  0.00000000000E+00  0.16388244890E+04  0.16388244890E+04  0.50400001928E-02 0. -1.
       -1   -1    0    0    0  501  0.00000000000E+00  0.00000000000E+00 -0.12923010136E+04  0.12923010136E+04  0.50400001928E-02 0.  1.
    10030    2    1    2    0    0  0.00000000000E+00  0.00000000000E+00  0.34652347545E+03  0.29311255026E+04  0.29105700805E+04 0.  0.
        5    1    3    3  502    0 -0.12319971693E+04  0.14153786033E+03 -0.59368249507E+03  0.13748930817E+04  0.46999998093E+01 0. -1.
       -5    1    3    3    0  502  0.12319971693E+04 -0.14153786033E+03  0.94020597052E+03  0.15562324210E+04  0.46999998093E+01 0.  1.
</event>
<event>
 5   0  0.3769563E-07  0.2902210E+04  0.7818609E-02  0.8272220E-01
       -1   -1    0    0    0  501  0.00000000000E+00  0.00000000000E+00  0.16164966648E+04  0.16164966648E+04  0.50400001928E-02 0.  1.
        1   -1    0    0  501    0  0.00000000000E+00  0.00000000000E+00 -0.13026349337E+04  0.13026349338E+04  0.50400001928E-02 0. -1.
    10030    2    1    2    0    0  0.00000000000E+00  0.00000000000E+00  0.31386173104E+03  0.29191315986E+04  0.29022095209E+04 0.  0.
        3    1    3    3  502    0 -0.13754384468E+04  0.27054671012E+03  0.53418923884E+03  0.15001281933E+04  0.10100000352E+00 0.  1.
       -3    1    3    3    0  502  0.13754384468E+04 -0.27054671012E+03 -0.22032750780E+03  0.14190034053E+04  0.10100000352E+00 0. -1.
</event>
<event>
 5   0  0.3770467E-07  0.2904688E+04  0.7818609E-02  0.8271484E-01
       -1   -1    0    0    0  501  0.00000000000E+00  0.00000000000E+00  0.78151899881E+03  0.78151899883E+03  0.50400001928E-02 0.  1.
        1   -1    0    0  501    0  0.00000000000E+00  0.00000000000E+00 -0.26989779732E+04  0.26989779732E+04  0.50400001928E-02 0. -1.
    10030    2    1    2    0    0  0.00000000000E+00  0.00000000000E+00 -0.19174589744E+04  0.34804969721E+04  0.29046876345E+04 0.  0.
        1    1    3    3  502    0  0.11941540380E+04 -0.62657727596E+03 -0.31268257936E+03  0.13843313709E+04  0.50400001928E-02 0.  1.
       -1    1    3    3    0  502 -0.11941540380E+04  0.62657727596E+03 -0.16047763951E+04  0.20961656011E+04  0.50400001928E-02 0. -1.
</event>
<event>
 5   0  0.3786210E-07  0.2901707E+04  0.7818609E-02  0.8272370E-01
       -1   -1    0    0    0  501  0.00000000000E+00  0.00000000000E+00  0.13523753427E+04  0.13523753427E+04  0.50400001928E-02 0. -1.
        1   -1    0    0  501    0  0.00000000000E+00  0.00000000000E+00 -0.15565031845E+04  0.15565031846E+04  0.50400001928E-02 0.  1.
    10030    2    1    2    0    0  0.00000000000E+00  0.00000000000E+00 -0.20412784181E+03  0.29088785273E+04  0.29017074475E+04 0.  0.
        5    1    3    3  502    0 -0.37672913624E+03 -0.26457446146E+03 -0.14813384110E+04  0.15512285666E+04  0.46999998093E+01 0.  1.
       -5    1    3    3    0  502  0.37672913624E+03  0.26457446146E+03  0.12772105692E+04  0.13576499607E+04  0.46999998093E+01 0. -1.
</event>
<event>
 5   0  0.9994311E-07  0.2899978E+04  0.7818609E-02  0.8272884E-01
       -2   -1    0    0    0  501  0.00000000000E+00  0.00000000000E+00  0.14727979283E+04  0.14727979283E+04  0.25500000920E-02 0. -1.
        2   -1    0    0  501    0  0.00000000000E+00  0.00000000000E+00 -0.14275333016E+04  0.14275333016E+04  0.25500000920E-02 0.  1.
    10030    2    1    2    0    0  0.00000000000E+00  0.00000000000E+00  0.45264626647E+02  0.29003312299E+04  0.28999779924E+04 0.  0.
        2    1    3    3  502    0  0.99372016714E+03 -0.43191298192E+03  0.98630533315E+03  0.14652053797E+04  0.25500000920E-02 0. -1.
       -2    1    3    3    0  502 -0.99372016714E+03  0.43191298192E+03 -0.94104070650E+03  0.14351258502E+04  0.25500000920E-02 0.  1.
</event>
<event>
 5   0  0.3885904E-07  0.2899075E+04  0.7818609E-02  0.8273153E-01
       -1   -1    0    0    0  501  0.00000000000E+00  0.00000000000E+00  0.11371407092E+04  0.11371407092E+04  0.50400001928E-02 0. -1.
        1   -1    0    0  501    0  0.00000000000E+00  0.00000000000E+00 -0.18477558947E+04  0.18477558947E+04  0.50400001928E-02 0.  1.
    10030    2    1    2    0    0  0.00000000000E+00  0.00000000000E+00 -0.71061518552E+03  0.29848966040E+04  0.28990746445E+04 0.  0.
        2    1    3    3  502    0 -0.16241728412E+03  0.42299038541E+03 -0.17729699927E+04  0.18299515937E+04  0.25500000920E-02 0.  1.
       -2    1    3    3    0  502  0.16241728412E+03 -0.42299038541E+03  0.10623548072E+04  0.11549450102E+04  0.25500000920E-02 0. -1.
</event>
<event>
 5   0  0.1031339E-06  0.2876160E+04  0.7818609E-02  0.8280006E-01
       -2   -1    0    0    0  501  0.00000000000E+00  0.00000000000E+00  0.12292831979E+04  0.12292831979E+04  0.25500000920E-02 0. -1.
        2   -1    0    0  501    0  0.00000000000E+00  0.00000000000E+00 -0.16823416570E+04  0.16823416570E+04  0.25500000920E-02 0.  1.
    10030    2    1    2    0    0  0.00000000000E+00  0.00000000000E+00 -0.45305845904E+03  0.29116248549E+04  0.28761601708E+04 0.  0.
        5    1    3    3  502    0 -0.23844257300E+03 -0.11056117643E+04  0.67257762596E+03  0.13159084265E+04  0.46999998093E+01 0. -1.
       -5    1    3    3    0  502  0.23844257300E+03  0.11056117643E+04 -0.11256360850E+04  0.15957164284E+04  0.46999998093E+01 0.  1.
</event>
<event>
 5   0  0.3770467E-07  0.2899288E+04  0.7818609E-02  0.8273089E-01
        1   -1    0    0  501    0  0.00000000000E+00  0.00000000000E+00  0.12453880932E+04  0.12453880932E+04  0.50400001928E-02 0. -1.
       -1   -1    0    0    0  501  0.00000000000E+00  0.00000000000E+00 -0.16873994944E+04  0.16873994945E+04  0.50400001928E-02 0.  1.
    10030    2    1    2    0    0  0.00000000000E+00  0.00000000000E+00 -0.44201140128E+03  0.29327875876E+04  0.28992876634E+04 0.  0.
        1    1    3    3  502    0 -0.83924411692E+03 -0.72103111909E+03  0.72643308105E+03  0.13236017467E+04  0.50400001928E-02 0. -1.
       -1    1    3    3    0  502  0.83924411692E+03  0.72103111909E+03 -0.11684444823E+04  0.16091858410E+04  0.50400001928E-02 0.  1.
</event>
<event>
 5   0  0.9950999E-07  0.2890846E+04  0.7818609E-02  0.8275606E-01
       -2   -1    0    0    0  501  0.00000000000E+00  0.00000000000E+00  0.91202472390E+03  0.91202472390E+03  0.25500000920E-02 0.  1.
        2   -1    0    0  501    0  0.00000000000E+00  0.00000000000E+00 -0.22907801423E+04  0.22907801423E+04  0.25500000920E-02 0. -1.
    10030    2    1    2    0    0  0.00000000000E+00  0.00000000000E+00 -0.13787554184E+04  0.32028048662E+04  0.28908463306E+04 0.  0.
        3    1    3    3  502    0 -0.12813743415E+04 -0.34128085077E+03 -0.52106177970E+02  0.13270674007E+04  0.10100000352E+00 0.  1.
       -3    1    3    3    0  502  0.12813743415E+04  0.34128085077E+03 -0.13266492405E+04  0.18757374655E+04  0.10100000352E+00 0. -1.
</event>
<event>
 5   0  0.1031339E-06  0.2900183E+04  0.7818609E-02  0.8272823E-01
        2   -1    0    0  501    0  0.00000000000E+00  0.00000000000E+00  0.20217346248E+04  0.20217346248E+04  0.25500000920E-02 0. -1.
       -2   -1    0    0    0  501  0.00000000000E+00  0.00000000000E+00 -0.10400797808E+04  0.10400797808E+04  0.25500000920E-02 0.  1.
    10030    2    1    2    0    0  0.00000000000E+00  0.00000000000E+00  0.98165484403E+03  0.30618144056E+04  0.29001829635E+04 0.  0.
        5    1    3    3  502    0  0.43645480147E+03  0.10509112986E+04 -0.45806074307E+03  0.12266821453E+04  0.46999998093E+01 0.  1.
       -5    1    3    3    0  502 -0.43645480147E+03 -0.10509112986E+04  0.14397155871E+04  0.18351322603E+04  0.46999998093E+01 0. -1.
</event>
<event>
 5   0  0.1031339E-06  0.2918804E+04  0.7818609E-02  0.8267305E-01
       -2   -1    0    0    0  501  0.00000000000E+00  0.00000000000E+00  0.10534912395E+04  0.10534912395E+04  0.25500000920E-02 0. -1.
        2   -1    0    0  501    0  0.00000000000E+00  0.00000000000E+00 -0.20217107726E+04  0.20217107726E+04  0.25500000920E-02 0.  1.
    10030    2    1    2    0    0  0.00000000000E+00  0.00000000000E+00 -0.96821953312E+03  0.30752020121E+04  0.29188042673E+04 0.  0.
        5    1    3    3  502    0  0.13461177007E+04  0.11308982681E+03 -0.10659797418E+04  0.17208012880E+04  0.46999998093E+01 0.  1.
       -5    1    3    3    0  502 -0.13461177007E+04 -0.11308982681E+03  0.97760208661E+02  0.13544007241E+04  0.46999998093E+01 0. -1.
</event>
<event>
 5   0  0.9950999E-07  0.2903477E+04  0.7818609E-02  0.8271844E-01
       -2   -1    0    0    0  501  0.00000000000E+00  0.00000000000E+00  0.24268018439E+04  0.24268018439E+04  0.25500000920E-02 0. -1.
        2   -1    0    0  501    0  0.00000000000E+00  0.00000000000E+00 -0.86844543262E+03  0.86844543262E+03  0.25500000920E-02 0.  1.
    10030    2    1    2    0    0  0.00000000000E+00  0.00000000000E+00  0.15583564113E+04  0.32952472766E+04  0.29034772100E+04 0.  0.
        3    1    3    3  502    0  0.28789745648E+03  0.90969875652E+03  0.20209342710E+04  0.22348628842E+04  0.10100000352E+00 0. -1.
       -3    1    3    3    0  502 -0.28789745648E+03 -0.90969875652E+03 -0.46257785973E+03  0.10603843924E+04  0.10100000352E+00 0.  1.
</event>
<event>
 5   0  0.3770467E-07  0.2900612E+04  0.7818609E-02  0.8272695E-01
       -1   -1    0    0    0  501  0.00000000000E+00  0.00000000000E+00  0.10219390467E+04  0.10219390467E+04  0.50400001928E-02 0. -1.
        1   -1    0    0  501    0  0.00000000000E+00  0.00000000000E+00 -0.20582318161E+04  0.20582318161E+04  0.50400001928E-02 0.  1.
    10030    2    1    2    0    0  0.00000000000E+00  0.00000000000E+00 -0.10362927694E+04  0.30801708628E+04  0.29006119769E+04 0.  0.
        1    1    3    3  502    0  0.38013680536E+03  0.58660131549E+03  0.83125816922E+03  0.10860917264E+04  0.50400001928E-02 0. -1.
       -1    1    3    3    0  502 -0.38013680536E+03 -0.58660131549E+03 -0.18675509386E+04  0.19940791365E+04  0.50400001928E-02 0.  1.
</event>
<event>
 5   0  0.3638028E-07  0.2905587E+04  0.7818609E-02  0.8271217E-01
        1   -1    0    0  501    0  0.00000000000E+00  0.00000000000E+00  0.19425152640E+04  0.19425152640E+04  0.50400001928E-02 0. -1.
       -1   -1    0    0    0  501  0.00000000000E+00  0.00000000000E+00 -0.10865340109E+04  0.10865340109E+04  0.50400001928E-02 0.  1.
    10030    2    1    2    0    0  0.00000000000E+00  0.00000000000E+00  0.85598125316E+03  0.30290492749E+04  0.29055869638E+04 0.  0.
        4    1    3    3  502    0 -0.11054755475E+03  0.89982390114E+03 -0.75545677219E+03  0.11800933702E+04  0.12699999809E+01 0.  1.
       -4    1    3    3    0  502  0.11054755475E+03 -0.89982390114E+03  0.16114380254E+04  0.18489559047E+04  0.12699999809E+01 0. -1.
</event>
<event>
 5   0  0.3786210E-07  0.2911731E+04  0.7818609E-02  0.8269396E-01
       -1   -1    0    0    0  501  0.00000000000E+00  0.00000000000E+00  0.12744727873E+04  0.12744727873E+04  0.50400001928E-02 0. -1.
        1   -1    0    0  501    0  0.00000000000E+00  0.00000000000E+00 -0.16630755249E+04  0.16630755249E+04  0.50400001928E-02 0.  1.
    10030    2    1    2    0    0  0.00000000000E+00  0.00000000000E+00 -0.38860273764E+03  0.29375483122E+04  0.29117311000E+04 0.  0.
        5    1    3    3  502    0 -0.19169767302E+03 -0.12977062786E+04  0.44275043295E+03  0.13844997722E+04  0.46999998093E+01 0. -1.
       -5    1    3    3    0  502  0.19169767302E+03  0.12977062786E+04 -0.83135317059E+03  0.15530485400E+04  0.46999998093E+01 0.  1.
</event>
<event>
 5   0  0.9994311E-07  0.2900277E+04  0.7818609E-02  0.8272795E-01
       -2   -1    0    0    0  501  0.00000000000E+00  0.00000000000E+00  0.17510029829E+04  0.17510029829E+04  0.25500000920E-02 0.  1.
        2   -1    0    0  501    0  0.00000000000E+00  0.00000000000E+00 -0.12009697720E+04  0.12009697720E+04  0.25500000920E-02 0. -1.
    10030    2    1    2    0    0  0.00000000000E+00  0.00000000000E+00  0.55003321092E+03  0.29519727550E+04  0.29002769890E+04 0.  0.
        2    1    3    3  502    0  0.70334645301E+02 -0.79450948675E+03 -0.95764792844E+03  0.12463072822E+04  0.25500000920E-02 0. -1.
       -2    1    3    3    0  502 -0.70334645301E+02  0.79450948675E+03  0.15076811394E+04  0.17056654727E+04  0.25500000920E-02 0.  1.
</event>
<event>
 5   0  0.3769563E-07  0.2900279E+04  0.7818609E-02  0.8272794E-01
       -1   -1    0    0    0  501  0.00000000000E+00  0.00000000000E+00  0.12532022555E+04  0.12532022555E+04  0.50400001928E-02 0.  1.
        1   -1    0    0  501    0  0.00000000000E+00  0.00000000000E+00 -0.16780248787E+04  0.16780248787E+04  0.50400001928E-02 0. -1.
    10030    2    1    2    0    0  0.00000000000E+00  0.00000000000E+00 -0.42482262323E+03  0.29312271342E+04  0.29002789954E+04 0.  0.
        3    1    3    3  502    0 -0.30495243832E+03  0.52141481521E+03  0.11200020311E+04  0.12725069583E+04  0.10100000352E+00 0.  1.
       -3    1    3    3    0  502  0.30495243832E+03 -0.52141481521E+03 -0.15448246543E+04  0.16587201759E+04  0.10100000352E+00 0. -1.
</event>
<event>
 5   0  0.3638028E-07  0.2901574E+04  0.7818609E-02  0.8272409E-01
        1   -1    0    0  501    0  0.00000000000E+00  0.00000000000E+00  0.13151386179E+04  0.13151386179E+04  0.50400001928E-02 0. -1.
       -1   -1    0    0    0  501  0.00000000000E+00  0.00000000000E+00 -0.16004269375E+04  0.16004269375E+04  0.50400001928E-02 0.  1.
    10030    2    1    2    0    0  0.00000000000E+00  0.00000000000E+00 -0.28528831963E+03  0.29155655555E+04  0.29015742422E+04 0.  0.
        4    1    3    3  502    0  0.86329819920E+03  0.84150625247E+03 -0.95360777149E+03  0.15371356311E+04  0.12699999809E+01 0.  1.
       -4    1    3    3    0  502 -0.86329819920E+03 -0.84150625247E+03  0.66831945186E+03  0.13784299243E+04  0.12699999809E+01 0. -1.
</event>
<event>
 5   0  0.1006893E-06  0.2900767E+04  0.7818609E-02  0.8272649E-01
        2   -1    0    0  501    0  0.00000000000E+00  0.00000000000E+00  0.12276526270E+04  0.12276526270E+04  0.25500000920E-02 0. -1.
       -2   -1    0    0    0  501  0.00000000000E+00  0.00000000000E+00 -0.17135236940E+04  0.17135236940E+04  0.25500000920E-02 0.  1.
    10030    2    1    2    0    0  0.00000000000E+00  0.00000000000E+00 -0.48587106699E+03  0.29411763209E+04  0.29007667016E+04 0.  0.
        4    1    3    3  502    0 -0.62442228498E+03 -0.88526365820E+03 -0.12207429118E+04  0.16321181955E+04  0.12699999809E+01 0.  1.
       -4    1    3    3    0  502  0.62442228498E+03  0.88526365820E+03  0.73487184483E+03  0.13090581254E+04  0.12699999809E+01 0. -1.
</event>
<event>
 5   0  0.3638028E-07  0.2901777E+04  0.7818609E-02  0.8272349E-01
        1   -1    0    0  501    0  0.00000000000E+00  0.00000000000E+00  0.14612171099E+04  0.14612171099E+04  0.50400001928E-02 0. -1.
       -1   -1    0    0    0  501  0.00000000000E+00  0.00000000000E+00 -0.14406326616E+04  0.14406326617E+04  0.50400001928E-02 0.  1.
    10030    2    1    2    0    0  0.00000000000E+00  0.00000000000E+00  0.20584448272E+02  0.29018497716E+04  0.29017767621E+04 0.  0.
        4    1    3    3  502    0  0.38009802814E+03  0.93509011535E+03 -0.10319467628E+04  0.14435317000E+04  0.12699999809E+01 0.  1.
       -4    1    3    3    0  502 -0.38009802814E+03 -0.93509011535E+03  0.10525312110E+04  0.14583180716E+04  0.12699999809E+01 0. -1.
</event>
<event>
 5   0  0.3638028E-07  0.2900180E+04  0.7818609E-02  0.8272824E-01
        1   -1    0    0  501    0  0.00000000000E+00  0.00000000000E+00  0.15042448268E+04  0.15042448269E+04  0.50400001928E-02 0.  1.
       -1   -1    0    0    0  501  0.00000000000E+00  0.00000000000E+00 -0.13978852620E+04  0.13978852620E+04  0.50400001928E-02 0. -1.
    10030    2    1    2    0    0  0.00000000000E+00  0.00000000000E+00  0.10635956488E+03  0.29021300888E+04  0.29001804591E+04 0.  0.
        4    1    3    3  502    0 -0.55012456446E+03  0.12888549232E+04  0.42622525694E+03  0.14647367108E+04  0.12699999809E+01 0.  1.
       -4    1    3    3    0  502  0.55012456446E+03 -0.12888549232E+04 -0.31986569206E+03  0.14373933780E+04  0.12699999809E+01 0. -1.
</event>
<event>
 5   0  0.3770467E-07  0.2901065E+04  0.7818609E-02  0.8272561E-01
        1   -1    0    0  501    0  0.00000000000E+00  0.00000000000E+00  0.13465751972E+04  0.13465751972E+04  0.50400001928E-02 0.  1.
       -1   -1    0    0    0  501  0.00000000000E+00  0.00000000000E+00 -0.15625156007E+04  0.15625156008E+04  0.50400001928E-02 0. -1.
    10030    2    1    2    0    0  0.00000000000E+00  0.00000000000E+00 -0.21594040352E+03  0.29090907980E+04  0.29010651515E+04 0.  0.
        1    1    3    3  502    0 -0.69869959396E+03 -0.16405068898E+03  0.11560530037E+04  0.13607175676E+04  0.50400001928E-02 0.  1.
       -1    1    3    3    0  502  0.69869959396E+03  0.16405068898E+03 -0.13719934073E+04  0.15483732304E+04  0.50400001928E-02 0. -1.
</event>
<event>
 5   0  0.1063979E-06  0.2904465E+04  0.7818609E-02  0.8271550E-01
        2   -1    0    0  501    0  0.00000000000E+00  0.00000000000E+00  0.22914330963E+04  0.22914330963E+04  0.25500000920E-02 0.  1.
       -2   -1    0    0    0  501  0.00000000000E+00  0.00000000000E+00 -0.92037556007E+03  0.92037556007E+03  0.25500000920E-02 0. -1.
    10030    2    1    2    0    0  0.00000000000E+00  0.00000000000E+00  0.13710575363E+04  0.32118086564E+04  0.29044648522E+04 0.  0.
        1    1    3    3  502    0  0.13466154458E+04 -0.47590786201E+03  0.39480685969E+03  0.14818009005E+04  0.50400001928E-02 0. -1.
       -1    1    3    3    0  502 -0.13466154458E+04  0.47590786201E+03  0.97625067656E+03  0.17300077559E+04  0.50400001928E-02 0.  1.
</event>
<event>
 5   0  0.3769563E-07  0.2891433E+04  0.7818609E-02  0.8275431E-01
        1   -1    0    0  501    0  0.00000000000E+00  0.00000000000E+00  0.13545608324E+04  0.13545608324E+04  0.50400001928E-02 0.  1.
       -1   -1    0    0    0  501  0.00000000000E+00  0.00000000000E+00 -0.15430066117E+04  0.15430066117E+04  0.50400001928E-02 0. -1.
    10030    2    1    2    0    0  0.00000000000E+00  0.00000000000E+00 -0.18844577932E+03  0.28975674442E+04  0.28914330844E+04 0.  0.
        3    1    3    3  502    0 -0.10370249686E+04  0.31808006447E+03 -0.10520228733E+04  0.15110750640E+04  0.10100000352E+00 0. -1.
       -3    1    3    3    0  502  0.10370249686E+04 -0.31808006447E+03  0.86357709396E+03  0.13864923802E+04  0.10100000352E+00 0.  1.
</event>
<event>
 5   0  0.9994311E-07  0.2896313E+04  0.7818609E-02  0.8273975E-01
        2   -1    0    0  501    0  0.00000000000E+00  0.00000000000E+00  0.28589266319E+04  0.28589266319E+04  0.25500000920E-02 0. -1.
       -2   -1    0    0    0  501  0.00000000000E+00  0.00000000000E+00 -0.73354701725E+03  0.73354701726E+03  0.25500000920E-02 0.  1.
    10030    2    1    2    0    0  0.00000000000E+00  0.00000000000E+00  0.21253796147E+04  0.35924736492E+04  0.28963128998E+04 0.  0.
        2    1    3    3  502    0  0.11739001565E+04 -0.84267350228E+03  0.94490843525E+03  0.17265549976E+04  0.25500000920E-02 0.  1.
       -2    1    3    3    0  502 -0.11739001565E+04  0.84267350228E+03  0.11804711794E+04  0.18659186516E+04  0.25500000920E-02 0. -1.
</event>
<event>
 5   0  0.9950999E-07  0.2904197E+04  0.7818609E-02  0.8271630E-01
        2   -1    0    0  501    0  0.00000000000E+00  0.00000000000E+00  0.23843146242E+04  0.23843146242E+04  0.25500000920E-02 0. -1.
       -2   -1    0    0    0  501  0.00000000000E+00  0.00000000000E+00 -0.88435871775E+03  0.88435871775E+03  0.25500000920E-02 0.  1.
    10030    2    1    2    0    0  0.00000000000E+00  0.00000000000E+00  0.14999559064E+04  0.32686733419E+04  0.29041965662E+04 0.  0.
        3    1    3    3  502    0  0.84540230811E+03 -0.93201236077E+03 -0.65708590542E+02  0.12600276712E+04  0.10100000352E+00 0.  1.
       -3    1    3    3    0  502 -0.84540230811E+03  0.93201236077E+03  0.15656644970E+04  0.20086456707E+04  0.10100000352E+00 0. -1.
</event>
<event>
 5   0  0.3786210E-07  0.2901767E+04  0.7818609E-02  0.8272352E-01
       -1   -1    0    0    0  501  0.00000000000E+00  0.00000000000E+00  0.13303146330E+04  0.13303146330E+04  0.50400001928E-02 0.  1.
        1   -1    0    0  501    0  0.00000000000E+00  0.00000000000E+00 -0.15823792363E+04  0.15823792363E+04  0.50400001928E-02 0. -1.
    10030    2    1    2    0    0  0.00000000000E+00  0.00000000000E+00 -0.25206460325E+03  0.29126938693E+04  0.29017665330E+04 0.  0.
        5    1    3    3  502    0 -0.30851473434E+03 -0.83675986605E+03  0.10226949386E+04  0.13569360494E+04  0.46999998093E+01 0.  1.
       -5    1    3    3    0  502  0.30851473434E+03  0.83675986605E+03 -0.12747595418E+04  0.15557578199E+04  0.46999998093E+01 0. -1.
</event>
<event>
 5   0  0.1006893E-06  0.2918061E+04  0.7818609E-02  0.8267524E-01
       -2   -1    0    0    0  501  0.00000000000E+00  0.00000000000E+00  0.13797483729E+04  0.13797483729E+04  0.25500000920E-02 0. -1.
        2   -1    0    0  501    0  0.00000000000E+00  0.00000000000E+00 -0.15428681470E+04  0.15428681470E+04  0.25500000920E-02 0.  1.
    10030    2    1    2    0    0  0.00000000000E+00  0.00000000000E+00 -0.16311977410E+03  0.29226165199E+04  0.29180608735E+04 0.  0.
        4    1    3    3  502    0 -0.65044453426E+03 -0.75488582089E+03 -0.11489805125E+04  0.15208841263E+04  0.12699999809E+01 0.  1.
       -4    1    3    3    0  502  0.65044453426E+03  0.75488582089E+03  0.98586073839E+03  0.14017323935E+04  0.12699999809E+01 0. -1.
</event>
<event>
 5   0  0.1006893E-06  0.2897583E+04  0.7818609E-02  0.8273597E-01
       -2   -1    0    0    0  501  0.00000000000E+00  0.00000000000E+00  0.80883461480E+03  0.80883461481E+03  0.25500000920E-02 0. -1.
        2   -1    0    0  501    0  0.00000000000E+00  0.00000000000E+00 -0.25950883891E+04  0.25950883891E+04  0.25500000920E-02 0.  1.
    10030    2    1    2    0    0  0.00000000000E+00  0.00000000000E+00 -0.17862537743E+04  0.34039230039E+04  0.28975833500E+04 0.  0.
        4    1    3    3  502    0  0.11752326080E+04  0.15736713435E+03 -0.18711048850E+04  0.22151684364E+04  0.12699999809E+01 0.  1.
       -4    1    3    3    0  502 -0.11752326080E+04 -0.15736713435E+03  0.84851110712E+02  0.11887545675E+04  0.12699999809E+01 0. -1.
</event>
<event>
 5   0  0.9994311E-07  0.2896811E+04  0.7818609E-02  0.8273827E-01
       -2   -1    0    0    0  501  0.00000000000E+00  0.00000000000E+00  0.80646923211E+03  0.80646923212E+03  0.25500000920E-02 0.  1.
        2   -1    0    0  501    0  0.00000000000E+00  0.00000000000E+00 -0.26013126986E+04  0.26013126986E+04  0.25500000920E-02 0. -1.
    10030    2    1    2    0    0  0.00000000000E+00  0.00000000000E+00 -0.17948434665E+04  0.34077819307E+04  0.28968111119E+04 0.  0.
        2    1    3    3  502    0  0.12639490362E+04 -0.50445133291E+03 -0.14807032209E+04  0.20110992870E+04  0.25500000920E-02 0. -1.
       -2    1    3    3    0  502 -0.12639490362E+04  0.50445133291E+03 -0.31414024555E+03  0.13966826438E+04  0.25500000920E-02 0.  1.
</event>
<event>
 5   0  0.3786210E-07  0.2860049E+04  0.7818609E-02  0.8284864E-01
       -1   -1    0    0    0  501  0.00000000000E+00  0.00000000000E+00  0.15619018381E+04  0.15619018381E+04  0.50400001928E-02 0. -1.
        1   -1    0    0  501    0  0.00000000000E+00  0.00000000000E+00 -0.13092824236E+04  0.13092824236E+04  0.50400001928E-02 0.  1.
    10030    2    1    2    0    0  0.00000000000E+00  0.00000000000E+00  0.25261941446E+03  0.28711842617E+04  0.28600493870E+04 0.  0.
        5    1    3    3  502    0  0.96241270009E+03 -0.82140120677E+03 -0.54262556562E+03  0.13767362646E+04  0.46999998093E+01 0.  1.
       -5    1    3    3    0  502 -0.96241270009E+03  0.82140120677E+03  0.79524498009E+03  0.14944479971E+04  0.46999998093E+01 0. -1.
</event>
<event>
 5   0  0.9950999E-07  0.2903051E+04  0.7818609E-02  0.8271970E-01
       -2   -1    0    0    0  501  0.00000000000E+00  0.00000000000E+00  0.13492507772E+04  0.13492507772E+04  0.25500000920E-02 0.  1.
        2   -1    0    0  501    0  0.00000000000E+00  0.00000000000E+00 -0.15615528691E+04  0.15615528691E+04  0.25500000920E-02 0. -1.
    10030    2    1    2    0    0  0.00000000000E+00  0.00000000000E+00 -0.21230209190E+03  0.29108036462E+04  0.29030510999E+04 0.  0.
        3    1    3    3  502    0  0.88228013130E+03 -0.36476101918E+03  0.99013860672E+03  0.13754429475E+04  0.10100000352E+00 0.  1.
       -3    1    3    3    0  502 -0.88228013130E+03  0.36476101918E+03 -0.12024406986E+04  0.15353606987E+04  0.10100000352E+00 0. -1.
</event>
<event>
 5   0  0.3378750E-07  0.2929195E+04  0.7818609E-02  0.8264244E-01
       -3   -1    0    0    0  501  0.00000000000E+00  0.00000000000E+00  0.21979380987E+04  0.21979381011E+04  0.10100000352E+00 0. -1.
        3   -1    0    0  501    0  0.00000000000E+00  0.00000000000E+00 -0.97593551331E+03  0.97593551853E+03  0.10100000352E+00 0.  1.
    10030    2    1    2    0    0  0.00000000000E+00  0.00000000000E+00  0.12220025854E+04  0.31738736196E+04  0.29291950147E+04 0.  0.
        4    1    3    3  502    0  0.14973495410E+03 -0.13459756441E+04  0.12152320977E+04  0.18195773287E+04  0.12699999809E+01 0. -1.
       -4    1    3    3    0  502 -0.14973495410E+03  0.13459756441E+04  0.67704877459E+01  0.13542962909E+04  0.12699999809E+01 0.  1.
</event>
<event>
 5   0  0.3769563E-07  0.2903004E+04  0.7818609E-02  0.8271984E-01
        1   -1    0    0  501    0  0.00000000000E+00  0.00000000000E+00  0.23631114908E+04  0.23631114908E+04  0.50400001928E-02 0. -1.
       -1   -1    0    0    0  501  0.00000000000E+00  0.00000000000E+00 -0.89156130528E+03  0.89156130530E+03  0.50400001928E-02 0.  1.
    10030    2    1    2    0    0  0.00000000000E+00  0.00000000000E+00  0.14715501855E+04  0.32546727961E+04  0.29030044886E+04 0.  0.
        3    1    3    3  502    0 -0.44077974061E+03 -0.13316560769E+04  0.31738714527E+03  0.14381687304E+04  0.10100000352E+00 0. -1.
       -3    1    3    3    0  502  0.44077974061E+03  0.13316560769E+04  0.11541630402E+04  0.18165040657E+04  0.10100000352E+00 0.  1.
</event>
<event>
 5   0  0.3378750E-07  0.2910320E+04  0.7818609E-02  0.8269813E-01
        3   -1    0    0  501    0  0.00000000000E+00  0.00000000000E+00  0.10054776598E+04  0.10054776649E+04  0.10100000352E+00 0.  1.
       -3   -1    0    0    0  501  0.00000000000E+00  0.00000000000E+00 -0.21059554519E+04  0.21059554543E+04  0.10100000352E+00 0. -1.
    10030    2    1    2    0    0  0.00000000000E+00  0.00000000000E+00 -0.11004777921E+04  0.31114331192E+04  0.29103203749E+04 0.  0.
        1    1    3    3  502    0  0.62689208580E+03 -0.69217107886E+03 -0.17433297665E+04  0.19776989569E+04  0.50400001928E-02 0. -1.
       -1    1    3    3    0  502 -0.62689208580E+03  0.69217107886E+03  0.64285197439E+03  0.11337341622E+04  0.50400001928E-02 0.  1.
</event>
<event>
 5   0  0.1006893E-06  0.2895645E+04  0.7818609E-02  0.8274174E-01
        2   -1    0    0  501    0  0.00000000000E+00  0.00000000000E+00  0.14827472102E+04  0.14827472102E+04  0.25500000920E-02 0.  1.
       -2   -1    0    0    0  501  0.00000000000E+00  0.00000000000E+00 -0.14137208140E+04  0.14137208140E+04  0.25500000920E-02 0. -1.
    10030    2    1    2    0    0  0.00000000000E+00  0.00000000000E+00  0.69026396230E+02  0.28964680242E+04  0.28956454154E+04 0.  0.
        4    1    3    3  502    0  0.63646177280E+03 -0.12904071974E+03  0.13288877163E+04  0.14790805492E+04  0.12699999809E+01 0.  1.
       -4    1    3    3    0  502 -0.63646177280E+03  0.12904071974E+03 -0.12598613201E+04  0.14173874750E+04  0.12699999809E+01 0. -1.
</event>
<event>
 5   0  0.3638028E-07  0.2908462E+04  0.7818609E-02  0.8270364E-01
        1   -1    0    0  501    0  0.00000000000E+00  0.00000000000E+00  0.15263245527E+04  0.15263245527E+04  0.50400001928E-02 0. -1.
       -1   -1    0    0    0  501  0.00000000000E+00  0.00000000000E+00 -0.13855425830E+04  0.13855425830E+04  0.50400001928E-02 0.  1.
    10030    2    1    2    0    0  0.00000000000E+00  0.00000000000E+00  0.14078196964E+03  0.29118671357E+04  0.29084619051E+04 0.  0.
        4    1    3    3  502    0 -0.61633556806E+03 -0.12896212746E+04  0.33864775771E+03  0.14689031558E+04  0.12699999809E+01 0.  1.
       -4    1    3    3    0  502  0.61633556806E+03  0.12896212746E+04 -0.19786578806E+03  0.14429639799E+04  0.12699999809E+01 0. -1.
</event>
<event>
 5   0  0.3769563E-07  0.2916411E+04  0.7818609E-02  0.8268011E-01
       -1   -1    0    0    0  501  0.00000000000E+00  0.00000000000E+00  0.83783045230E+03  0.83783045231E+03  0.50400001928E-02 0.  1.
        1   -1    0    0  501    0  0.00000000000E+00  0.00000000000E+00 -0.25379404313E+04  0.25379404313E+04  0.50400001928E-02 0. -1.
    10030    2    1    2    0    0  0.00000000000E+00  0.00000000000E+00 -0.17001099790E+04  0.33757708836E+04  0.29164113424E+04 0.  0.
        3    1    3    3  502    0 -0.80772837424E+03  0.97759306610E+03 -0.16833408721E+04  0.21075459262E+04  0.10100000352E+00 0. -1.
       -3    1    3    3    0  502  0.80772837424E+03 -0.97759306610E+03 -0.16769106969E+02  0.12682249574E+04  0.10100000352E+00 0.  1.
</event>
<event>
 5   0  0.9994311E-07  0.2897828E+04  0.7818609E-02  0.8273524E-01
       -2   -1    0    0    0  501  0.00000000000E+00  0.00000000000E+00  0.12665932624E+04  0.12665932624E+04  0.25500000920E-02 0.  1.
        2   -1    0    0  501    0  0.00000000000E+00  0.00000000000E+00 -0.16574795166E+04  0.16574795166E+04  0.25500000920E-02 0. -1.
    10030    2    1    2    0    0  0.00000000000E+00  0.00000000000E+00 -0.39088625427E+03  0.29240727790E+04  0.28978284202E+04 0.  0.
        2    1    3    3  502    0 -0.42154220466E+03 -0.13353592762E+04  0.18004275239E+03  0.14118419244E+04  0.25500000920E-02 0.  1.
       -2    1    3    3    0  502  0.42154220466E+03  0.13353592762E+04 -0.57092900666E+03  0.15122308546E+04  0.25500000920E-02 0. -1.
</event>
<event>
 5   0  0.3769563E-07  0.2900818E+04  0.7818609E-02  0.8272634E-01
        1   -1    0    0  501    0  0.00000000000E+00  0.00000000000E+00  0.15389530188E+04  0.15389530188E+04  0.50400001928E-02 0. -1.
       -1   -1    0    0    0  501  0.00000000000E+00  0.00000000000E+00 -0.13669592715E+04  0.13669592715E+04  0.50400001928E-02 0.  1.
    10030    2    1    2    0    0  0.00000000000E+00  0.00000000000E+00  0.17199374729E+03  0.29059122903E+04  0.29008178829E+04 0.  0.
        3    1    3    3  502    0 -0.13146100141E+04  0.42948489545E+03 -0.35183971918E+03  0.14270416822E+04  0.10100000352E+00 0.  1.
       -3    1    3    3    0  502  0.13146100141E+04 -0.42948489545E+03  0.52383346647E+03  0.14788706081E+04  0.10100000352E+00 0. -1.
</event>
<event>
 5   0  0.1006893E-06  0.2894215E+04  0.7818609E-02  0.8274601E-01
       -2   -1    0    0    0  501  0.00000000000E+00  0.00000000000E+00  0.16180634959E+04  0.16180634959E+04  0.25500000920E-02 0. -1.
        2   -1    0    0  501    0  0.00000000000E+00  0.00000000000E+00 -0.12942138127E+04  0.12942138127E+04  0.25500000920E-02 0.  1.
    10030    2    1    2    0    0  0.00000000000E+00  0.00000000000E+00  0.32384968321E+03  0.29122773087E+04  0.28942150068E+04 0.  0.
        4    1    3    3  502    0  0.11134609335E+04  0.91970838017E+03  0.69373884321E+02  0.14458468466E+04  0.12699999809E+01 0. -1.
       -4    1    3    3    0  502 -0.11134609335E+04 -0.91970838017E+03  0.25447579888E+03  0.14664304621E+04  0.12699999809E+01 0.  1.
</event>
<event>
 5   0  0.1063979E-06  0.2901390E+04  0.7818609E-02  0.8272464E-01
        2   -1    0    0  501    0  0.00000000000E+00  0.00000000000E+00  0.13641219327E+04  0.13641219327E+04  0.25500000920E-02 0.  1.
       -2   -1    0    0    0  501  0.00000000000E+00  0.00000000000E+00 -0.15427621418E+04  0.15427621418E+04  0.25500000920E-02 0. -1.
    10030    2    1    2    0    0  0.00000000000E+00  0.00000000000E+00 -0.17864020913E+03  0.29068840746E+04  0.29013897874E+04 0.  0.
        1    1    3    3  502    0  0.97135449864E+03 -0.45374743032E+03 -0.10684626383E+04  0.15136144496E+04  0.50400001928E-02 0. -1.
       -1    1    3    3    0  502 -0.97135449864E+03  0.45374743032E+03  0.88982242913E+03  0.13932696250E+04  0.50400001928E-02 0.  1.
</event>
<event>
 5   0  0.1063979E-06  0.2903675E+04  0.7818609E-02  0.8271785E-01
        2   -1    0    0  501    0  0.00000000000E+00  0.00000000000E+00  0.14020342398E+04  0.14020342398E+04  0.25500000920E-02 0. -1.
       -2   -1    0    0    0  501  0.00000000000E+00  0.00000000000E+00 -0.15034103481E+04  0.15034103481E+04  0.25500000920E-02 0.  1.
    10030    2    1    2    0    0  0.00000000000E+00  0.00000000000E+00 -0.10137610830E+03  0.29054445878E+04  0.29036754532E+04 0.  0.
        1    1    3    3  502    0 -0.11406314440E+04 -0.89527846495E+03  0.21945177466E+02  0.14501879918E+04  0.50400001928E-02 0.  1.
       -1    1    3    3    0  502  0.11406314440E+04  0.89527846495E+03 -0.12332128576E+03  0.14552565960E+04  0.50400001928E-02 0. -1.
</event>
<event>
 5   0  0.9950999E-07  0.2901941E+04  0.7818609E-02  0.8272300E-01
       -2   -1    0    0    0  501  0.00000000000E+00  0.00000000000E+00  0.10786580408E+04  0.10786580408E+04  0.25500000920E-02 0. -1.
        2   -1    0    0  501    0  0.00000000000E+00  0.00000000000E+00 -0.19517916052E+04  0.19517916052E+04  0.25500000920E-02 0.  1.
    10030    2    1    2    0    0  0.00000000000E+00  0.00000000000E+00 -0.87313356440E+03  0.30304496459E+04  0.29019412184E+04 0.  0.
        3    1    3    3  502    0  0.37561537037E+03  0.12416884426E+03  0.10212512234E+04  0.10951981008E+04  0.10100000352E+00 0. -1.
       -3    1    3    3    0  502 -0.37561537037E+03 -0.12416884426E+03 -0.18943847878E+04  0.19352515451E+04  0.10100000352E+00 0.  1.
</event>
<event>
 5   0  0.1031339E-06  0.2862033E+04  0.7818609E-02  0.8284264E-01
       -2   -1    0    0    0  501  0.00000000000E+00  0.00000000000E+00  0.17156049964E+04  0.17156049964E+04  0.25500000920E-02 0.  1.
        2   -1    0    0  501    0  0.00000000000E+00  0.00000000000E+00 -0.11936358140E+04  0.11936358140E+04  0.25500000920E-02 0. -1.
    10030    2    1    2    0    0  0.00000000000E+00  0.00000000000E+00  0.52196918232E+03  0.29092408104E+04  0.28620325410E+04 0.  0.
        5    1    3    3  502    0 -0.10029590165E+04  0.81521874811E+03  0.88534494074E+03  0.15666416789E+04  0.46999998093E+01 0.  1.
       -5    1    3    3    0  502  0.10029590165E+04 -0.81521874811E+03 -0.36337575841E+03  0.13425991315E+04  0.46999998093E+01 0. -1.
</event>
<event>
 5   0  0.3769563E-07  0.2906077E+04  0.7818609E-02  0.8271072E-01
       -1   -1    0    0    0  501  0.00000000000E+00  0.00000000000E+00  0.26110318477E+04  0.26110318477E+04  0.50400001928E-02 0.  1.
        1   -1    0    0  501    0  0.00000000000E+00  0.00000000000E+00 -0.80861579026E+03  0.80861579028E+03  0.50400001928E-02 0. -1.
    10030    2    1    2    0    0  0.00000000000E+00  0.00000000000E+00  0.18024160574E+04  0.34196476379E+04  0.29060774807E+04 0.  0.
        3    1    3    3  502    0 -0.68967971092E+03  0.46685911795E+03 -0.49988593754E+03  0.97134005396E+03  0.10100000352E+00 0. -1.
       -3    1    3    3    0  502  0.68967971092E+03 -0.46685911795E+03  0.23023019949E+04  0.24483075840E+04  0.10100000352E+00 0.  1.
</event>
<event>
 5   0  0.3638028E-07  0.2899780E+04  0.7818609E-02  0.8272943E-01
        1   -1    0    0  501    0  0.00000000000E+00  0.00000000000E+00  0.22891051847E+04  0.22891051847E+04  0.50400001928E-02 0.  1.
       -1   -1    0    0    0  501  0.00000000000E+00  0.00000000000E+00 -0.91834206357E+03  0.91834206358E+03  0.50400001928E-02 0. -1.
    10030    2    1    2    0    0  0.00000000000E+00  0.00000000000E+00  0.13707631211E+04  0.32074472483E+04  0.28997803910E+04 0.  0.
        4    1    3    3  502    0 -0.90124600614E+03 -0.10667650512E+04  0.11165448782E+04  0.17879894060E+04  0.12699999809E+01 0.  1.
       -4    1    3    3    0  502  0.90124600614E+03  0.10667650512E+04  0.25421824286E+03  0.14194578422E+04  0.12699999809E+01 0. -1.
</event>
<event>
 5   0  0.1006893E-06  0.2900933E+04  0.7818609E-02  0.8272600E-01
       -2   -1    0    0    0  501  0.00000000000E+00  0.00000000000E+00  0.84549384566E+03  0.84549384566E+03  0.25500000920E-02 0. -1.
        2   -1    0    0  501    0  0.00000000000E+00  0.00000000000E+00 -0.24883123041E+04  0.24883123041E+04  0.25500000920E-02 0.  1.
    10030    2    1    2    0    0  0.00000000000E+00  0.00000000000E+00 -0.16428184585E+04  0.33338061498E+04  0.29009327736E+04 0.  0.
        4    1    3    3  502    0  0.26672703878E+03  0.73764937763E+03 -0.22235413711E+04  0.23578396382E+04  0.12699999809E+01 0.  1.
       -4    1    3    3    0  502 -0.26672703878E+03 -0.73764937763E+03  0.58072291265E+03  0.97596651158E+03  0.12699999809E+01 0. -1.
</event>
<event>
 5   0  0.3769563E-07  0.2901502E+04  0.7818609E-02  0.8272431E-01
       -1   -1    0    0    0  501  0.00000000000E+00  0.00000000000E+00  0.17061186230E+04  0.17061186230E+04  0.50400001928E-02 0.  1.
        1   -1    0    0  501    0  0.00000000000E+00  0.00000000000E+00 -0.12336057904E+04  0.12336057904E+04  0.50400001928E-02 0. -1.
    10030    2    1    2    0    0  0.00000000000E+00  0.00000000000E+00  0.47251283259E+03  0.29397244135E+04  0.29015015509E+04 0.  0.
        3    1    3    3  502    0 -0.13349666450E+04  0.43189783244E+03  0.60990474144E+03  0.15299200910E+04  0.10100000352E+00 0.  1.
       -3    1    3    3    0  502  0.13349666450E+04 -0.43189783244E+03 -0.13739190885E+03  0.14098043225E+04  0.10100000352E+00 0. -1.
</event>
<event>
 5   0  0.3885904E-07  0.2923540E+04  0.7818609E-02  0.8265908E-01
       -1   -1    0    0    0  501  0.00000000000E+00  0.00000000000E+00  0.12231979211E+04  0.12231979211E+04  0.50400001928E-02 0. -1.
        1   -1    0    0  501    0  0.00000000000E+00  0.00000000000E+00 -0.17468733812E+04  0.17468733812E+04  0.50400001928E-02 0.  1.
    10030    2    1    2    0    0  0.00000000000E+00  0.00000000000E+00 -0.52367546014E+03  0.29700713023E+04  0.29235402431E+04 0.  0.
        2    1    3    3  502    0 -0.13784450047E+04 -0.25861154920E+03 -0.68044113530E+03  0.15588427448E+04  0.25500000920E-02 0.  1.
       -2    1    3    3    0  502  0.13784450047E+04  0.25861154920E+03  0.15676567516E+03  0.14112285574E+04  0.25500000920E-02 0. -1.
</event>
<event>
 5   0  0.3769563E-07  0.2898126E+04  0.7818609E-02  0.8273435E-01
       -1   -1    0    0    0  501  0.00000000000E+00  0.00000000000E+00  0.19853476321E+04  0.19853476321E+04  0.50400001928E-02 0. -1.
        1   -1    0    0  501    0  0.00000000000E+00  0.00000000000E+00 -0.10576405716E+04  0.10576405716E+04  0.50400001928E-02 0.  1.
    10030    2    1    2    0    0  0.00000000000E+00  0.00000000000E+00  0.92770706051E+03  0.30429882038E+04  0.28981264324E+04 0.  0.
        3    1    3    3  502    0 -0.13895227834E+04 -0.36674976089E+03  0.65889433412E+03  0.15809556307E+04  0.10100000352E+00 0. -1.
       -3    1    3    3    0  502  0.13895227834E+04  0.36674976089E+03  0.26881272639E+03  0.14620325730E+04  0.10100000352E+00 0.  1.
</event>
<event>
 5   0  0.3769563E-07  0.2902138E+04  0.7818609E-02  0.8272242E-01
       -1   -1    0    0    0  501  0.00000000000E+00  0.00000000000E+00  0.12090401437E+04  0.12090401438E+04  0.50400001928E-02 0.  1.
        1   -1    0    0  501    0  0.00000000000E+00  0.00000000000E+00 -0.17415483902E+04  0.17415483902E+04  0.50400001928E-02 0. -1.
    10030    2    1    2    0    0  0.00000000000E+00  0.00000000000E+00 -0.53250824646E+03  0.29505885340E+04  0.29021384640E+04 0.  0.
        3    1    3    3  502    0 -0.83241670349E+03  0.55552525106E+02 -0.14733400813E+04  0.16931434247E+04  0.10100000352E+00 0. -1.
       -3    1    3    3    0  502  0.83241670349E+03 -0.55552525106E+02  0.94083183480E+03  0.12574451093E+04  0.10100000352E+00 0.  1.
</event>
<event>
 5   0  0.3786210E-07  0.2903840E+04  0.7818609E-02  0.8271736E-01
        1   -1    0    0  501    0  0.00000000000E+00  0.00000000000E+00  0.16242583592E+04  0.16242583592E+04  0.50400001928E-02 0. -1.
       -1   -1    0    0    0  501  0.00000000000E+00  0.00000000000E+00 -0.12978669137E+04  0.12978669138E+04  0.50400001928E-02 0.  1.
    10030    2    1    2    0    0  0.00000000000E+00  0.00000000000E+00  0.32639144547E+03  0.29221252730E+04  0.29038396539E+04 0.  0.
        5    1    3    3  502    0  0.11683225378E+04 -0.86195787425E+03  0.17326696293E+03  0.14621875597E+04  0.46999998093E+01 0. -1.
       -5    1    3    3    0  502 -0.11683225378E+04  0.86195787425E+03  0.15312448254E+03  0.14599377132E+04  0.46999998093E+01 0.  1.
</event>
<event>
 5   0  0.3885904E-07  0.2899869E+04  0.7818609E-02  0.8272916E-01
        1   -1    0    0  501    0  0.00000000000E+00  0.00000000000E+00  0.19055785752E+04  0.19055785752E+04  0.50400001928E-02 0.  1.
       -1   -1    0    0    0  501  0.00000000000E+00  0.00000000000E+00 -0.11032400902E+04  0.11032400902E+04  0.50400001928E-02 0. -1.
    10030    2    1    2    0    0  0.00000000000E+00  0.00000000000E+00  0.80233848505E+03  0.30088186654E+04  0.28998694310E+04 0.  0.
        2    1    3    3  502    0 -0.67794743861E+03 -0.55917351722E+03  0.15977641067E+04  0.18234960632E+04  0.25500000920E-02 0.  1.
       -2    1    3    3    0  502  0.67794743861E+03  0.55917351722E+03 -0.79542562161E+03  0.11853226022E+04  0.25500000920E-02 0. -1.
</event>
<event>
 5   0  0.3885904E-07  0.2864851E+04  0.7818609E-02  0.8283413E-01
       -1   -1    0    0    0  501  0.00000000000E+00  0.00000000000E+00  0.14236198842E+04  0.14236198842E+04  0.50400001928E-02 0. -1.
        1   -1    0    0  501    0  0.00000000000E+00  0.00000000000E+00 -0.14412855730E+04  0.14412855730E+04  0.50400001928E-02 0.  1.
    10030    2    1    2    0    0  0.00000000000E+00  0.00000000000E+00 -0.17665688759E+02  0.28649054572E+04  0.28648509913E+04 0.  0.
        2    1    3    3  502    0  0.36152362780E+03 -0.11030213859E+04 -0.84818621255E+03  0.14376283812E+04  0.25500000920E-02 0.  1.
       -2    1    3    3    0  502 -0.36152362780E+03  0.11030213859E+04  0.83052052379E+03  0.14272770760E+04  0.25500000920E-02 0. -1.
</event>
<event>
 5   0  0.1031339E-06  0.2907825E+04  0.7818609E-02  0.8270553E-01
        2   -1    0    0  501    0  0.00000000000E+00  0.00000000000E+00  0.23568286699E+04  0.23568286699E+04  0.25500000920E-02 0. -1.
       -2   -1    0    0    0  501  0.00000000000E+00  0.00000000000E+00 -0.89690934389E+03  0.89690934389E+03  0.25500000920E-02 0.  1.
    10030    2    1    2    0    0  0.00000000000E+00  0.00000000000E+00  0.14599193260E+04  0.32537380138E+04  0.29078250676E+04 0.  0.
        5    1    3    3  502    0 -0.91617498127E+03  0.67107162056E+03 -0.28584703784E+03  0.11710868180E+04  0.46999998093E+01 0.  1.
       -5    1    3    3    0  502  0.91617498127E+03 -0.67107162056E+03  0.17457663638E+04  0.20826511958E+04  0.46999998093E+01 0. -1.
</event>
<event>
 5   0  0.3769563E-07  0.2907766E+04  0.7818609E-02  0.8270571E-01
       -1   -1    0    0    0  501  0.00000000000E+00  0.00000000000E+00  0.94196284781E+03  0.94196284782E+03  0.50400001928E-02 0.  1.
        1   -1    0    0  501    0  0.00000000000E+00  0.00000000000E+00 -0.22440123908E+04  0.22440123908E+04  0.50400001928E-02 0. -1.
    10030    2    1    2    0    0  0.00000000000E+00  0.00000000000E+00 -0.13020495429E+04  0.31859752386E+04  0.29077663607E+04 0.  0.
        3    1    3    3  502    0  0.92510011667E+03 -0.87773358618E+03  0.11402975211E+03  0.12803238921E+04  0.10100000352E+00 0.  1.
       -3    1    3    3    0  502 -0.92510011667E+03  0.87773358618E+03 -0.14160792951E+04  0.19056513465E+04  0.10100000352E+00 0. -1.
</event>
<event>
 5   0  0.1031339E-06  0.2898007E+04  0.7818609E-02  0.8273471E-01
       -2   -1    0    0    0  501  0.00000000000E+00  0.00000000000E+00  0.10751095628E+04  0.10751095628E+04  0.25500000920E-02 0.  1.
        2   -1    0    0  501    0  0.00000000000E+00  0.00000000000E+00 -0.19529274072E+04  0.19529274072E+04  0.25500000920E-02 0. -1.
    10030    2    1    2    0    0  0.00000000000E+00  0.00000000000E+00 -0.87781784440E+03  0.30280369700E+04  0.28980068537E+04 0.  0.
        5    1    3    3  502    0 -0.91715705912E+03 -0.81505639077E+03  0.36645034192E+03  0.12805475135E+04  0.46999998093E+01 0.  1.
       -5    1    3    3    0  502  0.91715705912E+03  0.81505639077E+03 -0.12442681863E+04  0.17474894565E+04  0.46999998093E+01 0. -1.
</event>
<event>
 5   0  0.3769563E-07  0.2898888E+04  0.7818609E-02  0.8273208E-01
       -1   -1    0    0    0  501  0.00000000000E+00  0.00000000000E+00  0.97198245778E+03  0.97198245779E+03  0.50400001928E-02 0.  1.
        1   -1    0    0  501    0  0.00000000000E+00  0.00000000000E+00 -0.21614462940E+04  0.21614462940E+04  0.50400001928E-02 0. -1.
    10030    2    1    2    0    0  0.00000000000E+00  0.00000000000E+00 -0.11894638362E+04  0.31334287518E+04  0.28988879808E+04 0.  0.
        3    1    3    3  502    0 -0.37772775904E+03 -0.10358752864E+04  0.42222422683E+03  0.11806731880E+04  0.10100000352E+00 0.  1.
       -3    1    3    3    0  502  0.37772775904E+03  0.10358752864E+04 -0.16116880631E+04  0.19527555638E+04  0.10100000352E+00 0. -1.
</event>
<event>
 5   0  0.1006893E-06  0.2900965E+04  0.7818609E-02  0.8272590E-01
        2   -1    0    0  501    0  0.00000000000E+00  0.00000000000E+00  0.19006739953E+04  0.19006739954E+04  0.25500000920E-02 0.  1.
       -2   -1    0    0    0  501  0.00000000000E+00  0.00000000000E+00 -0.11069231833E+04  0.11069231833E+04  0.25500000920E-02 0. -1.
    10030    2    1    2    0    0  0.00000000000E+00  0.00000000000E+00  0.79375081208E+03  0.30075971786E+04  0.29009654319E+04 0.  0.
        4    1    3    3  502    0 -0.11942522814E+04  0.75002128166E+03  0.45098186773E+02  0.14109592106E+04  0.12699999809E+01 0. -1.
       -4    1    3    3    0  502  0.11942522814E+04 -0.75002128166E+03  0.74865262531E+03  0.15966379680E+04  0.12699999809E+01 0.  1.
</event>
<event>
 5   0  0.3638028E-07  0.2899428E+04  0.7818609E-02  0.8273048E-01
       -1   -1    0    0    0  501  0.00000000000E+00  0.00000000000E+00  0.11105289966E+04  0.11105289966E+04  0.50400001928E-02 0. -1.
        1   -1    0    0  501    0  0.00000000000E+00  0.00000000000E+00 -0.18924955879E+04  0.18924955879E+04  0.50400001928E-02 0.  1.
    10030    2    1    2    0    0  0.00000000000E+00  0.00000000000E+00 -0.78196659126E+03  0.30030245845E+04  0.28994283756E+04 0.  0.
        4    1    3    3  502    0  0.64362669546E+03 -0.10194520650E+04  0.44284794071E+03  0.12843884722E+04  0.12699999809E+01 0. -1.
       -4    1    3    3    0  502 -0.64362669546E+03  0.10194520650E+04 -0.12248145320E+04  0.17186361123E+04  0.12699999809E+01 0.  1.
</event>
<event>
 5   0  0.1006893E-06  0.2888364E+04  0.7818609E-02  0.8276348E-01
       -2   -1    0    0    0  501  0.00000000000E+00  0.00000000000E+00  0.13541772308E+04  0.13541772308E+04  0.25500000920E-02 0.  1.
        2   -1    0    0  501    0  0.00000000000E+00  0.00000000000E+00 -0.15401686731E+04  0.15401686731E+04  0.25500000920E-02 0. -1.
    10030    2    1    2    0    0  0.00000000000E+00  0.00000000000E+00 -0.18599144238E+03  0.28943459039E+04  0.28883637920E+04 0.  0.
        4    1    3    3  502    0 -0.92879451760E+03 -0.76763702185E+02  0.10125152724E+04  0.13761325196E+04  0.12699999809E+01 0.  1.
       -4    1    3    3    0  502  0.92879451760E+03  0.76763702185E+02 -0.11985067148E+04  0.15182133843E+04  0.12699999809E+01 0. -1.
</event>
<event>
 5   0  0.9994311E-07  0.2900798E+04  0.7818609E-02  0.8272640E-01
        2   -1    0    0  501    0  0.00000000000E+00  0.00000000000E+00  0.16964901048E+04  0.16964901048E+04  0.25500000920E-02 0. -1.
       -2   -1    0    0    0  501  0.00000000000E+00  0.00000000000E+00 -0.12400052729E+04  0.12400052729E+04  0.25500000920E-02 0.  1.
    10030    2    1    2    0    0  0.00000000000E+00  0.00000000000E+00  0.45648483195E+03  0.29364953777E+04  0.29007975975E+04 0.  0.
        2    1    3    3  502    0 -0.66672427846E+03  0.48031840968E+03 -0.98163486240E+03  0.12801695361E+04  0.25500000920E-02 0.  1.
       -2    1    3    3    0  502  0.66672427846E+03 -0.48031840968E+03  0.14381196944E+04  0.16563258416E+04  0.25500000920E-02 0. -1.
</event>
<event>
 5   0  0.3770467E-07  0.2901322E+04  0.7818609E-02  0.8272484E-01
        1   -1    0    0  501    0  0.00000000000E+00  0.00000000000E+00  0.18931360320E+04  0.18931360320E+04  0.50400001928E-02 0.  1.
       -1   -1    0    0    0  501  0.00000000000E+00  0.00000000000E+00 -0.11116040142E+04  0.11116040143E+04  0.50400001928E-02 0. -1.
    10030    2    1    2    0    0  0.00000000000E+00  0.00000000000E+00  0.78153201775E+03  0.30047400462E+04  0.29013221901E+04 0.  0.
        1    1    3    3  502    0  0.26806893749E+03 -0.82314185597E+03 -0.81476852135E+03  0.11888108402E+04  0.50400001928E-02 0. -1.
       -1    1    3    3    0  502 -0.26806893749E+03  0.82314185597E+03  0.15963005391E+04  0.18159292061E+04  0.50400001928E-02 0.  1.
</event>
<event>
 5   0  0.3378750E-07  0.2898905E+04  0.7818609E-02  0.8273203E-01
       -3   -1    0    0    0  501  0.00000000000E+00  0.00000000000E+00  0.13683385704E+04  0.13683385741E+04  0.10100000352E+00 0. -1.
        3   -1    0    0  501    0  0.00000000000E+00  0.00000000000E+00 -0.15353746712E+04  0.15353746745E+04  0.10100000352E+00 0.  1.
    10030    2    1    2    0    0  0.00000000000E+00  0.00000000000E+00 -0.16703610075E+03  0.29037132486E+04  0.28989048917E+04 0.  0.
        3    1    3    3  502    0 -0.57412507933E+03 -0.85297124595E+03 -0.11068450458E+04  0.15107235084E+04  0.10100000352E+00 0.  1.
       -3    1    3    3    0  502  0.57412507933E+03  0.85297124595E+03  0.93980894504E+03  0.13929897403E+04  0.10100000352E+00 0. -1.
</event>
<event>
 5   0  0.3770467E-07  0.2892827E+04  0.7818609E-02  0.8275015E-01
        1   -1    0    0  501    0  0.00000000000E+00  0.00000000000E+00  0.12483584777E+04  0.12483584777E+04  0.50400001928E-02 0.  1.
       -1   -1    0    0    0  501  0.00000000000E+00  0.00000000000E+00 -0.16758902794E+04  0.16758902794E+04  0.50400001928E-02 0. -1.
    10030    2    1    2    0    0  0.00000000000E+00  0.00000000000E+00 -0.42753180177E+03  0.29242487571E+04  0.28928268790E+04 0.  0.
        1    1    3    3  502    0 -0.63038233016E+03  0.19565468192E+03 -0.15147767878E+04  0.16523351215E+04  0.50400001928E-02 0. -1.
       -1    1    3    3    0  502  0.63038233016E+03 -0.19565468192E+03  0.10872449861E+04  0.12719136356E+04  0.50400001928E-02 0.  1.
</event>
<event>
 5   0  0.1031339E-06  0.2902046E+04  0.7818609E-02  0.8272269E-01
       -2   -1    0    0    0  501  0.00000000000E+00  0.00000000000E+00  0.95400296115E+03  0.95400296116E+03  0.25500000920E-02 0.  1.
        2   -1    0    0  501    0  0.00000000000E+00  0.00000000000E+00 -0.22069819736E+04  0.22069819736E+04  0.25500000920E-02 0. -1.
    10030    2    1    2    0    0  0.00000000000E+00  0.00000000000E+00 -0.12529790124E+04  0.31609849347E+04  0.29020457185E+04 0.  0.
        5    1    3    3  502    0  0.12505752175E+03  0.12944844894E+03 -0.21947671659E+04  0.22021401607E+04  0.46999998093E+01 0. -1.
       -5    1    3    3    0  502 -0.12505752175E+03 -0.12944844894E+03  0.94178815349E+03  0.95884477406E+03  0.46999998093E+01 0.  1.
</event>
<event>
 5   0  0.9950999E-07  0.2896416E+04  0.7818609E-02  0.8273945E-01
        2   -1    0    0  501    0  0.00000000000E+00  0.00000000000E+00  0.22208560296E+04  0.22208560296E+04  0.25500000920E-02 0.  1.
       -2   -1    0    0    0  501  0.00000000000E+00  0.00000000000E+00 -0.94436833949E+03  0.94436833949E+03  0.25500000920E-02 0. -1.
    10030    2    1    2    0    0  0.00000000000E+00  0.00000000000E+00  0.12764876901E+04  0.31652243691E+04  0.28964157995E+04 0.  0.
        3    1    3    3  502    0  0.27442916419E+03 -0.12785052208E+04 -0.41952246375E+02  0.13082992650E+04  0.10100000352E+00 0. -1.
       -3    1    3    3    0  502 -0.27442916419E+03  0.12785052208E+04  0.13184399365E+04  0.18569251041E+04  0.10100000352E+00 0.  1.
</event>
<event>
 5   0  0.1031339E-06  0.2897269E+04  0.7818609E-02  0.8273691E-01
       -2   -1    0    0    0  501  0.00000000000E+00  0.00000000000E+00  0.12192509279E+04  0.12192509279E+04  0.25500000920E-02 0. -1.
        2   -1    0    0  501    0  0.00000000000E+00  0.00000000000E+00 -0.17211727359E+04  0.17211727360E+04  0.25500000920E-02 0.  1.
    10030    2    1    2    0    0  0.00000000000E+00  0.00000000000E+00 -0.50192180808E+03  0.29404236638E+04  0.28972686830E+04 0.  0.
        5    1    3    3  502    0  0.14181155217E+04 -0.12031449228E+03  0.23233906710E+02  0.14234075714E+04  0.46999998093E+01 0. -1.
       -5    1    3    3    0  502 -0.14181155217E+04  0.12031449228E+03 -0.52515571479E+03  0.15170160924E+04  0.46999998093E+01 0.  1.
</event>
<event>
 5   0  0.3885904E-07  0.2895923E+04  0.7818609E-02  0.8274091E-01
        1   -1    0    0  501    0  0.00000000000E+00  0.00000000000E+00  0.20288110489E+04  0.20288110489E+04  0.50400001928E-02 0.  1.
       -1   -1    0    0    0  501  0.00000000000E+00  0.00000000000E+00 -0.10334097254E+04  0.10334097254E+04  0.50400001928E-02 0. -1.
    10030    2    1    2    0    0  0.00000000000E+00  0.00000000000E+00  0.99540132353E+03  0.30622207743E+04  0.28959233891E+04 0.  0.
        2    1    3    3  502    0 -0.11112067286E+04 -0.44151292350E+03  0.13612217642E+04  0.18118053832E+04  0.25500000920E-02 0. -1.
       -2    1    3    3    0  502  0.11112067286E+04  0.44151292350E+03 -0.36582044072E+03  0.12504153910E+04  0.25500000920E-02 0.  1.
</event>
<event>
 5   0  0.1006893E-06  0.2906590E+04  0.7818609E-02  0.8270920E-01
        2   -1    0    0  501    0  0.00000000000E+00  0.00000000000E+00  0.18554268440E+04  0.18554268440E+04  0.25500000920E-02 0. -1.
       -2   -1    0    0    0  501  0.00000000000E+00  0.00000000000E+00 -0.11383182068E+04  0.11383182068E+04  0.25500000920E-02 0.  1.
    10030    2    1    2    0    0  0.00000000000E+00  0.00000000000E+00  0.71710863726E+03  0.29937450508E+04  0.29065898630E+04 0.  0.
        4    1    3    3  502    0  0.11303494499E+04 -0.74345339123E+03  0.90517651520E+03  0.16278080232E+04  0.12699999809E+01 0.  1.
       -4    1    3    3    0  502 -0.11303494499E+04  0.74345339123E+03 -0.18806787794E+03  0.13659370276E+04  0.12699999809E+01 0. -1.
</event>
<event>
 5   0  0.3770467E-07  0.2916099E+04  0.7818609E-02  0.8268104E-01
        1   -1    0    0  501    0  0.00000000000E+00  0.00000000000E+00  0.12110172585E+04  0.12110172585E+04  0.50400001928E-02 0.  1.
       -1   -1    0    0    0  501  0.00000000000E+00  0.00000000000E+00 -0.17554733327E+04  0.17554733327E+04  0.50400001928E-02 0. -1.
    10030    2    1    2    0    0  0.00000000000E+00  0.00000000000E+00 -0.54445607418E+03  0.29664905913E+04  0.29160991086E+04 0.  0.
        1    1    3    3  502    0 -0.14260756720E+02  0.86369711986E+03  0.92269003496E+03  0.12639355144E+04  0.50400001928E-02 0.  1.
       -1    1    3    3    0  502  0.14260756720E+02 -0.86369711986E+03 -0.14671461091E+04  0.17025550768E+04  0.50400001928E-02 0. -1.
</event>
<event>
 5   0  0.9950999E-07  0.2898247E+04  0.7818609E-02  0.8273399E-01
       -2   -1    0    0    0  501  0.00000000000E+00  0.00000000000E+00  0.15960475417E+04  0.15960475417E+04  0.25500000920E-02 0.  1.
        2   -1    0    0  501    0  0.00000000000E+00  0.00000000000E+00 -0.13157241873E+04  0.13157241873E+04  0.25500000920E-02 0. -1.
    10030    2    1    2    0    0  0.00000000000E+00  0.00000000000E+00  0.28032335440E+03  0.29117717291E+04  0.28982466112E+04 0.  0.
        3    1    3    3  502    0 -0.12570272680E+04 -0.70254565811E+03  0.30299948692E+03  0.14715626570E+04  0.10100000352E+00 0. -1.
       -3    1    3    3    0  502  0.12570272680E+04  0.70254565811E+03 -0.22676132516E+02  0.14402090721E+04  0.10100000352E+00 0.  1.
</event>
<event>
 5   0  0.3770467E-07  0.2900193E+04  0.7818609E-02  0.8272820E-01
       -1   -1    0    0    0  501  0.00000000000E+00  0.00000000000E+00  0.14453644815E+04  0.14453644816E+04  0.50400001928E-02 0. -1.
        1   -1    0    0  501    0  0.00000000000E+00  0.00000000000E+00 -0.14548443803E+04  0.14548443803E+04  0.50400001928E-02 0.  1.
    10030    2    1    2    0    0  0.00000000000E+00  0.00000000000E+00 -0.94798987739E+01  0.29002088619E+04  0.29001933684E+04 0.  0.
        1    1    3    3  502    0 -0.82169096414E+03  0.60187628062E+03 -0.10369030559E+04  0.14534782575E+04  0.50400001928E-02 0.  1.
       -1    1    3    3    0  502  0.82169096414E+03 -0.60187628062E+03  0.10274231571E+04  0.14467306044E+04  0.50400001928E-02 0. -1.
</event>
<event>
 5   0  0.1031339E-06  0.2902347E+04  0.7818609E-02  0.8272180E-01
       -2   -1    0    0    0  501  0.00000000000E+00  0.00000000000E+00  0.12323328346E+04  0.12323328346E+04  0.25500000920E-02 0.  1.
        2   -1    0    0  501    0  0.00000000000E+00  0.00000000000E+00 -0.17088761274E+04  0.17088761274E+04  0.25500000920E-02 0. -1.
    10030    2    1    2    0    0  0.00000000000E+00  0.00000000000E+00 -0.47654329287E+03  0.29412089620E+04  0.29023467484E+04 0.  0.
        5    1    3    3  502    0 -0.85555710966E+03  0.74500978705E+03  0.67875638446E+03  0.13220249128E+04  0.46999998093E+01 0.  1.
       -5    1    3    3    0  502  0.85555710966E+03 -0.74500978705E+03 -0.11552996773E+04  0.16191840492E+04  0.46999998093E+01 0. -1.
</event>
<event>
 5   0  0.3378750E-07  0.2900941E+04  0.7818609E-02  0.8272597E-01
        3   -1    0    0  501    0  0.00000000000E+00  0.00000000000E+00  0.21968024340E+04  0.21968024363E+04  0.10100000352E+00 0.  1.
       -3   -1    0    0    0  501  0.00000000000E+00  0.00000000000E+00 -0.95769429938E+03  0.95769430471E+03  0.10100000352E+00 0. -1.
    10030    2    1    2    0    0  0.00000000000E+00  0.00000000000E+00  0.12391081346E+04  0.31544967410E+04  0.29009413507E+04 0.  0.
        5    1    3    3  502    0 -0.50347260339E+03 -0.82818301886E+03 -0.55387145998E+03  0.11163187086E+04  0.46999998093E+01 0. -1.
       -5    1    3    3    0  502  0.50347260339E+03  0.82818301886E+03  0.17929795946E+04  0.20381780324E+04  0.46999998093E+01 0.  1.
</event>
<event>
 5   0  0.3638028E-07  0.2904592E+04  0.7818609E-02  0.8271512E-01
       -1   -1    0    0    0  501  0.00000000000E+00  0.00000000000E+00  0.96929135474E+03  0.96929135476E+03  0.50400001928E-02 0.  1.
        1   -1    0    0  501    0  0.00000000000E+00  0.00000000000E+00 -0.21759855153E+04  0.21759855153E+04  0.50400001928E-02 0. -1.
    10030    2    1    2    0    0  0.00000000000E+00  0.00000000000E+00 -0.12066941606E+04  0.31452768701E+04  0.29045921904E+04 0.  0.
        4    1    3    3  502    0  0.85320696620E+03  0.68182890835E+01  0.66926114079E+03  0.10843987752E+04  0.12699999809E+01 0.  1.
       -4    1    3    3    0  502 -0.85320696620E+03 -0.68182890835E+01 -0.18759553014E+04  0.20608780949E+04  0.12699999809E+01 0. -1.
</event>
<event>
 5   0  0.9994311E-07  0.2898352E+04  0.7818609E-02  0.8273368E-01
       -2   -1    0    0    0  501  0.00000000000E+00  0.00000000000E+00  0.78272672344E+03  0.78272672344E+03  0.25500000920E-02 0.  1.
        2   -1    0    0  501    0  0.00000000000E+00  0.00000000000E+00 -0.26830706350E+04  0.26830706350E+04  0.25500000920E-02 0. -1.
    10030    2    1    2    0    0  0.00000000000E+00  0.00000000000E+00 -0.19003439115E+04  0.34657973584E+04  0.28983520055E+04 0.  0.
        2    1    3    3  502    0 -0.30694431569E+03 -0.26747039874E+03 -0.26132790787E+04  0.26448029738E+04  0.25500000920E-02 0. -1.
       -2    1    3    3    0  502  0.30694431569E+03  0.26747039874E+03  0.71293516710E+03  0.82099438466E+03  0.25500000920E-02 0.  1.
</event>
<event>
 5   0  0.9950999E-07  0.2892568E+04  0.7818609E-02  0.8275092E-01
        2   -1    0    0  501    0  0.00000000000E+00  0.00000000000E+00  0.19489236301E+04  0.19489236301E+04  0.25500000920E-02 0.  1.
       -2   -1    0    0    0  501  0.00000000000E+00  0.00000000000E+00 -0.10732784077E+04  0.10732784077E+04  0.25500000920E-02 0. -1.
    10030    2    1    2    0    0  0.00000000000E+00  0.00000000000E+00  0.87564522241E+03  0.30222020377E+04  0.28925681671E+04 0.  0.
        3    1    3    3  502    0 -0.25802023456E+03  0.78417876895E+03  0.16785728923E+04  0.18705928868E+04  0.10100000352E+00 0.  1.
       -3    1    3    3    0  502  0.25802023456E+03 -0.78417876895E+03 -0.80292766994E+03  0.11516091509E+04  0.10100000352E+00 0. -1.
</event>
<event>
 5   0  0.3786210E-07  0.2898277E+04  0.7818609E-02  0.8273390E-01
       -1   -1    0    0    0  501  0.00000000000E+00  0.00000000000E+00  0.96779288282E+03  0.96779288284E+03  0.50400001928E-02 0.  1.
        1   -1    0    0  501    0  0.00000000000E+00  0.00000000000E+00 -0.21698876682E+04  0.21698876682E+04  0.50400001928E-02 0. -1.
    10030    2    1    2    0    0  0.00000000000E+00  0.00000000000E+00 -0.12020947854E+04  0.31376805511E+04  0.28982766202E+04 0.  0.
        5    1    3    3  502    0 -0.14019282860E+04  0.73653149881E+02 -0.21198474511E+03  0.14197842540E+04  0.46999998093E+01 0.  1.
       -5    1    3    3    0  502  0.14019282860E+04 -0.73653149881E+02 -0.99011004029E+03  0.17178962971E+04  0.46999998093E+01 0. -1.
</event>
<event>
 5   0  0.3378750E-07  0.2927902E+04  0.7818609E-02  0.8264624E-01
        4   -1    0    0  501    0  0.00000000000E+00  0.00000000000E+00  0.12327776091E+04  0.12327782633E+04  0.12699999809E+01 0. -1.
       -4   -1    0    0    0  501  0.00000000000E+00  0.00000000000E+00 -0.17384729224E+04  0.17384733863E+04  0.12699999809E+01 0.  1.
    10030    2    1    2    0    0  0.00000000000E+00  0.00000000000E+00 -0.50569531333E+03  0.29712516496E+04  0.29279017428E+04 0.  0.
        1    1    3    3  502    0  0.62424719721E+03 -0.37238759351E+03 -0.15424079287E+04  0.17051038976E+04  0.50400001928E-02 0.  1.
       -1    1    3    3    0  502 -0.62424719721E+03  0.37238759351E+03  0.10367126154E+04  0.12661477520E+04  0.50400001928E-02 0. -1.
</event>
<event>
 5   0  0.1006893E-06  0.2900086E+04  0.7818609E-02  0.8272852E-01
        2   -1    0    0  501    0  0.00000000000E+00  0.00000000000E+00  0.16323958209E+04  0.16323958209E+04  0.25500000920E-02 0. -1.
       -2   -1    0    0    0  501  0.00000000000E+00  0.00000000000E+00 -0.12880609104E+04  0.12880609104E+04  0.25500000920E-02 0.  1.
    10030    2    1    2    0    0  0.00000000000E+00  0.00000000000E+00  0.34433491049E+03  0.29204567312E+04  0.29000863760E+04 0.  0.
        4    1    3    3  502    0 -0.52756609282E+03  0.28959355658E+03 -0.11563538567E+04  0.13035897611E+04  0.12699999809E+01 0.  1.
       -4    1    3    3    0  502  0.52756609282E+03 -0.28959355658E+03  0.15006887672E+04  0.16168669702E+04  0.12699999809E+01 0. -1.
</event>
<event>
 5   0  0.9994311E-07  0.2901089E+04  0.7818609E-02  0.8272554E-01
       -2   -1    0    0    0  501  0.00000000000E+00  0.00000000000E+00  0.14776861000E+04  0.14776861000E+04  0.25500000920E-02 0.  1.
        2   -1    0    0  501    0  0.00000000000E+00  0.00000000000E+00 -0.14239009755E+04  0.14239009755E+04  0.25500000920E-02 0. -1.
    10030    2    1    2    0    0  0.00000000000E+00  0.00000000000E+00  0.53785124525E+02  0.29015870755E+04  0.29010885400E+04 0.  0.
        2    1    3    3  502    0 -0.98007120252E+03  0.16245531779E+03  0.10840261256E+04  0.14703890415E+04  0.25500000920E-02 0.  1.
       -2    1    3    3    0  502  0.98007120252E+03 -0.16245531779E+03 -0.10302410011E+04  0.14311980340E+04  0.25500000920E-02 0. -1.
</event>
<event>
 5   0  0.3885904E-07  0.2884809E+04  0.7818609E-02  0.8277412E-01
        1   -1    0    0  501    0  0.00000000000E+00  0.00000000000E+00  0.18782347878E+04  0.18782347878E+04  0.50400001928E-02 0. -1.
       -1   -1    0    0    0  501  0.00000000000E+00  0.00000000000E+00 -0.11077052468E+04  0.11077052469E+04  0.50400001928E-02 0.  1.
    10030    2    1    2    0    0  0.00000000000E+00  0.00000000000E+00  0.77052954091E+03  0.29859400346E+04  0.28848088528E+04 0.  0.
        2    1    3    3  502    0 -0.83509019769E+03  0.21597046877E+03  0.15818686694E+04  0.18017567452E+04  0.25500000920E-02 0. -1.
       -2    1    3    3    0  502  0.83509019769E+03 -0.21597046877E+03 -0.81133912845E+03  0.11841832895E+04  0.25500000920E-02 0.  1.
</event>
<event>
 5   0  0.9994311E-07  0.2901132E+04  0.7818609E-02  0.8272541E-01
       -2   -1    0    0    0  501  0.00000000000E+00  0.00000000000E+00  0.11571780850E+04  0.11571780850E+04  0.25500000920E-02 0.  1.
        2   -1    0    0  501    0  0.00000000000E+00  0.00000000000E+00 -0.18183388997E+04  0.18183388997E+04  0.25500000920E-02 0. -1.
    10030    2    1    2    0    0  0.00000000000E+00  0.00000000000E+00 -0.66116081471E+03  0.29755169848E+04  0.29011321417E+04 0.  0.
        2    1    3    3  502    0 -0.20952318632E+03 -0.43602263343E+03  0.10720084456E+04  0.11761028058E+04  0.25500000920E-02 0.  1.
       -2    1    3    3    0  502  0.20952318632E+03  0.43602263343E+03 -0.17331692603E+04  0.17994141789E+04  0.25500000920E-02 0. -1.
</event>
<event>
 5   0  0.1031339E-06  0.2902304E+04  0.7818609E-02  0.8272192E-01
       -2   -1    0    0    0  501  0.00000000000E+00  0.00000000000E+00  0.22986007719E+04  0.22986007719E+04  0.25500000920E-02 0. -1.
        2   -1    0    0  501    0  0.00000000000E+00  0.00000000000E+00 -0.91614118556E+03  0.91614118556E+03  0.25500000920E-02 0.  1.
    10030    2    1    2    0    0  0.00000000000E+00  0.00000000000E+00  0.13824595864E+04  0.32147419575E+04  0.29023044887E+04 0.  0.
        5    1    3    3  502    0  0.42655346704E+03  0.32101960957E+03  0.21858696824E+04  0.22501221763E+04  0.46999998093E+01 0. -1.
       -5    1    3    3    0  502 -0.42655346704E+03 -0.32101960957E+03 -0.80341009599E+03  0.96461978121E+03  0.46999998093E+01 0.  1.
</event>
<event>
 5   0  0.1006893E-06  0.2906293E+04  0.7818609E-02  0.8271007E-01
        2   -1    0    0  501    0  0.00000000000E+00  0.00000000000E+00  0.18149884241E+04  0.18149884242E+04  0.25500000920E-02 0. -1.
       -2   -1    0    0    0  501  0.00000000000E+00  0.00000000000E+00 -0.11634428846E+04  0.11634428846E+04  0.25500000920E-02 0.  1.
    10030    2    1    2    0    0  0.00000000000E+00  0.00000000000E+00  0.65154553954E+03  0.29784313088E+04  0.29062934248E+04 0.  0.
        4    1    3    3  502    0  0.53980718229E+03  0.11142397380E+04 -0.45384061311E+03  0.13186716433E+04  0.12699999809E+01 0.  1.
       -4    1    3    3    0  502 -0.53980718229E+03 -0.11142397380E+04  0.11053861526E+04  0.16597596655E+04  0.12699999809E+01 0. -1.
</event>
<event>
 5   0  0.9994311E-07  0.2901251E+04  0.7818609E-02  0.8272505E-01
       -2   -1    0    0    0  501  0.00000000000E+00  0.00000000000E+00  0.96789824310E+03  0.96789824310E+03  0.25500000920E-02 0. -1.
        2   -1    0    0  501    0  0.00000000000E+00  0.00000000000E+00 -0.21741072647E+04  0.21741072647E+04  0.25500000920E-02 0.  1.
    10030    2    1    2    0    0  0.00000000000E+00  0.00000000000E+00 -0.12062090216E+04  0.31420055078E+04  0.29012511796E+04 0.  0.
        2    1    3    3  502    0  0.19628801154E+03  0.64263102476E+03 -0.19954057420E+04  0.21055041421E+04  0.25500000920E-02 0.  1.
       -2    1    3    3    0  502 -0.19628801154E+03 -0.64263102476E+03  0.78919672040E+03  0.10365013656E+04  0.25500000920E-02 0. -1.
</event>
<event>
 5   0  0.1031339E-06  0.2902993E+04  0.7818609E-02  0.8271987E-01
        2   -1    0    0  501    0  0.00000000000E+00  0.00000000000E+00  0.22190503884E+04  0.22190503884E+04  0.25500000920E-02 0. -1.
       -2   -1    0    0    0  501  0.00000000000E+00  0.00000000000E+00 -0.94943420015E+03  0.94943420015E+03  0.25500000920E-02 0.  1.
    10030    2    1    2    0    0  0.00000000000E+00  0.00000000000E+00  0.12696161883E+04  0.31684845886E+04  0.29029931661E+04 0.  0.
        5    1    3    3  502    0  0.86426761527E+03  0.79189250058E+02 -0.63503271905E+03  0.10754153116E+04  0.46999998093E+01 0.  1.
       -5    1    3    3    0  502 -0.86426761527E+03 -0.79189250058E+02  0.19046489073E+04  0.20930692770E+04  0.46999998093E+01 0. -1.
</event>
<event>
 5   0  0.3770467E-07  0.2914089E+04  0.7818609E-02  0.8268698E-01
        1   -1    0    0  501    0  0.00000000000E+00  0.00000000000E+00  0.16353747069E+04  0.16353747070E+04  0.50400001928E-02 0. -1.
       -1   -1    0    0    0  501  0.00000000000E+00  0.00000000000E+00 -0.12981600438E+04  0.12981600439E+04  0.50400001928E-02 0.  1.
    10030    2    1    2    0    0  0.00000000000E+00  0.00000000000E+00  0.33721466310E+03  0.29335347508E+04  0.29140886063E+04 0.  0.
        1    1    3    3  502    0 -0.73930778961E+03  0.94973991697E+03 -0.65808904933E+03  0.13717372615E+04  0.50400001928E-02 0.  1.
       -1    1    3    3    0  502  0.73930778961E+03 -0.94973991697E+03  0.99530371243E+03  0.15617974893E+04  0.50400001928E-02 0. -1.
</event>
<event>
 5   0  0.9950999E-07  0.2901982E+04  0.7818609E-02  0.8272288E-01
       -2   -1    0    0    0  501  0.00000000000E+00  0.00000000000E+00  0.91497117914E+03  0.91497117915E+03  0.25500000920E-02 0. -1.
        2   -1    0    0  501    0  0.00000000000E+00  0.00000000000E+00 -0.23010283587E+04  0.23010283587E+04  0.25500000920E-02 0.  1.
    10030    2    1    2    0    0  0.00000000000E+00  0.00000000000E+00 -0.13860571795E+04  0.32159995378E+04  0.29019818267E+04 0.  0.
        3    1    3    3  502    0  0.52043394150E+03  0.85563894569E+03  0.47053976554E+03  0.11065157812E+04  0.10100000352E+00 0. -1.
       -3    1    3    3    0  502 -0.52043394150E+03 -0.85563894569E+03 -0.18565969451E+04  0.21094837566E+04  0.10100000352E+00 0.  1.
</event>
<event>
 5   0  0.3770467E-07  0.2903700E+04  0.7818609E-02  0.8271778E-01
       -1   -1    0    0    0  501  0.00000000000E+00  0.00000000000E+00  0.16226298202E+04  0.16226298202E+04  0.50400001928E-02 0.  1.
        1   -1    0    0  501    0  0.00000000000E+00  0.00000000000E+00 -0.12990442628E+04  0.12990442628E+04  0.50400001928E-02 0. -1.
    10030    2    1    2    0    0  0.00000000000E+00  0.00000000000E+00  0.32358555740E+03  0.29216740831E+04  0.29036996805E+04 0.  0.
        1    1    3    3  502    0 -0.13032564240E+04 -0.49104022031E+02 -0.48010564611E+03  0.13897445604E+04  0.50400001928E-02 0. -1.
       -1    1    3    3    0  502  0.13032564240E+04  0.49104022031E+02  0.80369120351E+03  0.15319295227E+04  0.50400001928E-02 0.  1.
</event>
<event>
 5   0  0.9994311E-07  0.2907143E+04  0.7818609E-02  0.8270755E-01
        2   -1    0    0  501    0  0.00000000000E+00  0.00000000000E+00  0.10481097633E+04  0.10481097633E+04  0.25500000920E-02 0.  1.
       -2   -1    0    0    0  501  0.00000000000E+00  0.00000000000E+00 -0.20158859790E+04  0.20158859790E+04  0.25500000920E-02 0. -1.
    10030    2    1    2    0    0  0.00000000000E+00  0.00000000000E+00 -0.96777621571E+03  0.30639957423E+04  0.29071427734E+04 0.  0.
        2    1    3    3  502    0  0.14075613726E+04 -0.26798769553E+03 -0.74167282933E+03  0.16134202826E+04  0.25500000920E-02 0.  1.
       -2    1    3    3    0  502 -0.14075613726E+04  0.26798769553E+03 -0.22610338638E+03  0.14505754596E+04  0.25500000920E-02 0. -1.
</event>
<event>
 5   0  0.1031339E-06  0.2902433E+04  0.7818609E-02  0.8272154E-01
       -2   -1    0    0    0  501  0.00000000000E+00  0.00000000000E+00  0.11539392881E+04  0.11539392881E+04  0.25500000920E-02 0. -1.
        2   -1    0    0  501    0  0.00000000000E+00  0.00000000000E+00 -0.18250779462E+04  0.18250779462E+04  0.25500000920E-02 0.  1.
    10030    2    1    2    0    0  0.00000000000E+00  0.00000000000E+00 -0.67113865809E+03  0.29790172343E+04  0.29024328733E+04 0.  0.
        5    1    3    3  502    0 -0.10708317890E+04 -0.89142209849E+03 -0.75210133013E+03  0.15833485336E+04  0.46999998093E+01 0.  1.
       -5    1    3    3    0  502  0.10708317890E+04  0.89142209849E+03  0.80962672040E+02  0.13956687007E+04  0.46999998093E+01 0. -1.
</event>
<event>
 5   0  0.3769563E-07  0.2900685E+04  0.7818609E-02  0.8272674E-01
       -1   -1    0    0    0  501  0.00000000000E+00  0.00000000000E+00  0.14778597781E+04  0.14778597781E+04  0.50400001928E-02 0. -1.
        1   -1    0    0  501    0  0.00000000000E+00  0.00000000000E+00 -0.14233372141E+04  0.14233372142E+04  0.50400001928E-02 0.  1.
    10030    2    1    2    0    0  0.00000000000E+00  0.00000000000E+00  0.54522563940E+02  0.29011969923E+04  0.29006846223E+04 0.  0.
        3    1    3    3  502    0 -0.33465790348E+03  0.12433394186E+04  0.69491495102E+03  0.14631457964E+04  0.10100000352E+00 0. -1.
       -3    1    3    3    0  502  0.33465790348E+03 -0.12433394186E+04 -0.64039238708E+03  0.14380511958E+04  0.10100000352E+00 0.  1.
</event>
<event>
 5   0  0.3638028E-07  0.2888232E+04  0.7818609E-02  0.8276387E-01
        1   -1    0    0  501    0  0.00000000000E+00  0.00000000000E+00  0.16828249502E+04  0.16828249502E+04  0.50400001928E-02 0.  1.
       -1   -1    0    0    0  501  0.00000000000E+00  0.00000000000E+00 -0.12392679526E+04  0.12392679526E+04  0.50400001928E-02 0. -1.
    10030    2    1    2    0    0  0.00000000000E+00  0.00000000000E+00  0.44355699767E+03  0.29220929028E+04  0.28882320064E+04 0.  0.
        4    1    3    3  502    0  0.89986203289E+03 -0.10951986862E+04  0.50116373003E+03  0.15034555323E+04  0.12699999809E+01 0.  1.
       -4    1    3    3    0  502 -0.89986203289E+03  0.10951986862E+04 -0.57606732361E+02  0.14186373705E+04  0.12699999809E+01 0. -1.
</event>
<event>
 5   0  0.3786210E-07  0.2904264E+04  0.7818609E-02  0.8271610E-01
       -1   -1    0    0    0  501  0.00000000000E+00  0.00000000000E+00  0.14643889401E+04  0.14643889402E+04  0.50400001928E-02 0.  1.
        1   -1    0    0  501    0  0.00000000000E+00  0.00000000000E+00 -0.14399776132E+04  0.14399776132E+04  0.50400001928E-02 0. -1.
    10030    2    1    2    0    0  0.00000000000E+00  0.00000000000E+00  0.24411326995E+02  0.29043665533E+04  0.29042639624E+04 0.  0.
        5    1    3    3  502    0  0.81289938543E+03 -0.11761630855E+04  0.26618350355E+03  0.14543179714E+04  0.46999998093E+01 0.  1.
       -5    1    3    3    0  502 -0.81289938543E+03  0.11761630855E+04 -0.24177217656E+03  0.14500485819E+04  0.46999998093E+01 0. -1.
</event>
<event>
 5   0  0.3378750E-07  0.2883079E+04  0.7818609E-02  0.8277930E-01
        3   -1    0    0  501    0  0.00000000000E+00  0.00000000000E+00  0.20024836148E+04  0.20024836174E+04  0.10100000352E+00 0.  1.
       -3   -1    0    0    0  501  0.00000000000E+00  0.00000000000E+00 -0.10377296976E+04  0.10377297025E+04  0.10100000352E+00 0. -1.
    10030    2    1    2    0    0  0.00000000000E+00  0.00000000000E+00  0.96475391723E+03  0.30402133199E+04  0.28830794144E+04 0.  0.
        5    1    3    3  502    0 -0.10765359870E+04  0.27297376493E+03 -0.48671577396E+03  0.12125834991E+04  0.46999998093E+01 0. -1.
       -5    1    3    3    0  502  0.10765359870E+04 -0.27297376493E+03  0.14514696912E+04  0.18276298208E+04  0.46999998093E+01 0.  1.
</event>
<event>
 5   0  0.3378750E-07  0.2900279E+04  0.7818609E-02  0.8272794E-01
        3   -1    0    0  501    0  0.00000000000E+00  0.00000000000E+00  0.15224603739E+04  0.15224603772E+04  0.10100000352E+00 0.  1.
       -3   -1    0    0    0  501  0.00000000000E+00  0.00000000000E+00 -0.13812539974E+04  0.13812540011E+04  0.10100000352E+00 0. -1.
    10030    2    1    2    0    0  0.00000000000E+00  0.00000000000E+00  0.14120637647E+03  0.29037143784E+04  0.29002789435E+04 0.  0.
        4    1    3    3  502    0  0.14393610295E+03  0.65057084503E+03 -0.12189220244E+04  0.13891481349E+04  0.12699999809E+01 0. -1.
       -4    1    3    3    0  502 -0.14393610295E+03 -0.65057084503E+03  0.13601284009E+04  0.15145662435E+04  0.12699999809E+01 0.  1.
</event>
<event>
 5   0  0.3769563E-07  0.2921870E+04  0.7818609E-02  0.8266400E-01
        1   -1    0    0  501    0  0.00000000000E+00  0.00000000000E+00  0.19580884078E+04  0.19580884078E+04  0.50400001928E-02 0.  1.
       -1   -1    0    0    0  501  0.00000000000E+00  0.00000000000E+00 -0.10900077930E+04  0.10900077930E+04  0.50400001928E-02 0. -1.
    10030    2    1    2    0    0  0.00000000000E+00  0.00000000000E+00  0.86808061485E+03  0.30480962008E+04  0.29218703762E+04 0.  0.
        3    1    3    3  502    0 -0.48649318352E+03  0.25414239753E+03  0.18464379025E+04  0.19262909733E+04  0.10100000352E+00 0.  1.
       -3    1    3    3    0  502  0.48649318352E+03 -0.25414239753E+03 -0.97835728766E+03  0.11218052275E+04  0.10100000352E+00 0. -1.
</event>
<event>
 5   0  0.1031339E-06  0.2891341E+04  0.7818609E-02  0.8275458E-01
        2   -1    0    0  501    0  0.00000000000E+00  0.00000000000E+00  0.12016499154E+04  0.12016499154E+04  0.25500000920E-02 0. -1.
       -2   -1    0    0    0  501  0.00000000000E+00  0.00000000000E+00 -0.17392451324E+04  0.17392451324E+04  0.25500000920E-02 0.  1.
    10030    2    1    2    0    0  0.00000000000E+00  0.00000000000E+00 -0.53759521707E+03  0.29408950478E+04  0.28913413954E+04 0.  0.
        5    1    3    3  502    0 -0.69949842157E+03  0.89899655282E+03 -0.11742503060E+04  0.16359641546E+04  0.46999998093E+01 0.  1.
       -5    1    3    3    0  502  0.69949842157E+03 -0.89899655282E+03  0.63665508898E+03  0.13049308932E+04  0.46999998093E+01 0. -1.
</event>
<event>
 5   0  0.3378750E-07  0.2909788E+04  0.7818609E-02  0.8269971E-01
        3   -1    0    0  501    0  0.00000000000E+00  0.00000000000E+00  0.19505426210E+04  0.19505426236E+04  0.10100000352E+00 0. -1.
       -3   -1    0    0    0  501  0.00000000000E+00  0.00000000000E+00 -0.10851938600E+04  0.10851938647E+04  0.10100000352E+00 0.  1.
    10030    2    1    2    0    0  0.00000000000E+00  0.00000000000E+00  0.86534876097E+03  0.30357364883E+04  0.29097882308E+04 0.  0.
        4    1    3    3  502    0 -0.31648972570E+03  0.87887987531E+03  0.15963549155E+04  0.18495800093E+04  0.12699999809E+01 0. -1.
       -4    1    3    3    0  502  0.31648972570E+03 -0.87887987531E+03 -0.73100615455E+03  0.11861564790E+04  0.12699999809E+01 0.  1.
</event>
<event>
 5   0  0.1031339E-06  0.2901108E+04  0.7818609E-02  0.8272548E-01
        2   -1    0    0  501    0  0.00000000000E+00  0.00000000000E+00  0.10954995230E+04  0.10954995230E+04  0.25500000920E-02 0.  1.
       -2   -1    0    0    0  501  0.00000000000E+00  0.00000000000E+00 -0.19206828474E+04  0.19206828474E+04  0.25500000920E-02 0. -1.
    10030    2    1    2    0    0  0.00000000000E+00  0.00000000000E+00 -0.82518332445E+03  0.30161823704E+04  0.29011081628E+04 0.  0.
        5    1    3    3  502    0 -0.48909086292E+03 -0.60380102631E+03 -0.16860438933E+04  0.18564890659E+04  0.46999998093E+01 0. -1.
       -5    1    3    3    0  502  0.48909086292E+03  0.60380102631E+03  0.86086056883E+03  0.11596933045E+04  0.46999998093E+01 0.  1.
</event>
<event>
 5   0  0.3770467E-07  0.2900793E+04  0.7818609E-02  0.8272642E-01
       -1   -1    0    0    0  501  0.00000000000E+00  0.00000000000E+00  0.95451995772E+03  0.95451995773E+03  0.50400001928E-02 0. -1.
        1   -1    0    0  501    0  0.00000000000E+00  0.00000000000E+00 -0.22038821236E+04  0.22038821236E+04  0.50400001928E-02 0.  1.
    10030    2    1    2    0    0  0.00000000000E+00  0.00000000000E+00 -0.12493621659E+04  0.31584020814E+04  0.29007926306E+04 0.  0.
        1    1    3    3  502    0  0.39094041435E+02 -0.14215152427E+04 -0.31400745205E+03  0.14563085557E+04  0.50400001928E-02 0.  1.
       -1    1    3    3    0  502 -0.39094041435E+02  0.14215152427E+04 -0.93535471386E+03  0.17020935257E+04  0.50400001928E-02 0. -1.
</event>
<event>
 5   0  0.3786210E-07  0.2940641E+04  0.7818609E-02  0.8260887E-01
       -1   -1    0    0    0  501  0.00000000000E+00  0.00000000000E+00  0.12617949691E+04  0.12617949691E+04  0.50400001928E-02 0. -1.
        1   -1    0    0  501    0  0.00000000000E+00  0.00000000000E+00 -0.17133071358E+04  0.17133071358E+04  0.50400001928E-02 0.  1.
    10030    2    1    2    0    0  0.00000000000E+00  0.00000000000E+00 -0.45151216668E+03  0.29751021049E+04  0.29406409672E+04 0.  0.
        5    1    3    3  502    0 -0.69912226895E+03  0.30353861524E+03 -0.14978342595E+04  0.16806061992E+04  0.46999998093E+01 0.  1.
       -5    1    3    3    0  502  0.69912226895E+03 -0.30353861524E+03  0.10463220928E+04  0.12944959057E+04  0.46999998093E+01 0. -1.
</event>
<event>
 5   0  0.9950999E-07  0.2893592E+04  0.7818609E-02  0.8274787E-01
        2   -1    0    0  501    0  0.00000000000E+00  0.00000000000E+00  0.11879764688E+04  0.11879764688E+04  0.25500000920E-02 0. -1.
       -2   -1    0    0    0  501  0.00000000000E+00  0.00000000000E+00 -0.17620037836E+04  0.17620037836E+04  0.25500000920E-02 0.  1.
    10030    2    1    2    0    0  0.00000000000E+00  0.00000000000E+00 -0.57402731476E+03  0.29499802524E+04  0.28935922538E+04 0.  0.
        3    1    3    3  502    0  0.32481353701E+03 -0.13198414640E+04  0.21836178483E+03  0.13766507194E+04  0.10100000352E+00 0. -1.
       -3    1    3    3    0  502 -0.32481353701E+03  0.13198414640E+04 -0.79238909959E+03  0.15733295330E+04  0.10100000352E+00 0.  1.
</event>
<event>
 5   0  0.1031339E-06  0.2899393E+04  0.7818609E-02  0.8273058E-01
       -2   -1    0    0    0  501  0.00000000000E+00  0.00000000000E+00  0.99115665963E+03  0.99115665963E+03  0.25500000920E-02 0.  1.
        2   -1    0    0  501    0  0.00000000000E+00  0.00000000000E+00 -0.21203712926E+04  0.21203712926E+04  0.25500000920E-02 0. -1.
    10030    2    1    2    0    0  0.00000000000E+00  0.00000000000E+00 -0.11292146330E+04  0.31115279523E+04  0.28993931279E+04 0.  0.
        5    1    3    3  502    0  0.90132432292E+03  0.26415629238E+03 -0.17496820630E+04  0.19858432701E+04  0.46999998093E+01 0. -1.
       -5    1    3    3    0  502 -0.90132432292E+03 -0.26415629238E+03  0.62046743002E+03  0.11256846821E+04  0.46999998093E+01 0.  1.
</event>
<event>
 5   0  0.3378750E-07  0.2896113E+04  0.7818609E-02  0.8274035E-01
       -3   -1    0    0    0  501  0.00000000000E+00  0.00000000000E+00  0.17784622340E+04  0.17784622368E+04  0.10100000352E+00 0. -1.
        3   -1    0    0  501    0  0.00000000000E+00  0.00000000000E+00 -0.11790344301E+04  0.11790344344E+04  0.10100000352E+00 0.  1.
    10030    2    1    2    0    0  0.00000000000E+00  0.00000000000E+00  0.59942780388E+03  0.29574966713E+04  0.28961134074E+04 0.  0.
        3    1    3    3  502    0 -0.75846367834E+03 -0.51658330366E+03 -0.84418079627E+03  0.12469028382E+04  0.10100000352E+00 0.  1.
       -3    1    3    3    0  502  0.75846367834E+03  0.51658330366E+03  0.14436086001E+04  0.17105938330E+04  0.10100000352E+00 0. -1.
</event>
<event>
 5   0  0.1006893E-06  0.2898866E+04  0.7818609E-02  0.8273215E-01
       -2   -1    0    0    0  501  0.00000000000E+00  0.00000000000E+00  0.15339443560E+04  0.15339443560E+04  0.25500000920E-02 0. -1.
        2   -1    0    0  501    0  0.00000000000E+00  0.00000000000E+00 -0.13695781870E+04  0.13695781871E+04  0.25500000920E-02 0.  1.
    10030    2    1    2    0    0  0.00000000000E+00  0.00000000000E+00  0.16436616896E+03  0.29035225431E+04  0.28988664889E+04 0.  0.
        4    1    3    3  502    0  0.22948372539E+03  0.14209700037E+04  0.25285802549E+03  0.14614230481E+04  0.12699999809E+01 0. -1.
       -4    1    3    3    0  502 -0.22948372539E+03 -0.14209700037E+04 -0.88491856529E+02  0.14420994949E+04  0.12699999809E+01 0.  1.
</event>
<event>
 5   0  0.3770467E-07  0.2831395E+04  0.7818609E-02  0.8293587E-01
        1   -1    0    0  501    0  0.00000000000E+00  0.00000000000E+00  0.13088683779E+04  0.13088683779E+04  0.50400001928E-02 0. -1.
       -1   -1    0    0    0  501  0.00000000000E+00  0.00000000000E+00 -0.15312458094E+04  0.15312458094E+04  0.50400001928E-02 0.  1.
    10030    2    1    2    0    0  0.00000000000E+00  0.00000000000E+00 -0.22237743153E+03  0.28401141873E+04  0.28313948639E+04 0.  0.
        1    1    3    3  502    0  0.85091991585E+03  0.54781722561E+03  0.88182494799E+03  0.13423053508E+04  0.50400001928E-02 0. -1.
       -1    1    3    3    0  502 -0.85091991585E+03 -0.54781722561E+03 -0.11042023795E+04  0.14978088365E+04  0.50400001928E-02 0.  1.
</event>
<event>
 5   0  0.3638028E-07  0.2899853E+04  0.7818609E-02  0.8272921E-01
        1   -1    0    0  501    0  0.00000000000E+00  0.00000000000E+00  0.13900745138E+04  0.13900745138E+04  0.50400001928E-02 0.  1.
       -1   -1    0    0    0  501  0.00000000000E+00  0.00000000000E+00 -0.15123556288E+04  0.15123556288E+04  0.50400001928E-02 0. -1.
    10030    2    1    2    0    0  0.00000000000E+00  0.00000000000E+00 -0.12228111503E+03  0.29024301426E+04  0.28998531104E+04 0.  0.
        4    1    3    3  502    0 -0.43376260720E+03  0.72901732188E+03  0.11157739388E+04  0.14016309608E+04  0.12699999809E+01 0.  1.
       -4    1    3    3    0  502  0.43376260720E+03 -0.72901732188E+03 -0.12380550538E+04  0.15007991818E+04  0.12699999809E+01 0. -1.
</event>
<event>
 5   0  0.3638028E-07  0.2904623E+04  0.7818609E-02  0.8271503E-01
       -1   -1    0    0    0  501  0.00000000000E+00  0.00000000000E+00  0.93377079217E+03  0.93377079218E+03  0.50400001928E-02 0.  1.
        1   -1    0    0  501    0  0.00000000000E+00  0.00000000000E+00 -0.22588077595E+04  0.22588077595E+04  0.50400001928E-02 0. -1.
    10030    2    1    2    0    0  0.00000000000E+00  0.00000000000E+00 -0.13250369674E+04  0.31925785517E+04  0.29046230124E+04 0.  0.
        4    1    3    3  502    0  0.58947996271E+03 -0.11535392339E+04  0.59128104647E+02  0.12967795249E+04  0.12699999809E+01 0.  1.
       -4    1    3    3    0  502 -0.58947996271E+03  0.11535392339E+04 -0.13841650720E+04  0.18957990268E+04  0.12699999809E+01 0. -1.
</event>
<event>
 5   0  0.3638028E-07  0.2898118E+04  0.7818609E-02  0.8273438E-01
        1   -1    0    0  501    0  0.00000000000E+00  0.00000000000E+00  0.88200378009E+03  0.88200378011E+03  0.50400001928E-02 0.  1.
       -1   -1    0    0    0  501  0.00000000000E+00  0.00000000000E+00 -0.23806843348E+04  0.23806843349E+04  0.50400001928E-02 0. -1.
    10030    2    1    2    0    0  0.00000000000E+00  0.00000000000E+00 -0.14986805548E+04  0.32626881150E+04  0.28981184121E+04 0.  0.
        4    1    3    3  502    0  0.98997607765E+02  0.97221150428E+03  0.45519506628E+03  0.10780537541E+04  0.12699999809E+01 0.  1.
       -4    1    3    3    0  502 -0.98997607765E+02 -0.97221150428E+03 -0.19538756210E+04  0.21846343609E+04  0.12699999809E+01 0. -1.
</event>
<event>
 5   0  0.3770467E-07  0.2899761E+04  0.7818609E-02  0.8272949E-01
        1   -1    0    0  501    0  0.00000000000E+00  0.00000000000E+00  0.78442287725E+03  0.78442287727E+03  0.50400001928E-02 0.  1.
       -1   -1    0    0    0  501  0.00000000000E+00  0.00000000000E+00 -0.26798731067E+04  0.26798731067E+04  0.50400001928E-02 0. -1.
    10030    2    1    2    0    0  0.00000000000E+00  0.00000000000E+00 -0.18954502295E+04  0.34642959840E+04  0.28997612130E+04 0.  0.
        1    1    3    3  502    0  0.72624823761E+03 -0.70247768809E+03  0.29453997680E+03  0.10524567463E+04  0.50400001928E-02 0.  1.
       -1    1    3    3    0  502 -0.72624823761E+03  0.70247768809E+03 -0.21899902063E+04  0.24118392377E+04  0.50400001928E-02 0. -1.
</event>
<event>
 5   0  0.3786210E-07  0.2898480E+04  0.7818609E-02  0.8273330E-01
        1   -1    0    0  501    0  0.00000000000E+00  0.00000000000E+00  0.15729692167E+04  0.15729692167E+04  0.50400001928E-02 0.  1.
       -1   -1    0    0    0  501  0.00000000000E+00  0.00000000000E+00 -0.13352430962E+04  0.13352430962E+04  0.50400001928E-02 0. -1.
    10030    2    1    2    0    0  0.00000000000E+00  0.00000000000E+00  0.23772612047E+03  0.29082123129E+04  0.28984797996E+04 0.  0.
        5    1    3    3  502    0 -0.14313643040E+03  0.13577091995E+04 -0.36899163308E+03  0.14142274299E+04  0.46999998093E+01 0. -1.
       -5    1    3    3    0  502  0.14313643040E+03 -0.13577091995E+04  0.60671775355E+03  0.14939848830E+04  0.46999998093E+01 0.  1.
</event>
<event>
 5   0  0.1006893E-06  0.2898076E+04  0.7818609E-02  0.8273450E-01
       -2   -1    0    0    0  501  0.00000000000E+00  0.00000000000E+00  0.12629211786E+04  0.12629211786E+04  0.25500000920E-02 0. -1.
        2   -1    0    0  501    0  0.00000000000E+00  0.00000000000E+00 -0.16625823936E+04  0.16625823936E+04  0.25500000920E-02 0.  1.
    10030    2    1    2    0    0  0.00000000000E+00  0.00000000000E+00 -0.39966121497E+03  0.29255035722E+04  0.28980755794E+04 0.  0.
        4    1    3    3  502    0 -0.68502728030E+03  0.13004180178E+03 -0.14821027555E+04  0.16379265661E+04  0.12699999809E+01 0.  1.
       -4    1    3    3    0  502  0.68502728030E+03 -0.13004180178E+03  0.10824415406E+04  0.12875770061E+04  0.12699999809E+01 0. -1.
</event>
<event>
 5   0  0.3786210E-07  0.2901569E+04  0.7818609E-02  0.8272411E-01
       -1   -1    0    0    0  501  0.00000000000E+00  0.00000000000E+00  0.10109609459E+04  0.10109609459E+04  0.50400001928E-02 0.  1.
        1   -1    0    0  501    0  0.00000000000E+00  0.00000000000E+00 -0.20819557265E+04  0.20819557265E+04  0.50400001928E-02 0. -1.
    10030    2    1    2    0    0  0.00000000000E+00  0.00000000000E+00 -0.10709947806E+04  0.30929166723E+04  0.29015691827E+04 0.  0.
        5    1    3    3  502    0  0.32949395140E+03  0.12101371893E+04  0.24180733756E+03  0.12772983831E+04  0.46999998093E+01 0.  1.
       -5    1    3    3    0  502 -0.32949395140E+03 -0.12101371893E+04 -0.13128021182E+04  0.18156182893E+04  0.46999998093E+01 0. -1.
</event>
<event>
 5   0  0.1006893E-06  0.2887872E+04  0.7818609E-02  0.8276495E-01
        2   -1    0    0  501    0  0.00000000000E+00  0.00000000000E+00  0.21030773149E+04  0.21030773149E+04  0.25500000920E-02 0. -1.
       -2   -1    0    0    0  501  0.00000000000E+00  0.00000000000E+00 -0.99138119726E+03  0.99138119727E+03  0.25500000920E-02 0.  1.
    10030    2    1    2    0    0  0.00000000000E+00  0.00000000000E+00  0.11116961177E+04  0.30944585122E+04  0.28878720930E+04 0.  0.
        4    1    3    3  502    0  0.70137219090E+03 -0.45812997569E+03  0.18160506174E+04  0.19999618703E+04  0.12699999809E+01 0. -1.
       -4    1    3    3    0  502 -0.70137219090E+03  0.45812997569E+03 -0.70435449977E+03  0.10944966419E+04  0.12699999809E+01 0.  1.
</event>
<event>
 5   0  0.3770467E-07  0.2897344E+04  0.7818609E-02  0.8273668E-01
        1   -1    0    0  501    0  0.00000000000E+00  0.00000000000E+00  0.19967758665E+04  0.19967758665E+04  0.50400001928E-02 0. -1.
       -1   -1    0    0    0  501  0.00000000000E+00  0.00000000000E+00 -0.10510198686E+04  0.10510198686E+04  0.50400001928E-02 0.  1.
    10030    2    1    2    0    0  0.00000000000E+00  0.00000000000E+00  0.94575599794E+03  0.30477957351E+04  0.28973443763E+04 0.  0.
        1    1    3    3  502    0  0.31106726381E+03  0.33643938078E+03 -0.97278432251E+03  0.10752969998E+04  0.50400001928E-02 0.  1.
       -1    1    3    3    0  502 -0.31106726381E+03 -0.33643938078E+03  0.19185403205E+04  0.19724987353E+04  0.50400001928E-02 0. -1.
</event>
<event>
 5   0  0.1063979E-06  0.2875204E+04  0.7818609E-02  0.8280293E-01
       -2   -1    0    0    0  501  0.00000000000E+00  0.00000000000E+00  0.81504721213E+03  0.81504721213E+03  0.25500000920E-02 0.  1.
        2   -1    0    0  501    0  0.00000000000E+00  0.00000000000E+00 -0.25356810414E+04  0.25356810414E+04  0.25500000920E-02 0. -1.
    10030    2    1    2    0    0  0.00000000000E+00  0.00000000000E+00 -0.17206338292E+04  0.33507282535E+04  0.28752041761E+04 0.  0.
        1    1    3    3  502    0  0.13657046222E+04  0.44556411490E+03 -0.79623893026E+03  0.16424594149E+04  0.50400001928E-02 0.  1.
       -1    1    3    3    0  502 -0.13657046222E+04 -0.44556411490E+03 -0.92439489896E+03  0.17082688386E+04  0.50400001928E-02 0. -1.
</event>
<event>
 5   0  0.3769563E-07  0.2906389E+04  0.7818609E-02  0.8270979E-01
        1   -1    0    0  501    0  0.00000000000E+00  0.00000000000E+00  0.19974340859E+04  0.19974340859E+04  0.50400001928E-02 0. -1.
       -1   -1    0    0    0  501  0.00000000000E+00  0.00000000000E+00 -0.10572436991E+04  0.10572436992E+04  0.50400001928E-02 0.  1.
    10030    2    1    2    0    0  0.00000000000E+00  0.00000000000E+00  0.94019038673E+03  0.30546777850E+04  0.29063892387E+04 0.  0.
        3    1    3    3  502    0 -0.92662904995E+02  0.76110102957E+03 -0.82735822233E+03  0.11279994811E+04  0.10100000352E+00 0.  1.
       -3    1    3    3    0  502  0.92662904995E+02 -0.76110102957E+03  0.17675486091E+04  0.19266783039E+04  0.10100000352E+00 0. -1.
</event>
<event>
 5   0  0.9994311E-07  0.2903752E+04  0.7818609E-02  0.8271762E-01
        2   -1    0    0  501    0  0.00000000000E+00  0.00000000000E+00  0.17726205572E+04  0.17726205572E+04  0.25500000920E-02 0. -1.
       -2   -1    0    0    0  501  0.00000000000E+00  0.00000000000E+00 -0.11891678109E+04  0.11891678109E+04  0.25500000920E-02 0.  1.
    10030    2    1    2    0    0  0.00000000000E+00  0.00000000000E+00  0.58345274633E+03  0.29617883681E+04  0.29037515786E+04 0.  0.
        2    1    3    3  502    0  0.55769164678E+03 -0.28089557092E+03  0.16286567770E+04  0.17442606434E+04  0.25500000920E-02 0. -1.
       -2    1    3    3    0  502 -0.55769164678E+03  0.28089557092E+03 -0.10452040307E+04  0.12175277247E+04  0.25500000920E-02 0.  1.
</event>
<event>
 5   0  0.3770467E-07  0.2902325E+04  0.7818609E-02  0.8272186E-01
       -1   -1    0    0    0  501  0.00000000000E+00  0.00000000000E+00  0.89890855387E+03  0.89890855389E+03  0.50400001928E-02 0.  1.
        1   -1    0    0  501    0  0.00000000000E+00  0.00000000000E+00 -0.23426997713E+04  0.23426997713E+04  0.50400001928E-02 0. -1.
    10030    2    1    2    0    0  0.00000000000E+00  0.00000000000E+00 -0.14437912174E+04  0.32416083252E+04  0.29023251807E+04 0.  0.
        1    1    3    3  502    0 -0.12620660706E+04 -0.62159056598E+03 -0.32435550199E+03  0.14437423905E+04  0.50400001928E-02 0.  1.
       -1    1    3    3    0  502  0.12620660706E+04  0.62159056598E+03 -0.11194357154E+04  0.17978659347E+04  0.50400001928E-02 0. -1.
</event>
<event>
 5   0  0.3769563E-07  0.2878157E+04  0.7818609E-02  0.8279406E-01
       -1   -1    0    0    0  501  0.00000000000E+00  0.00000000000E+00  0.16970255167E+04  0.16970255167E+04  0.50400001928E-02 0.  1.
        1   -1    0    0  501    0  0.00000000000E+00  0.00000000000E+00 -0.12203390532E+04  0.12203390532E+04  0.50400001928E-02 0. -1.
    10030    2    1    2    0    0  0.00000000000E+00  0.00000000000E+00  0.47668646357E+03  0.29173645699E+04  0.28781567103E+04 0.  0.
        3    1    3    3  502    0  0.88009690310E+03  0.78867591393E+02 -0.91298023017E+03  0.12705603357E+04  0.10100000352E+00 0. -1.
       -3    1    3    3    0  502 -0.88009690310E+03 -0.78867591393E+02  0.13896666937E+04  0.16468042342E+04  0.10100000352E+00 0.  1.
</event>
<event>
 5   0  0.3770467E-07  0.2901487E+04  0.7818609E-02  0.8272435E-01
        1   -1    0    0  501    0  0.00000000000E+00  0.00000000000E+00  0.18299352248E+04  0.18299352248E+04  0.50400001928E-02 0. -1.
       -1   -1    0    0    0  501  0.00000000000E+00  0.00000000000E+00 -0.11501261183E+04  0.11501261183E+04  0.50400001928E-02 0.  1.
    10030    2    1    2    0    0  0.00000000000E+00  0.00000000000E+00  0.67980910653E+03  0.29800613431E+04  0.29014867202E+04 0.  0.
        1    1    3    3  502    0  0.63334839950E+03 -0.42058720603E+03 -0.92912538868E+03  0.12005406203E+04  0.50400001928E-02 0.  1.
       -1    1    3    3    0  502 -0.63334839950E+03  0.42058720603E+03  0.16089344952E+04  0.17795207228E+04  0.50400001928E-02 0. -1.
</event>
<event>
 5   0  0.1031339E-06  0.2897951E+04  0.7818609E-02  0.8273487E-01
        2   -1    0    0  501    0  0.00000000000E+00  0.00000000000E+00  0.11454581455E+04  0.11454581455E+04  0.25500000920E-02 0.  1.
       -2   -1    0    0    0  501  0.00000000000E+00  0.00000000000E+00 -0.18329176732E+04  0.18329176732E+04  0.25500000920E-02 0. -1.
    10030    2    1    2    0    0  0.00000000000E+00  0.00000000000E+00 -0.68745952768E+03  0.29783758187E+04  0.28979513308E+04 0.  0.
        5    1    3    3  502    0  0.76831579464E+03  0.11977850872E+04 -0.63188969684E+02  0.14244343478E+04  0.46999998093E+01 0.  1.
       -5    1    3    3    0  502 -0.76831579464E+03 -0.11977850872E+04 -0.62427055799E+03  0.15539414709E+04  0.46999998093E+01 0. -1.
</event>
<event>
 5   0  0.9950999E-07  0.2898354E+04  0.7818609E-02  0.8273367E-01
        2   -1    0    0  501    0  0.00000000000E+00  0.00000000000E+00  0.16173083464E+04  0.16173083464E+04  0.25500000920E-02 0. -1.
       -2   -1    0    0    0  501  0.00000000000E+00  0.00000000000E+00 -0.12985237982E+04  0.12985237982E+04  0.25500000920E-02 0.  1.
    10030    2    1    2    0    0  0.00000000000E+00  0.00000000000E+00  0.31878454823E+03  0.29158321446E+04  0.28983535856E+04 0.  0.
        3    1    3    3  502    0 -0.14246292976E+04  0.25197198171E+03  0.24389195961E+03  0.14671543250E+04  0.10100000352E+00 0. -1.
       -3    1    3    3    0  502  0.14246292976E+04 -0.25197198171E+03  0.74892588620E+02  0.14486778196E+04  0.10100000352E+00 0.  1.
</event>
<event>
 5   0  0.1063979E-06  0.2906354E+04  0.7818609E-02  0.8270989E-01
        2   -1    0    0  501    0  0.00000000000E+00  0.00000000000E+00  0.98497359516E+03  0.98497359517E+03  0.25500000920E-02 0. -1.
       -2   -1    0    0    0  501  0.00000000000E+00  0.00000000000E+00 -0.21439392093E+04  0.21439392093E+04  0.25500000920E-02 0.  1.
    10030    2    1    2    0    0  0.00000000000E+00  0.00000000000E+00 -0.11589656141E+04  0.31289128045E+04  0.29063540808E+04 0.  0.
        1    1    3    3  502    0 -0.64925722269E+03 -0.12781142866E+04 -0.83563664883E+03  0.16593371206E+04  0.50400001928E-02 0.  1.
       -1    1    3    3    0  502  0.64925722269E+03  0.12781142866E+04 -0.32332896529E+03  0.14695756839E+04  0.50400001928E-02 0. -1.
</event>
<event>
 5   0  0.3885904E-07  0.2899987E+04  0.7818609E-02  0.8272881E-01
        1   -1    0    0  501    0  0.00000000000E+00  0.00000000000E+00  0.19554393334E+04  0.19554393334E+04  0.50400001928E-02 0.  1.
       -1   -1    0    0    0  501  0.00000000000E+00  0.00000000000E+00 -0.10751961583E+04  0.10751961583E+04  0.50400001928E-02 0. -1.
    10030    2    1    2    0    0  0.00000000000E+00  0.00000000000E+00  0.88024317507E+03  0.30306354917E+04  0.28999867993E+04 0.  0.
        2    1    3    3  502    0  0.12020277904E+04  0.43911200570E+03 -0.27234810898E+03  0.13083820753E+04  0.25500000920E-02 0. -1.
       -2    1    3    3    0  502 -0.12020277904E+04 -0.43911200570E+03  0.11525912841E+04  0.17222534164E+04  0.25500000920E-02 0.  1.
</event>
<event>
 5   0  0.3770467E-07  0.2893088E+04  0.7818609E-02  0.8274937E-01
        1   -1    0    0  501    0  0.00000000000E+00  0.00000000000E+00  0.17966272651E+04  0.17966272652E+04  0.50400001928E-02 0.  1.
       -1   -1    0    0    0  501  0.00000000000E+00  0.00000000000E+00 -0.11646764557E+04  0.11646764557E+04  0.50400001928E-02 0. -1.
    10030    2    1    2    0    0  0.00000000000E+00  0.00000000000E+00  0.63195080942E+03  0.29613037209E+04  0.28930879527E+04 0.  0.
        1    1    3    3  502    0  0.14670593696E+03  0.55645185579E+03  0.16744185190E+04  0.17705475640E+04  0.50400001928E-02 0.  1.
       -1    1    3    3    0  502 -0.14670593696E+03 -0.55645185579E+03 -0.10424677095E+04  0.11907561569E+04  0.50400001928E-02 0. -1.
</event>
<event>
 5   0  0.1031339E-06  0.2898264E+04  0.7818609E-02  0.8273394E-01
       -2   -1    0    0    0  501  0.00000000000E+00  0.00000000000E+00  0.17638693916E+04  0.17638693916E+04  0.25500000920E-02 0. -1.
        2   -1    0    0  501    0  0.00000000000E+00  0.00000000000E+00 -0.11905552616E+04  0.11905552616E+04  0.25500000920E-02 0.  1.
    10030    2    1    2    0    0  0.00000000000E+00  0.00000000000E+00  0.57331413000E+03  0.29544246531E+04  0.28982642977E+04 0.  0.
        5    1    3    3  502    0  0.12107764897E+04  0.75639437847E+03  0.33141960925E+02  0.14280170319E+04  0.46999998093E+01 0. -1.
       -5    1    3    3    0  502 -0.12107764897E+04 -0.75639437847E+03  0.54017216907E+03  0.15264076212E+04  0.46999998093E+01 0.  1.
</event>
<event>
 5   0  0.3786210E-07  0.2898420E+04  0.7818609E-02  0.8273348E-01
       -1   -1    0    0    0  501  0.00000000000E+00  0.00000000000E+00  0.13959000842E+04  0.13959000842E+04  0.50400001928E-02 0.  1.
        1   -1    0    0  501    0  0.00000000000E+00  0.00000000000E+00 -0.15045557836E+04  0.15045557836E+04  0.50400001928E-02 0. -1.
    10030    2    1    2    0    0  0.00000000000E+00  0.00000000000E+00 -0.10865569938E+03  0.29004558679E+04  0.28984199455E+04 0.  0.
        5    1    3    3  502    0 -0.12605813600E+04 -0.13204765191E+02  0.66098032238E+03  0.14234313498E+04  0.46999998093E+01 0.  1.
       -5    1    3    3    0  502  0.12605813600E+04  0.13204765191E+02 -0.76963602176E+03  0.14770245181E+04  0.46999998093E+01 0. -1.
</event>
<event>
 5   0  0.3638028E-07  0.2899344E+04  0.7818609E-02  0.8273073E-01
        1   -1    0    0  501    0  0.00000000000E+00  0.00000000000E+00  0.15830529540E+04  0.15830529540E+04  0.50400001928E-02 0. -1.
       -1   -1    0    0    0  501  0.00000000000E+00  0.00000000000E+00 -0.13275288893E+04  0.13275288893E+04  0.50400001928E-02 0.  1.
    10030    2    1    2    0    0  0.00000000000E+00  0.00000000000E+00  0.25552406473E+03  0.29105818433E+04  0.28993437393E+04 0.  0.
        4    1    3    3  502    0  0.20022038657E+03 -0.72445649577E+03 -0.11166481644E+04  0.13460424040E+04  0.12699999809E+01 0.  1.
       -4    1    3    3    0  502 -0.20022038657E+03  0.72445649577E+03  0.13721722292E+04  0.15645394392E+04  0.12699999809E+01 0. -1.
</event>
<event>
 5   0  0.1031339E-06  0.2896185E+04  0.7818609E-02  0.8274013E-01
        2   -1    0    0  501    0  0.00000000000E+00  0.00000000000E+00  0.11438783301E+04  0.11438783301E+04  0.25500000920E-02 0. -1.
       -2   -1    0    0    0  501  0.00000000000E+00  0.00000000000E+00 -0.18332121856E+04  0.18332121856E+04  0.25500000920E-02 0.  1.
    10030    2    1    2    0    0  0.00000000000E+00  0.00000000000E+00 -0.68933385544E+03  0.29770905157E+04  0.28961848654E+04 0.  0.
        5    1    3    3  502    0 -0.10063783565E+04  0.76774848481E+03 -0.10676748677E+04  0.16559549648E+04  0.46999998093E+01 0.  1.
       -5    1    3    3    0  502  0.10063783565E+04 -0.76774848481E+03  0.37834101224E+03  0.13211355509E+04  0.46999998093E+01 0. -1.
</event>
<event>
 5   0  0.3786210E-07  0.2887260E+04  0.7818609E-02  0.8276678E-01
        1   -1    0    0  501    0  0.00000000000E+00  0.00000000000E+00  0.25680557883E+04  0.25680557883E+04  0.50400001928E-02 0.  1.
       -1   -1    0    0    0  501  0.00000000000E+00  0.00000000000E+00 -0.81153536801E+03  0.81153536803E+03  0.50400001928E-02 0. -1.
    10030    2    1    2    0    0  0.00000000000E+00  0.00000000000E+00  0.17565204203E+04  0.33795911563E+04  0.28872603618E+04 0.  0.
        5    1    3    3  502    0  0.29497977274E+03  0.32759231924E+03 -0.73081561940E+03  0.85348892993E+03  0.46999998093E+01 0. -1.
       -5    1    3    3    0  502 -0.29497977274E+03 -0.32759231924E+03  0.24873360397E+04  0.25261022264E+04  0.46999998093E+01 0.  1.
</event>
<event>
 5   0  0.1031339E-06  0.2896347E+04  0.7818609E-02  0.8273965E-01
       -2   -1    0    0    0  501  0.00000000000E+00  0.00000000000E+00  0.96223770885E+03  0.96223770885E+03  0.25500000920E-02 0. -1.
        2   -1    0    0  501    0  0.00000000000E+00  0.00000000000E+00 -0.21795096452E+04  0.21795096452E+04  0.25500000920E-02 0.  1.
    10030    2    1    2    0    0  0.00000000000E+00  0.00000000000E+00 -0.12172719364E+04  0.31417473541E+04  0.28963469181E+04 0.  0.
        5    1    3    3  502    0 -0.87647934049E+03 -0.10442797247E+04 -0.11383208913E+04  0.17761004249E+04  0.46999998093E+01 0.  1.
       -5    1    3    3    0  502  0.87647934049E+03  0.10442797247E+04 -0.78951045045E+02  0.13656469292E+04  0.46999998093E+01 0. -1.
</event>
<event>
 5   0  0.1006893E-06  0.2886434E+04  0.7818609E-02  0.8276925E-01
       -2   -1    0    0    0  501  0.00000000000E+00  0.00000000000E+00  0.91620353549E+03  0.91620353549E+03  0.25500000920E-02 0.  1.
        2   -1    0    0  501    0  0.00000000000E+00  0.00000000000E+00 -0.22733766126E+04  0.22733766126E+04  0.25500000920E-02 0. -1.
    10030    2    1    2    0    0  0.00000000000E+00  0.00000000000E+00 -0.13571730771E+04  0.31895801481E+04  0.28864342639E+04 0.  0.
        4    1    3    3  502    0  0.11329253411E+04 -0.56877874243E+03  0.83676039312E+02  0.12704457402E+04  0.12699999809E+01 0.  1.
       -4    1    3    3    0  502 -0.11329253411E+04  0.56877874243E+03 -0.14408491164E+04  0.19191344079E+04  0.12699999809E+01 0. -1.
</event>
<event>
 5   0  0.1063979E-06  0.2902099E+04  0.7818609E-02  0.8272253E-01
        2   -1    0    0  501    0  0.00000000000E+00  0.00000000000E+00  0.17277476829E+04  0.17277476829E+04  0.25500000920E-02 0. -1.
       -2   -1    0    0    0  501  0.00000000000E+00  0.00000000000E+00 -0.12186640501E+04  0.12186640501E+04  0.25500000920E-02 0.  1.
    10030    2    1    2    0    0  0.00000000000E+00  0.00000000000E+00  0.50908363280E+03  0.29464117329E+04  0.29020985433E+04 0.  0.
        1    1    3    3  502    0  0.63121183831E+03 -0.13661074587E+03  0.15737878040E+04  0.17011463584E+04  0.50400001928E-02 0. -1.
       -1    1    3    3    0  502 -0.63121183831E+03  0.13661074587E+03 -0.10647041712E+04  0.12452653745E+04  0.50400001928E-02 0.  1.
</event>
<event>
 5   0  0.1063979E-06  0.2900749E+04  0.7818609E-02  0.8272655E-01
        2   -1    0    0  501    0  0.00000000000E+00  0.00000000000E+00  0.11133491499E+04  0.11133491499E+04  0.25500000920E-02 0.  1.
       -2   -1    0    0    0  501  0.00000000000E+00  0.00000000000E+00 -0.18894221638E+04  0.18894221638E+04  0.25500000920E-02 0. -1.
    10030    2    1    2    0    0  0.00000000000E+00  0.00000000000E+00 -0.77607301395E+03  0.30027713137E+04  0.29007492548E+04 0.  0.
        1    1    3    3  502    0 -0.14232013212E+04  0.24020828965E+03 -0.53583244318E+03  0.15395838497E+04  0.50400001928E-02 0. -1.
       -1    1    3    3    0  502  0.14232013212E+04 -0.24020828965E+03 -0.24024057077E+03  0.14631874640E+04  0.50400001928E-02 0.  1.
</event>
<event>
 5   0  0.3885904E-07  0.2896970E+04  0.7818609E-02  0.8273780E-01
       -1   -1    0    0    0  501  0.00000000000E+00  0.00000000000E+00  0.15185710403E+04  0.15185710403E+04  0.50400001928E-02 0.  1.
        1   -1    0    0  501    0  0.00000000000E+00  0.00000000000E+00 -0.13816333002E+04  0.13816333002E+04  0.50400001928E-02 0. -1.
    10030    2    1    2    0    0  0.00000000000E+00  0.00000000000E+00  0.13693774007E+03  0.29002043405E+04  0.28969696705E+04 0.  0.
        2    1    3    3  502    0 -0.46442958137E+03  0.97769489419E+03  0.10321059355E+04  0.14956018201E+04  0.25500000920E-02 0.  1.
       -2    1    3    3    0  502  0.46442958137E+03 -0.97769489419E+03 -0.89516819542E+03  0.14046025204E+04  0.25500000920E-02 0. -1.
</event>
<event>
 5   0  0.1063979E-06  0.2899078E+04  0.7818609E-02  0.8273152E-01
       -2   -1    0    0    0  501  0.00000000000E+00  0.00000000000E+00  0.13892891527E+04  0.13892891527E+04  0.25500000920E-02 0. -1.
        2   -1    0    0  501    0  0.00000000000E+00  0.00000000000E+00 -0.15124021572E+04  0.15124021572E+04  0.25500000920E-02 0.  1.
    10030    2    1    2    0    0  0.00000000000E+00  0.00000000000E+00 -0.12311300458E+03  0.29016913099E+04  0.28990784132E+04 0.  0.
        1    1    3    3  502    0  0.40718746590E+03 -0.86100011048E+03  0.10321502235E+04  0.14044418488E+04  0.50400001928E-02 0. -1.
       -1    1    3    3    0  502 -0.40718746590E+03  0.86100011048E+03 -0.11552632281E+04  0.14972494611E+04  0.50400001928E-02 0.  1.
</event>
<event>
 5   0  0.3786210E-07  0.2898939E+04  0.7818609E-02  0.8273193E-01
        1   -1    0    0  501    0  0.00000000000E+00  0.00000000000E+00  0.15726940201E+04  0.15726940201E+04  0.50400001928E-02 0. -1.
       -1   -1    0    0    0  501  0.00000000000E+00  0.00000000000E+00 -0.13358999709E+04  0.13358999709E+04  0.50400001928E-02 0.  1.
    10030    2    1    2    0    0  0.00000000000E+00  0.00000000000E+00  0.23679404913E+03  0.29085939910E+04  0.28989390443E+04 0.  0.
        5    1    3    3  502    0  0.68694544483E+03 -0.12436431864E+04  0.40640249504E+03  0.14777440568E+04  0.46999998093E+01 0.  1.
       -5    1    3    3    0  502 -0.68694544483E+03  0.12436431864E+04 -0.16960844591E+03  0.14308499342E+04  0.46999998093E+01 0. -1.
</event>
<event>
 5   0  0.3769563E-07  0.2900820E+04  0.7818609E-02  0.8272633E-01
        1   -1    0    0  501    0  0.00000000000E+00  0.00000000000E+00  0.24973897604E+04  0.24973897604E+04  0.50400001928E-02 0. -1.
       -1   -1    0    0    0  501  0.00000000000E+00  0.00000000000E+00 -0.84235529284E+03  0.84235529285E+03  0.50400001928E-02 0.  1.
    10030    2    1    2    0    0  0.00000000000E+00  0.00000000000E+00  0.16550344676E+04  0.33397450533E+04  0.29008202171E+04 0.  0.
        3    1    3    3  502    0 -0.11693197591E+04 -0.99807560000E+01 -0.16038585912E+03  0.11803101070E+04  0.10100000352E+00 0.  1.
       -3    1    3    3    0  502  0.11693197591E+04  0.99807560000E+01  0.18154203267E+04  0.21594349463E+04  0.10100000352E+00 0. -1.
</event>
<event>
 5   0  0.1006893E-06  0.2907453E+04  0.7818609E-02  0.8270664E-01
       -2   -1    0    0    0  501  0.00000000000E+00  0.00000000000E+00  0.12112938212E+04  0.12112938212E+04  0.25500000920E-02 0. -1.
        2   -1    0    0  501    0  0.00000000000E+00  0.00000000000E+00 -0.17446802541E+04  0.17446802541E+04  0.25500000920E-02 0.  1.
    10030    2    1    2    0    0  0.00000000000E+00  0.00000000000E+00 -0.53338643291E+03  0.29559740753E+04  0.29074527764E+04 0.  0.
        4    1    3    3  502    0 -0.24805753321E+03  0.81737659696E+03 -0.14626240388E+04  0.16937850315E+04  0.12699999809E+01 0.  1.
       -4    1    3    3    0  502  0.24805753321E+03 -0.81737659696E+03  0.92923760592E+03  0.12621890438E+04  0.12699999809E+01 0. -1.
</event>
<event>
 5   0  0.3638028E-07  0.2900475E+04  0.7818609E-02  0.8272736E-01
       -1   -1    0    0    0  501  0.00000000000E+00  0.00000000000E+00  0.12717697065E+04  0.12717697065E+04  0.50400001928E-02 0.  1.
        1   -1    0    0  501    0  0.00000000000E+00  0.00000000000E+00 -0.16537498107E+04  0.16537498107E+04  0.50400001928E-02 0. -1.
    10030    2    1    2    0    0  0.00000000000E+00  0.00000000000E+00 -0.38198010427E+03  0.29255195172E+04  0.29004750724E+04 0.  0.
        4    1    3    3  502    0  0.53893785357E+02  0.71351589565E+03  0.10813207702E+04  0.12966362999E+04  0.12699999809E+01 0.  1.
       -4    1    3    3    0  502 -0.53893785357E+02 -0.71351589565E+03 -0.14633008744E+04  0.16288832173E+04  0.12699999809E+01 0. -1.
</event>
<event>
 5   0  0.9950999E-07  0.2902128E+04  0.7818609E-02  0.8272245E-01
       -2   -1    0    0    0  501  0.00000000000E+00  0.00000000000E+00  0.98920639199E+03  0.98920639200E+03  0.25500000920E-02 0. -1.
        2   -1    0    0  501    0  0.00000000000E+00  0.00000000000E+00 -0.21285613563E+04  0.21285613563E+04  0.25500000920E-02 0.  1.
    10030    2    1    2    0    0  0.00000000000E+00  0.00000000000E+00 -0.11393549643E+04  0.31177677483E+04  0.29021278396E+04 0.  0.
        3    1    3    3  502    0  0.87176872370E+03 -0.89795305256E+03 -0.13586045065E+04  0.18471888392E+04  0.10100000352E+00 0.  1.
       -3    1    3    3    0  502 -0.87176872370E+03  0.89795305256E+03  0.21924954227E+03  0.12705789091E+04  0.10100000352E+00 0. -1.
</event>
<event>
 5   0  0.9950999E-07  0.2901644E+04  0.7818609E-02  0.8272389E-01
        2   -1    0    0  501    0  0.00000000000E+00  0.00000000000E+00  0.11502916366E+04  0.11502916366E+04  0.25500000920E-02 0. -1.
       -2   -1    0    0    0  501  0.00000000000E+00  0.00000000000E+00 -0.18298699114E+04  0.18298699114E+04  0.25500000920E-02 0.  1.
    10030    2    1    2    0    0  0.00000000000E+00  0.00000000000E+00 -0.67957827472E+03  0.29801615480E+04  0.29016437101E+04 0.  0.
        3    1    3    3  502    0  0.14786258208E+02  0.67837122679E+03  0.97728354318E+03  0.11897433710E+04  0.10100000352E+00 0. -1.
       -3    1    3    3    0  502 -0.14786258208E+02 -0.67837122679E+03 -0.16568618179E+04  0.17904181770E+04  0.10100000352E+00 0.  1.
</event>
<event>
 5   0  0.9950999E-07  0.2905562E+04  0.7818609E-02  0.8271225E-01
       -2   -1    0    0    0  501  0.00000000000E+00  0.00000000000E+00  0.13323739126E+04  0.13323739126E+04  0.25500000920E-02 0.  1.
        2   -1    0    0  501    0  0.00000000000E+00  0.00000000000E+00 -0.15840692345E+04  0.15840692345E+04  0.25500000920E-02 0. -1.
    10030    2    1    2    0    0  0.00000000000E+00  0.00000000000E+00 -0.25169532188E+03  0.29164431471E+04  0.29055619242E+04 0.  0.
        3    1    3    3  502    0 -0.10435173535E+04  0.57051515189E+03  0.71163692561E+03  0.13859448508E+04  0.10100000352E+00 0.  1.
       -3    1    3    3    0  502  0.10435173535E+04 -0.57051515189E+03 -0.96333224749E+03  0.15304982962E+04  0.10100000352E+00 0. -1.
</event>
<event>
 5   0  0.3885904E-07  0.2899068E+04  0.7818609E-02  0.8273155E-01
        1   -1    0    0  501    0  0.00000000000E+00  0.00000000000E+00  0.23649880259E+04  0.23649880259E+04  0.50400001928E-02 0.  1.
       -1   -1    0    0    0  501  0.00000000000E+00  0.00000000000E+00 -0.88843956974E+03  0.88843956975E+03  0.50400001928E-02 0. -1.
    10030    2    1    2    0    0  0.00000000000E+00  0.00000000000E+00  0.14765484562E+04  0.32534275957E+04  0.28990680876E+04 0.  0.
        2    1    3    3  502    0  0.14292623590E+04 -0.16190539847E+03  0.93947858775E+03  0.17180291807E+04  0.25500000920E-02 0.  1.
       -2    1    3    3    0  502 -0.14292623590E+04  0.16190539847E+03  0.53706986842E+03  0.15353984149E+04  0.25500000920E-02 0. -1.
</event>
<event>
 5   0  0.1031339E-06  0.2898842E+04  0.7818609E-02  0.8273222E-01
       -2   -1    0    0    0  501  0.00000000000E+00  0.00000000000E+00  0.80164777221E+03  0.80164777222E+03  0.25500000920E-02 0. -1.
        2   -1    0    0  501    0  0.00000000000E+00  0.00000000000E+00 -0.26206291036E+04  0.26206291036E+04  0.25500000920E-02 0.  1.
    10030    2    1    2    0    0  0.00000000000E+00  0.00000000000E+00 -0.18189813313E+04  0.34222768758E+04  0.28988421707E+04 0.  0.
        5    1    3    3  502    0  0.86138065981E+03 -0.10699517773E+04 -0.36332576743E+03  0.14208452238E+04  0.46999998093E+01 0. -1.
       -5    1    3    3    0  502 -0.86138065981E+03  0.10699517773E+04 -0.14556555639E+04  0.20014316520E+04  0.46999998093E+01 0.  1.
</event>
<event>
 5   0  0.1031339E-06  0.2904602E+04  0.7818609E-02  0.8271509E-01
        2   -1    0    0  501    0  0.00000000000E+00  0.00000000000E+00  0.14814285021E+04  0.14814285021E+04  0.25500000920E-02 0.  1.
       -2   -1    0    0    0  501  0.00000000000E+00  0.00000000000E+00 -0.14237465272E+04  0.14237465272E+04  0.25500000920E-02 0. -1.
    10030    2    1    2    0    0  0.00000000000E+00  0.00000000000E+00  0.57681974911E+02  0.29051750293E+04  0.29046023378E+04 0.  0.
        5    1    3    3  502    0 -0.13653138167E+03  0.12820005107E+04  0.69754626511E+03  0.14658645946E+04  0.46999998093E+01 0.  1.
       -5    1    3    3    0  502  0.13653138167E+03 -0.12820005107E+04 -0.63986429020E+03  0.14393104347E+04  0.46999998093E+01 0. -1.
</event>
<event>
 5   0  0.1006893E-06  0.2897114E+04  0.7818609E-02  0.8273737E-01
       -2   -1    0    0    0  501  0.00000000000E+00  0.00000000000E+00  0.12221273459E+04  0.12221273459E+04  0.25500000920E-02 0. -1.
        2   -1    0    0  501    0  0.00000000000E+00  0.00000000000E+00 -0.17169381847E+04  0.17169381847E+04  0.25500000920E-02 0.  1.
    10030    2    1    2    0    0  0.00000000000E+00  0.00000000000E+00 -0.49481083883E+03  0.29390655306E+04  0.28971138098E+04 0.  0.
        4    1    3    3  502    0 -0.19000893958E+03  0.11159036479E+04 -0.11643584116E+04  0.16239077782E+04  0.12699999809E+01 0.  1.
       -4    1    3    3    0  502  0.19000893958E+03 -0.11159036479E+04  0.66954757279E+03  0.13151577524E+04  0.12699999809E+01 0. -1.
</event>
<event>
 5   0  0.1006893E-06  0.2904555E+04  0.7818609E-02  0.8271524E-01
       -2   -1    0    0    0  501  0.00000000000E+00  0.00000000000E+00  0.14459870470E+04  0.14459870470E+04  0.25500000920E-02 0.  1.
        2   -1    0    0  501    0  0.00000000000E+00  0.00000000000E+00 -0.14585953936E+04  0.14585953936E+04  0.25500000920E-02 0. -1.
    10030    2    1    2    0    0  0.00000000000E+00  0.00000000000E+00 -0.12608346580E+02  0.29045824406E+04  0.29045550750E+04 0.  0.
        4    1    3    3  502    0 -0.20847131542E+02  0.13627613314E+04  0.49525352421E+03  0.14501140353E+04  0.12699999809E+01 0.  1.
       -4    1    3    3    0  502  0.20847131542E+02 -0.13627613314E+04 -0.50786187079E+03  0.14544684053E+04  0.12699999809E+01 0. -1.
</event>
<event>
 5   0  0.3885904E-07  0.2908629E+04  0.7818609E-02  0.8270315E-01
        1   -1    0    0  501    0  0.00000000000E+00  0.00000000000E+00  0.14271776081E+04  0.14271776081E+04  0.50400001928E-02 0.  1.
       -1   -1    0    0    0  501  0.00000000000E+00  0.00000000000E+00 -0.14819672935E+04  0.14819672935E+04  0.50400001928E-02 0. -1.
    10030    2    1    2    0    0  0.00000000000E+00  0.00000000000E+00 -0.54789685433E+02  0.29091449017E+04  0.29086289123E+04 0.  0.
        2    1    3    3  502    0  0.48538113701E+03  0.13576521578E+04 -0.21773442913E+03  0.14581572314E+04  0.25500000920E-02 0. -1.
       -2    1    3    3    0  502 -0.48538113701E+03 -0.13576521578E+04  0.16294474370E+03  0.14509876703E+04  0.25500000920E-02 0.  1.
</event>
<event>
 5   0  0.9950999E-07  0.2906808E+04  0.7818609E-02  0.8270855E-01
        2   -1    0    0  501    0  0.00000000000E+00  0.00000000000E+00  0.10086173209E+04  0.10086173209E+04  0.25500000920E-02 0. -1.
       -2   -1    0    0    0  501  0.00000000000E+00  0.00000000000E+00 -0.20943363174E+04  0.20943363174E+04  0.25500000920E-02 0.  1.
    10030    2    1    2    0    0  0.00000000000E+00  0.00000000000E+00 -0.10857189965E+04  0.31029536384E+04  0.29068084805E+04 0.  0.
        3    1    3    3  502    0  0.27556696796E+03  0.31557355820E+03 -0.20284803590E+04  0.20712934127E+04  0.10100000352E+00 0.  1.
       -3    1    3    3    0  502 -0.27556696796E+03 -0.31557355820E+03  0.94276136249E+03  0.10316602257E+04  0.10100000352E+00 0. -1.
</event>
<event>
 5   0  0.3638028E-07  0.2900503E+04  0.7818609E-02  0.8272728E-01
       -1   -1    0    0    0  501  0.00000000000E+00  0.00000000000E+00  0.11768847928E+04  0.11768847928E+04  0.50400001928E-02 0.  1.
        1   -1    0    0  501    0  0.00000000000E+00  0.00000000000E+00 -0.17871162199E+04  0.17871162199E+04  0.50400001928E-02 0. -1.
    10030    2    1    2    0    0  0.00000000000E+00  0.00000000000E+00 -0.61023142714E+03  0.29640010127E+04  0.29005033371E+04 0.  0.
        4    1    3    3  502    0  0.59347511369E+03 -0.25243728495E+03  0.10222786607E+04  0.12087152544E+04  0.12699999809E+01 0.  1.
       -4    1    3    3    0  502 -0.59347511369E+03  0.25243728495E+03 -0.16325100878E+04  0.17552857582E+04  0.12699999809E+01 0. -1.
</event>
<event>
 5   0  0.1063979E-06  0.2901496E+04  0.7818609E-02  0.8272433E-01
        2   -1    0    0  501    0  0.00000000000E+00  0.00000000000E+00  0.24909492935E+04  0.24909492935E+04  0.25500000920E-02 0.  1.
       -2   -1    0    0    0  501  0.00000000000E+00  0.00000000000E+00 -0.84492667134E+03  0.84492667134E+03  0.25500000920E-02 0. -1.
    10030    2    1    2    0    0  0.00000000000E+00  0.00000000000E+00  0.16460226221E+04  0.33358759648E+04  0.29014958177E+04 0.  0.
        1    1    3    3  502    0 -0.54226066446E+03 -0.45583296812E+03  0.22785807185E+04  0.23861601819E+04  0.50400001928E-02 0.  1.
       -1    1    3    3    0  502  0.54226066446E+03  0.45583296812E+03 -0.63255809634E+03  0.94971578292E+03  0.50400001928E-02 0. -1.
</event>
<event>
 5   0  0.9994311E-07  0.2898464E+04  0.7818609E-02  0.8273335E-01
       -2   -1    0    0    0  501  0.00000000000E+00  0.00000000000E+00  0.92071194053E+03  0.92071194054E+03  0.25500000920E-02 0. -1.
        2   -1    0    0  501    0  0.00000000000E+00  0.00000000000E+00 -0.22811411823E+04  0.22811411823E+04  0.25500000920E-02 0.  1.
    10030    2    1    2    0    0  0.00000000000E+00  0.00000000000E+00 -0.13604292418E+04  0.32018531228E+04  0.28984643690E+04 0.  0.
        2    1    3    3  502    0 -0.30247442576E+03 -0.28884337712E+03  0.85259629096E+03  0.94965346844E+03  0.25500000920E-02 0. -1.
       -2    1    3    3    0  502  0.30247442576E+03  0.28884337712E+03 -0.22130255327E+04  0.22521996544E+04  0.25500000920E-02 0.  1.
</event>
<event>
 5   0  0.3638028E-07  0.2898774E+04  0.7818609E-02  0.8273242E-01
       -1   -1    0    0    0  501  0.00000000000E+00  0.00000000000E+00  0.82772159292E+03  0.82772159294E+03  0.50400001928E-02 0. -1.
        1   -1    0    0  501    0  0.00000000000E+00  0.00000000000E+00 -0.25379579979E+04  0.25379579979E+04  0.50400001928E-02 0.  1.
    10030    2    1    2    0    0  0.00000000000E+00  0.00000000000E+00 -0.17102364050E+04  0.33656795908E+04  0.28987739731E+04 0.  0.
        4    1    3    3  502    0 -0.71049716125E+03 -0.59853578351E+03 -0.21468156444E+04  0.23392029250E+04  0.12699999809E+01 0.  1.
       -4    1    3    3    0  502  0.71049716125E+03  0.59853578351E+03  0.43657923945E+03  0.10264766658E+04  0.12699999809E+01 0. -1.
</event>
<event>
 5   0  0.3885904E-07  0.2904940E+04  0.7818609E-02  0.8271409E-01
       -1   -1    0    0    0  501  0.00000000000E+00  0.00000000000E+00  0.83348212938E+03  0.83348212940E+03  0.50400001928E-02 0. -1.
        1   -1    0    0  501    0  0.00000000000E+00  0.00000000000E+00 -0.25311503558E+04  0.25311503558E+04  0.50400001928E-02 0.  1.
    10030    2    1    2    0    0  0.00000000000E+00  0.00000000000E+00 -0.16976682264E+04  0.33646324852E+04  0.29049396471E+04 0.  0.
        2    1    3    3  502    0  0.60890901009E+03 -0.33524481101E+03  0.62833016994E+03  0.93699416665E+03  0.25500000920E-02 0. -1.
       -2    1    3    3    0  502 -0.60890901009E+03  0.33524481101E+03 -0.23259983963E+04  0.24276383185E+04  0.25500000920E-02 0.  1.
</event>
<event>
 5   0  0.1006893E-06  0.2898875E+04  0.7818609E-02  0.8273212E-01
       -2   -1    0    0    0  501  0.00000000000E+00  0.00000000000E+00  0.90641389852E+03  0.90641389853E+03  0.25500000920E-02 0. -1.
        2   -1    0    0  501    0  0.00000000000E+00  0.00000000000E+00 -0.23177804741E+04  0.23177804741E+04  0.25500000920E-02 0.  1.
    10030    2    1    2    0    0  0.00000000000E+00  0.00000000000E+00 -0.14113665756E+04  0.32241943726E+04  0.28988745647E+04 0.  0.
        4    1    3    3  502    0 -0.82730033060E+02  0.62280162852E+03 -0.21584611489E+04  0.22480396507E+04  0.12699999809E+01 0.  1.
       -4    1    3    3    0  502  0.82730033060E+02 -0.62280162852E+03  0.74709457330E+03  0.97615472196E+03  0.12699999809E+01 0. -1.
</event>
<event>
 5   0  0.1006893E-06  0.2897947E+04  0.7818609E-02  0.8273488E-01
       -2   -1    0    0    0  501  0.00000000000E+00  0.00000000000E+00  0.86545409936E+03  0.86545409937E+03  0.25500000920E-02 0. -1.
        2   -1    0    0  501    0  0.00000000000E+00  0.00000000000E+00 -0.24259228883E+04  0.24259228883E+04  0.25500000920E-02 0.  1.
    10030    2    1    2    0    0  0.00000000000E+00  0.00000000000E+00 -0.15604687890E+04  0.32913769877E+04  0.28979474864E+04 0.  0.
        4    1    3    3  502    0  0.75015294887E+03  0.53997893078E+03 -0.20476223291E+04  0.22465674946E+04  0.12699999809E+01 0.  1.
       -4    1    3    3    0  502 -0.75015294887E+03 -0.53997893078E+03  0.48715354009E+03  0.10448094931E+04  0.12699999809E+01 0. -1.
</event>
<event>
 5   0  0.3638028E-07  0.2898904E+04  0.7818609E-02  0.8273204E-01
       -1   -1    0    0    0  501  0.00000000000E+00  0.00000000000E+00  0.20032148730E+04  0.20032148730E+04  0.50400001928E-02 0. -1.
        1   -1    0    0  501    0  0.00000000000E+00  0.00000000000E+00 -0.10487697331E+04  0.10487697332E+04  0.50400001928E-02 0.  1.
    10030    2    1    2    0    0  0.00000000000E+00  0.00000000000E+00  0.95444513985E+03  0.30519846061E+04  0.28989040190E+04 0.  0.
        4    1    3    3  502    0  0.10117458880E+04  0.66968155943E+03  0.13120697274E+04  0.17870735059E+04  0.12699999809E+01 0.  1.
       -4    1    3    3    0  502 -0.10117458880E+04 -0.66968155943E+03 -0.35762458757E+03  0.12649111002E+04  0.12699999809E+01 0. -1.
</event>
<event>
 5   0  0.3885904E-07  0.2908105E+04  0.7818609E-02  0.8270470E-01
        1   -1    0    0  501    0  0.00000000000E+00  0.00000000000E+00  0.23214799411E+04  0.23214799411E+04  0.50400001928E-02 0.  1.
       -1   -1    0    0    0  501  0.00000000000E+00  0.00000000000E+00 -0.91074161835E+03  0.91074161836E+03  0.50400001928E-02 0. -1.
    10030    2    1    2    0    0  0.00000000000E+00  0.00000000000E+00  0.14107383228E+04  0.32322215595E+04  0.29081048114E+04 0.  0.
        2    1    3    3  502    0 -0.40884897648E+03  0.34716988492E+03  0.22075108199E+04  0.22717368762E+04  0.25500000920E-02 0.  1.
       -2    1    3    3    0  502  0.40884897648E+03 -0.34716988492E+03 -0.79677249717E+03  0.96048468328E+03  0.25500000920E-02 0. -1.
</event>
<event>
 5   0  0.1031339E-06  0.2902555E+04  0.7818609E-02  0.8272118E-01
        2   -1    0    0  501    0  0.00000000000E+00  0.00000000000E+00  0.17596449354E+04  0.17596449354E+04  0.25500000920E-02 0. -1.
       -2   -1    0    0    0  501  0.00000000000E+00  0.00000000000E+00 -0.11969498807E+04  0.11969498807E+04  0.25500000920E-02 0.  1.
    10030    2    1    2    0    0  0.00000000000E+00  0.00000000000E+00  0.56269505470E+03  0.29565948161E+04  0.29025552850E+04 0.  0.
        5    1    3    3  502    0 -0.14010154899E+04 -0.96049571302E+02  0.65438257391E+03  0.15492929245E+04  0.46999998093E+01 0. -1.
       -5    1    3    3    0  502  0.14010154899E+04  0.96049571302E+02 -0.91687519204E+02  0.14073018916E+04  0.46999998093E+01 0.  1.
</event>
<event>
 5   0  0.1031339E-06  0.2872897E+04  0.7818609E-02  0.8280987E-01
        2   -1    0    0  501    0  0.00000000000E+00  0.00000000000E+00  0.16247164541E+04  0.16247164541E+04  0.25500000920E-02 0.  1.
       -2   -1    0    0    0  501  0.00000000000E+00  0.00000000000E+00 -0.12699966773E+04  0.12699966773E+04  0.25500000920E-02 0. -1.
    10030    2    1    2    0    0  0.00000000000E+00  0.00000000000E+00  0.35471977679E+03  0.28947131314E+04  0.28728971428E+04 0.  0.
        5    1    3    3  502    0  0.57510571493E+03  0.20573230347E+03 -0.11326243509E+04  0.12868303595E+04  0.46999998093E+01 0. -1.
       -5    1    3    3    0  502 -0.57510571493E+03 -0.20573230347E+03  0.14873441277E+04  0.16078827719E+04  0.46999998093E+01 0.  1.
</event>
<event>
 5   0  0.3786210E-07  0.2899456E+04  0.7818609E-02  0.8273039E-01
        1   -1    0    0  501    0  0.00000000000E+00  0.00000000000E+00  0.18673165472E+04  0.18673165473E+04  0.50400001928E-02 0.  1.
       -1   -1    0    0    0  501  0.00000000000E+00  0.00000000000E+00 -0.11255250581E+04  0.11255250581E+04  0.50400001928E-02 0. -1.
    10030    2    1    2    0    0  0.00000000000E+00  0.00000000000E+00  0.74179148913E+03  0.29928416054E+04  0.28994562010E+04 0.  0.
        5    1    3    3  502    0 -0.36560267690E+03 -0.56807444586E+03 -0.95311584080E+03  0.11682575869E+04  0.46999998093E+01 0. -1.
       -5    1    3    3    0  502  0.36560267690E+03  0.56807444586E+03  0.16949073299E+04  0.18245840185E+04  0.46999998093E+01 0.  1.
</event>
<event>
 5   0  0.9994311E-07  0.2899572E+04  0.7818609E-02  0.8273005E-01
        2   -1    0    0  501    0  0.00000000000E+00  0.00000000000E+00  0.15609418584E+04  0.15609418584E+04  0.25500000920E-02 0.  1.
       -2   -1    0    0    0  501  0.00000000000E+00  0.00000000000E+00 -0.13465452683E+04  0.13465452683E+04  0.25500000920E-02 0. -1.
    10030    2    1    2    0    0  0.00000000000E+00  0.00000000000E+00  0.21439659009E+03  0.29074871267E+04  0.28995716053E+04 0.  0.
        2    1    3    3  502    0  0.88574216823E+01 -0.20098108928E+03 -0.13324812618E+04  0.13475823408E+04  0.25500000920E-02 0. -1.
       -2    1    3    3    0  502 -0.88574216823E+01  0.20098108928E+03  0.15468778519E+04  0.15599047859E+04  0.25500000920E-02 0.  1.
</event>
<event>
 5   0  0.3638028E-07  0.2903152E+04  0.7818609E-02  0.8271940E-01
        1   -1    0    0  501    0  0.00000000000E+00  0.00000000000E+00  0.11508451888E+04  0.11508451888E+04  0.50400001928E-02 0.  1.
       -1   -1    0    0    0  501  0.00000000000E+00  0.00000000000E+00 -0.18308914517E+04  0.18308914517E+04  0.50400001928E-02 0. -1.
    10030    2    1    2    0    0  0.00000000000E+00  0.00000000000E+00 -0.68004626290E+03  0.29817366406E+04  0.29031518173E+04 0.  0.
        4    1    3    3  502    0 -0.18366322595E+03 -0.23552035586E+03 -0.17989919748E+04  0.18236161211E+04  0.12699999809E+01 0. -1.
       -4    1    3    3    0  502  0.18366322595E+03  0.23552035586E+03  0.11189457119E+04  0.11581205195E+04  0.12699999809E+01 0.  1.
</event>
<event>
 5   0  0.9950999E-07  0.2897447E+04  0.7818609E-02  0.8273637E-01
        2   -1    0    0  501    0  0.00000000000E+00  0.00000000000E+00  0.23792790695E+04  0.23792790695E+04  0.25500000920E-02 0.  1.
       -2   -1    0    0    0  501  0.00000000000E+00  0.00000000000E+00 -0.88211594597E+03  0.88211594598E+03  0.25500000920E-02 0. -1.
    10030    2    1    2    0    0  0.00000000000E+00  0.00000000000E+00  0.14971631235E+04  0.32613950155E+04  0.28974471572E+04 0.  0.
        3    1    3    3  502    0  0.11813978489E+04 -0.15148829783E+03  0.16768858630E+04  0.20568412164E+04  0.10100000352E+00 0.  1.
       -3    1    3    3    0  502 -0.11813978489E+04  0.15148829783E+03 -0.17972273947E+03  0.12045537991E+04  0.10100000352E+00 0. -1.
</event>
<event>
 5   0  0.1031339E-06  0.2899024E+04  0.7818609E-02  0.8273168E-01
        2   -1    0    0  501    0  0.00000000000E+00  0.00000000000E+00  0.15718899702E+04  0.15718899703E+04  0.25500000920E-02 0.  1.
       -2   -1    0    0    0  501  0.00000000000E+00  0.00000000000E+00 -0.13366613302E+04  0.13366613302E+04  0.25500000920E-02 0. -1.
    10030    2    1    2    0    0  0.00000000000E+00  0.00000000000E+00  0.23522864004E+03  0.29085513005E+04  0.28990236554E+04 0.  0.
        5    1    3    3  502    0  0.57107409849E+03  0.80938138760E+03  0.11793164390E+04  0.15401406462E+04  0.46999998093E+01 0.  1.
       -5    1    3    3    0  502 -0.57107409849E+03 -0.80938138760E+03 -0.94408779901E+03  0.13684106543E+04  0.46999998093E+01 0. -1.
</event>
<event>
 5   0  0.9994311E-07  0.2900819E+04  0.7818609E-02  0.8272634E-01
        2   -1    0    0  501    0  0.00000000000E+00  0.00000000000E+00  0.24260334762E+04  0.24260334762E+04  0.25500000920E-02 0. -1.
       -2   -1    0    0    0  501  0.00000000000E+00  0.00000000000E+00 -0.86713056295E+03  0.86713056296E+03  0.25500000920E-02 0.  1.
    10030    2    1    2    0    0  0.00000000000E+00  0.00000000000E+00  0.15589029133E+04  0.32931640392E+04  0.29008190388E+04 0.  0.
        2    1    3    3  502    0  0.12983127506E+04 -0.16942142397E+03  0.71060606865E+02  0.13112472029E+04  0.25500000920E-02 0.  1.
       -2    1    3    3    0  502 -0.12983127506E+04  0.16942142397E+03  0.14878423064E+04  0.19819168363E+04  0.25500000920E-02 0. -1.
</event>
<event>
 5   0  0.3769563E-07  0.2884239E+04  0.7818609E-02  0.8277582E-01
       -1   -1    0    0    0  501  0.00000000000E+00  0.00000000000E+00  0.15981963107E+04  0.15981963107E+04  0.50400001928E-02 0. -1.
        1   -1    0    0  501    0  0.00000000000E+00  0.00000000000E+00 -0.13012847946E+04  0.13012847946E+04  0.50400001928E-02 0.  1.
    10030    2    1    2    0    0  0.00000000000E+00  0.00000000000E+00  0.29691151614E+03  0.28994811053E+04  0.28842389345E+04 0.  0.
        3    1    3    3  502    0  0.74970688114E+03 -0.11284415334E+04 -0.34839070086E+03  0.13988626783E+04  0.10100000352E+00 0.  1.
       -3    1    3    3    0  502 -0.74970688114E+03  0.11284415334E+04  0.64530221700E+03  0.15006184270E+04  0.10100000352E+00 0. -1.
</event>
<event>
 5   0  0.9994311E-07  0.2897204E+04  0.7818609E-02  0.8273710E-01
        2   -1    0    0  501    0  0.00000000000E+00  0.00000000000E+00  0.14632307248E+04  0.14632307248E+04  0.25500000920E-02 0.  1.
       -2   -1    0    0    0  501  0.00000000000E+00  0.00000000000E+00 -0.14341197001E+04  0.14341197001E+04  0.25500000920E-02 0. -1.
    10030    2    1    2    0    0  0.00000000000E+00  0.00000000000E+00  0.29111024703E+02  0.28973504249E+04  0.28972041752E+04 0.  0.
        2    1    3    3  502    0  0.71809346516E+03  0.12546365233E+04 -0.78599486619E+02  0.14477392409E+04  0.25500000920E-02 0. -1.
       -2    1    3    3    0  502 -0.71809346516E+03 -0.12546365233E+04  0.10771051132E+03  0.14496111840E+04  0.25500000920E-02 0.  1.
</event>
<event>
 5   0  0.3786210E-07  0.2913024E+04  0.7818609E-02  0.8269013E-01
       -1   -1    0    0    0  501  0.00000000000E+00  0.00000000000E+00  0.12790185249E+04  0.12790185249E+04  0.50400001928E-02 0. -1.
        1   -1    0    0  501    0  0.00000000000E+00  0.00000000000E+00 -0.16586366721E+04  0.16586366721E+04  0.50400001928E-02 0.  1.
    10030    2    1    2    0    0  0.00000000000E+00  0.00000000000E+00 -0.37961814720E+03  0.29376551970E+04  0.29130238789E+04 0.  0.
        5    1    3    3  502    0  0.70535121154E+03  0.12344029894E+04 -0.50892411220E+03  0.15100652018E+04  0.46999998093E+01 0.  1.
       -5    1    3    3    0  502 -0.70535121154E+03 -0.12344029894E+04  0.12930596500E+03  0.14275899952E+04  0.46999998093E+01 0. -1.
</event>
<event>
 5   0  0.3638028E-07  0.2900536E+04  0.7818609E-02  0.8272718E-01
       -1   -1    0    0    0  501  0.00000000000E+00  0.00000000000E+00  0.12803065818E+04  0.12803065818E+04  0.50400001928E-02 0. -1.
        1   -1    0    0  501    0  0.00000000000E+00  0.00000000000E+00 -0.16427918341E+04  0.16427918341E+04  0.50400001928E-02 0.  1.
    10030    2    1    2    0    0  0.00000000000E+00  0.00000000000E+00 -0.36248525232E+03  0.29230984160E+04  0.29005359490E+04 0.  0.
        4    1    3    3  502    0 -0.86768311956E+03 -0.11613368225E+04 -0.13971072513E+03  0.14563989532E+04  0.12699999809E+01 0.  1.
       -4    1    3    3    0  502  0.86768311956E+03  0.11613368225E+04 -0.22277452719E+03  0.14666994628E+04  0.12699999809E+01 0. -1.
</event>
<event>
 5   0  0.9950999E-07  0.2899937E+04  0.7818609E-02  0.8272896E-01
       -2   -1    0    0    0  501  0.00000000000E+00  0.00000000000E+00  0.84338327169E+03  0.84338327170E+03  0.25500000920E-02 0. -1.
        2   -1    0    0  501    0  0.00000000000E+00  0.00000000000E+00 -0.24928277801E+04  0.24928277801E+04  0.25500000920E-02 0.  1.
    10030    2    1    2    0    0  0.00000000000E+00  0.00000000000E+00 -0.16494445084E+04  0.33362110518E+04  0.28999374124E+04 0.  0.
        3    1    3    3  502    0 -0.60868703006E+03 -0.11686399965E+03  0.68330204341E+03  0.92252847528E+03  0.10100000352E+00 0. -1.
       -3    1    3    3    0  502  0.60868703006E+03  0.11686399965E+03 -0.23327465518E+04  0.24136825765E+04  0.10100000352E+00 0.  1.
</event>
<event>
 5   0  0.3769563E-07  0.2900229E+04  0.7818609E-02  0.8272809E-01
       -1   -1    0    0    0  501  0.00000000000E+00  0.00000000000E+00  0.79058142270E+03  0.79058142272E+03  0.50400001928E-02 0. -1.
        1   -1    0    0  501    0  0.00000000000E+00  0.00000000000E+00 -0.26598558184E+04  0.26598558184E+04  0.50400001928E-02 0.  1.
    10030    2    1    2    0    0  0.00000000000E+00  0.00000000000E+00 -0.18692743957E+04  0.34504372411E+04  0.29002293682E+04 0.  0.
        3    1    3    3  502    0 -0.12404397386E+04 -0.51616562739E+03 -0.28549168060E+03  0.13735440328E+04  0.10100000352E+00 0. -1.
       -3    1    3    3    0  502  0.12404397386E+04  0.51616562739E+03 -0.15837827151E+04  0.20768932083E+04  0.10100000352E+00 0.  1.
</event>
<event>
 5   0  0.3885904E-07  0.2892457E+04  0.7818609E-02  0.8275125E-01
       -1   -1    0    0    0  501  0.00000000000E+00  0.00000000000E+00  0.11547861426E+04  0.11547861427E+04  0.50400001928E-02 0. -1.
        1   -1    0    0  501    0  0.00000000000E+00  0.00000000000E+00 -0.18112243931E+04  0.18112243931E+04  0.50400001928E-02 0.  1.
    10030    2    1    2    0    0  0.00000000000E+00  0.00000000000E+00 -0.65643825048E+03  0.29660105358E+04  0.28924569697E+04 0.  0.
        2    1    3    3  502    0  0.90460232302E+03  0.50072171664E+03  0.70870718863E+03  0.12535124569E+04  0.25500000920E-02 0. -1.
       -2    1    3    3    0  502 -0.90460232302E+03 -0.50072171664E+03 -0.13651454391E+04  0.17124980789E+04  0.25500000920E-02 0.  1.
</event>
<event>
 5   0  0.3885904E-07  0.2901118E+04  0.7818609E-02  0.8272545E-01
       -1   -1    0    0    0  501  0.00000000000E+00  0.00000000000E+00  0.14993436729E+04  0.14993436730E+04  0.50400001928E-02 0. -1.
        1   -1    0    0  501    0  0.00000000000E+00  0.00000000000E+00 -0.14033611840E+04  0.14033611840E+04  0.50400001928E-02 0.  1.
    10030    2    1    2    0    0  0.00000000000E+00  0.00000000000E+00  0.95982488943E+02  0.29027048570E+04  0.29011175172E+04 0.  0.
        2    1    3    3  502    0 -0.10059195621E+03 -0.90532569547E+03 -0.10815140868E+04  0.14140035631E+04  0.25500000920E-02 0.  1.
       -2    1    3    3    0  502  0.10059195621E+03  0.90532569547E+03  0.11774965757E+04  0.14887012939E+04  0.25500000920E-02 0. -1.
</event>
<event>
 5   0  0.1006893E-06  0.2904896E+04  0.7818609E-02  0.8271422E-01
        2   -1    0    0  501    0  0.00000000000E+00  0.00000000000E+00  0.72132436032E+03  0.72132436032E+03  0.25500000920E-02 0.  1.
       -2   -1    0    0    0  501  0.00000000000E+00  0.00000000000E+00 -0.29246266827E+04  0.29246266827E+04  0.25500000920E-02 0. -1.
    10030    2    1    2    0    0  0.00000000000E+00  0.00000000000E+00 -0.22033023224E+04  0.36459510431E+04  0.29048955032E+04 0.  0.
        4    1    3    3  502    0  0.10824469735E+04 -0.22735213601E+03 -0.22832000155E+04  0.25370030287E+04  0.12699999809E+01 0. -1.
       -4    1    3    3    0  502 -0.10824469735E+04  0.22735213601E+03  0.79897693036E+02  0.11089480143E+04  0.12699999809E+01 0.  1.
</event>
<event>
 5   0  0.3770467E-07  0.2945032E+04  0.7818609E-02  0.8259604E-01
        1   -1    0    0  501    0  0.00000000000E+00  0.00000000000E+00  0.17571475708E+04  0.17571475708E+04  0.50400001928E-02 0.  1.
       -1   -1    0    0    0  501  0.00000000000E+00  0.00000000000E+00 -0.12339902131E+04  0.12339902131E+04  0.50400001928E-02 0. -1.
    10030    2    1    2    0    0  0.00000000000E+00  0.00000000000E+00  0.52315735765E+03  0.29911377839E+04  0.29450316843E+04 0.  0.
        1    1    3    3  502    0  0.12033038705E+04  0.19882123929E+03  0.10996224208E+04  0.16421448043E+04  0.50400001928E-02 0.  1.
       -1    1    3    3    0  502 -0.12033038705E+04 -0.19882123929E+03 -0.57646506319E+03  0.13489929796E+04  0.50400001928E-02 0. -1.
</event>
<event>
 5   0  0.3770467E-07  0.2900670E+04  0.7818609E-02  0.8272678E-01
       -1   -1    0    0    0  501  0.00000000000E+00  0.00000000000E+00  0.13876239261E+04  0.13876239261E+04  0.50400001928E-02 0. -1.
        1   -1    0    0  501    0  0.00000000000E+00  0.00000000000E+00 -0.15158803410E+04  0.15158803410E+04  0.50400001928E-02 0.  1.
    10030    2    1    2    0    0  0.00000000000E+00  0.00000000000E+00 -0.12825641489E+03  0.29035042672E+04  0.29006701504E+04 0.  0.
        1    1    3    3  502    0 -0.68953281131E+03 -0.20031942309E+03  0.11972174583E+04  0.13960347459E+04  0.50400001928E-02 0. -1.
       -1    1    3    3    0  502  0.68953281131E+03  0.20031942309E+03 -0.13254738732E+04  0.15074695213E+04  0.50400001928E-02 0.  1.
</event>
<event>
 5   0  0.1031339E-06  0.2889459E+04  0.7818609E-02  0.8276021E-01
       -2   -1    0    0    0  501  0.00000000000E+00  0.00000000000E+00  0.99899214781E+03  0.99899214781E+03  0.25500000920E-02 0.  1.
        2   -1    0    0  501    0  0.00000000000E+00  0.00000000000E+00 -0.20893485651E+04  0.20893485651E+04  0.25500000920E-02 0. -1.
    10030    2    1    2    0    0  0.00000000000E+00  0.00000000000E+00 -0.10903564173E+04  0.30883407129E+04  0.28894586417E+04 0.  0.
        5    1    3    3  502    0 -0.61647883580E+03  0.89007340048E+03 -0.15675431747E+04  0.19051221766E+04  0.46999998093E+01 0. -1.
       -5    1    3    3    0  502  0.61647883580E+03 -0.89007340048E+03  0.47718675742E+03  0.11832185363E+04  0.46999998093E+01 0.  1.
</event>
<event>
 5   0  0.1063979E-06  0.2902325E+04  0.7818609E-02  0.8272186E-01
        2   -1    0    0  501    0  0.00000000000E+00  0.00000000000E+00  0.23847278767E+04  0.23847278767E+04  0.25500000920E-02 0.  1.
       -2   -1    0    0    0  501  0.00000000000E+00  0.00000000000E+00 -0.88306607053E+03  0.88306607053E+03  0.25500000920E-02 0. -1.
    10030    2    1    2    0    0  0.00000000000E+00  0.00000000000E+00  0.15016618062E+04  0.32677939473E+04  0.29023247754E+04 0.  0.
        1    1    3    3  502    0  0.76574536075E+03  0.55844080121E+03 -0.48648111641E+03  0.10653102659E+04  0.50400001928E-02 0. -1.
       -1    1    3    3    0  502 -0.76574536075E+03 -0.55844080121E+03  0.19881429226E+04  0.22024836814E+04  0.50400001928E-02 0.  1.
</event>
<event>
 5   0  0.1063979E-06  0.2902536E+04  0.7818609E-02  0.8272123E-01
        2   -1    0    0  501    0  0.00000000000E+00  0.00000000000E+00  0.14166196645E+04  0.14166196645E+04  0.25500000920E-02 0. -1.
       -2   -1    0    0    0  501  0.00000000000E+00  0.00000000000E+00 -0.14867642889E+04  0.14867642890E+04  0.25500000920E-02 0.  1.
    10030    2    1    2    0    0  0.00000000000E+00  0.00000000000E+00 -0.70144624458E+02  0.29033839534E+04  0.29025364964E+04 0.  0.
        1    1    3    3  502    0 -0.15841826747E+03 -0.13597481786E+04  0.44690659205E+03  0.14400475543E+04  0.50400001928E-02 0. -1.
       -1    1    3    3    0  502  0.15841826747E+03  0.13597481786E+04 -0.51705121651E+03  0.14633363992E+04  0.50400001928E-02 0.  1.
</event>
<event>
 5   0  0.3769563E-07  0.2901081E+04  0.7818609E-02  0.8272556E-01
        1   -1    0    0  501    0  0.00000000000E+00  0.00000000000E+00  0.13699220547E+04  0.13699220547E+04  0.50400001928E-02 0. -1.
       -1   -1    0    0    0  501  0.00000000000E+00  0.00000000000E+00 -0.15359030567E+04  0.15359030567E+04  0.50400001928E-02 0.  1.
    10030    2    1    2    0    0  0.00000000000E+00  0.00000000000E+00 -0.16598100204E+03  0.29058251114E+04  0.29010808133E+04 0.  0.
        3    1    3    3  502    0 -0.15012705076E+03  0.25633872463E+03  0.13391270548E+04  0.13716810680E+04  0.10100000352E+00 0. -1.
       -3    1    3    3    0  502  0.15012705076E+03 -0.25633872463E+03 -0.15051080568E+04  0.15341440435E+04  0.10100000352E+00 0.  1.
</event>
<event>
 5   0  0.1031339E-06  0.2894420E+04  0.7818609E-02  0.8274540E-01
        2   -1    0    0  501    0  0.00000000000E+00  0.00000000000E+00  0.19634521050E+04  0.19634521050E+04  0.25500000920E-02 0. -1.
       -2   -1    0    0    0  501  0.00000000000E+00  0.00000000000E+00 -0.10667012293E+04  0.10667012293E+04  0.25500000920E-02 0.  1.
    10030    2    1    2    0    0  0.00000000000E+00  0.00000000000E+00  0.89675087578E+03  0.30301533343E+04  0.28944199931E+04 0.  0.
        5    1    3    3  502    0  0.86663394033E+03  0.11193435684E+04  0.76315892912E+03  0.16082344517E+04  0.46999998093E+01 0. -1.
       -5    1    3    3    0  502 -0.86663394033E+03 -0.11193435684E+04  0.13359194666E+03  0.14219188826E+04  0.46999998093E+01 0.  1.
</event>
<event>
 5   0  0.9994311E-07  0.2898747E+04  0.7818609E-02  0.8273250E-01
        2   -1    0    0  501    0  0.00000000000E+00  0.00000000000E+00  0.16202598141E+04  0.16202598141E+04  0.25500000920E-02 0.  1.
       -2   -1    0    0    0  501  0.00000000000E+00  0.00000000000E+00 -0.12965102244E+04  0.12965102244E+04  0.25500000920E-02 0. -1.
    10030    2    1    2    0    0  0.00000000000E+00  0.00000000000E+00  0.32374958965E+03  0.29167700385E+04  0.28987469122E+04 0.  0.
        2    1    3    3  502    0 -0.12758635203E+03  0.11842402095E+04  0.99283034816E+03  0.15506176999E+04  0.25500000920E-02 0.  1.
       -2    1    3    3    0  502  0.12758635203E+03 -0.11842402095E+04 -0.66908075850E+03  0.13661523386E+04  0.25500000920E-02 0. -1.
</event>
<event>
 5   0  0.3786210E-07  0.2914395E+04  0.7818609E-02  0.8268607E-01
        1   -1    0    0  501    0  0.00000000000E+00  0.00000000000E+00  0.15862208638E+04  0.15862208638E+04  0.50400001928E-02 0.  1.
       -1   -1    0    0    0  501  0.00000000000E+00  0.00000000000E+00 -0.13386691430E+04  0.13386691430E+04  0.50400001928E-02 0. -1.
    10030    2    1    2    0    0  0.00000000000E+00  0.00000000000E+00  0.24755172081E+03  0.29248900068E+04  0.29143952542E+04 0.  0.
        5    1    3    3  502    0  0.76538750802E+03 -0.11190299716E+04 -0.41233565974E+03  0.14170705350E+04  0.46999998093E+01 0. -1.
       -5    1    3    3    0  502 -0.76538750802E+03  0.11190299716E+04  0.65988738055E+03  0.15078194719E+04  0.46999998093E+01 0.  1.
</event>
<event>
 5   0  0.1063979E-06  0.2900837E+04  0.7818609E-02  0.8272628E-01
       -2   -1    0    0    0  501  0.00000000000E+00  0.00000000000E+00  0.97921086123E+03  0.97921086123E+03  0.25500000920E-02 0.  1.
        2   -1    0    0  501    0  0.00000000000E+00  0.00000000000E+00 -0.21483769057E+04  0.21483769057E+04  0.25500000920E-02 0. -1.
    10030    2    1    2    0    0  0.00000000000E+00  0.00000000000E+00 -0.11691660445E+04  0.31275877670E+04  0.29008371206E+04 0.  0.
        1    1    3    3  502    0 -0.12608216281E+03  0.55981178966E+03 -0.20207844642E+04  0.21006798429E+04  0.50400001928E-02 0. -1.
       -1    1    3    3    0  502  0.12608216281E+03 -0.55981178966E+03  0.85161841972E+03  0.10269079240E+04  0.50400001928E-02 0.  1.
</event>
<event>
 5   0  0.1006893E-06  0.2901255E+04  0.7818609E-02  0.8272504E-01
       -2   -1    0    0    0  501  0.00000000000E+00  0.00000000000E+00  0.15561491924E+04  0.15561491924E+04  0.25500000920E-02 0. -1.
        2   -1    0    0  501    0  0.00000000000E+00  0.00000000000E+00 -0.13522614987E+04  0.13522614987E+04  0.25500000920E-02 0.  1.
    10030    2    1    2    0    0  0.00000000000E+00  0.00000000000E+00  0.20388769370E+03  0.29084106911E+04  0.29012553415E+04 0.  0.
        4    1    3    3  502    0  0.11597082486E+04 -0.10640744080E+02 -0.77157342598E+03  0.13929693507E+04  0.12699999809E+01 0. -1.
       -4    1    3    3    0  502 -0.11597082486E+04  0.10640744080E+02  0.97546111968E+03  0.15154413404E+04  0.12699999809E+01 0.  1.
</event>
<event>
 5   0  0.1063979E-06  0.2896926E+04  0.7818609E-02  0.8273793E-01
       -2   -1    0    0    0  501  0.00000000000E+00  0.00000000000E+00  0.87575079187E+03  0.87575079187E+03  0.25500000920E-02 0. -1.
        2   -1    0    0  501    0  0.00000000000E+00  0.00000000000E+00 -0.23957102212E+04  0.23957102212E+04  0.25500000920E-02 0.  1.
    10030    2    1    2    0    0  0.00000000000E+00  0.00000000000E+00 -0.15199594294E+04  0.32714610131E+04  0.28969260421E+04 0.  0.
        1    1    3    3  502    0 -0.63492616620E+03 -0.12626535253E+04 -0.11181968986E+04  0.18021624415E+04  0.50400001928E-02 0.  1.
       -1    1    3    3    0  502  0.63492616620E+03  0.12626535253E+04 -0.40176253074E+03  0.14692985716E+04  0.50400001928E-02 0. -1.
</event>
<event>
 5   0  0.9994311E-07  0.2896402E+04  0.7818609E-02  0.8273949E-01
       -2   -1    0    0    0  501  0.00000000000E+00  0.00000000000E+00  0.14256497432E+04  0.14256497432E+04  0.25500000920E-02 0.  1.
        2   -1    0    0  501    0  0.00000000000E+00  0.00000000000E+00 -0.14711086635E+04  0.14711086635E+04  0.25500000920E-02 0. -1.
    10030    2    1    2    0    0  0.00000000000E+00  0.00000000000E+00 -0.45458920337E+02  0.28967584067E+04  0.28964016906E+04 0.  0.
        2    1    3    3  502    0  0.34242815856E+03 -0.13642055933E+04  0.32223582846E+03  0.14429656523E+04  0.25500000920E-02 0.  1.
       -2    1    3    3    0  502 -0.34242815856E+03  0.13642055933E+04 -0.36769474879E+03  0.14537927544E+04  0.25500000920E-02 0. -1.
</event>
<event>
 5   0  0.3885904E-07  0.2898832E+04  0.7818609E-02  0.8273225E-01
        1   -1    0    0  501    0  0.00000000000E+00  0.00000000000E+00  0.23725037909E+04  0.23725037909E+04  0.50400001928E-02 0. -1.
       -1   -1    0    0    0  501  0.00000000000E+00  0.00000000000E+00 -0.88548062900E+03  0.88548062901E+03  0.50400001928E-02 0.  1.
    10030    2    1    2    0    0  0.00000000000E+00  0.00000000000E+00  0.14870231619E+04  0.32579844199E+04  0.28988315916E+04 0.  0.
        2    1    3    3  502    0  0.43945241997E+03 -0.12233877507E+04  0.14640419347E+04  0.19578597510E+04  0.25500000920E-02 0. -1.
       -2    1    3    3    0  502 -0.43945241997E+03  0.12233877507E+04  0.22981227170E+02  0.13001246689E+04  0.25500000920E-02 0.  1.
</event>
<event>
 5   0  0.3885904E-07  0.2915509E+04  0.7818609E-02  0.8268278E-01
       -1   -1    0    0    0  501  0.00000000000E+00  0.00000000000E+00  0.10359563746E+04  0.10359563746E+04  0.50400001928E-02 0.  1.
        1   -1    0    0  501    0  0.00000000000E+00  0.00000000000E+00 -0.20512913899E+04  0.20512913899E+04  0.50400001928E-02 0. -1.
    10030    2    1    2    0    0  0.00000000000E+00  0.00000000000E+00 -0.10153350153E+04  0.30872477645E+04  0.29155091436E+04 0.  0.
        2    1    3    3  502    0  0.42399108488E+03 -0.13671017206E+04 -0.80018771796E+03  0.16398280210E+04  0.25500000920E-02 0.  1.
       -2    1    3    3    0  502 -0.42399108488E+03  0.13671017206E+04 -0.21514729734E+03  0.14474197435E+04  0.25500000920E-02 0. -1.
</event>
<event>
 5   0  0.1063979E-06  0.2915797E+04  0.7818609E-02  0.8268193E-01
        2   -1    0    0  501    0  0.00000000000E+00  0.00000000000E+00  0.93501137971E+03  0.93501137971E+03  0.25500000920E-02 0. -1.
       -2   -1    0    0    0  501  0.00000000000E+00  0.00000000000E+00 -0.22731999201E+04  0.22731999201E+04  0.25500000920E-02 0.  1.
    10030    2    1    2    0    0  0.00000000000E+00  0.00000000000E+00 -0.13381885403E+04  0.32082112998E+04  0.29157968335E+04 0.  0.
        1    1    3    3  502    0  0.61376361816E+03  0.12089254235E+04 -0.12588121445E+04  0.18500849909E+04  0.50400001928E-02 0.  1.
       -1    1    3    3    0  502 -0.61376361816E+03 -0.12089254235E+04 -0.79376395812E+02  0.13581263088E+04  0.50400001928E-02 0. -1.
</event>
<event>
 5   0  0.3770467E-07  0.2900382E+04  0.7818609E-02  0.8272764E-01
        1   -1    0    0  501    0  0.00000000000E+00  0.00000000000E+00  0.10784632524E+04  0.10784632524E+04  0.50400001928E-02 0.  1.
       -1   -1    0    0    0  501  0.00000000000E+00  0.00000000000E+00 -0.19500463252E+04  0.19500463252E+04  0.50400001928E-02 0. -1.
    10030    2    1    2    0    0  0.00000000000E+00  0.00000000000E+00 -0.87158307280E+03  0.30285095777E+04  0.29003815627E+04 0.  0.
        1    1    3    3  502    0 -0.11410271735E+04  0.32894903900E+03  0.43338897598E+03  0.12641109467E+04  0.50400001928E-02 0.  1.
       -1    1    3    3    0  502  0.11410271735E+04 -0.32894903900E+03 -0.13049720488E+04  0.17643986310E+04  0.50400001928E-02 0. -1.
</event>
<event>
 5   0  0.3786210E-07  0.2899265E+04  0.7818609E-02  0.8273096E-01
        1   -1    0    0  501    0  0.00000000000E+00  0.00000000000E+00  0.15527638093E+04  0.15527638093E+04  0.50400001928E-02 0. -1.
       -1   -1    0    0    0  501  0.00000000000E+00  0.00000000000E+00 -0.13533512326E+04  0.13533512326E+04  0.50400001928E-02 0.  1.
    10030    2    1    2    0    0  0.00000000000E+00  0.00000000000E+00  0.19941257675E+03  0.29061150419E+04  0.28992652968E+04 0.  0.
        5    1    3    3  502    0 -0.14761355568E+03 -0.14096243893E+04 -0.20528555796E+03  0.14321295091E+04  0.46999998093E+01 0.  1.
       -5    1    3    3    0  502  0.14761355568E+03  0.14096243893E+04  0.40469813470E+03  0.14739855328E+04  0.46999998093E+01 0. -1.
</event>
<event>
 5   0  0.1063979E-06  0.2901835E+04  0.7818609E-02  0.8272332E-01
       -2   -1    0    0    0  501  0.00000000000E+00  0.00000000000E+00  0.88660411639E+03  0.88660411639E+03  0.25500000920E-02 0. -1.
        2   -1    0    0  501    0  0.00000000000E+00  0.00000000000E+00 -0.23744094365E+04  0.23744094365E+04  0.25500000920E-02 0.  1.
    10030    2    1    2    0    0  0.00000000000E+00  0.00000000000E+00 -0.14878053201E+04  0.32610135529E+04  0.29018347164E+04 0.  0.
        1    1    3    3  502    0 -0.12635867395E+04 -0.20231846042E+03  0.24531192561E+02  0.12799163985E+04  0.50400001928E-02 0. -1.
       -1    1    3    3    0  502  0.12635867395E+04  0.20231846042E+03 -0.15123365127E+04  0.19810971544E+04  0.50400001928E-02 0.  1.
</event>
<event>
 5   0  0.3638028E-07  0.2842829E+04  0.7818609E-02  0.8290094E-01
       -1   -1    0    0    0  501  0.00000000000E+00  0.00000000000E+00  0.15736418645E+04  0.15736418646E+04  0.50400001928E-02 0.  1.
        1   -1    0    0  501    0  0.00000000000E+00  0.00000000000E+00 -0.12839129485E+04  0.12839129485E+04  0.50400001928E-02 0. -1.
    10030    2    1    2    0    0  0.00000000000E+00  0.00000000000E+00  0.28972891608E+03  0.28575548130E+04  0.28428289897E+04 0.  0.
        4    1    3    3  502    0 -0.30760383613E+03  0.69528301459E+03 -0.10623474869E+04  0.13063775818E+04  0.12699999809E+01 0. -1.
       -4    1    3    3    0  502  0.30760383613E+03 -0.69528301459E+03  0.13520764030E+04  0.15511772312E+04  0.12699999809E+01 0.  1.
</event>
<event>
 5   0  0.9994311E-07  0.2899824E+04  0.7818609E-02  0.8272930E-01
        2   -1    0    0  501    0  0.00000000000E+00  0.00000000000E+00  0.24811002532E+04  0.24811002532E+04  0.25500000920E-02 0. -1.
       -2   -1    0    0    0  501  0.00000000000E+00  0.00000000000E+00 -0.84730342776E+03  0.84730342776E+03  0.25500000920E-02 0.  1.
    10030    2    1    2    0    0  0.00000000000E+00  0.00000000000E+00  0.16337968254E+04  0.33284036810E+04  0.28998239596E+04 0.  0.
        2    1    3    3  502    0  0.68553686859E+03 -0.62190985595E+02 -0.64779615616E+03  0.94523456180E+03  0.25500000920E-02 0.  1.
       -2    1    3    3    0  502 -0.68553686859E+03  0.62190985595E+02  0.22815929816E+04  0.23831691192E+04  0.25500000920E-02 0. -1.
</event>
<event>
 5   0  0.3638028E-07  0.2891563E+04  0.7818609E-02  0.8275392E-01
       -1   -1    0    0    0  501  0.00000000000E+00  0.00000000000E+00  0.13299739398E+04  0.13299739399E+04  0.50400001928E-02 0.  1.
        1   -1    0    0  501    0  0.00000000000E+00  0.00000000000E+00 -0.15716729284E+04  0.15716729284E+04  0.50400001928E-02 0. -1.
    10030    2    1    2    0    0  0.00000000000E+00  0.00000000000E+00 -0.24169898853E+03  0.29016468682E+04  0.28915629246E+04 0.  0.
        4    1    3    3  502    0  0.11000604498E+04 -0.15677296921E+03 -0.10490463797E+04  0.15281396130E+04  0.12699999809E+01 0. -1.
       -4    1    3    3    0  502 -0.11000604498E+04  0.15677296921E+03  0.80734739120E+03  0.13735072552E+04  0.12699999809E+01 0.  1.
</event>
<event>
 5   0  0.3770467E-07  0.2912808E+04  0.7818609E-02  0.8269077E-01
        1   -1    0    0  501    0  0.00000000000E+00  0.00000000000E+00  0.16147954213E+04  0.16147954213E+04  0.50400001928E-02 0.  1.
       -1   -1    0    0    0  501  0.00000000000E+00  0.00000000000E+00 -0.13135484100E+04  0.13135484100E+04  0.50400001928E-02 0. -1.
    10030    2    1    2    0    0  0.00000000000E+00  0.00000000000E+00  0.30124701131E+03  0.29283438314E+04  0.29128075516E+04 0.  0.
        1    1    3    3  502    0  0.22937026105E+03 -0.56653521723E+03 -0.11783726529E+04  0.13274543224E+04  0.50400001928E-02 0. -1.
       -1    1    3    3    0  502 -0.22937026105E+03  0.56653521723E+03  0.14796196642E+04  0.16008895089E+04  0.50400001928E-02 0.  1.
</event>
<event>
 5   0  0.1031339E-06  0.2901274E+04  0.7818609E-02  0.8272498E-01
        2   -1    0    0  501    0  0.00000000000E+00  0.00000000000E+00  0.15219168521E+04  0.15219168521E+04  0.25500000920E-02 0. -1.
       -2   -1    0    0    0  501  0.00000000000E+00  0.00000000000E+00 -0.13826959544E+04  0.13826959544E+04  0.25500000920E-02 0.  1.
    10030    2    1    2    0    0  0.00000000000E+00  0.00000000000E+00  0.13922089771E+03  0.29046128065E+04  0.29012743919E+04 0.  0.
        5    1    3    3  502    0  0.92843860186E+03 -0.92254510036E+03  0.69582077845E+03  0.14823212693E+04  0.46999998093E+01 0. -1.
       -5    1    3    3    0  502 -0.92843860186E+03  0.92254510036E+03 -0.55659988074E+03  0.14222915372E+04  0.46999998093E+01 0.  1.
</event>
<event>
 5   0  0.3769563E-07  0.2898522E+04  0.7818609E-02  0.8273317E-01
        1   -1    0    0  501    0  0.00000000000E+00  0.00000000000E+00  0.21193414742E+04  0.21193414742E+04  0.50400001928E-02 0.  1.
       -1   -1    0    0    0  501  0.00000000000E+00  0.00000000000E+00 -0.99104218567E+03  0.99104218568E+03  0.50400001928E-02 0. -1.
    10030    2    1    2    0    0  0.00000000000E+00  0.00000000000E+00  0.11282992885E+04  0.31103836599E+04  0.28985215588E+04 0.  0.
        3    1    3    3  502    0  0.50353615961E+03 -0.86599990182E+02  0.20194905101E+04  0.20831202925E+04  0.10100000352E+00 0.  1.
       -3    1    3    3    0  502 -0.50353615961E+03  0.86599990182E+02 -0.89119122159E+03  0.10272633674E+04  0.10100000352E+00 0. -1.
</event>
<event>
 5   0  0.3769563E-07  0.2899291E+04  0.7818609E-02  0.8273088E-01
       -1   -1    0    0    0  501  0.00000000000E+00  0.00000000000E+00  0.12322862928E+04  0.12322862928E+04  0.50400001928E-02 0. -1.
        1   -1    0    0  501    0  0.00000000000E+00  0.00000000000E+00 -0.17053439204E+04  0.17053439204E+04  0.50400001928E-02 0.  1.
    10030    2    1    2    0    0  0.00000000000E+00  0.00000000000E+00 -0.47305762752E+03  0.29376302132E+04  0.28992909048E+04 0.  0.
        3    1    3    3  502    0 -0.73977271221E+03  0.10451832696E+04 -0.92507390890E+03  0.15796941096E+04  0.10100000352E+00 0. -1.
       -3    1    3    3    0  502  0.73977271221E+03 -0.10451832696E+04  0.45201628138E+03  0.13579361036E+04  0.10100000352E+00 0.  1.
</event>
<event>
 5   0  0.9994311E-07  0.2885776E+04  0.7818609E-02  0.8277122E-01
       -2   -1    0    0    0  501  0.00000000000E+00  0.00000000000E+00  0.17231561696E+04  0.17231561696E+04  0.25500000920E-02 0. -1.
        2   -1    0    0  501    0  0.00000000000E+00  0.00000000000E+00 -0.12082046201E+04  0.12082046201E+04  0.25500000920E-02 0.  1.
    10030    2    1    2    0    0  0.00000000000E+00  0.00000000000E+00  0.51495154955E+03  0.29313607897E+04  0.28857756290E+04 0.  0.
        2    1    3    3  502    0  0.70881289578E+03 -0.21716596107E+02 -0.10189718275E+04  0.12414471060E+04  0.25500000920E-02 0.  1.
       -2    1    3    3    0  502 -0.70881289578E+03  0.21716596107E+02  0.15339233770E+04  0.16899136837E+04  0.25500000920E-02 0. -1.
</event>
<event>
 5   0  0.1006893E-06  0.2900688E+04  0.7818609E-02  0.8272673E-01
       -2   -1    0    0    0  501  0.00000000000E+00  0.00000000000E+00  0.26001628292E+04  0.26001628292E+04  0.25500000920E-02 0.  1.
        2   -1    0    0  501    0  0.00000000000E+00  0.00000000000E+00 -0.80898674466E+03  0.80898674466E+03  0.25500000920E-02 0. -1.
    10030    2    1    2    0    0  0.00000000000E+00  0.00000000000E+00  0.17911760845E+04  0.34091495739E+04  0.29006876859E+04 0.  0.
        4    1    3    3  502    0 -0.99052024145E+03  0.79500032648E+03  0.17185763204E+04  0.21369749764E+04  0.12699999809E+01 0.  1.
       -4    1    3    3    0  502  0.99052024145E+03 -0.79500032648E+03  0.72599764152E+02  0.12721745975E+04  0.12699999809E+01 0. -1.
</event>
<event>
 5   0  0.3769563E-07  0.2910320E+04  0.7818609E-02  0.8269813E-01
        1   -1    0    0  501    0  0.00000000000E+00  0.00000000000E+00  0.21787369576E+04  0.21787369576E+04  0.50400001928E-02 0.  1.
       -1   -1    0    0    0  501  0.00000000000E+00  0.00000000000E+00 -0.97188938443E+03  0.97188938444E+03  0.50400001928E-02 0. -1.
    10030    2    1    2    0    0  0.00000000000E+00  0.00000000000E+00  0.12068475732E+04  0.31506263420E+04  0.29103204776E+04 0.  0.
        3    1    3    3  502    0  0.38486739758E+03 -0.93898685032E+02  0.21192353116E+04  0.21559448492E+04  0.10100000352E+00 0.  1.
       -3    1    3    3    0  502 -0.38486739758E+03  0.93898685032E+02 -0.91238773842E+03  0.99468149283E+03  0.10100000352E+00 0. -1.
</event>
<event>
 5   0  0.9994311E-07  0.2900689E+04  0.7818609E-02  0.8272673E-01
        2   -1    0    0  501    0  0.00000000000E+00  0.00000000000E+00  0.18070248496E+04  0.18070248496E+04  0.25500000920E-02 0. -1.
       -2   -1    0    0    0  501  0.00000000000E+00  0.00000000000E+00 -0.11640673951E+04  0.11640673951E+04  0.25500000920E-02 0.  1.
    10030    2    1    2    0    0  0.00000000000E+00  0.00000000000E+00  0.64295745451E+03  0.29710922448E+04  0.29006886835E+04 0.  0.
        2    1    3    3  502    0 -0.47582171179E+03  0.11992424300E+04  0.10000613816E+04  0.16323943991E+04  0.25500000920E-02 0. -1.
       -2    1    3    3    0  502  0.47582171179E+03 -0.11992424300E+04 -0.35710392708E+03  0.13386978457E+04  0.25500000920E-02 0.  1.
</event>
<event>
 5   0  0.1006893E-06  0.2902037E+04  0.7818609E-02  0.8272272E-01
       -2   -1    0    0    0  501  0.00000000000E+00  0.00000000000E+00  0.12365577200E+04  0.12365577200E+04  0.25500000920E-02 0.  1.
        2   -1    0    0  501    0  0.00000000000E+00  0.00000000000E+00 -0.17026737991E+04  0.17026737991E+04  0.25500000920E-02 0. -1.
    10030    2    1    2    0    0  0.00000000000E+00  0.00000000000E+00 -0.46611607908E+03  0.29392315192E+04  0.29020368233E+04 0.  0.
        4    1    3    3  502    0 -0.66328830070E+03 -0.63757069961E+03 -0.13694930735E+04  0.16498365549E+04  0.12699999809E+01 0. -1.
       -4    1    3    3    0  502  0.66328830070E+03  0.63757069961E+03  0.90337699439E+03  0.12893949642E+04  0.12699999809E+01 0.  1.
</event>
<event>
 5   0  0.9950999E-07  0.2905655E+04  0.7818609E-02  0.8271197E-01
       -2   -1    0    0    0  501  0.00000000000E+00  0.00000000000E+00  0.10113397617E+04  0.10113397617E+04  0.25500000920E-02 0.  1.
        2   -1    0    0  501    0  0.00000000000E+00  0.00000000000E+00 -0.20870407053E+04  0.20870407053E+04  0.25500000920E-02 0. -1.
    10030    2    1    2    0    0  0.00000000000E+00  0.00000000000E+00 -0.10757009437E+04  0.30983804670E+04  0.29056546592E+04 0.  0.
        3    1    3    3  502    0  0.78887928636E+03 -0.36064255907E+02 -0.18381917335E+04  0.20006449006E+04  0.10100000352E+00 0. -1.
       -3    1    3    3    0  502 -0.78887928636E+03  0.36064255907E+02  0.76249078985E+03  0.10977355664E+04  0.10100000352E+00 0.  1.
</event>
<event>
 5   0  0.3769563E-07  0.2898640E+04  0.7818609E-02  0.8273282E-01
       -1   -1    0    0    0  501  0.00000000000E+00  0.00000000000E+00  0.12215718655E+04  0.12215718655E+04  0.50400001928E-02 0.  1.
        1   -1    0    0  501    0  0.00000000000E+00  0.00000000000E+00 -0.17195286687E+04  0.17195286688E+04  0.50400001928E-02 0. -1.
    10030    2    1    2    0    0  0.00000000000E+00  0.00000000000E+00 -0.49795680323E+03  0.29411005343E+04  0.28986395731E+04 0.  0.
        3    1    3    3  502    0 -0.11391573448E+04 -0.76653069144E+03 -0.71975683983E+03  0.15502576159E+04  0.10100000352E+00 0. -1.
       -3    1    3    3    0  502  0.11391573448E+04  0.76653069144E+03  0.22180003661E+03  0.13908429183E+04  0.10100000352E+00 0.  1.
</event>
<event>
 5   0  0.9994311E-07  0.2897549E+04  0.7818609E-02  0.8273607E-01
       -2   -1    0    0    0  501  0.00000000000E+00  0.00000000000E+00  0.72666477593E+03  0.72666477593E+03  0.25500000920E-02 0. -1.
        2   -1    0    0  501    0  0.00000000000E+00  0.00000000000E+00 -0.28884677931E+04  0.28884677931E+04  0.25500000920E-02 0.  1.
    10030    2    1    2    0    0  0.00000000000E+00  0.00000000000E+00 -0.21618030172E+04  0.36151325690E+04  0.28975491724E+04 0.  0.
        2    1    3    3  502    0  0.85102654468E+03  0.10438299509E+04 -0.41469671502E+03  0.14091843427E+04  0.25500000920E-02 0. -1.
       -2    1    3    3    0  502 -0.85102654468E+03 -0.10438299509E+04 -0.17471063021E+04  0.22059482263E+04  0.25500000920E-02 0.  1.
</event>
<event>
 5   0  0.3378750E-07  0.2899149E+04  0.7818609E-02  0.8273131E-01
       -3   -1    0    0    0  501  0.00000000000E+00  0.00000000000E+00  0.15655829428E+04  0.15655829460E+04  0.10100000352E+00 0.  1.
        3   -1    0    0  501    0  0.00000000000E+00  0.00000000000E+00 -0.13421617846E+04  0.13421617884E+04  0.10100000352E+00 0. -1.
    10030    2    1    2    0    0  0.00000000000E+00  0.00000000000E+00  0.22342115818E+03  0.29077447344E+04  0.28991485693E+04 0.  0.
        4    1    3    3  502    0  0.29961544761E+03  0.14031385303E+04 -0.95534240542E+02  0.14379483843E+04  0.12699999809E+01 0.  1.
       -4    1    3    3    0  502 -0.29961544761E+03 -0.14031385303E+04  0.31895539872E+03  0.14697963502E+04  0.12699999809E+01 0. -1.
</event>
<event>
 5   0  0.3638028E-07  0.2892064E+04  0.7818609E-02  0.8275242E-01
        1   -1    0    0  501    0  0.00000000000E+00  0.00000000000E+00  0.11612956814E+04  0.11612956814E+04  0.50400001928E-02 0.  1.
       -1   -1    0    0    0  501  0.00000000000E+00  0.00000000000E+00 -0.18005827792E+04  0.18005827792E+04  0.50400001928E-02 0. -1.
    10030    2    1    2    0    0  0.00000000000E+00  0.00000000000E+00 -0.63928709781E+03  0.29618784605E+04  0.28920643184E+04 0.  0.
        4    1    3    3  502    0  0.38510579869E+03  0.12154734494E+04 -0.10182580199E+04  0.16317270575E+04  0.12699999809E+01 0. -1.
       -4    1    3    3    0  502 -0.38510579869E+03 -0.12154734494E+04  0.37897092206E+03  0.13301514030E+04  0.12699999809E+01 0.  1.
</event>
<event>
 5   0  0.9994311E-07  0.2902935E+04  0.7818609E-02  0.8272005E-01
       -2   -1    0    0    0  501  0.00000000000E+00  0.00000000000E+00  0.94729994248E+03  0.94729994248E+03  0.25500000920E-02 0.  1.
        2   -1    0    0  501    0  0.00000000000E+00  0.00000000000E+00 -0.22239604893E+04  0.22239604893E+04  0.25500000920E-02 0. -1.
    10030    2    1    2    0    0  0.00000000000E+00  0.00000000000E+00 -0.12766605468E+04  0.31712604318E+04  0.29029348209E+04 0.  0.
        2    1    3    3  502    0  0.14341329817E+04 -0.19109641389E+03 -0.76527072223E+03  0.16367328819E+04  0.25500000920E-02 0. -1.
       -2    1    3    3    0  502 -0.14341329817E+04  0.19109641389E+03 -0.51138982457E+03  0.15345275498E+04  0.25500000920E-02 0.  1.
</event>
<event>
 5   0  0.3786210E-07  0.2896607E+04  0.7818609E-02  0.8273888E-01
        1   -1    0    0  501    0  0.00000000000E+00  0.00000000000E+00  0.32325939817E+04  0.32325939817E+04  0.50400001928E-02 0.  1.
       -1   -1    0    0    0  501  0.00000000000E+00  0.00000000000E+00 -0.64888523574E+03  0.64888523576E+03  0.50400001928E-02 0. -1.
    10030    2    1    2    0    0  0.00000000000E+00  0.00000000000E+00  0.25837087460E+04  0.38814792175E+04  0.28966066408E+04 0.  0.
        5    1    3    3  502    0 -0.79725392382E+03  0.10856754551E+04  0.20050305804E+04  0.24154657379E+04  0.46999998093E+01 0.  1.
       -5    1    3    3    0  502  0.79725392382E+03 -0.10856754551E+04  0.57867816559E+03  0.14660134795E+04  0.46999998093E+01 0. -1.
</event>
<event>
 5   0  0.3786210E-07  0.2898239E+04  0.7818609E-02  0.8273402E-01
       -1   -1    0    0    0  501  0.00000000000E+00  0.00000000000E+00  0.81616440274E+03  0.81616440275E+03  0.50400001928E-02 0.  1.
        1   -1    0    0  501    0  0.00000000000E+00  0.00000000000E+00 -0.25729465749E+04  0.25729465749E+04  0.50400001928E-02 0. -1.
    10030    2    1    2    0    0  0.00000000000E+00  0.00000000000E+00 -0.17567821722E+04  0.33891109776E+04  0.28982390547E+04 0.  0.
        5    1    3    3  502    0  0.38690726100E+03  0.52459530831E+03 -0.23918220032E+04  0.24790587027E+04  0.46999998093E+01 0. -1.
       -5    1    3    3    0  502 -0.38690726100E+03 -0.52459530831E+03  0.63503983109E+03  0.91005227497E+03  0.46999998093E+01 0.  1.
</event>
<event>
 5   0  0.3769563E-07  0.2898339E+04  0.7818609E-02  0.8273372E-01
       -1   -1    0    0    0  501  0.00000000000E+00  0.00000000000E+00  0.92851693130E+03  0.92851693131E+03  0.50400001928E-02 0. -1.
        1   -1    0    0  501    0  0.00000000000E+00  0.00000000000E+00 -0.22617711486E+04  0.22617711486E+04  0.50400001928E-02 0.  1.
    10030    2    1    2    0    0  0.00000000000E+00  0.00000000000E+00 -0.13332542173E+04  0.31902880799E+04  0.28983393909E+04 0.  0.
        3    1    3    3  502    0  0.33048042134E+03  0.12501134618E+04 -0.13868204910E+04  0.18961202654E+04  0.10100000352E+00 0.  1.
       -3    1    3    3    0  502 -0.33048042134E+03 -0.12501134618E+04  0.53566273779E+02  0.12941678145E+04  0.10100000352E+00 0. -1.
</event>
<event>
 5   0  0.3885904E-07  0.2901424E+04  0.7818609E-02  0.8272454E-01
       -1   -1    0    0    0  501  0.00000000000E+00  0.00000000000E+00  0.10999696159E+04  0.10999696159E+04  0.50400001928E-02 0.  1.
        1   -1    0    0  501    0  0.00000000000E+00  0.00000000000E+00 -0.19132946784E+04  0.19132946784E+04  0.50400001928E-02 0. -1.
    10030    2    1    2    0    0  0.00000000000E+00  0.00000000000E+00 -0.81332506252E+03  0.30132642943E+04  0.29014244864E+04 0.  0.
        2    1    3    3  502    0  0.99587244270E+03 -0.29914474370E+03 -0.14572469237E+04  0.17902005744E+04  0.25500000920E-02 0. -1.
       -2    1    3    3    0  502 -0.99587244270E+03  0.29914474370E+03  0.64392186118E+03  0.12230637200E+04  0.25500000920E-02 0.  1.
</event>
<event>
 5   0  0.1031339E-06  0.2898459E+04  0.7818609E-02  0.8273336E-01
       -2   -1    0    0    0  501  0.00000000000E+00  0.00000000000E+00  0.15896046635E+04  0.15896046635E+04  0.25500000920E-02 0.  1.
        2   -1    0    0  501    0  0.00000000000E+00  0.00000000000E+00 -0.13212504797E+04  0.13212504797E+04  0.25500000920E-02 0. -1.
    10030    2    1    2    0    0  0.00000000000E+00  0.00000000000E+00  0.26835418383E+03  0.29108551432E+04  0.28984588486E+04 0.  0.
        5    1    3    3  502    0  0.69139751043E+03 -0.12565011774E+04 -0.75084199850E+02  0.14361355971E+04  0.46999998093E+01 0. -1.
       -5    1    3    3    0  502 -0.69139751043E+03  0.12565011774E+04  0.34343838368E+03  0.14747195461E+04  0.46999998093E+01 0.  1.
</event>
<event>
 5   0  0.3638028E-07  0.2911833E+04  0.7818609E-02  0.8269366E-01
       -1   -1    0    0    0  501  0.00000000000E+00  0.00000000000E+00  0.10861632191E+04  0.10861632191E+04  0.50400001928E-02 0. -1.
        1   -1    0    0  501    0  0.00000000000E+00  0.00000000000E+00 -0.19515415829E+04  0.19515415829E+04  0.50400001928E-02 0.  1.
    10030    2    1    2    0    0  0.00000000000E+00  0.00000000000E+00 -0.86537836377E+03  0.30377048021E+04  0.29118328853E+04 0.  0.
        4    1    3    3  502    0 -0.31879178353E+03  0.91871409832E+03 -0.15630529157E+04  0.18408693125E+04  0.12699999809E+01 0.  1.
       -4    1    3    3    0  502  0.31879178353E+03 -0.91871409832E+03  0.69767455192E+03  0.11968354895E+04  0.12699999809E+01 0. -1.
</event>
<event>
 5   0  0.3786210E-07  0.2894257E+04  0.7818609E-02  0.8274588E-01
        1   -1    0    0  501    0  0.00000000000E+00  0.00000000000E+00  0.14217818668E+04  0.14217818668E+04  0.50400001928E-02 0.  1.
       -1   -1    0    0    0  501  0.00000000000E+00  0.00000000000E+00 -0.14729268201E+04  0.14729268201E+04  0.50400001928E-02 0. -1.
    10030    2    1    2    0    0  0.00000000000E+00  0.00000000000E+00 -0.51144953263E+02  0.28947086869E+04  0.28942568261E+04 0.  0.
        5    1    3    3  502    0 -0.23034785524E+03 -0.96788224998E+03 -0.10765944608E+04  0.14659242501E+04  0.46999998093E+01 0. -1.
       -5    1    3    3    0  502  0.23034785524E+03  0.96788224998E+03  0.10254495075E+04  0.14287844367E+04  0.46999998093E+01 0.  1.
</event>
<event>
 5   0  0.9994311E-07  0.2901262E+04  0.7818609E-02  0.8272502E-01
        2   -1    0    0  501    0  0.00000000000E+00  0.00000000000E+00  0.19107719942E+04  0.19107719942E+04  0.25500000920E-02 0.  1.
       -2   -1    0    0    0  501  0.00000000000E+00  0.00000000000E+00 -0.11012984619E+04  0.11012984619E+04  0.25500000920E-02 0. -1.
    10030    2    1    2    0    0  0.00000000000E+00  0.00000000000E+00  0.80947353229E+03  0.30120704560E+04  0.29012619724E+04 0.  0.
        2    1    3    3  502    0  0.14446256363E+04  0.87867914591E+02  0.50680894583E+03  0.15334664349E+04  0.25500000920E-02 0.  1.
       -2    1    3    3    0  502 -0.14446256363E+04 -0.87867914591E+02  0.30266458647E+03  0.14786040211E+04  0.25500000920E-02 0. -1.
</event>
<event>
 5   0  0.3885904E-07  0.2897818E+04  0.7818609E-02  0.8273527E-01
       -1   -1    0    0    0  501  0.00000000000E+00  0.00000000000E+00  0.10837935832E+04  0.10837935832E+04  0.50400001928E-02 0.  1.
        1   -1    0    0  501    0  0.00000000000E+00  0.00000000000E+00 -0.19370262726E+04  0.19370262726E+04  0.50400001928E-02 0. -1.
    10030    2    1    2    0    0  0.00000000000E+00  0.00000000000E+00 -0.85323268941E+03  0.30208198558E+04  0.28978175544E+04 0.  0.
        2    1    3    3  502    0  0.66628425929E+03  0.10798393637E+04  0.30261123789E+03  0.13044390851E+04  0.25500000920E-02 0.  1.
       -2    1    3    3    0  502 -0.66628425929E+03 -0.10798393637E+04 -0.11558439273E+04  0.17163807706E+04  0.25500000920E-02 0. -1.
</event>
<event>
 5   0  0.1031339E-06  0.2862094E+04  0.7818609E-02  0.8284246E-01
        2   -1    0    0  501    0  0.00000000000E+00  0.00000000000E+00  0.19431679590E+04  0.19431679590E+04  0.25500000920E-02 0. -1.
       -2   -1    0    0    0  501  0.00000000000E+00  0.00000000000E+00 -0.10538954162E+04  0.10538954162E+04  0.25500000920E-02 0.  1.
    10030    2    1    2    0    0  0.00000000000E+00  0.00000000000E+00  0.88927254277E+03  0.29970633752E+04  0.28620942017E+04 0.  0.
        5    1    3    3  502    0  0.62742503132E+03  0.99282500294E+02  0.17874313233E+04  0.18969586211E+04  0.46999998093E+01 0. -1.
       -5    1    3    3    0  502 -0.62742503132E+03 -0.99282500294E+02 -0.89815878053E+03  0.11001047540E+04  0.46999998093E+01 0.  1.
</event>
<event>
 5   0  0.3770467E-07  0.2897914E+04  0.7818609E-02  0.8273498E-01
        1   -1    0    0  501    0  0.00000000000E+00  0.00000000000E+00  0.15008428622E+04  0.15008428623E+04  0.50400001928E-02 0.  1.
       -1   -1    0    0    0  501  0.00000000000E+00  0.00000000000E+00 -0.13988646563E+04  0.13988646563E+04  0.50400001928E-02 0. -1.
    10030    2    1    2    0    0  0.00000000000E+00  0.00000000000E+00  0.10197820596E+03  0.28997075185E+04  0.28979137562E+04 0.  0.
        1    1    3    3  502    0  0.12196798008E+04 -0.64947305670E+03  0.48719697264E+03  0.14651945120E+04  0.50400001928E-02 0. -1.
       -1    1    3    3    0  502 -0.12196798008E+04  0.64947305670E+03 -0.38521876667E+03  0.14345130066E+04  0.50400001928E-02 0.  1.
</event>
<event>
 5   0  0.9950999E-07  0.2901257E+04  0.7818609E-02  0.8272504E-01
        2   -1    0    0  501    0  0.00000000000E+00  0.00000000000E+00  0.20411316688E+04  0.20411316688E+04  0.25500000920E-02 0. -1.
       -2   -1    0    0    0  501  0.00000000000E+00  0.00000000000E+00 -0.10309589512E+04  0.10309589512E+04  0.25500000920E-02 0.  1.
    10030    2    1    2    0    0  0.00000000000E+00  0.00000000000E+00  0.10101727175E+04  0.30720906200E+04  0.29012569446E+04 0.  0.
        3    1    3    3  502    0  0.10639999295E+04 -0.25963210114E+02  0.15487993314E+04  0.18792416868E+04  0.10100000352E+00 0. -1.
       -3    1    3    3    0  502 -0.10639999295E+04  0.25963210114E+02 -0.53862661384E+03  0.11928489333E+04  0.10100000352E+00 0.  1.
</event>
<event>
 5   0  0.1031339E-06  0.2906438E+04  0.7818609E-02  0.8270965E-01
       -2   -1    0    0    0  501  0.00000000000E+00  0.00000000000E+00  0.67958074911E+03  0.67958074911E+03  0.25500000920E-02 0.  1.
        2   -1    0    0  501    0  0.00000000000E+00  0.00000000000E+00 -0.31075707409E+04  0.31075707409E+04  0.25500000920E-02 0. -1.
    10030    2    1    2    0    0  0.00000000000E+00  0.00000000000E+00 -0.24279899918E+04  0.37871514900E+04  0.29064378555E+04 0.  0.
        5    1    3    3  502    0  0.10077836801E+04  0.96840670436E+03 -0.17325643395E+04  0.22260370103E+04  0.46999998093E+01 0. -1.
       -5    1    3    3    0  502 -0.10077836801E+04 -0.96840670436E+03 -0.69542565232E+03  0.15611144797E+04  0.46999998093E+01 0.  1.
</event>
<event>
 5   0  0.3770467E-07  0.2914824E+04  0.7818609E-02  0.8268481E-01
       -1   -1    0    0    0  501  0.00000000000E+00  0.00000000000E+00  0.86223327677E+03  0.86223327679E+03  0.50400001928E-02 0. -1.
        1   -1    0    0  501    0  0.00000000000E+00  0.00000000000E+00 -0.24634274944E+04  0.24634274944E+04  0.50400001928E-02 0.  1.
    10030    2    1    2    0    0  0.00000000000E+00  0.00000000000E+00 -0.16011942176E+04  0.33256607712E+04  0.29148236040E+04 0.  0.
        1    1    3    3  502    0 -0.11677600757E+04 -0.42322730692E+03 -0.16704633218E+04  0.20816418177E+04  0.50400001928E-02 0.  1.
       -1    1    3    3    0  502  0.11677600757E+04  0.42322730692E+03  0.69269104185E+02  0.12440189535E+04  0.50400001928E-02 0. -1.
</event>
<event>
 5   0  0.9994311E-07  0.2893321E+04  0.7818609E-02  0.8274867E-01
        2   -1    0    0  501    0  0.00000000000E+00  0.00000000000E+00  0.19388523113E+04  0.19388523113E+04  0.25500000920E-02 0.  1.
       -2   -1    0    0    0  501  0.00000000000E+00  0.00000000000E+00 -0.10794153757E+04  0.10794153757E+04  0.25500000920E-02 0. -1.
    10030    2    1    2    0    0  0.00000000000E+00  0.00000000000E+00  0.85943693566E+03  0.30182676870E+04  0.28933212722E+04 0.  0.
        2    1    3    3  502    0  0.12165897721E+04 -0.42866732092E+03  0.11129689485E+04  0.17036860702E+04  0.25500000920E-02 0.  1.
       -2    1    3    3    0  502 -0.12165897721E+04  0.42866732092E+03 -0.25353201287E+03  0.13145816168E+04  0.25500000920E-02 0. -1.
</event>
<event>
 5   0  0.1031339E-06  0.2898879E+04  0.7818609E-02  0.8273211E-01
        2   -1    0    0  501    0  0.00000000000E+00  0.00000000000E+00  0.14970065952E+04  0.14970065952E+04  0.25500000920E-02 0. -1.
       -2   -1    0    0    0  501  0.00000000000E+00  0.00000000000E+00 -0.14033837589E+04  0.14033837589E+04  0.25500000920E-02 0.  1.
    10030    2    1    2    0    0  0.00000000000E+00  0.00000000000E+00  0.93622836339E+02  0.29003903541E+04  0.28988789162E+04 0.  0.
        5    1    3    3  502    0 -0.34821693858E+03  0.49803139735E+03 -0.12697630927E+04  0.14076969527E+04  0.46999998093E+01 0.  1.
       -5    1    3    3    0  502  0.34821693858E+03 -0.49803139735E+03  0.13633859291E+04  0.14926934014E+04  0.46999998093E+01 0. -1.
</event>
<event>
 5   0  0.3885904E-07  0.2897798E+04  0.7818609E-02  0.8273533E-01
        1   -1    0    0  501    0  0.00000000000E+00  0.00000000000E+00  0.17044153082E+04  0.17044153083E+04  0.50400001928E-02 0. -1.
       -1   -1    0    0    0  501  0.00000000000E+00  0.00000000000E+00 -0.12316881845E+04  0.12316881845E+04  0.50400001928E-02 0.  1.
    10030    2    1    2    0    0  0.00000000000E+00  0.00000000000E+00  0.47272712373E+03  0.29361034928E+04  0.28977979203E+04 0.  0.
        2    1    3    3  502    0 -0.10313007843E+04 -0.60981491581E+03  0.10619054462E+04  0.16009680559E+04  0.25500000920E-02 0. -1.
       -2    1    3    3    0  502  0.10313007843E+04  0.60981491581E+03 -0.58917832245E+03  0.13351354369E+04  0.25500000920E-02 0.  1.
</event>
<event>
 5   0  0.1031339E-06  0.2901774E+04  0.7818609E-02  0.8272350E-01
        2   -1    0    0  501    0  0.00000000000E+00  0.00000000000E+00  0.23612713652E+04  0.23612713652E+04  0.25500000920E-02 0. -1.
       -2   -1    0    0    0  501  0.00000000000E+00  0.00000000000E+00 -0.89149991749E+03  0.89149991749E+03  0.25500000920E-02 0.  1.
    10030    2    1    2    0    0  0.00000000000E+00  0.00000000000E+00  0.14697714477E+04  0.32527712826E+04  0.29017740968E+04 0.  0.
        5    1    3    3  502    0 -0.33930397222E+02 -0.13156596476E+04  0.50329453464E+02  0.13170674713E+04  0.46999998093E+01 0.  1.
       -5    1    3    3    0  502  0.33930397222E+02  0.13156596476E+04  0.14194419942E+04  0.19357038113E+04  0.46999998093E+01 0. -1.
</event>
<event>
 5   0  0.3638028E-07  0.2902117E+04  0.7818609E-02  0.8272248E-01
        1   -1    0    0  501    0  0.00000000000E+00  0.00000000000E+00  0.12373354321E+04  0.12373354321E+04  0.50400001928E-02 0. -1.
       -1   -1    0    0    0  501  0.00000000000E+00  0.00000000000E+00 -0.17016981847E+04  0.17016981847E+04  0.50400001928E-02 0.  1.
    10030    2    1    2    0    0  0.00000000000E+00  0.00000000000E+00 -0.46436275260E+03  0.29390336168E+04  0.29021174743E+04 0.  0.
        4    1    3    3  502    0  0.78955445982E+03 -0.97353919425E+03 -0.97250357822E+03  0.15864865680E+04  0.12699999809E+01 0. -1.
       -4    1    3    3    0  502 -0.78955445982E+03  0.97353919425E+03  0.50814082562E+03  0.13525470488E+04  0.12699999809E+01 0.  1.
</event>
<event>
 5   0  0.3786210E-07  0.2893640E+04  0.7818609E-02  0.8274772E-01
       -1   -1    0    0    0  501  0.00000000000E+00  0.00000000000E+00  0.96101192236E+03  0.96101192238E+03  0.50400001928E-02 0.  1.
        1   -1    0    0  501    0  0.00000000000E+00  0.00000000000E+00 -0.21782130970E+04  0.21782130970E+04  0.50400001928E-02 0. -1.
    10030    2    1    2    0    0  0.00000000000E+00  0.00000000000E+00 -0.12172011746E+04  0.31392250193E+04  0.28936404446E+04 0.  0.
        5    1    3    3  502    0 -0.83985830087E+03 -0.11161122878E+04 -0.19950507198E+03  0.14109900666E+04  0.46999998093E+01 0.  1.
       -5    1    3    3    0  502  0.83985830087E+03  0.11161122878E+04 -0.10176961026E+04  0.17282349527E+04  0.46999998093E+01 0. -1.
</event>
<event>
 5   0  0.3786210E-07  0.2899833E+04  0.7818609E-02  0.8272927E-01
        1   -1    0    0  501    0  0.00000000000E+00  0.00000000000E+00  0.11091328093E+04  0.11091328093E+04  0.50400001928E-02 0.  1.
       -1   -1    0    0    0  501  0.00000000000E+00  0.00000000000E+00 -0.18954072750E+04  0.18954072750E+04  0.50400001928E-02 0. -1.
    10030    2    1    2    0    0  0.00000000000E+00  0.00000000000E+00 -0.78627446565E+03  0.30045400843E+04  0.28998333716E+04 0.  0.
        5    1    3    3  502    0  0.64288920035E+03  0.12751106079E+04 -0.13302934149E+03  0.14342009908E+04  0.46999998093E+01 0. -1.
       -5    1    3    3    0  502 -0.64288920035E+03 -0.12751106079E+04 -0.65324512416E+03  0.15703390935E+04  0.46999998093E+01 0.  1.
</event>
<event>
 5   0  0.3378750E-07  0.2906105E+04  0.7818609E-02  0.8271063E-01
       -3   -1    0    0    0  501  0.00000000000E+00  0.00000000000E+00  0.13399401618E+04  0.13399401656E+04  0.10100000352E+00 0. -1.
        3   -1    0    0  501    0  0.00000000000E+00  0.00000000000E+00 -0.15757138309E+04  0.15757138342E+04  0.10100000352E+00 0.  1.
    10030    2    1    2    0    0  0.00000000000E+00  0.00000000000E+00 -0.23577366916E+03  0.29156539997E+04  0.29061054735E+04 0.  0.
        4    1    3    3  502    0 -0.13323595734E+04  0.54612749171E+03  0.77492258798E+02  0.14420277158E+04  0.12699999809E+01 0.  1.
       -4    1    3    3    0  502  0.13323595734E+04 -0.54612749171E+03 -0.31326592796E+03  0.14736262839E+04  0.12699999809E+01 0. -1.
</event>
<event>
 5   0  0.9950999E-07  0.2898137E+04  0.7818609E-02  0.8273432E-01
       -2   -1    0    0    0  501  0.00000000000E+00  0.00000000000E+00  0.14729326794E+04  0.14729326794E+04  0.25500000920E-02 0. -1.
        2   -1    0    0  501    0  0.00000000000E+00  0.00000000000E+00 -0.14255908009E+04  0.14255908009E+04  0.25500000920E-02 0.  1.
    10030    2    1    2    0    0  0.00000000000E+00  0.00000000000E+00  0.47341878508E+02  0.28985234804E+04  0.28981368347E+04 0.  0.
        3    1    3    3  502    0  0.35634702095E+03  0.12606146326E+04 -0.59582013817E+03  0.14391435295E+04  0.10100000352E+00 0.  1.
       -3    1    3    3    0  502 -0.35634702095E+03 -0.12606146326E+04  0.64316201668E+03  0.14593799509E+04  0.10100000352E+00 0. -1.
</event>
<event>
 5   0  0.3786210E-07  0.2903668E+04  0.7818609E-02  0.8271787E-01
        1   -1    0    0  501    0  0.00000000000E+00  0.00000000000E+00  0.16406051003E+04  0.16406051003E+04  0.50400001928E-02 0.  1.
       -1   -1    0    0    0  501  0.00000000000E+00  0.00000000000E+00 -0.12847834300E+04  0.12847834300E+04  0.50400001928E-02 0. -1.
    10030    2    1    2    0    0  0.00000000000E+00  0.00000000000E+00  0.35582167025E+03  0.29253885303E+04  0.29036681960E+04 0.  0.
        5    1    3    3  502    0  0.30860210546E+03 -0.44063660151E+03 -0.11806584430E+04  0.12974483894E+04  0.46999998093E+01 0. -1.
       -5    1    3    3    0  502 -0.30860210546E+03  0.44063660151E+03  0.15364801133E+04  0.16279401410E+04  0.46999998093E+01 0.  1.
</event>
<event>
 5   0  0.3786210E-07  0.2883644E+04  0.7818609E-02  0.8277761E-01
       -1   -1    0    0    0  501  0.00000000000E+00  0.00000000000E+00  0.12980876647E+04  0.12980876648E+04  0.50400001928E-02 0.  1.
        1   -1    0    0  501    0  0.00000000000E+00  0.00000000000E+00 -0.16014716666E+04  0.16014716666E+04  0.50400001928E-02 0. -1.
    10030    2    1    2    0    0  0.00000000000E+00  0.00000000000E+00 -0.30338400189E+03  0.28995593314E+04  0.28836439558E+04 0.  0.
        5    1    3    3  502    0  0.94651033243E+03  0.78971250710E+03 -0.90368381213E+03  0.15284613752E+04  0.46999998093E+01 0. -1.
       -5    1    3    3    0  502 -0.94651033243E+03 -0.78971250710E+03  0.60029981024E+03  0.13710979562E+04  0.46999998093E+01 0.  1.
</event>
<event>
 5   0  0.9950999E-07  0.2920353E+04  0.7818609E-02  0.8266847E-01
       -2   -1    0    0    0  501  0.00000000000E+00  0.00000000000E+00  0.13836605138E+04  0.13836605138E+04  0.25500000920E-02 0. -1.
        2   -1    0    0  501    0  0.00000000000E+00  0.00000000000E+00 -0.15409242015E+04  0.15409242015E+04  0.25500000920E-02 0.  1.
    10030    2    1    2    0    0  0.00000000000E+00  0.00000000000E+00 -0.15726368779E+03  0.29245847153E+04  0.29203533844E+04 0.  0.
        3    1    3    3  502    0  0.67110558707E+03 -0.10913189485E+04  0.62292311470E+03  0.14245676443E+04  0.10100000352E+00 0.  1.
       -3    1    3    3    0  502 -0.67110558707E+03  0.10913189485E+04 -0.78018680248E+03  0.15000170710E+04  0.10100000352E+00 0. -1.
</event>
<event>
 5   0  0.1063979E-06  0.2899210E+04  0.7818609E-02  0.8273112E-01
       -2   -1    0    0    0  501  0.00000000000E+00  0.00000000000E+00  0.18897191507E+04  0.18897191507E+04  0.25500000920E-02 0. -1.
        2   -1    0    0  501    0  0.00000000000E+00  0.00000000000E+00 -0.11119932784E+04  0.11119932785E+04  0.25500000920E-02 0.  1.
    10030    2    1    2    0    0  0.00000000000E+00  0.00000000000E+00  0.77772587221E+03  0.30017124291E+04  0.28992102329E+04 0.  0.
        1    1    3    3  502    0 -0.14179499146E+04 -0.25178378153E+03  0.56017577884E+03  0.15452423552E+04  0.50400001928E-02 0. -1.
       -1    1    3    3    0  502  0.14179499146E+04  0.25178378153E+03  0.21755009337E+03  0.14564700739E+04  0.50400001928E-02 0.  1.
</event>
<event>
 5   0  0.1006893E-06  0.2900781E+04  0.7818609E-02  0.8272645E-01
        2   -1    0    0  501    0  0.00000000000E+00  0.00000000000E+00  0.20404326049E+04  0.20404326049E+04  0.25500000920E-02 0.  1.
       -2   -1    0    0    0  501  0.00000000000E+00  0.00000000000E+00 -0.10309736488E+04  0.10309736488E+04  0.25500000920E-02 0. -1.
    10030    2    1    2    0    0  0.00000000000E+00  0.00000000000E+00  0.10094589561E+04  0.30714062538E+04  0.29007807555E+04 0.  0.
        4    1    3    3  502    0  0.29072600338E+03  0.13251187104E+04 -0.38445903317E+02  0.13571812356E+04  0.12699999809E+01 0.  1.
       -4    1    3    3    0  502 -0.29072600338E+03 -0.13251187104E+04  0.10479048594E+04  0.17142250182E+04  0.12699999809E+01 0. -1.
</event>
<event>
 5   0  0.3885904E-07  0.2903170E+04  0.7818609E-02  0.8271935E-01
        1   -1    0    0  501    0  0.00000000000E+00  0.00000000000E+00  0.10935207054E+04  0.10935207054E+04  0.50400001928E-02 0. -1.
       -1   -1    0    0    0  501  0.00000000000E+00  0.00000000000E+00 -0.19268949191E+04  0.19268949191E+04  0.50400001928E-02 0.  1.
    10030    2    1    2    0    0  0.00000000000E+00  0.00000000000E+00 -0.83337421366E+03  0.30204156245E+04  0.29031703300E+04 0.  0.
        2    1    3    3  502    0  0.11137556764E+04  0.88490946404E+03 -0.71747007022E+03  0.15931979688E+04  0.25500000920E-02 0. -1.
       -2    1    3    3    0  502 -0.11137556764E+04 -0.88490946404E+03 -0.11590414344E+03  0.14272176557E+04  0.25500000920E-02 0.  1.
</event>
<event>
 5   0  0.1031339E-06  0.2882492E+04  0.7818609E-02  0.8278106E-01
        2   -1    0    0  501    0  0.00000000000E+00  0.00000000000E+00  0.17897508148E+04  0.17897508148E+04  0.25500000920E-02 0. -1.
       -2   -1    0    0    0  501  0.00000000000E+00  0.00000000000E+00 -0.11606025929E+04  0.11606025929E+04  0.25500000920E-02 0.  1.
    10030    2    1    2    0    0  0.00000000000E+00  0.00000000000E+00  0.62914822186E+03  0.29503534077E+04  0.28824915863E+04 0.  0.
        5    1    3    3  502    0 -0.55204652630E+03  0.31210511976E+02 -0.10477139695E+04  0.11846755316E+04  0.46999998093E+01 0. -1.
       -5    1    3    3    0  502  0.55204652630E+03 -0.31210511976E+02  0.16768621914E+04  0.17656778761E+04  0.46999998093E+01 0.  1.
</event>
<event>
 5   0  0.3638028E-07  0.2898116E+04  0.7818609E-02  0.8273438E-01
       -1   -1    0    0    0  501  0.00000000000E+00  0.00000000000E+00  0.10514392022E+04  0.10514392022E+04  0.50400001928E-02 0.  1.
        1   -1    0    0  501    0  0.00000000000E+00  0.00000000000E+00 -0.19970423045E+04  0.19970423045E+04  0.50400001928E-02 0. -1.
    10030    2    1    2    0    0  0.00000000000E+00  0.00000000000E+00 -0.94560310225E+03  0.30484815067E+04  0.28981156412E+04 0.  0.
        4    1    3    3  502    0 -0.61778145712E+03  0.54812315901E+03 -0.17252390020E+04  0.19127321174E+04  0.12699999809E+01 0. -1.
       -4    1    3    3    0  502  0.61778145712E+03 -0.54812315901E+03  0.77963589975E+03  0.11357493893E+04  0.12699999809E+01 0.  1.
</event>
<event>
 5   0  0.1063979E-06  0.2897294E+04  0.7818609E-02  0.8273683E-01
       -2   -1    0    0    0  501  0.00000000000E+00  0.00000000000E+00  0.11176816710E+04  0.11176816710E+04  0.25500000920E-02 0. -1.
        2   -1    0    0  501    0  0.00000000000E+00  0.00000000000E+00 -0.18776170806E+04  0.18776170806E+04  0.25500000920E-02 0.  1.
    10030    2    1    2    0    0  0.00000000000E+00  0.00000000000E+00 -0.75993540951E+03  0.29952987516E+04  0.28972940453E+04 0.  0.
        1    1    3    3  502    0  0.13329250079E+04 -0.49547718781E+03 -0.66570703451E+03  0.15701441259E+04  0.50400001928E-02 0.  1.
       -1    1    3    3    0  502 -0.13329250079E+04  0.49547718781E+03 -0.94228375004E+02  0.14251546257E+04  0.50400001928E-02 0. -1.
</event>
<event>
 5   0  0.1031339E-06  0.2902160E+04  0.7818609E-02  0.8272235E-01
       -2   -1    0    0    0  501  0.00000000000E+00  0.00000000000E+00  0.11209309112E+04  0.11209309112E+04  0.25500000920E-02 0. -1.
        2   -1    0    0  501    0  0.00000000000E+00  0.00000000000E+00 -0.18784682922E+04  0.18784682922E+04  0.25500000920E-02 0.  1.
    10030    2    1    2    0    0  0.00000000000E+00  0.00000000000E+00 -0.75753738107E+03  0.29993992034E+04  0.29021600055E+04 0.  0.
        5    1    3    3  502    0  0.97617157762E+03  0.10479276916E+04 -0.62014858630E+03  0.15606632420E+04  0.46999998093E+01 0.  1.
       -5    1    3    3    0  502 -0.97617157762E+03 -0.10479276916E+04 -0.13738879477E+03  0.14387359614E+04  0.46999998093E+01 0. -1.
</event>
<event>
 5   0  0.9994311E-07  0.2896428E+04  0.7818609E-02  0.8273941E-01
        2   -1    0    0  501    0  0.00000000000E+00  0.00000000000E+00  0.15827325854E+04  0.15827325854E+04  0.25500000920E-02 0. -1.
       -2   -1    0    0    0  501  0.00000000000E+00  0.00000000000E+00 -0.13251279783E+04  0.13251279783E+04  0.25500000920E-02 0.  1.
    10030    2    1    2    0    0  0.00000000000E+00  0.00000000000E+00  0.25760460717E+03  0.29078605637E+04  0.28964276142E+04 0.  0.
        2    1    3    3  502    0 -0.66660835928E+02 -0.14329377384E+04  0.32850707721E+03  0.14716219382E+04  0.25500000920E-02 0. -1.
       -2    1    3    3    0  502  0.66660835928E+02  0.14329377384E+04 -0.70902470045E+02  0.14362386255E+04  0.25500000920E-02 0.  1.
</event>
<event>
 5   0  0.3770467E-07  0.2901140E+04  0.7818609E-02  0.8272538E-01
        1   -1    0    0  501    0  0.00000000000E+00  0.00000000000E+00  0.15818636023E+04  0.15818636023E+04  0.50400001928E-02 0.  1.
       -1   -1    0    0    0  501  0.00000000000E+00  0.00000000000E+00 -0.13301735668E+04  0.13301735668E+04  0.50400001928E-02 0. -1.
    10030    2    1    2    0    0  0.00000000000E+00  0.00000000000E+00  0.25169003549E+03  0.29120371691E+04  0.29011398795E+04 0.  0.
        1    1    3    3  502    0 -0.58099974159E+03 -0.12405085584E+04 -0.35315914772E+03  0.14146178165E+04  0.50400001928E-02 0. -1.
       -1    1    3    3    0  502  0.58099974159E+03  0.12405085584E+04  0.60484918321E+03  0.14974193526E+04  0.50400001928E-02 0.  1.
</event>
<event>
 5   0  0.3638028E-07  0.2900535E+04  0.7818609E-02  0.8272718E-01
        1   -1    0    0  501    0  0.00000000000E+00  0.00000000000E+00  0.20779660743E+04  0.20779660743E+04  0.50400001928E-02 0. -1.
       -1   -1    0    0    0  501  0.00000000000E+00  0.00000000000E+00 -0.10121799266E+04  0.10121799266E+04  0.50400001928E-02 0.  1.
    10030    2    1    2    0    0  0.00000000000E+00  0.00000000000E+00  0.10657861476E+04  0.30901460009E+04  0.29005348118E+04 0.  0.
        4    1    3    3  502    0  0.20072429079E+03 -0.14124261256E+04  0.25500447306E+03  0.14492296904E+04  0.12699999809E+01 0. -1.
       -4    1    3    3    0  502 -0.20072429079E+03  0.14124261256E+04  0.81078167458E+03  0.16409163105E+04  0.12699999809E+01 0.  1.
</event>
<event>
 5   0  0.9994311E-07  0.2882070E+04  0.7818609E-02  0.8278232E-01
       -2   -1    0    0    0  501  0.00000000000E+00  0.00000000000E+00  0.13309318292E+04  0.13309318292E+04  0.25500000920E-02 0. -1.
        2   -1    0    0  501    0  0.00000000000E+00  0.00000000000E+00 -0.15602469692E+04  0.15602469692E+04  0.25500000920E-02 0.  1.
    10030    2    1    2    0    0  0.00000000000E+00  0.00000000000E+00 -0.22931513999E+03  0.28911787983E+04  0.28820703341E+04 0.  0.
        2    1    3    3  502    0  0.83719485382E+03  0.89882838992E+03 -0.87056049387E+03  0.15055441778E+04  0.25500000920E-02 0.  1.
       -2    1    3    3    0  502 -0.83719485382E+03 -0.89882838992E+03  0.64124535388E+03  0.13856346205E+04  0.25500000920E-02 0. -1.
</event>
<event>
 5   0  0.1031339E-06  0.2893407E+04  0.7818609E-02  0.8274842E-01
       -2   -1    0    0    0  501  0.00000000000E+00  0.00000000000E+00  0.13886267620E+04  0.13886267620E+04  0.25500000920E-02 0.  1.
        2   -1    0    0  501    0  0.00000000000E+00  0.00000000000E+00 -0.15072096407E+04  0.15072096407E+04  0.25500000920E-02 0. -1.
    10030    2    1    2    0    0  0.00000000000E+00  0.00000000000E+00 -0.11858287869E+03  0.28958364026E+04  0.28934074327E+04 0.  0.
        5    1    3    3  502    0 -0.10340033968E+04  0.93458055547E+03  0.32875264533E+03  0.14320280134E+04  0.46999998093E+01 0.  1.
       -5    1    3    3    0  502  0.10340033968E+04 -0.93458055547E+03 -0.44733552401E+03  0.14638083892E+04  0.46999998093E+01 0. -1.
</event>
<event>
 5   0  0.3638028E-07  0.2898302E+04  0.7818609E-02  0.8273383E-01
        1   -1    0    0  501    0  0.00000000000E+00  0.00000000000E+00  0.76729117648E+03  0.76729117650E+03  0.50400001928E-02 0.  1.
       -1   -1    0    0    0  501  0.00000000000E+00  0.00000000000E+00 -0.27369507997E+04  0.27369507997E+04  0.50400001928E-02 0. -1.
    10030    2    1    2    0    0  0.00000000000E+00  0.00000000000E+00 -0.19696596232E+04  0.35042419762E+04  0.28983017090E+04 0.  0.
        4    1    3    3  502    0 -0.14382347396E+04  0.89174568444E+02 -0.79922589743E+03  0.16477969893E+04  0.12699999809E+01 0. -1.
       -4    1    3    3    0  502  0.14382347396E+04 -0.89174568444E+02 -0.11704337258E+04  0.18564449869E+04  0.12699999809E+01 0.  1.
</event>
<event>
 5   0  0.3885904E-07  0.2892233E+04  0.7818609E-02  0.8275192E-01
        1   -1    0    0  501    0  0.00000000000E+00  0.00000000000E+00  0.24244603782E+04  0.24244603782E+04  0.50400001928E-02 0. -1.
       -1   -1    0    0    0  501  0.00000000000E+00  0.00000000000E+00 -0.86256405768E+03  0.86256405769E+03  0.50400001928E-02 0.  1.
    10030    2    1    2    0    0  0.00000000000E+00  0.00000000000E+00  0.15618963206E+04  0.32870244359E+04  0.28922326197E+04 0.  0.
        2    1    3    3  502    0  0.32584853862E+03 -0.11415891538E+04  0.17194041641E+04  0.20894386198E+04  0.25500000920E-02 0. -1.
       -2    1    3    3    0  502 -0.32584853862E+03  0.11415891538E+04 -0.15750784353E+03  0.11975858162E+04  0.25500000920E-02 0.  1.
</event>
<event>
 5   0  0.1006893E-06  0.2892048E+04  0.7818609E-02  0.8275247E-01
        2   -1    0    0  501    0  0.00000000000E+00  0.00000000000E+00  0.18399406392E+04  0.18399406392E+04  0.25500000920E-02 0. -1.
       -2   -1    0    0    0  501  0.00000000000E+00  0.00000000000E+00 -0.11364414659E+04  0.11364414659E+04  0.25500000920E-02 0.  1.
    10030    2    1    2    0    0  0.00000000000E+00  0.00000000000E+00  0.70349917328E+03  0.29763821051E+04  0.28920476048E+04 0.  0.
        4    1    3    3  502    0  0.73409078692E+02  0.12012716971E+04  0.11767108349E+04  0.16831793086E+04  0.12699999809E+01 0. -1.
       -4    1    3    3    0  502 -0.73409078692E+02 -0.12012716971E+04 -0.47321166162E+03  0.12932027965E+04  0.12699999809E+01 0.  1.
</event>
<event>
 5   0  0.3786210E-07  0.2899895E+04  0.7818609E-02  0.8272909E-01
        1   -1    0    0  501    0  0.00000000000E+00  0.00000000000E+00  0.23013008572E+04  0.23013008572E+04  0.50400001928E-02 0. -1.
       -1   -1    0    0    0  501  0.00000000000E+00  0.00000000000E+00 -0.91354757783E+03  0.91354757785E+03  0.50400001928E-02 0.  1.
    10030    2    1    2    0    0  0.00000000000E+00  0.00000000000E+00  0.13877532794E+04  0.32148484351E+04  0.28998950491E+04 0.  0.
        5    1    3    3  502    0  0.11471283449E+04 -0.36154907698E+03  0.15915789109E+04  0.19949352607E+04  0.46999998093E+01 0. -1.
       -5    1    3    3    0  502 -0.11471283449E+04  0.36154907698E+03 -0.20382563155E+03  0.12199131743E+04  0.46999998093E+01 0.  1.
</event>
<event>
 5   0  0.1006893E-06  0.2899379E+04  0.7818609E-02  0.8273062E-01
        2   -1    0    0  501    0  0.00000000000E+00  0.00000000000E+00  0.20718428203E+04  0.20718428203E+04  0.25500000920E-02 0.  1.
       -2   -1    0    0    0  501  0.00000000000E+00  0.00000000000E+00 -0.10143623115E+04  0.10143623115E+04  0.25500000920E-02 0. -1.
    10030    2    1    2    0    0  0.00000000000E+00  0.00000000000E+00  0.10574805088E+04  0.30862051318E+04  0.28993787419E+04 0.  0.
        4    1    3    3  502    0  0.13421534203E+04  0.41108537608E+03  0.91434068547E+03  0.16752275941E+04  0.12699999809E+01 0.  1.
       -4    1    3    3    0  502 -0.13421534203E+04 -0.41108537608E+03  0.14313982335E+03  0.14109775377E+04  0.12699999809E+01 0. -1.
</event>
<event>
 5   0  0.1006893E-06  0.2895142E+04  0.7818609E-02  0.8274324E-01
       -2   -1    0    0    0  501  0.00000000000E+00  0.00000000000E+00  0.14737477304E+04  0.14737477304E+04  0.25500000920E-02 0.  1.
        2   -1    0    0  501    0  0.00000000000E+00  0.00000000000E+00 -0.14218589560E+04  0.14218589560E+04  0.25500000920E-02 0. -1.
    10030    2    1    2    0    0  0.00000000000E+00  0.00000000000E+00  0.51888774456E+02  0.28956066864E+04  0.28951417301E+04 0.  0.
        4    1    3    3  502    0  0.24718498663E+03 -0.22647828427E+03  0.14343846497E+04  0.14730423508E+04  0.12699999809E+01 0.  1.
       -4    1    3    3    0  502 -0.24718498663E+03  0.22647828427E+03 -0.13824958753E+04  0.14225643356E+04  0.12699999809E+01 0. -1.
</event>
<event>
 5   0  0.9950999E-07  0.2901417E+04  0.7818609E-02  0.8272456E-01
        2   -1    0    0  501    0  0.00000000000E+00  0.00000000000E+00  0.14439434586E+04  0.14439434586E+04  0.25500000920E-02 0.  1.
       -2   -1    0    0    0  501  0.00000000000E+00  0.00000000000E+00 -0.14575056030E+04  0.14575056030E+04  0.25500000920E-02 0. -1.
    10030    2    1    2    0    0  0.00000000000E+00  0.00000000000E+00 -0.13562144410E+02  0.29014490617E+04  0.29014173649E+04 0.  0.
        3    1    3    3  502    0  0.10614564643E+04  0.69269385755E+03 -0.71250902771E+03  0.14540232909E+04  0.10100000352E+00 0. -1.
       -3    1    3    3    0  502 -0.10614564643E+04 -0.69269385755E+03  0.69894688330E+03  0.14474257707E+04  0.10100000352E+00 0.  1.
</event>
<event>
 5   0  0.3885904E-07  0.2899114E+04  0.7818609E-02  0.8273141E-01
        1   -1    0    0  501    0  0.00000000000E+00  0.00000000000E+00  0.17580392306E+04  0.17580392306E+04  0.50400001928E-02 0. -1.
       -1   -1    0    0    0  501  0.00000000000E+00  0.00000000000E+00 -0.11952041370E+04  0.11952041370E+04  0.50400001928E-02 0.  1.
    10030    2    1    2    0    0  0.00000000000E+00  0.00000000000E+00  0.56283509363E+03  0.29532433677E+04  0.28991141830E+04 0.  0.
        2    1    3    3  502    0 -0.56521074296E+03  0.67482085838E+03 -0.89176653449E+03  0.12530338890E+04  0.25500000920E-02 0.  1.
       -2    1    3    3    0  502  0.56521074296E+03 -0.67482085838E+03  0.14546016281E+04  0.17002094787E+04  0.25500000920E-02 0. -1.
</event>
<event>
 5   0  0.3770467E-07  0.2899973E+04  0.7818609E-02  0.8272886E-01
       -1   -1    0    0    0  501  0.00000000000E+00  0.00000000000E+00  0.16265864076E+04  0.16265864076E+04  0.50400001928E-02 0. -1.
        1   -1    0    0  501    0  0.00000000000E+00  0.00000000000E+00 -0.12925600677E+04  0.12925600677E+04  0.50400001928E-02 0.  1.
    10030    2    1    2    0    0  0.00000000000E+00  0.00000000000E+00  0.33402633989E+03  0.29191464754E+04  0.28999728531E+04 0.  0.
        1    1    3    3  502    0  0.10140303214E+04 -0.10144611093E+04 -0.46691699150E+02  0.14351198381E+04  0.50400001928E-02 0. -1.
       -1    1    3    3    0  502 -0.10140303214E+04  0.10144611093E+04  0.38071803904E+03  0.14840266373E+04  0.50400001928E-02 0.  1.
</event>
<event>
 5   0  0.3786210E-07  0.2911883E+04  0.7818609E-02  0.8269351E-01
       -1   -1    0    0    0  501  0.00000000000E+00  0.00000000000E+00  0.82580386129E+03  0.82580386131E+03  0.50400001928E-02 0. -1.
        1   -1    0    0  501    0  0.00000000000E+00  0.00000000000E+00 -0.25669115940E+04  0.25669115940E+04  0.50400001928E-02 0.  1.
    10030    2    1    2    0    0  0.00000000000E+00  0.00000000000E+00 -0.17411077327E+04  0.33927154553E+04  0.29118829001E+04 0.  0.
        5    1    3    3  502    0 -0.13709772881E+04 -0.45764449467E+03 -0.66631988034E+03  0.15915468831E+04  0.46999998093E+01 0.  1.
       -5    1    3    3    0  502  0.13709772881E+04  0.45764449467E+03 -0.10747878524E+04  0.18011685723E+04  0.46999998093E+01 0. -1.
</event>
<event>
 5   0  0.1063979E-06  0.2907208E+04  0.7818609E-02  0.8270736E-01
        2   -1    0    0  501    0  0.00000000000E+00  0.00000000000E+00  0.21375455980E+04  0.21375455980E+04  0.25500000920E-02 0.  1.
       -2   -1    0    0    0  501  0.00000000000E+00  0.00000000000E+00 -0.98850055549E+03  0.98850055549E+03  0.25500000920E-02 0. -1.
    10030    2    1    2    0    0  0.00000000000E+00  0.00000000000E+00  0.11490450425E+04  0.31260461534E+04  0.29072082904E+04 0.  0.
        1    1    3    3  502    0 -0.11143161350E+04 -0.15088092238E+03  0.15650009806E+04  0.19270945931E+04  0.50400001928E-02 0.  1.
       -1    1    3    3    0  502  0.11143161350E+04  0.15088092238E+03 -0.41595593812E+03  0.11989515603E+04  0.50400001928E-02 0. -1.
</event>
<event>
 5   0  0.1031339E-06  0.2905262E+04  0.7818609E-02  0.8271314E-01
        2   -1    0    0  501    0  0.00000000000E+00  0.00000000000E+00  0.10190033494E+04  0.10190033494E+04  0.25500000920E-02 0.  1.
       -2   -1    0    0    0  501  0.00000000000E+00  0.00000000000E+00 -0.20707848808E+04  0.20707848808E+04  0.25500000920E-02 0. -1.
    10030    2    1    2    0    0  0.00000000000E+00  0.00000000000E+00 -0.10517815313E+04  0.30897882302E+04  0.29052619362E+04 0.  0.
        5    1    3    3  502    0 -0.70567358170E+03 -0.28428391084E+03  0.79017228014E+03  0.10968987502E+04  0.46999998093E+01 0.  1.
       -5    1    3    3    0  502  0.70567358170E+03  0.28428391084E+03 -0.18419538115E+04  0.19928894800E+04  0.46999998093E+01 0. -1.
</event>
<event>
 5   0  0.1006893E-06  0.2899375E+04  0.7818609E-02  0.8273063E-01
       -2   -1    0    0    0  501  0.00000000000E+00  0.00000000000E+00  0.19088189861E+04  0.19088189861E+04  0.25500000920E-02 0. -1.
        2   -1    0    0  501    0  0.00000000000E+00  0.00000000000E+00 -0.11009919849E+04  0.11009919849E+04  0.25500000920E-02 0.  1.
    10030    2    1    2    0    0  0.00000000000E+00  0.00000000000E+00  0.80782700128E+03  0.30098109710E+04  0.28993753840E+04 0.  0.
        4    1    3    3  502    0 -0.10487277694E+04 -0.99334071461E+03  0.53121002733E+03  0.15390716084E+04  0.12699999809E+01 0. -1.
       -4    1    3    3    0  502  0.10487277694E+04  0.99334071461E+03  0.27661697395E+03  0.14707393626E+04  0.12699999809E+01 0.  1.
</event>
<event>
 5   0  0.3786210E-07  0.2899485E+04  0.7818609E-02  0.8273031E-01
        1   -1    0    0  501    0  0.00000000000E+00  0.00000000000E+00  0.72079564824E+03  0.72079564826E+03  0.50400001928E-02 0.  1.
       -1   -1    0    0    0  501  0.00000000000E+00  0.00000000000E+00 -0.29158797398E+04  0.29158797398E+04  0.50400001928E-02 0. -1.
    10030    2    1    2    0    0  0.00000000000E+00  0.00000000000E+00 -0.21950840916E+04  0.36366753881E+04  0.28994850765E+04 0.  0.
        5    1    3    3  502    0  0.12330418777E+04  0.11391108959E+03 -0.15196551576E+03  0.12475911256E+04  0.46999998093E+01 0. -1.
       -5    1    3    3    0  502 -0.12330418777E+04 -0.11391108959E+03 -0.20431185758E+04  0.23890842625E+04  0.46999998093E+01 0.  1.
</event>
<event>
 5   0  0.3770467E-07  0.2903259E+04  0.7818609E-02  0.8271909E-01
        1   -1    0    0  501    0  0.00000000000E+00  0.00000000000E+00  0.12241747940E+04  0.12241747940E+04  0.50400001928E-02 0. -1.
       -1   -1    0    0    0  501  0.00000000000E+00  0.00000000000E+00 -0.17213454494E+04  0.17213454494E+04  0.50400001928E-02 0.  1.
    10030    2    1    2    0    0  0.00000000000E+00  0.00000000000E+00 -0.49717065544E+03  0.29455202434E+04  0.29032586594E+04 0.  0.
        1    1    3    3  502    0  0.10243464559E+04 -0.88167988498E+03 -0.78599647718E+03  0.15634690734E+04  0.50400001928E-02 0.  1.
       -1    1    3    3    0  502 -0.10243464559E+04  0.88167988498E+03  0.28882582174E+03  0.13820511700E+04  0.50400001928E-02 0. -1.
</event>
<event>
 5   0  0.3885904E-07  0.2898569E+04  0.7818609E-02  0.8273303E-01
       -1   -1    0    0    0  501  0.00000000000E+00  0.00000000000E+00  0.11290786970E+04  0.11290786970E+04  0.50400001928E-02 0.  1.
        1   -1    0    0  501    0  0.00000000000E+00  0.00000000000E+00 -0.18603010080E+04  0.18603010080E+04  0.50400001928E-02 0. -1.
    10030    2    1    2    0    0  0.00000000000E+00  0.00000000000E+00 -0.73122231105E+03  0.29893797050E+04  0.28985694666E+04 0.  0.
        2    1    3    3  502    0 -0.41548014844E+03  0.13565752913E+04 -0.67069288104E+03  0.15693148873E+04  0.25500000920E-02 0. -1.
       -2    1    3    3    0  502  0.41548014844E+03 -0.13565752913E+04 -0.60529430012E+02  0.14200648178E+04  0.25500000920E-02 0.  1.
</event>
<event>
 5   0  0.3885904E-07  0.2903031E+04  0.7818609E-02  0.8271976E-01
       -1   -1    0    0    0  501  0.00000000000E+00  0.00000000000E+00  0.12301026324E+04  0.12301026324E+04  0.50400001928E-02 0.  1.
        1   -1    0    0  501    0  0.00000000000E+00  0.00000000000E+00 -0.17127822619E+04  0.17127822619E+04  0.50400001928E-02 0. -1.
    10030    2    1    2    0    0  0.00000000000E+00  0.00000000000E+00 -0.48267962952E+03  0.29428848943E+04  0.29030314976E+04 0.  0.
        2    1    3    3  502    0  0.14167574333E+03  0.39442100518E+03  0.11674353225E+04  0.12403810615E+04  0.25500000920E-02 0.  1.
       -2    1    3    3    0  502 -0.14167574333E+03 -0.39442100518E+03 -0.16501149520E+04  0.17025038327E+04  0.25500000920E-02 0. -1.
</event>
<event>
 5   0  0.3786210E-07  0.2904327E+04  0.7818609E-02  0.8271591E-01
        1   -1    0    0  501    0  0.00000000000E+00  0.00000000000E+00  0.12512702075E+04  0.12512702075E+04  0.50400001928E-02 0.  1.
       -1   -1    0    0    0  501  0.00000000000E+00  0.00000000000E+00 -0.16853108613E+04  0.16853108613E+04  0.50400001928E-02 0. -1.
    10030    2    1    2    0    0  0.00000000000E+00  0.00000000000E+00 -0.43404065382E+03  0.29365810688E+04  0.29043273033E+04 0.  0.
        5    1    3    3  502    0 -0.53476838686E+02 -0.16742568345E+03  0.12404684212E+04  0.12528667629E+04  0.46999998093E+01 0.  1.
       -5    1    3    3    0  502  0.53476838686E+02  0.16742568345E+03 -0.16745090750E+04  0.16837143059E+04  0.46999998093E+01 0. -1.
</event>
<event>
 5   0  0.1063979E-06  0.2901288E+04  0.7818609E-02  0.8272494E-01
       -2   -1    0    0    0  501  0.00000000000E+00  0.00000000000E+00  0.11023244068E+04  0.11023244068E+04  0.25500000920E-02 0.  1.
        2   -1    0    0  501    0  0.00000000000E+00  0.00000000000E+00 -0.19090284465E+04  0.19090284465E+04  0.25500000920E-02 0. -1.
    10030    2    1    2    0    0  0.00000000000E+00  0.00000000000E+00 -0.80670403971E+03  0.30113528533E+04  0.29012884379E+04 0.  0.
        1    1    3    3  502    0  0.13011358191E+04 -0.11072903147E+03  0.25240146592E+03  0.13300082098E+04  0.50400001928E-02 0.  1.
       -1    1    3    3    0  502 -0.13011358191E+04  0.11072903147E+03 -0.10591055056E+04  0.16813446435E+04  0.50400001928E-02 0. -1.
</event>
<event>
 5   0  0.3638028E-07  0.2898009E+04  0.7818609E-02  0.8273470E-01
        1   -1    0    0  501    0  0.00000000000E+00  0.00000000000E+00  0.16154696144E+04  0.16154696144E+04  0.50400001928E-02 0.  1.
       -1   -1    0    0    0  501  0.00000000000E+00  0.00000000000E+00 -0.12996924164E+04  0.12996924164E+04  0.50400001928E-02 0. -1.
    10030    2    1    2    0    0  0.00000000000E+00  0.00000000000E+00  0.31577719804E+03  0.29151620308E+04  0.28980087003E+04 0.  0.
        4    1    3    3  502    0 -0.29988671597E+03 -0.24854728769E+03  0.15618229828E+04  0.16096584853E+04  0.12699999809E+01 0.  1.
       -4    1    3    3    0  502  0.29988671597E+03  0.24854728769E+03 -0.12460457848E+04  0.13055035455E+04  0.12699999809E+01 0. -1.
</event>
<event>
 5   0  0.3770467E-07  0.2892712E+04  0.7818609E-02  0.8275049E-01
       -1   -1    0    0    0  501  0.00000000000E+00  0.00000000000E+00  0.20161302528E+04  0.20161302529E+04  0.50400001928E-02 0. -1.
        1   -1    0    0  501    0  0.00000000000E+00  0.00000000000E+00 -0.10376045788E+04  0.10376045788E+04  0.50400001928E-02 0.  1.
    10030    2    1    2    0    0  0.00000000000E+00  0.00000000000E+00  0.97852567405E+03  0.30537348317E+04  0.28927122096E+04 0.  0.
        1    1    3    3  502    0  0.12705488743E+04 -0.66685484820E+03  0.29761922951E+03  0.14654579613E+04  0.50400001928E-02 0. -1.
       -1    1    3    3    0  502 -0.12705488743E+04  0.66685484820E+03  0.68090644453E+03  0.15882768703E+04  0.50400001928E-02 0.  1.
</event>
<event>
 5   0  0.1006893E-06  0.2899342E+04  0.7818609E-02  0.8273073E-01
       -2   -1    0    0    0  501  0.00000000000E+00  0.00000000000E+00  0.13576510875E+04  0.13576510875E+04  0.25500000920E-02 0.  1.
        2   -1    0    0  501    0  0.00000000000E+00  0.00000000000E+00 -0.15479277390E+04  0.15479277390E+04  0.25500000920E-02 0. -1.
    10030    2    1    2    0    0  0.00000000000E+00  0.00000000000E+00 -0.19027665155E+03  0.29055788265E+04  0.28993418413E+04 0.  0.
        4    1    3    3  502    0  0.88516144780E+02 -0.86922850608E+03  0.10641348264E+04  0.13768724869E+04  0.12699999809E+01 0.  1.
       -4    1    3    3    0  502 -0.88516144780E+02  0.86922850608E+03 -0.12544114779E+04  0.15287063395E+04  0.12699999809E+01 0. -1.
</event>
<event>
 5   0  0.3786210E-07  0.2899443E+04  0.7818609E-02  0.8273043E-01
       -1   -1    0    0    0  501  0.00000000000E+00  0.00000000000E+00  0.11232012698E+04  0.11232012699E+04  0.50400001928E-02 0.  1.
        1   -1    0    0  501    0  0.00000000000E+00  0.00000000000E+00 -0.18711632327E+04  0.18711632327E+04  0.50400001928E-02 0. -1.
    10030    2    1    2    0    0  0.00000000000E+00  0.00000000000E+00 -0.74796196289E+03  0.29943645026E+04  0.28994433391E+04 0.  0.
        5    1    3    3  502    0  0.20938448846E+03 -0.11915992436E+04  0.45086567702E+03  0.12911438998E+04  0.46999998093E+01 0.  1.
       -5    1    3    3    0  502 -0.20938448846E+03  0.11915992436E+04 -0.11988276399E+04  0.17032206027E+04  0.46999998093E+01 0. -1.
</event>
<event>
 5   0  0.3786210E-07  0.2889289E+04  0.7818609E-02  0.8276071E-01
       -1   -1    0    0    0  501  0.00000000000E+00  0.00000000000E+00  0.15308576501E+04  0.15308576501E+04  0.50400001928E-02 0.  1.
        1   -1    0    0  501    0  0.00000000000E+00  0.00000000000E+00 -0.13632867139E+04  0.13632867139E+04  0.50400001928E-02 0. -1.
    10030    2    1    2    0    0  0.00000000000E+00  0.00000000000E+00  0.16757093623E+03  0.28941443640E+04  0.28892891134E+04 0.  0.
        5    1    3    3  502    0  0.16144758373E+03 -0.10608377205E+04  0.10526408006E+04  0.15031688982E+04  0.46999998093E+01 0.  1.
       -5    1    3    3    0  502 -0.16144758373E+03  0.10608377205E+04 -0.88506986433E+03  0.13909754657E+04  0.46999998093E+01 0. -1.
</event>
<event>
 5   0  0.3885904E-07  0.2895417E+04  0.7818609E-02  0.8274242E-01
        1   -1    0    0  501    0  0.00000000000E+00  0.00000000000E+00  0.13280864614E+04  0.13280864614E+04  0.50400001928E-02 0.  1.
       -1   -1    0    0    0  501  0.00000000000E+00  0.00000000000E+00 -0.15781047379E+04  0.15781047379E+04  0.50400001928E-02 0. -1.
    10030    2    1    2    0    0  0.00000000000E+00  0.00000000000E+00 -0.25001827653E+03  0.29061911993E+04  0.28954167487E+04 0.  0.
        2    1    3    3  502    0  0.20239320589E+03  0.58942355341E+03 -0.14365760633E+04  0.15659290919E+04  0.25500000920E-02 0. -1.
       -2    1    3    3    0  502 -0.20239320589E+03 -0.58942355341E+03  0.11865577868E+04  0.13402621074E+04  0.25500000920E-02 0.  1.
</event>
<event>
 5   0  0.1063979E-06  0.2898026E+04  0.7818609E-02  0.8273465E-01
       -2   -1    0    0    0  501  0.00000000000E+00  0.00000000000E+00  0.10468551429E+04  0.10468551429E+04  0.25500000920E-02 0.  1.
        2   -1    0    0  501    0  0.00000000000E+00  0.00000000000E+00 -0.20056636385E+04  0.20056636385E+04  0.25500000920E-02 0. -1.
    10030    2    1    2    0    0  0.00000000000E+00  0.00000000000E+00 -0.95880849559E+03  0.30525187814E+04  0.28980264284E+04 0.  0.
        1    1    3    3  502    0  0.45431777743E+03 -0.10479159729E+04  0.45981877029E+03  0.12312456419E+04  0.50400001928E-02 0.  1.
       -1    1    3    3    0  502 -0.45431777743E+03  0.10479159729E+04 -0.14186272659E+04  0.18212731395E+04  0.50400001928E-02 0. -1.
</event>
<event>
 5   0  0.3638028E-07  0.2897201E+04  0.7818609E-02  0.8273711E-01
       -1   -1    0    0    0  501  0.00000000000E+00  0.00000000000E+00  0.80881074315E+03  0.80881074316E+03  0.50400001928E-02 0.  1.
        1   -1    0    0  501    0  0.00000000000E+00  0.00000000000E+00 -0.25944808004E+04  0.25944808004E+04  0.50400001928E-02 0. -1.
    10030    2    1    2    0    0  0.00000000000E+00  0.00000000000E+00 -0.17856700573E+04  0.34032915436E+04  0.28972013698E+04 0.  0.
        4    1    3    3  502    0  0.11544652113E+04 -0.20116559586E+03  0.10749849223E+03  0.11767816534E+04  0.12699999809E+01 0.  1.
       -4    1    3    3    0  502 -0.11544652113E+04  0.20116559586E+03 -0.18931685495E+04  0.22265098901E+04  0.12699999809E+01 0. -1.
</event>
<event>
 5   0  0.1063979E-06  0.2902278E+04  0.7818609E-02  0.8272200E-01
       -2   -1    0    0    0  501  0.00000000000E+00  0.00000000000E+00  0.18287746525E+04  0.18287746525E+04  0.25500000920E-02 0.  1.
        2   -1    0    0  501    0  0.00000000000E+00  0.00000000000E+00 -0.11514835385E+04  0.11514835385E+04  0.25500000920E-02 0. -1.
    10030    2    1    2    0    0  0.00000000000E+00  0.00000000000E+00  0.67729111401E+03  0.29802581911E+04  0.29022776629E+04 0.  0.
        1    1    3    3  502    0  0.14234059267E+02  0.17823164242E+03 -0.11401291301E+04  0.11540639324E+04  0.50400001928E-02 0. -1.
       -1    1    3    3    0  502 -0.14234059267E+02 -0.17823164242E+03  0.18174202441E+04  0.18261942587E+04  0.50400001928E-02 0.  1.
</event>
<event>
 5   0  0.9950999E-07  0.2896148E+04  0.7818609E-02  0.8274024E-01
        2   -1    0    0  501    0  0.00000000000E+00  0.00000000000E+00  0.21001583997E+04  0.21001583997E+04  0.25500000920E-02 0. -1.
       -2   -1    0    0    0  501  0.00000000000E+00  0.00000000000E+00 -0.99845736207E+03  0.99845736207E+03  0.25500000920E-02 0.  1.
    10030    2    1    2    0    0  0.00000000000E+00  0.00000000000E+00  0.11017010376E+04  0.30986157618E+04  0.28961482115E+04 0.  0.
        3    1    3    3  502    0  0.18311881569E+03 -0.12970268468E+04  0.12113472450E+04  0.17841449774E+04  0.10100000352E+00 0. -1.
       -3    1    3    3    0  502 -0.18311881569E+03  0.12970268468E+04 -0.10964620740E+03  0.13144707844E+04  0.10100000352E+00 0.  1.
</event>
<event>
 5   0  0.9950999E-07  0.2908460E+04  0.7818609E-02  0.8270365E-01
       -2   -1    0    0    0  501  0.00000000000E+00  0.00000000000E+00  0.24901107223E+04  0.24901107223E+04  0.25500000920E-02 0.  1.
        2   -1    0    0  501    0  0.00000000000E+00  0.00000000000E+00 -0.84927327982E+03  0.84927327982E+03  0.25500000920E-02 0. -1.
    10030    2    1    2    0    0  0.00000000000E+00  0.00000000000E+00  0.16408374425E+04  0.33393840022E+04  0.29084597300E+04 0.  0.
        3    1    3    3  502    0 -0.53483497427E+03 -0.24771506011E+03  0.23468155351E+04  0.24197012970E+04  0.10100000352E+00 0.  1.
       -3    1    3    3    0  502  0.53483497427E+03  0.24771506011E+03 -0.70597809260E+03  0.91968270514E+03  0.10100000352E+00 0. -1.
</event>
<event>
 5   0  0.3770467E-07  0.2909972E+04  0.7818609E-02  0.8269917E-01
        1   -1    0    0  501    0  0.00000000000E+00  0.00000000000E+00  0.95192156030E+03  0.95192156032E+03  0.50400001928E-02 0. -1.
       -1   -1    0    0    0  501  0.00000000000E+00  0.00000000000E+00 -0.22239056322E+04  0.22239056322E+04  0.50400001928E-02 0.  1.
    10030    2    1    2    0    0  0.00000000000E+00  0.00000000000E+00 -0.12719840719E+04  0.31758271925E+04  0.29099716283E+04 0.  0.
        1    1    3    3  502    0 -0.13898813226E+04  0.39151373726E+03 -0.83100873316E+03  0.16660217922E+04  0.50400001928E-02 0. -1.
       -1    1    3    3    0  502  0.13898813226E+04 -0.39151373726E+03 -0.44097533874E+03  0.15098054003E+04  0.50400001928E-02 0.  1.
</event>
<event>
 5   0  0.3786210E-07  0.2904367E+04  0.7818609E-02  0.8271579E-01
       -1   -1    0    0    0  501  0.00000000000E+00  0.00000000000E+00  0.13532453422E+04  0.13532453423E+04  0.50400001928E-02 0.  1.
        1   -1    0    0  501    0  0.00000000000E+00  0.00000000000E+00 -0.15583553850E+04  0.15583553850E+04  0.50400001928E-02 0. -1.
    10030    2    1    2    0    0  0.00000000000E+00  0.00000000000E+00 -0.20511004276E+03  0.29116007273E+04  0.29043671712E+04 0.  0.
        5    1    3    3  502    0  0.30624676447E+03 -0.95860219402E+02  0.13172487173E+04  0.13557811533E+04  0.46999998093E+01 0.  1.
       -5    1    3    3    0  502 -0.30624676447E+03  0.95860219402E+02 -0.15223587601E+04  0.15558195740E+04  0.46999998093E+01 0. -1.
</event>
<event>
 5   0  0.9950999E-07  0.2894276E+04  0.7818609E-02  0.8274583E-01
       -2   -1    0    0    0  501  0.00000000000E+00  0.00000000000E+00  0.14560560800E+04  0.14560560800E+04  0.25500000920E-02 0. -1.
        2   -1    0    0  501    0  0.00000000000E+00  0.00000000000E+00 -0.14382742883E+04  0.14382742883E+04  0.25500000920E-02 0.  1.
    10030    2    1    2    0    0  0.00000000000E+00  0.00000000000E+00  0.17781791659E+02  0.28943303683E+04  0.28942757451E+04 0.  0.
        3    1    3    3  502    0  0.47362879383E+03  0.21147646798E+03  0.13599017669E+04  0.14554653402E+04  0.10100000352E+00 0. -1.
       -3    1    3    3    0  502 -0.47362879383E+03 -0.21147646798E+03 -0.13421199752E+04  0.14388650281E+04  0.10100000352E+00 0.  1.
</event>
<event>
 5   0  0.3786210E-07  0.2901162E+04  0.7818609E-02  0.8272532E-01
        1   -1    0    0  501    0  0.00000000000E+00  0.00000000000E+00  0.14442549771E+04  0.14442549771E+04  0.50400001928E-02 0. -1.
       -1   -1    0    0    0  501  0.00000000000E+00  0.00000000000E+00 -0.14569343332E+04  0.14569343332E+04  0.50400001928E-02 0.  1.
    10030    2    1    2    0    0  0.00000000000E+00  0.00000000000E+00 -0.12679356142E+02  0.29011893103E+04  0.29011616032E+04 0.  0.
        5    1    3    3  502    0 -0.85278836573E+03 -0.11308593664E+04 -0.31950663352E+03  0.14519633198E+04  0.46999998093E+01 0.  1.
       -5    1    3    3    0  502  0.85278836573E+03  0.11308593664E+04  0.30682727738E+03  0.14492259904E+04  0.46999998093E+01 0. -1.
</event>
<event>
 5   0  0.9994311E-07  0.2903395E+04  0.7818609E-02  0.8271868E-01
       -2   -1    0    0    0  501  0.00000000000E+00  0.00000000000E+00  0.13115957321E+04  0.13115957321E+04  0.25500000920E-02 0. -1.
        2   -1    0    0  501    0  0.00000000000E+00  0.00000000000E+00 -0.16067646817E+04  0.16067646817E+04  0.25500000920E-02 0.  1.
    10030    2    1    2    0    0  0.00000000000E+00  0.00000000000E+00 -0.29516894958E+03  0.29183604138E+04  0.29033950465E+04 0.  0.
        2    1    3    3  502    0  0.37871533090E+03  0.11451837839E+04  0.66438777698E+03  0.13770556703E+04  0.25500000920E-02 0. -1.
       -2    1    3    3    0  502 -0.37871533090E+03 -0.11451837839E+04 -0.95955672655E+03  0.15413047435E+04  0.25500000920E-02 0.  1.
</event>
<event>
 5   0  0.3769563E-07  0.2906340E+04  0.7818609E-02  0.8270994E-01
        1   -1    0    0  501    0  0.00000000000E+00  0.00000000000E+00  0.26461840056E+04  0.26461840056E+04  0.50400001928E-02 0. -1.
       -1   -1    0    0    0  501  0.00000000000E+00  0.00000000000E+00 -0.79801818046E+03  0.79801818047E+03  0.50400001928E-02 0.  1.
    10030    2    1    2    0    0  0.00000000000E+00  0.00000000000E+00  0.18481658251E+04  0.34442021860E+04  0.29063399287E+04 0.  0.
        3    1    3    3  502    0  0.95797538264E+03  0.25576918068E+03  0.21830261210E+04  0.23976525525E+04  0.10100000352E+00 0. -1.
       -3    1    3    3    0  502 -0.95797538264E+03 -0.25576918068E+03 -0.33486029585E+03  0.10465496335E+04  0.10100000352E+00 0.  1.
</event>
<event>
 5   0  0.3770467E-07  0.2907722E+04  0.7818609E-02  0.8270584E-01
       -1   -1    0    0    0  501  0.00000000000E+00  0.00000000000E+00  0.11404399944E+04  0.11404399944E+04  0.50400001928E-02 0. -1.
        1   -1    0    0  501    0  0.00000000000E+00  0.00000000000E+00 -0.18534175792E+04  0.18534175792E+04  0.50400001928E-02 0.  1.
    10030    2    1    2    0    0  0.00000000000E+00  0.00000000000E+00 -0.71297758472E+03  0.29938575736E+04  0.29077218118E+04 0.  0.
        1    1    3    3  502    0 -0.55923972878E+03 -0.57282205303E+03  0.89306707137E+03  0.11993510632E+04  0.50400001928E-02 0. -1.
       -1    1    3    3    0  502  0.55923972878E+03  0.57282205303E+03 -0.16060446561E+04  0.17945065105E+04  0.50400001928E-02 0.  1.
</event>
<event>
 5   0  0.3638028E-07  0.2902802E+04  0.7818609E-02  0.8272044E-01
        1   -1    0    0  501    0  0.00000000000E+00  0.00000000000E+00  0.25488572120E+04  0.25488572120E+04  0.50400001928E-02 0.  1.
       -1   -1    0    0    0  501  0.00000000000E+00  0.00000000000E+00 -0.82647450511E+03  0.82647450512E+03  0.50400001928E-02 0. -1.
    10030    2    1    2    0    0  0.00000000000E+00  0.00000000000E+00  0.17223827069E+04  0.33753317171E+04  0.29028024410E+04 0.  0.
        4    1    3    3  502    0 -0.10507542010E+03  0.21835839767E+03 -0.80278547123E+03  0.83856267474E+03  0.12699999809E+01 0. -1.
       -4    1    3    3    0  502  0.10507542010E+03 -0.21835839767E+03  0.25251681781E+04  0.25367690424E+04  0.12699999809E+01 0.  1.
</event>
<event>
 5   0  0.1006893E-06  0.2909861E+04  0.7818609E-02  0.8269950E-01
       -2   -1    0    0    0  501  0.00000000000E+00  0.00000000000E+00  0.10937716541E+04  0.10937716541E+04  0.25500000920E-02 0.  1.
        2   -1    0    0  501    0  0.00000000000E+00  0.00000000000E+00 -0.19353418968E+04  0.19353418968E+04  0.25500000920E-02 0. -1.
    10030    2    1    2    0    0  0.00000000000E+00  0.00000000000E+00 -0.84157024275E+03  0.30291135509E+04  0.29098605518E+04 0.  0.
        4    1    3    3  502    0  0.12292529853E+04 -0.71214726856E+03 -0.93903625291E+02  0.14237401932E+04  0.12699999809E+01 0.  1.
       -4    1    3    3    0  502 -0.12292529853E+04  0.71214726856E+03 -0.74766661746E+03  0.16053733577E+04  0.12699999809E+01 0. -1.
</event>
<event>
 5   0  0.3769563E-07  0.2897254E+04  0.7818609E-02  0.8273695E-01
        1   -1    0    0  501    0  0.00000000000E+00  0.00000000000E+00  0.10786618175E+04  0.10786618175E+04  0.50400001928E-02 0. -1.
       -1   -1    0    0    0  501  0.00000000000E+00  0.00000000000E+00 -0.19454845074E+04  0.19454845074E+04  0.50400001928E-02 0.  1.
    10030    2    1    2    0    0  0.00000000000E+00  0.00000000000E+00 -0.86682268989E+03  0.30241463249E+04  0.28972537719E+04 0.  0.
        3    1    3    3  502    0 -0.57506169318E+03 -0.44953349179E+02 -0.18204462815E+04  0.19096443199E+04  0.10100000352E+00 0.  1.
       -3    1    3    3    0  502  0.57506169318E+03  0.44953349179E+02  0.95362359156E+03  0.11145020050E+04  0.10100000352E+00 0. -1.
</event>
<event>
 5   0  0.3786210E-07  0.2898653E+04  0.7818609E-02  0.8273278E-01
       -1   -1    0    0    0  501  0.00000000000E+00  0.00000000000E+00  0.13265208521E+04  0.13265208521E+04  0.50400001928E-02 0.  1.
        1   -1    0    0  501    0  0.00000000000E+00  0.00000000000E+00 -0.15835009448E+04  0.15835009448E+04  0.50400001928E-02 0. -1.
    10030    2    1    2    0    0  0.00000000000E+00  0.00000000000E+00 -0.25698009276E+03  0.29100217969E+04  0.28986528061E+04 0.  0.
        5    1    3    3  502    0 -0.29325076183E+03  0.13188370837E+04  0.39816035392E+03  0.14085031132E+04  0.46999998093E+01 0.  1.
       -5    1    3    3    0  502  0.29325076183E+03 -0.13188370837E+04 -0.65514044668E+03  0.15015186837E+04  0.46999998093E+01 0. -1.
</event>
<event>
 5   0  0.3638028E-07  0.2901718E+04  0.7818609E-02  0.8272367E-01
       -1   -1    0    0    0  501  0.00000000000E+00  0.00000000000E+00  0.16120132301E+04  0.16120132301E+04  0.50400001928E-02 0.  1.
        1   -1    0    0  501    0  0.00000000000E+00  0.00000000000E+00 -0.13058154474E+04  0.13058154474E+04  0.50400001928E-02 0. -1.
    10030    2    1    2    0    0  0.00000000000E+00  0.00000000000E+00  0.30619778269E+03  0.29178286775E+04  0.29017179582E+04 0.  0.
        4    1    3    3  502    0 -0.81345821599E+03  0.30917932777E+03 -0.10142445115E+04  0.13364129855E+04  0.12699999809E+01 0. -1.
       -4    1    3    3    0  502  0.81345821599E+03 -0.30917932777E+03  0.13204422941E+04  0.15814156920E+04  0.12699999809E+01 0.  1.
</event>
<event>
 5   0  0.9994311E-07  0.2896490E+04  0.7818609E-02  0.8273922E-01
       -2   -1    0    0    0  501  0.00000000000E+00  0.00000000000E+00  0.11138754464E+04  0.11138754464E+04  0.25500000920E-02 0.  1.
        2   -1    0    0  501    0  0.00000000000E+00  0.00000000000E+00 -0.18829881632E+04  0.18829881632E+04  0.25500000920E-02 0. -1.
    10030    2    1    2    0    0  0.00000000000E+00  0.00000000000E+00 -0.76911271683E+03  0.29968636095E+04  0.28964904838E+04 0.  0.
        2    1    3    3  502    0  0.16385534380E+02 -0.10727253497E+03  0.11096630706E+04  0.11149565071E+04  0.25500000920E-02 0.  1.
       -2    1    3    3    0  502 -0.16385534380E+02  0.10727253497E+03 -0.18787757875E+04  0.18819071024E+04  0.25500000920E-02 0. -1.
</event>
<event>
 5   0  0.1006893E-06  0.2894750E+04  0.7818609E-02  0.8274441E-01
        2   -1    0    0  501    0  0.00000000000E+00  0.00000000000E+00  0.24223103468E+04  0.24223103468E+04  0.25500000920E-02 0.  1.
       -2   -1    0    0    0  501  0.00000000000E+00  0.00000000000E+00 -0.86483311145E+03  0.86483311145E+03  0.25500000920E-02 0. -1.
    10030    2    1    2    0    0  0.00000000000E+00  0.00000000000E+00  0.15574772354E+04  0.32871434583E+04  0.28947498642E+04 0.  0.
        4    1    3    3  502    0 -0.10876286539E+04 -0.19247200758E+03 -0.28342044475E+03  0.11403115030E+04  0.12699999809E+01 0. -1.
       -4    1    3    3    0  502  0.10876286539E+04  0.19247200758E+03  0.18408976801E+04  0.21468319552E+04  0.12699999809E+01 0.  1.
</event>
<event>
 5   0  0.1006893E-06  0.2911111E+04  0.7818609E-02  0.8269579E-01
       -2   -1    0    0    0  501  0.00000000000E+00  0.00000000000E+00  0.11820691887E+04  0.11820691887E+04  0.25500000920E-02 0. -1.
        2   -1    0    0  501    0  0.00000000000E+00  0.00000000000E+00 -0.17923166462E+04  0.17923166462E+04  0.25500000920E-02 0.  1.
    10030    2    1    2    0    0  0.00000000000E+00  0.00000000000E+00 -0.61024745750E+03  0.29743858349E+04  0.29111113231E+04 0.  0.
        4    1    3    3  502    0  0.67030904410E+03  0.20730812712E+03 -0.16081268935E+04  0.17545268857E+04  0.12699999809E+01 0.  1.
       -4    1    3    3    0  502 -0.67030904410E+03 -0.20730812712E+03  0.99787943600E+03  0.12198589492E+04  0.12699999809E+01 0. -1.
</event>
<event>
 5   0  0.3638028E-07  0.2897740E+04  0.7818609E-02  0.8273550E-01
        1   -1    0    0  501    0  0.00000000000E+00  0.00000000000E+00  0.21964396986E+04  0.21964396986E+04  0.50400001928E-02 0. -1.
       -1   -1    0    0    0  501  0.00000000000E+00  0.00000000000E+00 -0.95573955249E+03  0.95573955251E+03  0.50400001928E-02 0.  1.
    10030    2    1    2    0    0  0.00000000000E+00  0.00000000000E+00  0.12407001461E+04  0.31521792511E+04  0.28977400122E+04 0.  0.
        4    1    3    3  502    0  0.55305036380E+03  0.12687549020E+04  0.10864835221E+04  0.17595601050E+04  0.12699999809E+01 0. -1.
       -4    1    3    3    0  502 -0.55305036380E+03 -0.12687549020E+04  0.15421662399E+03  0.13926191462E+04  0.12699999809E+01 0.  1.
</event>
<event>
 5   0  0.9994311E-07  0.2900029E+04  0.7818609E-02  0.8272869E-01
       -2   -1    0    0    0  501  0.00000000000E+00  0.00000000000E+00  0.98724190773E+03  0.98724190773E+03  0.25500000920E-02 0.  1.
        2   -1    0    0  501    0  0.00000000000E+00  0.00000000000E+00 -0.21297129966E+04  0.21297129966E+04  0.25500000920E-02 0. -1.
    10030    2    1    2    0    0  0.00000000000E+00  0.00000000000E+00 -0.11424710889E+04  0.31169549044E+04  0.29000289114E+04 0.  0.
        2    1    3    3  502    0 -0.60406306363E+03 -0.10057789758E+04 -0.14870636456E+04  0.18941599244E+04  0.25500000920E-02 0. -1.
       -2    1    3    3    0  502  0.60406306363E+03  0.10057789758E+04  0.34459255669E+03  0.12227949800E+04  0.25500000920E-02 0.  1.
</event>
<event>
 5   0  0.1006893E-06  0.2896025E+04  0.7818609E-02  0.8274061E-01
        2   -1    0    0  501    0  0.00000000000E+00  0.00000000000E+00  0.21010135323E+04  0.21010135323E+04  0.25500000920E-02 0.  1.
       -2   -1    0    0    0  501  0.00000000000E+00  0.00000000000E+00 -0.99796582976E+03  0.99796582977E+03  0.25500000920E-02 0. -1.
    10030    2    1    2    0    0  0.00000000000E+00  0.00000000000E+00  0.11030477025E+04  0.30989793621E+04  0.28960246636E+04 0.  0.
        4    1    3    3  502    0 -0.11043814959E+04 -0.52397578102E+03 -0.27910192177E+03  0.12538375506E+04  0.12699999809E+01 0. -1.
       -4    1    3    3    0  502  0.11043814959E+04  0.52397578102E+03  0.13821496243E+04  0.18451418115E+04  0.12699999809E+01 0.  1.
</event>
<event>
 5   0  0.1031339E-06  0.2897519E+04  0.7818609E-02  0.8273616E-01
        2   -1    0    0  501    0  0.00000000000E+00  0.00000000000E+00  0.19068367515E+04  0.19068367515E+04  0.25500000920E-02 0.  1.
       -2   -1    0    0    0  501  0.00000000000E+00  0.00000000000E+00 -0.11007253159E+04  0.11007253159E+04  0.25500000920E-02 0. -1.
    10030    2    1    2    0    0  0.00000000000E+00  0.00000000000E+00  0.80611143566E+03  0.30075620674E+04  0.28975185836E+04 0.  0.
        5    1    3    3  502    0 -0.85108633605E+03 -0.44420939870E+03  0.15292559388E+04  0.18056344474E+04  0.46999998093E+01 0.  1.
       -5    1    3    3    0  502  0.85108633605E+03  0.44420939870E+03 -0.72314450312E+03  0.12019276200E+04  0.46999998093E+01 0. -1.
</event>
<event>
 5   0  0.3378750E-07  0.2900949E+04  0.7818609E-02  0.8272595E-01
       -4   -1    0    0    0  501  0.00000000000E+00  0.00000000000E+00  0.14142217053E+04  0.14142222755E+04  0.12699999809E+01 0. -1.
        4   -1    0    0  501    0  0.00000000000E+00  0.00000000000E+00 -0.14876551596E+04  0.14876557017E+04  0.12699999809E+01 0.  1.
    10030    2    1    2    0    0  0.00000000000E+00  0.00000000000E+00 -0.73433454326E+02  0.29018779772E+04  0.29009486936E+04 0.  0.
        5    1    3    3  502    0  0.62997390757E+02  0.11016588891E+04 -0.97841765646E+03  0.14747691954E+04  0.46999998093E+01 0.  1.
       -5    1    3    3    0  502 -0.62997390757E+02 -0.11016588891E+04  0.90498420213E+03  0.14271087819E+04  0.46999998093E+01 0. -1.
</event>
<event>
 5   0  0.1031339E-06  0.2894460E+04  0.7818609E-02  0.8274528E-01
       -2   -1    0    0    0  501  0.00000000000E+00  0.00000000000E+00  0.11512120148E+04  0.11512120148E+04  0.25500000920E-02 0. -1.
        2   -1    0    0  501    0  0.00000000000E+00  0.00000000000E+00 -0.18193647720E+04  0.18193647720E+04  0.25500000920E-02 0.  1.
    10030    2    1    2    0    0  0.00000000000E+00  0.00000000000E+00 -0.66815275721E+03  0.29705767868E+04  0.28944599392E+04 0.  0.
        5    1    3    3  502    0  0.32301611802E+03  0.75214482709E+03 -0.15589404257E+04  0.17607891965E+04  0.46999998093E+01 0.  1.
       -5    1    3    3    0  502 -0.32301611802E+03 -0.75214482709E+03  0.89078766852E+03  0.12097875904E+04  0.46999998093E+01 0. -1.
</event>
<event>
 5   0  0.3786210E-07  0.2901137E+04  0.7818609E-02  0.8272539E-01
        1   -1    0    0  501    0  0.00000000000E+00  0.00000000000E+00  0.22358807337E+04  0.22358807337E+04  0.50400001928E-02 0. -1.
       -1   -1    0    0    0  501  0.00000000000E+00  0.00000000000E+00 -0.94108270964E+03  0.94108270965E+03  0.50400001928E-02 0.  1.
    10030    2    1    2    0    0  0.00000000000E+00  0.00000000000E+00  0.12947980241E+04  0.31769634434E+04  0.29011368112E+04 0.  0.
        5    1    3    3  502    0  0.90241155196E+03 -0.49972190896E+03 -0.46939426330E+03  0.11333232812E+04  0.46999998093E+01 0.  1.
       -5    1    3    3    0  502 -0.90241155196E+03  0.49972190896E+03  0.17641922874E+04  0.20436401621E+04  0.46999998093E+01 0. -1.
</event>
<event>
 5   0  0.3885904E-07  0.2905092E+04  0.7818609E-02  0.8271364E-01
        1   -1    0    0  501    0  0.00000000000E+00  0.00000000000E+00  0.12200132890E+04  0.12200132891E+04  0.50400001928E-02 0.  1.
       -1   -1    0    0    0  501  0.00000000000E+00  0.00000000000E+00 -0.17293995716E+04  0.17293995716E+04  0.50400001928E-02 0. -1.
    10030    2    1    2    0    0  0.00000000000E+00  0.00000000000E+00 -0.50938628253E+03  0.29494128606E+04  0.29050923974E+04 0.  0.
        2    1    3    3  502    0  0.11474095603E+04  0.78650322247E+03 -0.67910716998E+03  0.15480059969E+04  0.25500000920E-02 0. -1.
       -2    1    3    3    0  502 -0.11474095603E+04 -0.78650322247E+03  0.16972088745E+03  0.14014068637E+04  0.25500000920E-02 0.  1.
</event>
<event>
 5   0  0.1063979E-06  0.2900571E+04  0.7818609E-02  0.8272708E-01
       -2   -1    0    0    0  501  0.00000000000E+00  0.00000000000E+00  0.14565212382E+04  0.14565212382E+04  0.25500000920E-02 0.  1.
        2   -1    0    0  501    0  0.00000000000E+00  0.00000000000E+00 -0.14440765780E+04  0.14440765780E+04  0.25500000920E-02 0. -1.
    10030    2    1    2    0    0  0.00000000000E+00  0.00000000000E+00  0.12444660238E+02  0.29005978162E+04  0.29005711200E+04 0.  0.
        1    1    3    3  502    0  0.88476580526E+02  0.10235714052E+04  0.10298535949E+04  0.14546906729E+04  0.50400001928E-02 0.  1.
       -1    1    3    3    0  502 -0.88476580526E+02 -0.10235714052E+04 -0.10174089347E+04  0.14459071434E+04  0.50400001928E-02 0. -1.
</event>
<event>
 5   0  0.3638028E-07  0.2910594E+04  0.7818609E-02  0.8269733E-01
        1   -1    0    0  501    0  0.00000000000E+00  0.00000000000E+00  0.15705322064E+04  0.15705322064E+04  0.50400001928E-02 0. -1.
       -1   -1    0    0    0  501  0.00000000000E+00  0.00000000000E+00 -0.13485166670E+04  0.13485166671E+04  0.50400001928E-02 0.  1.
    10030    2    1    2    0    0  0.00000000000E+00  0.00000000000E+00  0.22201553933E+03  0.29190488734E+04  0.29105936552E+04 0.  0.
        4    1    3    3  502    0  0.34630322609E+03 -0.13938271811E+04 -0.12463671961E+03  0.14416019076E+04  0.12699999809E+01 0. -1.
       -4    1    3    3    0  502 -0.34630322609E+03  0.13938271811E+04  0.34665225894E+03  0.14774469658E+04  0.12699999809E+01 0.  1.
</event>
<event>
 5   0  0.9950999E-07  0.2899770E+04  0.7818609E-02  0.8272946E-01
        2   -1    0    0  501    0  0.00000000000E+00  0.00000000000E+00  0.26652270825E+04  0.26652270825E+04  0.25500000920E-02 0.  1.
       -2   -1    0    0    0  501  0.00000000000E+00  0.00000000000E+00 -0.78873848910E+03  0.78873848910E+03  0.25500000920E-02 0. -1.
    10030    2    1    2    0    0  0.00000000000E+00  0.00000000000E+00  0.18764885934E+04  0.34539655716E+04  0.28997704614E+04 0.  0.
        3    1    3    3  502    0  0.36101765677E+03 -0.39385147071E+03 -0.66720915084E+03  0.85476358758E+03  0.10100000352E+00 0. -1.
       -3    1    3    3    0  502 -0.36101765677E+03  0.39385147071E+03  0.25436977443E+04  0.25992019840E+04  0.10100000352E+00 0.  1.
</event>
<event>
 5   0  0.3786210E-07  0.2902323E+04  0.7818609E-02  0.8272187E-01
        1   -1    0    0  501    0  0.00000000000E+00  0.00000000000E+00  0.20621878885E+04  0.20621878885E+04  0.50400001928E-02 0. -1.
       -1   -1    0    0    0  501  0.00000000000E+00  0.00000000000E+00 -0.10211821683E+04  0.10211821684E+04  0.50400001928E-02 0.  1.
    10030    2    1    2    0    0  0.00000000000E+00  0.00000000000E+00  0.10410057201E+04  0.30833700568E+04  0.29023228625E+04 0.  0.
        5    1    3    3  502    0  0.92870358557E+03 -0.92825507439E+03 -0.13585511535E+03  0.13200858061E+04  0.46999998093E+01 0.  1.
       -5    1    3    3    0  502 -0.92870358557E+03  0.92825507439E+03  0.11768608355E+04  0.17632842508E+04  0.46999998093E+01 0. -1.
</event>
<event>
 5   0  0.3769563E-07  0.2896303E+04  0.7818609E-02  0.8273978E-01
       -1   -1    0    0    0  501  0.00000000000E+00  0.00000000000E+00  0.25338219913E+04  0.25338219913E+04  0.50400001928E-02 0.  1.
        1   -1    0    0  501    0  0.00000000000E+00  0.00000000000E+00 -0.82766005682E+03  0.82766005684E+03  0.50400001928E-02 0. -1.
    10030    2    1    2    0    0  0.00000000000E+00  0.00000000000E+00  0.17061619345E+04  0.33614820481E+04  0.28963033359E+04 0.  0.
        3    1    3    3  502    0 -0.14016738954E+04 -0.35873332057E+03  0.78187637001E+03  0.16446002470E+04  0.10100000352E+00 0. -1.
       -3    1    3    3    0  502  0.14016738954E+04  0.35873332057E+03  0.92428556445E+03  0.17168818011E+04  0.10100000352E+00 0.  1.
</event>
<event>
 5   0  0.3378750E-07  0.2895146E+04  0.7818609E-02  0.8274323E-01
        3   -1    0    0  501    0  0.00000000000E+00  0.00000000000E+00  0.12660006837E+04  0.12660006877E+04  0.10100000352E+00 0. -1.
       -3   -1    0    0    0  501  0.00000000000E+00  0.00000000000E+00 -0.16551871700E+04  0.16551871731E+04  0.10100000352E+00 0.  1.
    10030    2    1    2    0    0  0.00000000000E+00  0.00000000000E+00 -0.38918648634E+03  0.29211878608E+04  0.28951463515E+04 0.  0.
        1    1    3    3  502    0  0.75092414269E+02 -0.60600345540E+03  0.11296867096E+04  0.12841616411E+04  0.50400001928E-02 0. -1.
       -1    1    3    3    0  502 -0.75092414269E+02  0.60600345540E+03 -0.15188731959E+04  0.16370262197E+04  0.50400001928E-02 0.  1.
</event>
<event>
 5   0  0.9994311E-07  0.2895102E+04  0.7818609E-02  0.8274336E-01
        2   -1    0    0  501    0  0.00000000000E+00  0.00000000000E+00  0.17366152080E+04  0.17366152080E+04  0.25500000920E-02 0.  1.
       -2   -1    0    0    0  501  0.00000000000E+00  0.00000000000E+00 -0.12066020362E+04  0.12066020362E+04  0.25500000920E-02 0. -1.
    10030    2    1    2    0    0  0.00000000000E+00  0.00000000000E+00  0.53001317183E+03  0.29432172442E+04  0.28951016881E+04 0.  0.
        2    1    3    3  502    0  0.26435733649E+03 -0.10469886737E+04 -0.71503445020E+03  0.12951232950E+04  0.25500000920E-02 0. -1.
       -2    1    3    3    0  502 -0.26435733649E+03  0.10469886737E+04  0.12450476220E+04  0.16480939492E+04  0.25500000920E-02 0.  1.
</event>
<event>
 5   0  0.1031339E-06  0.2898614E+04  0.7818609E-02  0.8273290E-01
       -2   -1    0    0    0  501  0.00000000000E+00  0.00000000000E+00  0.12850815871E+04  0.12850815871E+04  0.25500000920E-02 0. -1.
        2   -1    0    0  501    0  0.00000000000E+00  0.00000000000E+00 -0.16345195501E+04  0.16345195501E+04  0.25500000920E-02 0.  1.
    10030    2    1    2    0    0  0.00000000000E+00  0.00000000000E+00 -0.34943796302E+03  0.29196011373E+04  0.28986141362E+04 0.  0.
        5    1    3    3  502    0 -0.76605496489E+03  0.16295138034E+03 -0.14030053479E+04  0.16068103366E+04  0.46999998093E+01 0.  1.
       -5    1    3    3    0  502  0.76605496489E+03 -0.16295138034E+03  0.10535673849E+04  0.13127908006E+04  0.46999998093E+01 0. -1.
</event>
<event>
 5   0  0.3638028E-07  0.2900651E+04  0.7818609E-02  0.8272684E-01
       -1   -1    0    0    0  501  0.00000000000E+00  0.00000000000E+00  0.19426749318E+04  0.19426749318E+04  0.50400001928E-02 0. -1.
        1   -1    0    0  501    0  0.00000000000E+00  0.00000000000E+00 -0.10827563192E+04  0.10827563192E+04  0.50400001928E-02 0.  1.
    10030    2    1    2    0    0  0.00000000000E+00  0.00000000000E+00  0.85991861262E+03  0.30254312510E+04  0.29006506571E+04 0.  0.
        4    1    3    3  502    0  0.59561747539E+03  0.71587251663E+03  0.15896380330E+04  0.18423312204E+04  0.12699999809E+01 0. -1.
       -4    1    3    3    0  502 -0.59561747539E+03 -0.71587251663E+03 -0.72971942034E+03  0.11831000306E+04  0.12699999809E+01 0.  1.
</event>
<event>
 5   0  0.1006893E-06  0.2903224E+04  0.7818609E-02  0.8271919E-01
       -2   -1    0    0    0  501  0.00000000000E+00  0.00000000000E+00  0.10305404923E+04  0.10305404923E+04  0.25500000920E-02 0. -1.
        2   -1    0    0  501    0  0.00000000000E+00  0.00000000000E+00 -0.20447296779E+04  0.20447296779E+04  0.25500000920E-02 0.  1.
    10030    2    1    2    0    0  0.00000000000E+00  0.00000000000E+00 -0.10141891856E+04  0.30752701702E+04  0.29032235387E+04 0.  0.
        4    1    3    3  502    0  0.38736020579E+03 -0.10685170892E+04  0.44941147917E+03  0.12221902427E+04  0.12699999809E+01 0. -1.
       -4    1    3    3    0  502 -0.38736020579E+03  0.10685170892E+04 -0.14636006647E+04  0.18530799275E+04  0.12699999809E+01 0.  1.
</event>
<event>
 5   0  0.3786210E-07  0.2898998E+04  0.7818609E-02  0.8273176E-01
       -1   -1    0    0    0  501  0.00000000000E+00  0.00000000000E+00  0.18846394099E+04  0.18846394099E+04  0.50400001928E-02 0.  1.
        1   -1    0    0  501    0  0.00000000000E+00  0.00000000000E+00 -0.11148271479E+04  0.11148271479E+04  0.50400001928E-02 0. -1.
    10030    2    1    2    0    0  0.00000000000E+00  0.00000000000E+00  0.76981226206E+03  0.29994665578E+04  0.28989978808E+04 0.  0.
        5    1    3    3  502    0 -0.46025068397E+02 -0.48816468390E+03  0.17962175995E+04  0.18619459768E+04  0.46999998093E+01 0.  1.
       -5    1    3    3    0  502  0.46025068397E+02  0.48816468390E+03 -0.10264053375E+04  0.11375205811E+04  0.46999998093E+01 0. -1.
</event>
<event>
 5   0  0.9994311E-07  0.2896504E+04  0.7818609E-02  0.8273918E-01
        2   -1    0    0  501    0  0.00000000000E+00  0.00000000000E+00  0.13905076334E+04  0.13905076334E+04  0.25500000920E-02 0. -1.
       -2   -1    0    0    0  501  0.00000000000E+00  0.00000000000E+00 -0.15083941238E+04  0.15083941238E+04  0.25500000920E-02 0.  1.
    10030    2    1    2    0    0  0.00000000000E+00  0.00000000000E+00 -0.11788649044E+03  0.28989017572E+04  0.28965037845E+04 0.  0.
        2    1    3    3  502    0 -0.83390421254E+03 -0.87896724237E+03  0.73509488807E+03  0.14171605919E+04  0.25500000920E-02 0. -1.
       -2    1    3    3    0  502  0.83390421254E+03  0.87896724237E+03 -0.85298137851E+03  0.14817411653E+04  0.25500000920E-02 0.  1.
</event>
<event>
 5   0  0.9950999E-07  0.2904744E+04  0.7818609E-02  0.8271467E-01
       -2   -1    0    0    0  501  0.00000000000E+00  0.00000000000E+00  0.25052521599E+04  0.25052521599E+04  0.25500000920E-02 0.  1.
        2   -1    0    0  501    0  0.00000000000E+00  0.00000000000E+00 -0.84198470442E+03  0.84198470442E+03  0.25500000920E-02 0. -1.
    10030    2    1    2    0    0  0.00000000000E+00  0.00000000000E+00  0.16632674555E+04  0.33472368643E+04  0.29047437060E+04 0.  0.
        3    1    3    3  502    0  0.49682726749E+03  0.36712399893E+03 -0.68304723432E+03  0.92096194212E+03  0.10100000352E+00 0. -1.
       -3    1    3    3    0  502 -0.49682726749E+03 -0.36712399893E+03  0.23463146898E+04  0.24262749222E+04  0.10100000352E+00 0.  1.
</event>
<event>
 5   0  0.3885904E-07  0.2900196E+04  0.7818609E-02  0.8272819E-01
       -1   -1    0    0    0  501  0.00000000000E+00  0.00000000000E+00  0.17738190111E+04  0.17738190111E+04  0.50400001928E-02 0.  1.
        1   -1    0    0  501    0  0.00000000000E+00  0.00000000000E+00 -0.11854555962E+04  0.11854555963E+04  0.50400001928E-02 0. -1.
    10030    2    1    2    0    0  0.00000000000E+00  0.00000000000E+00  0.58836341485E+03  0.29592746074E+04  0.29001956303E+04 0.  0.
        2    1    3    3  502    0 -0.20117547729E+03  0.26832290781E+03 -0.11453421697E+04  0.11934309537E+04  0.25500000920E-02 0. -1.
       -2    1    3    3    0  502  0.20117547729E+03 -0.26832290781E+03  0.17337055845E+04  0.17658436537E+04  0.25500000920E-02 0.  1.
</event>
<event>
 5   0  0.3786210E-07  0.2888451E+04  0.7818609E-02  0.8276322E-01
        1   -1    0    0  501    0  0.00000000000E+00  0.00000000000E+00  0.14195000776E+04  0.14195000776E+04  0.50400001928E-02 0. -1.
       -1   -1    0    0    0  501  0.00000000000E+00  0.00000000000E+00 -0.14693815039E+04  0.14693815040E+04  0.50400001928E-02 0.  1.
    10030    2    1    2    0    0  0.00000000000E+00  0.00000000000E+00 -0.49881426367E+02  0.28888815815E+04  0.28884509059E+04 0.  0.
        5    1    3    3  502    0 -0.10165173885E+04  0.72300432943E+03  0.70298798188E+03  0.14318718707E+04  0.46999998093E+01 0. -1.
       -5    1    3    3    0  502  0.10165173885E+04 -0.72300432943E+03 -0.75286940825E+03  0.14570097108E+04  0.46999998093E+01 0.  1.
</event>
<event>
 5   0  0.9950999E-07  0.2883567E+04  0.7818609E-02  0.8277784E-01
       -2   -1    0    0    0  501  0.00000000000E+00  0.00000000000E+00  0.92708229436E+03  0.92708229436E+03  0.25500000920E-02 0.  1.
        2   -1    0    0  501    0  0.00000000000E+00  0.00000000000E+00 -0.22422378612E+04  0.22422378612E+04  0.25500000920E-02 0. -1.
    10030    2    1    2    0    0  0.00000000000E+00  0.00000000000E+00 -0.13151555669E+04  0.31693201556E+04  0.28835665561E+04 0.  0.
        3    1    3    3  502    0  0.13715446201E+04  0.25020727641E+03 -0.10614129340E+04  0.17522373563E+04  0.10100000352E+00 0. -1.
       -3    1    3    3    0  502 -0.13715446201E+04 -0.25020727641E+03 -0.25374263291E+03  0.14170827993E+04  0.10100000352E+00 0.  1.
</event>
<event>
 5   0  0.9950999E-07  0.2921937E+04  0.7818609E-02  0.8266380E-01
       -2   -1    0    0    0  501  0.00000000000E+00  0.00000000000E+00  0.16100167544E+04  0.16100167544E+04  0.25500000920E-02 0.  1.
        2   -1    0    0  501    0  0.00000000000E+00  0.00000000000E+00 -0.13257182056E+04  0.13257182056E+04  0.25500000920E-02 0. -1.
    10030    2    1    2    0    0  0.00000000000E+00  0.00000000000E+00  0.28429854879E+03  0.29357349600E+04  0.29219367021E+04 0.  0.
        3    1    3    3  502    0 -0.44098712515E+03 -0.69177670269E+03 -0.10724448233E+04  0.13502453704E+04  0.10100000352E+00 0. -1.
       -3    1    3    3    0  502  0.44098712515E+03  0.69177670269E+03  0.13567433721E+04  0.15854895897E+04  0.10100000352E+00 0.  1.
</event>
<event>
 5   0  0.9994311E-07  0.2900472E+04  0.7818609E-02  0.8272737E-01
        2   -1    0    0  501    0  0.00000000000E+00  0.00000000000E+00  0.21535661570E+04  0.21535661570E+04  0.25500000920E-02 0.  1.
       -2   -1    0    0    0  501  0.00000000000E+00  0.00000000000E+00 -0.97660549843E+03  0.97660549843E+03  0.25500000920E-02 0. -1.
    10030    2    1    2    0    0  0.00000000000E+00  0.00000000000E+00  0.11769606586E+04  0.31301716555E+04  0.29004720652E+04 0.  0.
        2    1    3    3  502    0 -0.39708339827E+03  0.11295241547E+04  0.14716305746E+04  0.18971548670E+04  0.25500000920E-02 0. -1.
       -2    1    3    3    0  502  0.39708339827E+03 -0.11295241547E+04 -0.29466991600E+03  0.12330167885E+04  0.25500000920E-02 0.  1.
</event>
<event>
 5   0  0.3770467E-07  0.2899840E+04  0.7818609E-02  0.8272925E-01
        1   -1    0    0  501    0  0.00000000000E+00  0.00000000000E+00  0.10765317414E+04  0.10765317414E+04  0.50400001928E-02 0. -1.
       -1   -1    0    0    0  501  0.00000000000E+00  0.00000000000E+00 -0.19528160515E+04  0.19528160515E+04  0.50400001928E-02 0.  1.
    10030    2    1    2    0    0  0.00000000000E+00  0.00000000000E+00 -0.87628431005E+03  0.30293477929E+04  0.28998403160E+04 0.  0.
        1    1    3    3  502    0 -0.43053310144E+03 -0.30507397826E+03 -0.18489516419E+04  0.19227717123E+04  0.50400001928E-02 0.  1.
       -1    1    3    3    0  502  0.43053310144E+03  0.30507397826E+03  0.97266733185E+03  0.11065760806E+04  0.50400001928E-02 0. -1.
</event>
<event>
 5   0  0.1006893E-06  0.2899749E+04  0.7818609E-02  0.8272952E-01
        2   -1    0    0  501    0  0.00000000000E+00  0.00000000000E+00  0.88646108618E+03  0.88646108618E+03  0.25500000920E-02 0.  1.
       -2   -1    0    0    0  501  0.00000000000E+00  0.00000000000E+00 -0.23713802487E+04  0.23713802487E+04  0.25500000920E-02 0. -1.
    10030    2    1    2    0    0  0.00000000000E+00  0.00000000000E+00 -0.14849191625E+04  0.32578413349E+04  0.28997491692E+04 0.  0.
        4    1    3    3  502    0  0.68507430784E+03 -0.95370407133E+03 -0.16979264886E+04  0.20644210415E+04  0.12699999809E+01 0. -1.
       -4    1    3    3    0  502 -0.68507430784E+03  0.95370407133E+03  0.21300732604E+03  0.11934202934E+04  0.12699999809E+01 0.  1.
</event>
<event>
 5   0  0.9950999E-07  0.2928111E+04  0.7818609E-02  0.8264562E-01
       -2   -1    0    0    0  501  0.00000000000E+00  0.00000000000E+00  0.10039829149E+04  0.10039829150E+04  0.25500000920E-02 0.  1.
        2   -1    0    0  501    0  0.00000000000E+00  0.00000000000E+00 -0.21349551402E+04  0.21349551402E+04  0.25500000920E-02 0. -1.
    10030    2    1    2    0    0  0.00000000000E+00  0.00000000000E+00 -0.11309722253E+04  0.31389380552E+04  0.29281109849E+04 0.  0.
        3    1    3    3  502    0 -0.10600184160E+04  0.17610183355E+03 -0.16314711388E+04  0.19535477943E+04  0.10100000352E+00 0. -1.
       -3    1    3    3    0  502  0.10600184160E+04 -0.17610183355E+03  0.50049891347E+03  0.11853902609E+04  0.10100000352E+00 0.  1.
</event>
<event>
 5   0  0.3885904E-07  0.2899486E+04  0.7818609E-02  0.8273030E-01
       -1   -1    0    0    0  501  0.00000000000E+00  0.00000000000E+00  0.14978966103E+04  0.14978966103E+04  0.50400001928E-02 0.  1.
        1   -1    0    0  501    0  0.00000000000E+00  0.00000000000E+00 -0.14031372926E+04  0.14031372926E+04  0.50400001928E-02 0. -1.
    10030    2    1    2    0    0  0.00000000000E+00  0.00000000000E+00  0.94759317677E+02  0.29010339030E+04  0.28994858816E+04 0.  0.
        2    1    3    3  502    0  0.12316553745E+04  0.45537409442E+03  0.66204800326E+03  0.14705944669E+04  0.25500000920E-02 0.  1.
       -2    1    3    3    0  502 -0.12316553745E+04 -0.45537409442E+03 -0.56728868559E+03  0.14304394361E+04  0.25500000920E-02 0. -1.
</event>
<event>
 5   0  0.3770467E-07  0.2900872E+04  0.7818609E-02  0.8272618E-01
       -1   -1    0    0    0  501  0.00000000000E+00  0.00000000000E+00  0.16104370693E+04  0.16104370693E+04  0.50400001928E-02 0.  1.
        1   -1    0    0  501    0  0.00000000000E+00  0.00000000000E+00 -0.13063317026E+04  0.13063317026E+04  0.50400001928E-02 0. -1.
    10030    2    1    2    0    0  0.00000000000E+00  0.00000000000E+00  0.30410536669E+03  0.29167687719E+04  0.29008722817E+04 0.  0.
        1    1    3    3  502    0 -0.99975721942E+03 -0.21001709845E+03  0.11873275809E+04  0.15663232310E+04  0.50400001928E-02 0.  1.
       -1    1    3    3    0  502  0.99975721942E+03  0.21001709845E+03 -0.88322221423E+03  0.13504455410E+04  0.50400001928E-02 0. -1.
</event>
<event>
 5   0  0.1063979E-06  0.2899650E+04  0.7818609E-02  0.8272982E-01
        2   -1    0    0  501    0  0.00000000000E+00  0.00000000000E+00  0.18356495649E+04  0.18356495649E+04  0.25500000920E-02 0. -1.
       -2   -1    0    0    0  501  0.00000000000E+00  0.00000000000E+00 -0.11450948237E+04  0.11450948237E+04  0.25500000920E-02 0.  1.
    10030    2    1    2    0    0  0.00000000000E+00  0.00000000000E+00  0.69055474123E+03  0.29807443886E+04  0.28996501961E+04 0.  0.
        1    1    3    3  502    0  0.11893850730E+04 -0.51627960214E+03  0.10121192099E+04  0.16448607159E+04  0.50400001928E-02 0.  1.
       -1    1    3    3    0  502 -0.11893850730E+04  0.51627960214E+03 -0.32156446870E+03  0.13358836727E+04  0.50400001928E-02 0. -1.
</event>
<event>
 5   0  0.3786210E-07  0.2900680E+04  0.7818609E-02  0.8272675E-01
        1   -1    0    0  501    0  0.00000000000E+00  0.00000000000E+00  0.85572387647E+03  0.85572387648E+03  0.50400001928E-02 0. -1.
       -1   -1    0    0    0  501  0.00000000000E+00  0.00000000000E+00 -0.24581366950E+04  0.24581366950E+04  0.50400001928E-02 0.  1.
    10030    2    1    2    0    0  0.00000000000E+00  0.00000000000E+00 -0.16024128185E+04  0.33138605715E+04  0.29006801006E+04 0.  0.
        5    1    3    3  502    0 -0.45109810357E+03 -0.13496678459E+04 -0.11210319467E+04  0.18115814938E+04  0.46999998093E+01 0.  1.
       -5    1    3    3    0  502  0.45109810357E+03  0.13496678459E+04 -0.48138087182E+03  0.15022790776E+04  0.46999998093E+01 0. -1.
</event>
<event>
 5   0  0.3770467E-07  0.2897981E+04  0.7818609E-02  0.8273478E-01
       -1   -1    0    0    0  501  0.00000000000E+00  0.00000000000E+00  0.12146961257E+04  0.12146961257E+04  0.50400001928E-02 0. -1.
        1   -1    0    0  501    0  0.00000000000E+00  0.00000000000E+00 -0.17284764582E+04  0.17284764582E+04  0.50400001928E-02 0.  1.
    10030    2    1    2    0    0  0.00000000000E+00  0.00000000000E+00 -0.51378033250E+03  0.29431725839E+04  0.28979811298E+04 0.  0.
        1    1    3    3  502    0 -0.10277344897E+04 -0.89887103058E+03  0.23582094788E+03  0.13855752706E+04  0.50400001928E-02 0. -1.
       -1    1    3    3    0  502  0.10277344897E+04  0.89887103058E+03 -0.74960128038E+03  0.15575973134E+04  0.50400001928E-02 0.  1.
</event>
<event>
 5   0  0.9950999E-07  0.2901034E+04  0.7818609E-02  0.8272570E-01
        2   -1    0    0  501    0  0.00000000000E+00  0.00000000000E+00  0.10227056473E+04  0.10227056473E+04  0.25500000920E-02 0.  1.
       -2   -1    0    0    0  501  0.00000000000E+00  0.00000000000E+00 -0.20572868147E+04  0.20572868147E+04  0.25500000920E-02 0. -1.
    10030    2    1    2    0    0  0.00000000000E+00  0.00000000000E+00 -0.10345811674E+04  0.30799924620E+04  0.29010335011E+04 0.  0.
        3    1    3    3  502    0 -0.68968999230E+02 -0.11833843706E+04 -0.14048284430E+04  0.18381235693E+04  0.10100000352E+00 0. -1.
       -3    1    3    3    0  502  0.68968999230E+02  0.11833843706E+04  0.37024727559E+03  0.12418688928E+04  0.10100000352E+00 0.  1.
</event>
<event>
 5   0  0.3770467E-07  0.2903379E+04  0.7818609E-02  0.8271873E-01
       -1   -1    0    0    0  501  0.00000000000E+00  0.00000000000E+00  0.14026003973E+04  0.14026003973E+04  0.50400001928E-02 0. -1.
        1   -1    0    0  501    0  0.00000000000E+00  0.00000000000E+00 -0.15024965763E+04  0.15024965763E+04  0.50400001928E-02 0.  1.
    10030    2    1    2    0    0  0.00000000000E+00  0.00000000000E+00 -0.99896178973E+02  0.29050969736E+04  0.29033789245E+04 0.  0.
        1    1    3    3  502    0  0.13817212333E+04  0.33626370231E+03  0.24207294433E+03  0.14425068993E+04  0.50400001928E-02 0.  1.
       -1    1    3    3    0  502 -0.13817212333E+04 -0.33626370231E+03 -0.34196912330E+03  0.14625900743E+04  0.50400001928E-02 0. -1.
</event>
<event>
 5   0  0.3770467E-07  0.2899979E+04  0.7818609E-02  0.8272884E-01
       -1   -1    0    0    0  501  0.00000000000E+00  0.00000000000E+00  0.12082169014E+04  0.12082169014E+04  0.50400001928E-02 0.  1.
        1   -1    0    0  501    0  0.00000000000E+00  0.00000000000E+00 -0.17401421982E+04  0.17401421982E+04  0.50400001928E-02 0. -1.
    10030    2    1    2    0    0  0.00000000000E+00  0.00000000000E+00 -0.53192529678E+03  0.29483590996E+04  0.28999787687E+04 0.  0.
        1    1    3    3  502    0  0.65490254367E+03 -0.94705681817E+03  0.63002021300E+03  0.13125316862E+04  0.50400001928E-02 0.  1.
       -1    1    3    3    0  502 -0.65490254367E+03  0.94705681817E+03 -0.11619455098E+04  0.16358274133E+04  0.50400001928E-02 0. -1.
</event>
<event>
 5   0  0.3885904E-07  0.2920181E+04  0.7818609E-02  0.8266898E-01
       -1   -1    0    0    0  501  0.00000000000E+00  0.00000000000E+00  0.10765782124E+04  0.10765782125E+04  0.50400001928E-02 0.  1.
        1   -1    0    0  501    0  0.00000000000E+00  0.00000000000E+00 -0.19802230057E+04  0.19802230057E+04  0.50400001928E-02 0. -1.
    10030    2    1    2    0    0  0.00000000000E+00  0.00000000000E+00 -0.90364479326E+03  0.30568012182E+04  0.29201814627E+04 0.  0.
        2    1    3    3  502    0  0.16964856847E+03 -0.59083669473E+03  0.93452380018E+03  0.11185720226E+04  0.25500000920E-02 0.  1.
       -2    1    3    3    0  502 -0.16964856847E+03  0.59083669473E+03 -0.18381685934E+04  0.19382291956E+04  0.25500000920E-02 0. -1.
</event>
<event>
 5   0  0.1063979E-06  0.2884028E+04  0.7818609E-02  0.8277646E-01
        2   -1    0    0  501    0  0.00000000000E+00  0.00000000000E+00  0.17012572818E+04  0.17012572819E+04  0.25500000920E-02 0. -1.
       -2   -1    0    0    0  501  0.00000000000E+00  0.00000000000E+00 -0.12222746841E+04  0.12222746841E+04  0.25500000920E-02 0.  1.
    10030    2    1    2    0    0  0.00000000000E+00  0.00000000000E+00  0.47898259774E+03  0.29235319660E+04  0.28840275358E+04 0.  0.
        1    1    3    3  502    0 -0.99741227044E+03  0.68788047234E+03 -0.55313531180E+03  0.13319044465E+04  0.50400001928E-02 0.  1.
       -1    1    3    3    0  502  0.99741227044E+03 -0.68788047234E+03  0.10321179095E+04  0.15916275195E+04  0.50400001928E-02 0. -1.
</event>
<event>
 5   0  0.3378750E-07  0.2892611E+04  0.7818609E-02  0.8275079E-01
       -3   -1    0    0    0  501  0.00000000000E+00  0.00000000000E+00  0.13749047084E+04  0.13749047121E+04  0.10100000352E+00 0.  1.
        3   -1    0    0  501    0  0.00000000000E+00  0.00000000000E+00 -0.15214143175E+04  0.15214143208E+04  0.10100000352E+00 0. -1.
    10030    2    1    2    0    0  0.00000000000E+00  0.00000000000E+00 -0.14650960909E+03  0.28963190329E+04  0.28926110826E+04 0.  0.
        4    1    3    3  502    0 -0.19895803116E+03 -0.14228358577E+04 -0.24005745419E+03  0.14565971888E+04  0.12699999809E+01 0. -1.
       -4    1    3    3    0  502  0.19895803116E+03  0.14228358577E+04  0.93547845104E+02  0.14397218441E+04  0.12699999809E+01 0.  1.
</event>
<event>
 5   0  0.9950999E-07  0.2900074E+04  0.7818609E-02  0.8272855E-01
       -2   -1    0    0    0  501  0.00000000000E+00  0.00000000000E+00  0.14923634776E+04  0.14923634776E+04  0.25500000920E-02 0.  1.
        2   -1    0    0  501    0  0.00000000000E+00  0.00000000000E+00 -0.14089112320E+04  0.14089112320E+04  0.25500000920E-02 0. -1.
    10030    2    1    2    0    0  0.00000000000E+00  0.00000000000E+00  0.83452245620E+02  0.29012747097E+04  0.29000742514E+04 0.  0.
        3    1    3    3  502    0  0.22129365628E+03 -0.12596782807E+04 -0.64181903046E+03  0.14309758668E+04  0.10100000352E+00 0. -1.
       -3    1    3    3    0  502 -0.22129365628E+03  0.12596782807E+04  0.72527127608E+03  0.14702988429E+04  0.10100000352E+00 0.  1.
</event>
<event>
 5   0  0.9994311E-07  0.2916206E+04  0.7818609E-02  0.8268072E-01
       -2   -1    0    0    0  501  0.00000000000E+00  0.00000000000E+00  0.12533516125E+04  0.12533516125E+04  0.25500000920E-02 0. -1.
        2   -1    0    0  501    0  0.00000000000E+00  0.00000000000E+00 -0.16963027233E+04  0.16963027233E+04  0.25500000920E-02 0.  1.
    10030    2    1    2    0    0  0.00000000000E+00  0.00000000000E+00 -0.44295111074E+03  0.29496543358E+04  0.29162055851E+04 0.  0.
        2    1    3    3  502    0  0.19321636881E+03 -0.13643056533E+04  0.26086017312E+03  0.14023945631E+04  0.25500000920E-02 0. -1.
       -2    1    3    3    0  502 -0.19321636881E+03  0.13643056533E+04 -0.70381128387E+03  0.15472597727E+04  0.25500000920E-02 0.  1.
</event>
<event>
 5   0  0.1006893E-06  0.2898210E+04  0.7818609E-02  0.8273410E-01
        2   -1    0    0  501    0  0.00000000000E+00  0.00000000000E+00  0.17152846922E+04  0.17152846922E+04  0.25500000920E-02 0.  1.
       -2   -1    0    0    0  501  0.00000000000E+00  0.00000000000E+00 -0.12242309442E+04  0.12242309442E+04  0.25500000920E-02 0. -1.
    10030    2    1    2    0    0  0.00000000000E+00  0.00000000000E+00  0.49105374801E+03  0.29395156364E+04  0.28982095151E+04 0.  0.
        4    1    3    3  502    0 -0.81592891413E+03  0.12514942415E+03 -0.96245595454E+03  0.12679611385E+04  0.12699999809E+01 0. -1.
       -4    1    3    3    0  502  0.81592891413E+03 -0.12514942415E+03  0.14535097026E+04  0.16715544979E+04  0.12699999809E+01 0.  1.
</event>
<event>
 5   0  0.9950999E-07  0.2873284E+04  0.7818609E-02  0.8280871E-01
        2   -1    0    0  501    0  0.00000000000E+00  0.00000000000E+00  0.15796311300E+04  0.15796311300E+04  0.25500000920E-02 0.  1.
       -2   -1    0    0    0  501  0.00000000000E+00  0.00000000000E+00 -0.13065961460E+04  0.13065961460E+04  0.25500000920E-02 0. -1.
    10030    2    1    2    0    0  0.00000000000E+00  0.00000000000E+00  0.27303498398E+03  0.28862272760E+04  0.28732837984E+04 0.  0.
        3    1    3    3  502    0 -0.22673972451E+02  0.13089495860E+04  0.73085573101E+03  0.14993375996E+04  0.10100000352E+00 0.  1.
       -3    1    3    3    0  502  0.22673972451E+02 -0.13089495860E+04 -0.45782074704E+03  0.13868896764E+04  0.10100000352E+00 0. -1.
</event>
<event>
 5   0  0.3770467E-07  0.2865949E+04  0.7818609E-02  0.8283081E-01
       -1   -1    0    0    0  501  0.00000000000E+00  0.00000000000E+00  0.15347032089E+04  0.15347032089E+04  0.50400001928E-02 0. -1.
        1   -1    0    0  501    0  0.00000000000E+00  0.00000000000E+00 -0.13379885211E+04  0.13379885211E+04  0.50400001928E-02 0.  1.
    10030    2    1    2    0    0  0.00000000000E+00  0.00000000000E+00  0.19671468784E+03  0.28726917300E+04  0.28659485528E+04 0.  0.
        1    1    3    3  502    0  0.39706394889E+03  0.52653720673E+03 -0.11768443276E+04  0.13490232692E+04  0.50400001928E-02 0.  1.
       -1    1    3    3    0  502 -0.39706394889E+03 -0.52653720673E+03  0.13735590154E+04  0.15236684608E+04  0.50400001928E-02 0. -1.
</event>
<event>
 5   0  0.3378750E-07  0.2911346E+04  0.7818609E-02  0.8269510E-01
       -3   -1    0    0    0  501  0.00000000000E+00  0.00000000000E+00  0.12072957556E+04  0.12072957598E+04  0.10100000352E+00 0.  1.
        3   -1    0    0  501    0  0.00000000000E+00  0.00000000000E+00 -0.17551495223E+04  0.17551495252E+04  0.10100000352E+00 0. -1.
    10030    2    1    2    0    0  0.00000000000E+00  0.00000000000E+00 -0.54785376666E+03  0.29624452850E+04  0.29113464784E+04 0.  0.
        4    1    3    3  502    0 -0.36144285901E+03 -0.36066116205E+03  0.11131812947E+04  0.12247006254E+04  0.12699999809E+01 0.  1.
       -4    1    3    3    0  502  0.36144285901E+03  0.36066116205E+03 -0.16610350613E+04  0.17377446596E+04  0.12699999809E+01 0. -1.
</event>
<event>
 5   0  0.1006893E-06  0.2901883E+04  0.7818609E-02  0.8272317E-01
       -2   -1    0    0    0  501  0.00000000000E+00  0.00000000000E+00  0.16308924966E+04  0.16308924966E+04  0.25500000920E-02 0.  1.
        2   -1    0    0  501    0  0.00000000000E+00  0.00000000000E+00 -0.12908460864E+04  0.12908460864E+04  0.25500000920E-02 0. -1.
    10030    2    1    2    0    0  0.00000000000E+00  0.00000000000E+00  0.34004641020E+03  0.29217385831E+04  0.29018829726E+04 0.  0.
        4    1    3    3  502    0  0.14055613030E+03 -0.38635186366E+03 -0.12309738402E+04  0.12978143151E+04  0.12699999809E+01 0. -1.
       -4    1    3    3    0  502 -0.14055613030E+03  0.38635186366E+03  0.15710202504E+04  0.16239242680E+04  0.12699999809E+01 0.  1.
</event>
<event>
 5   0  0.9994311E-07  0.2903965E+04  0.7818609E-02  0.8271699E-01
        2   -1    0    0  501    0  0.00000000000E+00  0.00000000000E+00  0.27954294475E+04  0.27954294475E+04  0.25500000920E-02 0.  1.
       -2   -1    0    0    0  501  0.00000000000E+00  0.00000000000E+00 -0.75417858060E+03  0.75417858060E+03  0.25500000920E-02 0. -1.
    10030    2    1    2    0    0  0.00000000000E+00  0.00000000000E+00  0.20412508669E+04  0.35496080281E+04  0.29039648847E+04 0.  0.
        2    1    3    3  502    0 -0.13870476622E+04 -0.35250466904E+03  0.72098647137E+03  0.16024925120E+04  0.25500000920E-02 0. -1.
       -2    1    3    3    0  502  0.13870476622E+04  0.35250466904E+03  0.13202643955E+04  0.19471155161E+04  0.25500000920E-02 0.  1.
</event>
<event>
 5   0  0.3885904E-07  0.2896247E+04  0.7818609E-02  0.8273995E-01
       -1   -1    0    0    0  501  0.00000000000E+00  0.00000000000E+00  0.12682111709E+04  0.12682111709E+04  0.50400001928E-02 0.  1.
        1   -1    0    0  501    0  0.00000000000E+00  0.00000000000E+00 -0.16535588047E+04  0.16535588047E+04  0.50400001928E-02 0. -1.
    10030    2    1    2    0    0  0.00000000000E+00  0.00000000000E+00 -0.38534763377E+03  0.29217699756E+04  0.28962470529E+04 0.  0.
        2    1    3    3  502    0 -0.64587992718E+03  0.90237760252E+03  0.74590972984E+03  0.13370966842E+04  0.25500000920E-02 0.  1.
       -2    1    3    3    0  502  0.64587992718E+03 -0.90237760252E+03 -0.11312573636E+04  0.15846732914E+04  0.25500000920E-02 0. -1.
</event>
<event>
 5   0  0.3885904E-07  0.2902988E+04  0.7818609E-02  0.8271989E-01
        1   -1    0    0  501    0  0.00000000000E+00  0.00000000000E+00  0.23512288128E+04  0.23512288128E+04  0.50400001928E-02 0.  1.
       -1   -1    0    0    0  501  0.00000000000E+00  0.00000000000E+00 -0.89605666112E+03  0.89605666114E+03  0.50400001928E-02 0. -1.
    10030    2    1    2    0    0  0.00000000000E+00  0.00000000000E+00  0.14551721517E+04  0.32472854740E+04  0.29029875918E+04 0.  0.
        2    1    3    3  502    0 -0.10573652120E+04 -0.32888137744E+03 -0.32214240766E+03  0.11532388663E+04  0.25500000920E-02 0. -1.
       -2    1    3    3    0  502  0.10573652120E+04  0.32888137744E+03  0.17773145594E+04  0.20940466076E+04  0.25500000920E-02 0.  1.
</event>
<event>
 5   0  0.1063979E-06  0.2898755E+04  0.7818609E-02  0.8273248E-01
        2   -1    0    0  501    0  0.00000000000E+00  0.00000000000E+00  0.16144098312E+04  0.16144098312E+04  0.25500000920E-02 0. -1.
       -2   -1    0    0    0  501  0.00000000000E+00  0.00000000000E+00 -0.13012154932E+04  0.13012154932E+04  0.25500000920E-02 0.  1.
    10030    2    1    2    0    0  0.00000000000E+00  0.00000000000E+00  0.31319433801E+03  0.29156253243E+04  0.28987549635E+04 0.  0.
        1    1    3    3  502    0  0.23490950417E+03 -0.72464290961E+03  0.13968204817E+04  0.15910365425E+04  0.50400001928E-02 0. -1.
       -1    1    3    3    0  502 -0.23490950417E+03  0.72464290961E+03 -0.10836261437E+04  0.13245887818E+04  0.50400001928E-02 0.  1.
</event>
<event>
 5   0  0.3770467E-07  0.2900859E+04  0.7818609E-02  0.8272622E-01
        1   -1    0    0  501    0  0.00000000000E+00  0.00000000000E+00  0.10652707835E+04  0.10652707835E+04  0.50400001928E-02 0.  1.
       -1   -1    0    0    0  501  0.00000000000E+00  0.00000000000E+00 -0.19748459986E+04  0.19748459986E+04  0.50400001928E-02 0. -1.
    10030    2    1    2    0    0  0.00000000000E+00  0.00000000000E+00 -0.90957521509E+03  0.30401167821E+04  0.29008590067E+04 0.  0.
        1    1    3    3  502    0 -0.51869138308E+03  0.50312768498E+03 -0.17727636485E+04  0.19143848025E+04  0.50400001928E-02 0. -1.
       -1    1    3    3    0  502  0.51869138308E+03 -0.50312768498E+03  0.86318843345E+03  0.11257319796E+04  0.50400001928E-02 0.  1.
</event>
<event>
 5   0  0.3786210E-07  0.2900791E+04  0.7818609E-02  0.8272642E-01
       -1   -1    0    0    0  501  0.00000000000E+00  0.00000000000E+00  0.94675676556E+03  0.94675676558E+03  0.50400001928E-02 0.  1.
        1   -1    0    0  501    0  0.00000000000E+00  0.00000000000E+00 -0.22219503299E+04  0.22219503299E+04  0.50400001928E-02 0. -1.
    10030    2    1    2    0    0  0.00000000000E+00  0.00000000000E+00 -0.12751935643E+04  0.31687070954E+04  0.29007905871E+04 0.  0.
        5    1    3    3  502    0 -0.58757116504E+03 -0.13258715508E+04 -0.66074796607E+03  0.15936703573E+04  0.46999998093E+01 0. -1.
       -5    1    3    3    0  502  0.58757116504E+03  0.13258715508E+04 -0.61444559822E+03  0.15750367381E+04  0.46999998093E+01 0.  1.
</event>
<event>
 5   0  0.3770467E-07  0.2911909E+04  0.7818609E-02  0.8269343E-01
       -1   -1    0    0    0  501  0.00000000000E+00  0.00000000000E+00  0.12269617135E+04  0.12269617135E+04  0.50400001928E-02 0.  1.
        1   -1    0    0  501    0  0.00000000000E+00  0.00000000000E+00 -0.17276849045E+04  0.17276849045E+04  0.50400001928E-02 0. -1.
    10030    2    1    2    0    0  0.00000000000E+00  0.00000000000E+00 -0.50072319101E+03  0.29546466179E+04  0.29119088109E+04 0.  0.
        1    1    3    3  502    0  0.40328871519E+03  0.13701669283E+04 -0.53700383693E+03  0.15259004948E+04  0.50400001928E-02 0. -1.
       -1    1    3    3    0  502 -0.40328871519E+03 -0.13701669283E+04  0.36280645928E+02  0.14287461231E+04  0.50400001928E-02 0.  1.
</event>
<event>
 5   0  0.3769563E-07  0.2900563E+04  0.7818609E-02  0.8272710E-01
        1   -1    0    0  501    0  0.00000000000E+00  0.00000000000E+00  0.26160364942E+04  0.26160364942E+04  0.50400001928E-02 0.  1.
       -1   -1    0    0    0  501  0.00000000000E+00  0.00000000000E+00 -0.80400909086E+03  0.80400909088E+03  0.50400001928E-02 0. -1.
    10030    2    1    2    0    0  0.00000000000E+00  0.00000000000E+00  0.18120274033E+04  0.34200455851E+04  0.29005634786E+04 0.  0.
        3    1    3    3  502    0 -0.78567339700E+03  0.36820779068E+03  0.22762326619E+04  0.24359997547E+04  0.10100000352E+00 0.  1.
       -3    1    3    3    0  502  0.78567339700E+03 -0.36820779068E+03 -0.46420525857E+03  0.98404583031E+03  0.10100000352E+00 0. -1.
</event>
<event>
 5   0  0.9950999E-07  0.2876588E+04  0.7818609E-02  0.8279877E-01
        2   -1    0    0  501    0  0.00000000000E+00  0.00000000000E+00  0.18237360192E+04  0.18237360192E+04  0.25500000920E-02 0. -1.
       -2   -1    0    0    0  501  0.00000000000E+00  0.00000000000E+00 -0.11343141431E+04  0.11343141432E+04  0.25500000920E-02 0.  1.
    10030    2    1    2    0    0  0.00000000000E+00  0.00000000000E+00  0.68942187601E+03  0.29580501623E+04  0.28765879510E+04 0.  0.
        3    1    3    3  502    0 -0.56114811740E+03 -0.13224239369E+04  0.27201764553E+03  0.14620827227E+04  0.10100000352E+00 0. -1.
       -3    1    3    3    0  502  0.56114811740E+03  0.13224239369E+04  0.41740423048E+03  0.14959674396E+04  0.10100000352E+00 0.  1.
</event>
<event>
 5   0  0.1063979E-06  0.2907267E+04  0.7818609E-02  0.8270719E-01
       -2   -1    0    0    0  501  0.00000000000E+00  0.00000000000E+00  0.10050503196E+04  0.10050503196E+04  0.25500000920E-02 0. -1.
        2   -1    0    0  501    0  0.00000000000E+00  0.00000000000E+00 -0.21024326823E+04  0.21024326823E+04  0.25500000920E-02 0.  1.
    10030    2    1    2    0    0  0.00000000000E+00  0.00000000000E+00 -0.10973823626E+04  0.31074830019E+04  0.29072671975E+04 0.  0.
        1    1    3    3  502    0 -0.10327774294E+04 -0.98056630764E+03 -0.23722841130E+03  0.14437509555E+04  0.50400001928E-02 0. -1.
       -1    1    3    3    0  502  0.10327774294E+04  0.98056630764E+03 -0.86015395133E+03  0.16637320464E+04  0.50400001928E-02 0.  1.
</event>
<event>
 5   0  0.3378750E-07  0.2898347E+04  0.7818609E-02  0.8273370E-01
       -3   -1    0    0    0  501  0.00000000000E+00  0.00000000000E+00  0.11186336726E+04  0.11186336771E+04  0.10100000352E+00 0. -1.
        3   -1    0    0  501    0  0.00000000000E+00  0.00000000000E+00 -0.18773826377E+04  0.18773826404E+04  0.10100000352E+00 0.  1.
    10030    2    1    2    0    0  0.00000000000E+00  0.00000000000E+00 -0.75874896508E+03  0.29960163175E+04  0.28983467327E+04 0.  0.
        3    1    3    3  502    0  0.40230416558E+03  0.10048774304E+04  0.61667109081E+03  0.12457570133E+04  0.10100000352E+00 0. -1.
       -3    1    3    3    0  502 -0.40230416558E+03 -0.10048774304E+04 -0.13754200559E+04  0.17502593042E+04  0.10100000352E+00 0.  1.
</event>
<event>
 5   0  0.1006893E-06  0.2906760E+04  0.7818609E-02  0.8270869E-01
       -2   -1    0    0    0  501  0.00000000000E+00  0.00000000000E+00  0.17766687923E+04  0.17766687923E+04  0.25500000920E-02 0. -1.
        2   -1    0    0  501    0  0.00000000000E+00  0.00000000000E+00 -0.11889181768E+04  0.11889181768E+04  0.25500000920E-02 0.  1.
    10030    2    1    2    0    0  0.00000000000E+00  0.00000000000E+00  0.58775061558E+03  0.29655869691E+04  0.29067602731E+04 0.  0.
        4    1    3    3  502    0 -0.44398952711E+03  0.16008551443E+03  0.16963065496E+04  0.17607417741E+04  0.12699999809E+01 0. -1.
       -4    1    3    3    0  502  0.44398952711E+03 -0.16008551443E+03 -0.11085559340E+04  0.12048451950E+04  0.12699999809E+01 0.  1.
</event>
<event>
 5   0  0.3885904E-07  0.2916354E+04  0.7818609E-02  0.8268028E-01
       -1   -1    0    0    0  501  0.00000000000E+00  0.00000000000E+00  0.26261677952E+04  0.26261677952E+04  0.50400001928E-02 0.  1.
        1   -1    0    0  501    0  0.00000000000E+00  0.00000000000E+00 -0.80965107676E+03  0.80965107678E+03  0.50400001928E-02 0. -1.
    10030    2    1    2    0    0  0.00000000000E+00  0.00000000000E+00  0.18165167184E+04  0.34358188720E+04  0.29163536021E+04 0.  0.
        2    1    3    3  502    0  0.98004350433E+03  0.55800399077E+03  0.19972568365E+04  0.22936627030E+04  0.25500000920E-02 0.  1.
       -2    1    3    3    0  502 -0.98004350433E+03 -0.55800399077E+03 -0.18074011807E+03  0.11421561690E+04  0.25500000920E-02 0. -1.
</event>
<event>
 5   0  0.1031339E-06  0.2908149E+04  0.7818609E-02  0.8270457E-01
        2   -1    0    0  501    0  0.00000000000E+00  0.00000000000E+00  0.14424809115E+04  0.14424809115E+04  0.25500000920E-02 0. -1.
       -2   -1    0    0    0  501  0.00000000000E+00  0.00000000000E+00 -0.14657617271E+04  0.14657617271E+04  0.25500000920E-02 0.  1.
    10030    2    1    2    0    0  0.00000000000E+00  0.00000000000E+00 -0.23280815650E+02  0.29082426386E+04  0.29081494543E+04 0.  0.
        5    1    3    3  502    0  0.27468811757E+03 -0.14912527833E+03 -0.14317631309E+04  0.14654895645E+04  0.46999998093E+01 0.  1.
       -5    1    3    3    0  502 -0.27468811757E+03  0.14912527833E+03  0.14084823153E+04  0.14427530741E+04  0.46999998093E+01 0. -1.
</event>
<event>
 5   0  0.1031339E-06  0.2897583E+04  0.7818609E-02  0.8273597E-01
        2   -1    0    0  501    0  0.00000000000E+00  0.00000000000E+00  0.23765096043E+04  0.23765096043E+04  0.25500000920E-02 0. -1.
       -2   -1    0    0    0  501  0.00000000000E+00  0.00000000000E+00 -0.88322643643E+03  0.88322643643E+03  0.25500000920E-02 0.  1.
    10030    2    1    2    0    0  0.00000000000E+00  0.00000000000E+00  0.14932831679E+04  0.32597360407E+04  0.28975825158E+04 0.  0.
        5    1    3    3  502    0 -0.58497326154E+03 -0.13227558389E+04  0.84141640836E+03  0.16732843118E+04  0.46999998093E+01 0. -1.
       -5    1    3    3    0  502  0.58497326154E+03  0.13227558389E+04  0.65186675952E+03  0.15864517289E+04  0.46999998093E+01 0.  1.
</event>
<event>
 5   0  0.9950999E-07  0.2896706E+04  0.7818609E-02  0.8273858E-01
       -2   -1    0    0    0  501  0.00000000000E+00  0.00000000000E+00  0.96873541509E+03  0.96873541509E+03  0.25500000920E-02 0.  1.
        2   -1    0    0  501    0  0.00000000000E+00  0.00000000000E+00 -0.21654271464E+04  0.21654271464E+04  0.25500000920E-02 0. -1.
    10030    2    1    2    0    0  0.00000000000E+00  0.00000000000E+00 -0.11966917313E+04  0.31341625615E+04  0.28967056913E+04 0.  0.
        3    1    3    3  502    0 -0.30352842065E+02 -0.14044310094E+04 -0.97992909573E+03  0.17127780936E+04  0.10100000352E+00 0.  1.
       -3    1    3    3    0  502  0.30352842065E+02  0.14044310094E+04 -0.21676263558E+03  0.14213844679E+04  0.10100000352E+00 0. -1.
</event>
<event>
 5   0  0.1031339E-06  0.2901834E+04  0.7818609E-02  0.8272332E-01
       -2   -1    0    0    0  501  0.00000000000E+00  0.00000000000E+00  0.12693934641E+04  0.12693934641E+04  0.25500000920E-02 0. -1.
        2   -1    0    0  501    0  0.00000000000E+00  0.00000000000E+00 -0.16583981218E+04  0.16583981218E+04  0.25500000920E-02 0.  1.
    10030    2    1    2    0    0  0.00000000000E+00  0.00000000000E+00 -0.38900465770E+03  0.29277915858E+04  0.29018337213E+04 0.  0.
        5    1    3    3  502    0 -0.82353399492E+03 -0.79974259218E+03 -0.10897622074E+04  0.15828456062E+04  0.46999998093E+01 0.  1.
       -5    1    3    3    0  502  0.82353399492E+03  0.79974259218E+03  0.70075754968E+03  0.13449459796E+04  0.46999998093E+01 0. -1.
</event>
<event>
 5   0  0.9994311E-07  0.2869056E+04  0.7818609E-02  0.8282144E-01
        2   -1    0    0  501    0  0.00000000000E+00  0.00000000000E+00  0.16540550522E+04  0.16540550522E+04  0.25500000920E-02 0. -1.
       -2   -1    0    0    0  501  0.00000000000E+00  0.00000000000E+00 -0.12441370775E+04  0.12441370775E+04  0.25500000920E-02 0.  1.
    10030    2    1    2    0    0  0.00000000000E+00  0.00000000000E+00  0.40991797472E+03  0.28981921297E+04  0.28690564432E+04 0.  0.
        2    1    3    3  502    0  0.55371268829E+02  0.87956725091E+02 -0.12403287103E+04  0.12446757299E+04  0.25500000920E-02 0.  1.
       -2    1    3    3    0  502 -0.55371268829E+02 -0.87956725091E+02  0.16502466850E+04  0.16535163998E+04  0.25500000920E-02 0. -1.
</event>
<event>
 5   0  0.1031339E-06  0.2905358E+04  0.7818609E-02  0.8271285E-01
        2   -1    0    0  501    0  0.00000000000E+00  0.00000000000E+00  0.12879759743E+04  0.12879759743E+04  0.25500000920E-02 0.  1.
       -2   -1    0    0    0  501  0.00000000000E+00  0.00000000000E+00 -0.16384434229E+04  0.16384434229E+04  0.25500000920E-02 0. -1.
    10030    2    1    2    0    0  0.00000000000E+00  0.00000000000E+00 -0.35046744866E+03  0.29264193972E+04  0.29053576468E+04 0.  0.
        5    1    3    3  502    0 -0.33977037899E+03 -0.13767595084E+04 -0.49270588228E+03  0.15012301058E+04  0.46999998093E+01 0. -1.
       -5    1    3    3    0  502  0.33977037899E+03  0.13767595084E+04  0.14223843362E+03  0.14251892914E+04  0.46999998093E+01 0.  1.
</event>
<event>
 5   0  0.9994311E-07  0.2894877E+04  0.7818609E-02  0.8274403E-01
        2   -1    0    0  501    0  0.00000000000E+00  0.00000000000E+00  0.11730329497E+04  0.11730329497E+04  0.25500000920E-02 0.  1.
       -2   -1    0    0    0  501  0.00000000000E+00  0.00000000000E+00 -0.17860349321E+04  0.17860349321E+04  0.25500000920E-02 0. -1.
    10030    2    1    2    0    0  0.00000000000E+00  0.00000000000E+00 -0.61300198242E+03  0.29590678818E+04  0.28948767329E+04 0.  0.
        2    1    3    3  502    0 -0.31455454873E+03  0.10504284844E+04  0.65929569292E+03  0.12794590168E+04  0.25500000920E-02 0.  1.
       -2    1    3    3    0  502  0.31455454873E+03 -0.10504284844E+04 -0.12722976753E+04  0.16796088651E+04  0.25500000920E-02 0. -1.
</event>
<event>
 5   0  0.1006893E-06  0.2909725E+04  0.7818609E-02  0.8269990E-01
       -2   -1    0    0    0  501  0.00000000000E+00  0.00000000000E+00  0.93365383610E+03  0.93365383610E+03  0.25500000920E-02 0.  1.
        2   -1    0    0  501    0  0.00000000000E+00  0.00000000000E+00 -0.22670338045E+04  0.22670338045E+04  0.25500000920E-02 0. -1.
    10030    2    1    2    0    0  0.00000000000E+00  0.00000000000E+00 -0.13333799684E+04  0.32006876406E+04  0.29097249411E+04 0.  0.
        4    1    3    3  502    0 -0.99521600654E+03  0.23296668816E+03 -0.18055423854E+04  0.20747803006E+04  0.12699999809E+01 0. -1.
       -4    1    3    3    0  502  0.99521600654E+03 -0.23296668816E+03  0.47216241695E+03  0.11259073400E+04  0.12699999809E+01 0.  1.
</event>
<event>
 5   0  0.1063979E-06  0.2895183E+04  0.7818609E-02  0.8274312E-01
        2   -1    0    0  501    0  0.00000000000E+00  0.00000000000E+00  0.17182872882E+04  0.17182872882E+04  0.25500000920E-02 0. -1.
       -2   -1    0    0    0  501  0.00000000000E+00  0.00000000000E+00 -0.12195409902E+04  0.12195409902E+04  0.25500000920E-02 0.  1.
    10030    2    1    2    0    0  0.00000000000E+00  0.00000000000E+00  0.49874629802E+03  0.29378282784E+04  0.28951834352E+04 0.  0.
        1    1    3    3  502    0  0.34560395018E+02  0.97462974817E+03  0.13349081740E+04  0.16532021655E+04  0.50400001928E-02 0. -1.
       -1    1    3    3    0  502 -0.34560395018E+02 -0.97462974817E+03 -0.83616187602E+03  0.12846261129E+04  0.50400001928E-02 0.  1.
</event>
<event>
 5   0  0.3770467E-07  0.2903159E+04  0.7818609E-02  0.8271938E-01
       -1   -1    0    0    0  501  0.00000000000E+00  0.00000000000E+00  0.10654405155E+04  0.10654405155E+04  0.50400001928E-02 0. -1.
        1   -1    0    0  501    0  0.00000000000E+00  0.00000000000E+00 -0.19776642423E+04  0.19776642423E+04  0.50400001928E-02 0.  1.
    10030    2    1    2    0    0  0.00000000000E+00  0.00000000000E+00 -0.91222372680E+03  0.30431047577E+04  0.29031593891E+04 0.  0.
        1    1    3    3  502    0 -0.55355051085E+03 -0.13262449070E+04 -0.67026363137E+03  0.15857481064E+04  0.50400001928E-02 0.  1.
       -1    1    3    3    0  502  0.55355051085E+03  0.13262449070E+04 -0.24196009543E+03  0.14573566513E+04  0.50400001928E-02 0. -1.
</event>
<event>
 5   0  0.3786210E-07  0.2878152E+04  0.7818609E-02  0.8279408E-01
       -1   -1    0    0    0  501  0.00000000000E+00  0.00000000000E+00  0.11575849495E+04  0.11575849495E+04  0.50400001928E-02 0. -1.
        1   -1    0    0  501    0  0.00000000000E+00  0.00000000000E+00 -0.17890170737E+04  0.17890170738E+04  0.50400001928E-02 0.  1.
    10030    2    1    2    0    0  0.00000000000E+00  0.00000000000E+00 -0.63143212428E+03  0.29466020232E+04  0.28781516561E+04 0.  0.
        5    1    3    3  502    0 -0.54026717665E+03 -0.38115659244E+03 -0.16242963286E+04  0.17537187983E+04  0.46999998093E+01 0.  1.
       -5    1    3    3    0  502  0.54026717665E+03  0.38115659244E+03  0.99286420436E+03  0.11928832250E+04  0.46999998093E+01 0. -1.
</event>
<event>
 5   0  0.3885904E-07  0.2858804E+04  0.7818609E-02  0.8285241E-01
        1   -1    0    0  501    0  0.00000000000E+00  0.00000000000E+00  0.16256127865E+04  0.16256127865E+04  0.50400001928E-02 0. -1.
       -1   -1    0    0    0  501  0.00000000000E+00  0.00000000000E+00 -0.12568736981E+04  0.12568736981E+04  0.50400001928E-02 0.  1.
    10030    2    1    2    0    0  0.00000000000E+00  0.00000000000E+00  0.36873908843E+03  0.28824864847E+04  0.28588039140E+04 0.  0.
        2    1    3    3  502    0 -0.12344555823E+04 -0.64327552641E+03  0.51187717472E+03  0.14831393157E+04  0.25500000920E-02 0.  1.
       -2    1    3    3    0  502  0.12344555823E+04  0.64327552641E+03 -0.14313808630E+03  0.13993471690E+04  0.25500000920E-02 0. -1.
</event>
<event>
 5   0  0.3786210E-07  0.2896941E+04  0.7818609E-02  0.8273788E-01
        1   -1    0    0  501    0  0.00000000000E+00  0.00000000000E+00  0.16584608610E+04  0.16584608610E+04  0.50400001928E-02 0. -1.
       -1   -1    0    0    0  501  0.00000000000E+00  0.00000000000E+00 -0.12650687251E+04  0.12650687251E+04  0.50400001928E-02 0.  1.
    10030    2    1    2    0    0  0.00000000000E+00  0.00000000000E+00  0.39339213585E+03  0.29235295861E+04  0.28969411226E+04 0.  0.
        5    1    3    3  502    0  0.11497601434E+04  0.57022828451E+03 -0.48098502886E+03  0.13705755623E+04  0.46999998093E+01 0. -1.
       -5    1    3    3    0  502 -0.11497601434E+04 -0.57022828451E+03  0.87437716471E+03  0.15529540238E+04  0.46999998093E+01 0.  1.
</event>
<event>
 5   0  0.1063979E-06  0.2901212E+04  0.7818609E-02  0.8272517E-01
        2   -1    0    0  501    0  0.00000000000E+00  0.00000000000E+00  0.19773493257E+04  0.19773493257E+04  0.25500000920E-02 0. -1.
       -2   -1    0    0    0  501  0.00000000000E+00  0.00000000000E+00 -0.10641811971E+04  0.10641811971E+04  0.25500000920E-02 0.  1.
    10030    2    1    2    0    0  0.00000000000E+00  0.00000000000E+00  0.91316812860E+03  0.30415305228E+04  0.29012121415E+04 0.  0.
        1    1    3    3  502    0 -0.61146135316E+03  0.44429729137E+02 -0.92168717633E+03  0.11069626183E+04  0.50400001928E-02 0.  1.
       -1    1    3    3    0  502  0.61146135316E+03 -0.44429729137E+02  0.18348553049E+04  0.19345679045E+04  0.50400001928E-02 0. -1.
</event>
<event>
 5   0  0.1006893E-06  0.2899742E+04  0.7818609E-02  0.8272954E-01
        2   -1    0    0  501    0  0.00000000000E+00  0.00000000000E+00  0.83794070461E+03  0.83794070461E+03  0.25500000920E-02 0.  1.
       -2   -1    0    0    0  501  0.00000000000E+00  0.00000000000E+00 -0.25086801831E+04  0.25086801831E+04  0.25500000920E-02 0. -1.
    10030    2    1    2    0    0  0.00000000000E+00  0.00000000000E+00 -0.16707394785E+04  0.33466208877E+04  0.28997415335E+04 0.  0.
        4    1    3    3  502    0  0.44179555779E+03  0.90718951631E+03  0.36620655360E+03  0.10734453811E+04  0.12699999809E+01 0.  1.
       -4    1    3    3    0  502 -0.44179555779E+03 -0.90718951631E+03 -0.20369460321E+04  0.22731755066E+04  0.12699999809E+01 0. -1.
</event>
<event>
 5   0  0.3638028E-07  0.2892005E+04  0.7818609E-02  0.8275260E-01
       -1   -1    0    0    0  501  0.00000000000E+00  0.00000000000E+00  0.11603256660E+04  0.11603256660E+04  0.50400001928E-02 0. -1.
        1   -1    0    0  501    0  0.00000000000E+00  0.00000000000E+00 -0.18020138065E+04  0.18020138065E+04  0.50400001928E-02 0.  1.
    10030    2    1    2    0    0  0.00000000000E+00  0.00000000000E+00 -0.64168814052E+03  0.29623394724E+04  0.28920047511E+04 0.  0.
        4    1    3    3  502    0 -0.84997054862E+03  0.19005667872E+03 -0.15031910629E+04  0.17372842195E+04  0.12699999809E+01 0.  1.
       -4    1    3    3    0  502  0.84997054862E+03 -0.19005667872E+03  0.86150292240E+03  0.12250552530E+04  0.12699999809E+01 0. -1.
</event>
<event>
 5   0  0.3885904E-07  0.2902047E+04  0.7818609E-02  0.8272269E-01
        1   -1    0    0  501    0  0.00000000000E+00  0.00000000000E+00  0.15906975464E+04  0.15906975464E+04  0.50400001928E-02 0.  1.
       -1   -1    0    0    0  501  0.00000000000E+00  0.00000000000E+00 -0.13236142071E+04  0.13236142071E+04  0.50400001928E-02 0. -1.
    10030    2    1    2    0    0  0.00000000000E+00  0.00000000000E+00  0.26708333929E+03  0.29143117535E+04  0.29020474646E+04 0.  0.
        2    1    3    3  502    0 -0.13003478573E+04 -0.51776118957E+03  0.51789753953E+03  0.14923803338E+04  0.25500000920E-02 0. -1.
       -2    1    3    3    0  502  0.13003478573E+04  0.51776118957E+03 -0.25081420024E+03  0.14219314197E+04  0.25500000920E-02 0.  1.
</event>
<event>
 5   0  0.3885904E-07  0.2901588E+04  0.7818609E-02  0.8272405E-01
        1   -1    0    0  501    0  0.00000000000E+00  0.00000000000E+00  0.20807381858E+04  0.20807381858E+04  0.50400001928E-02 0. -1.
       -1   -1    0    0    0  501  0.00000000000E+00  0.00000000000E+00 -0.10115654517E+04  0.10115654517E+04  0.50400001928E-02 0.  1.
    10030    2    1    2    0    0  0.00000000000E+00  0.00000000000E+00  0.10691727341E+04  0.30923036375E+04  0.29015877466E+04 0.  0.
        2    1    3    3  502    0 -0.29107016670E+03 -0.42064609045E+03  0.19814424550E+04  0.20464064059E+04  0.25500000920E-02 0. -1.
       -2    1    3    3    0  502  0.29107016670E+03  0.42064609045E+03 -0.91226972095E+03  0.10458972316E+04  0.25500000920E-02 0.  1.
</event>
<event>
 5   0  0.9994311E-07  0.2900681E+04  0.7818609E-02  0.8272675E-01
       -2   -1    0    0    0  501  0.00000000000E+00  0.00000000000E+00  0.94279647682E+03  0.94279647682E+03  0.25500000920E-02 0. -1.
        2   -1    0    0  501    0  0.00000000000E+00  0.00000000000E+00 -0.22311153816E+04  0.22311153816E+04  0.25500000920E-02 0.  1.
    10030    2    1    2    0    0  0.00000000000E+00  0.00000000000E+00 -0.12883189048E+04  0.31739118584E+04  0.29006811070E+04 0.  0.
        2    1    3    3  502    0  0.81595944593E+03 -0.95612669732E+03  0.14754186240E+03  0.12655973609E+04  0.25500000920E-02 0. -1.
       -2    1    3    3    0  502 -0.81595944593E+03  0.95612669732E+03 -0.14358607672E+04  0.19083144975E+04  0.25500000920E-02 0.  1.
</event>
<event>
 5   0  0.3770467E-07  0.2882298E+04  0.7818609E-02  0.8278164E-01
        1   -1    0    0  501    0  0.00000000000E+00  0.00000000000E+00  0.11562148129E+04  0.11562148129E+04  0.50400001928E-02 0.  1.
       -1   -1    0    0    0  501  0.00000000000E+00  0.00000000000E+00 -0.17963018173E+04  0.17963018173E+04  0.50400001928E-02 0. -1.
    10030    2    1    2    0    0  0.00000000000E+00  0.00000000000E+00 -0.64008700434E+03  0.29525166302E+04  0.28822982286E+04 0.  0.
        1    1    3    3  502    0 -0.76074762355E+03  0.77736500455E+03  0.64844046114E+03  0.12662970934E+04  0.50400001928E-02 0.  1.
       -1    1    3    3    0  502  0.76074762355E+03 -0.77736500455E+03 -0.12885274655E+04  0.16862195368E+04  0.50400001928E-02 0. -1.
</event>
<event>
 5   0  0.3638028E-07  0.2903497E+04  0.7818609E-02  0.8271838E-01
        1   -1    0    0  501    0  0.00000000000E+00  0.00000000000E+00  0.85368705423E+03  0.85368705424E+03  0.50400001928E-02 0. -1.
       -1   -1    0    0    0  501  0.00000000000E+00  0.00000000000E+00 -0.24687902297E+04  0.24687902297E+04  0.50400001928E-02 0.  1.
    10030    2    1    2    0    0  0.00000000000E+00  0.00000000000E+00 -0.16151031755E+04  0.33224772840E+04  0.29034973799E+04 0.  0.
        4    1    3    3  502    0 -0.28615387658E+03  0.13952484368E+04 -0.48598363345E+03  0.15049199136E+04  0.12699999809E+01 0. -1.
       -4    1    3    3    0  502  0.28615387658E+03 -0.13952484368E+04 -0.11291195420E+04  0.18175573704E+04  0.12699999809E+01 0.  1.
</event>
<event>
 5   0  0.3769563E-07  0.2900612E+04  0.7818609E-02  0.8272695E-01
        1   -1    0    0  501    0  0.00000000000E+00  0.00000000000E+00  0.21103415795E+04  0.21103415795E+04  0.50400001928E-02 0. -1.
       -1   -1    0    0    0  501  0.00000000000E+00  0.00000000000E+00 -0.99670489286E+03  0.99670489287E+03  0.50400001928E-02 0.  1.
    10030    2    1    2    0    0  0.00000000000E+00  0.00000000000E+00  0.11136366866E+04  0.31070464724E+04  0.29006121960E+04 0.  0.
        3    1    3    3  502    0 -0.67661529494E+03 -0.12431686902E+04  0.21789675257E+03  0.14320459681E+04  0.10100000352E+00 0. -1.
       -3    1    3    3    0  502  0.67661529494E+03  0.12431686902E+04  0.89573993405E+03  0.16750005043E+04  0.10100000352E+00 0.  1.
</event>
<event>
 5   0  0.3638028E-07  0.2899734E+04  0.7818609E-02  0.8272957E-01
        1   -1    0    0  501    0  0.00000000000E+00  0.00000000000E+00  0.11521878313E+04  0.11521878313E+04  0.50400001928E-02 0. -1.
       -1   -1    0    0    0  501  0.00000000000E+00  0.00000000000E+00 -0.18244540302E+04  0.18244540302E+04  0.50400001928E-02 0.  1.
    10030    2    1    2    0    0  0.00000000000E+00  0.00000000000E+00 -0.67226619891E+03  0.29766418615E+04  0.28997335963E+04 0.  0.
        4    1    3    3  502    0 -0.57708612327E+03 -0.12692705660E+04 -0.74421415961E+03  0.15804848913E+04  0.12699999809E+01 0.  1.
       -4    1    3    3    0  502  0.57708612327E+03  0.12692705660E+04  0.71947960709E+02  0.13961569702E+04  0.12699999809E+01 0. -1.
</event>
<event>
 5   0  0.1006893E-06  0.2900344E+04  0.7818609E-02  0.8272775E-01
        2   -1    0    0  501    0  0.00000000000E+00  0.00000000000E+00  0.10521814143E+04  0.10521814144E+04  0.25500000920E-02 0. -1.
       -2   -1    0    0    0  501  0.00000000000E+00  0.00000000000E+00 -0.19987034479E+04  0.19987034479E+04  0.25500000920E-02 0.  1.
    10030    2    1    2    0    0  0.00000000000E+00  0.00000000000E+00 -0.94652203351E+03  0.30508848622E+04  0.29003438559E+04 0.  0.
        4    1    3    3  502    0 -0.43321678995E+03 -0.10650487121E+04 -0.14028682009E+04  0.18138484910E+04  0.12699999809E+01 0.  1.
       -4    1    3    3    0  502  0.43321678995E+03  0.10650487121E+04  0.45634616740E+03  0.12370363712E+04  0.12699999809E+01 0. -1.
</event>
<event>
 5   0  0.9994311E-07  0.2901496E+04  0.7818609E-02  0.8272433E-01
        2   -1    0    0  501    0  0.00000000000E+00  0.00000000000E+00  0.27353863188E+04  0.27353863188E+04  0.25500000920E-02 0.  1.
       -2   -1    0    0    0  501  0.00000000000E+00  0.00000000000E+00 -0.76942299505E+03  0.76942299505E+03  0.25500000920E-02 0. -1.
    10030    2    1    2    0    0  0.00000000000E+00  0.00000000000E+00  0.19659633237E+04  0.35048093138E+04  0.29014955689E+04 0.  0.
        2    1    3    3  502    0 -0.13388546656E+04  0.51616409117E+03  0.72472153852E+03  0.16075380222E+04  0.25500000920E-02 0. -1.
       -2    1    3    3    0  502  0.13388546656E+04 -0.51616409117E+03  0.12412417852E+04  0.18972712916E+04  0.25500000920E-02 0.  1.
</event>
<event>
 5   0  0.1031339E-06  0.2922207E+04  0.7818609E-02  0.8266301E-01
        2   -1    0    0  501    0  0.00000000000E+00  0.00000000000E+00  0.13872984657E+04  0.13872984657E+04  0.25500000920E-02 0. -1.
       -2   -1    0    0    0  501  0.00000000000E+00  0.00000000000E+00 -0.15388352882E+04  0.15388352882E+04  0.25500000920E-02 0.  1.
    10030    2    1    2    0    0  0.00000000000E+00  0.00000000000E+00 -0.15153682241E+03  0.29261337539E+04  0.29222072714E+04 0.  0.
        5    1    3    3  502    0  0.91538073382E+03 -0.98171136499E+03 -0.65371171950E+03  0.14929970510E+04  0.46999998093E+01 0.  1.
       -5    1    3    3    0  502 -0.91538073382E+03  0.98171136499E+03  0.50217489709E+03  0.14331367029E+04  0.46999998093E+01 0. -1.
</event>
<event>
 5   0  0.9950999E-07  0.2902419E+04  0.7818609E-02  0.8272158E-01
       -2   -1    0    0    0  501  0.00000000000E+00  0.00000000000E+00  0.18289278075E+04  0.18289278075E+04  0.25500000920E-02 0. -1.
        2   -1    0    0  501    0  0.00000000000E+00  0.00000000000E+00 -0.11514990549E+04  0.11514990549E+04  0.25500000920E-02 0.  1.
    10030    2    1    2    0    0  0.00000000000E+00  0.00000000000E+00  0.67742875256E+03  0.29804268625E+04  0.29024187444E+04 0.  0.
        3    1    3    3  502    0 -0.29672986168E+03  0.20776151907E+02  0.17972875588E+04  0.18217362154E+04  0.10100000352E+00 0. -1.
       -3    1    3    3    0  502  0.29672986168E+03 -0.20776151907E+02 -0.11198588063E+04  0.11586906470E+04  0.10100000352E+00 0.  1.
</event>
<event>
 5   0  0.1063979E-06  0.2906376E+04  0.7818609E-02  0.8270983E-01
        2   -1    0    0  501    0  0.00000000000E+00  0.00000000000E+00  0.17243389431E+04  0.17243389431E+04  0.25500000920E-02 0.  1.
       -2   -1    0    0    0  501  0.00000000000E+00  0.00000000000E+00 -0.12246755592E+04  0.12246755592E+04  0.25500000920E-02 0. -1.
    10030    2    1    2    0    0  0.00000000000E+00  0.00000000000E+00  0.49966338392E+03  0.29490145022E+04  0.29063762725E+04 0.  0.
        1    1    3    3  502    0  0.14432766702E+04  0.52339301434E+02  0.41334424286E+03  0.15022118400E+04  0.50400001928E-02 0. -1.
       -1    1    3    3    0  502 -0.14432766702E+04 -0.52339301434E+02  0.86319141060E+02  0.14468026622E+04  0.50400001928E-02 0.  1.
</event>
<event>
 5   0  0.3769563E-07  0.2899224E+04  0.7818609E-02  0.8273108E-01
       -1   -1    0    0    0  501  0.00000000000E+00  0.00000000000E+00  0.11188808661E+04  0.11188808661E+04  0.50400001928E-02 0.  1.
        1   -1    0    0  501    0  0.00000000000E+00  0.00000000000E+00 -0.18781040821E+04  0.18781040821E+04  0.50400001928E-02 0. -1.
    10030    2    1    2    0    0  0.00000000000E+00  0.00000000000E+00 -0.75922321599E+03  0.29969849482E+04  0.28992238424E+04 0.  0.
        3    1    3    3  502    0 -0.10114832673E+04 -0.10305473185E+04 -0.51137960152E+03  0.15318731288E+04  0.10100000352E+00 0. -1.
       -3    1    3    3    0  502  0.10114832673E+04  0.10305473185E+04 -0.24784361446E+03  0.14651118194E+04  0.10100000352E+00 0.  1.
</event>
<event>
 5   0  0.3769563E-07  0.2925490E+04  0.7818609E-02  0.8265334E-01
       -1   -1    0    0    0  501  0.00000000000E+00  0.00000000000E+00  0.75249960930E+03  0.75249960931E+03  0.50400001928E-02 0.  1.
        1   -1    0    0  501    0  0.00000000000E+00  0.00000000000E+00 -0.28433536134E+04  0.28433536134E+04  0.50400001928E-02 0. -1.
    10030    2    1    2    0    0  0.00000000000E+00  0.00000000000E+00 -0.20908540041E+04  0.35958532227E+04  0.29254896911E+04 0.  0.
        3    1    3    3  502    0 -0.57346419352E+03  0.11898233633E+04 -0.27284103282E+03  0.13486967993E+04  0.10100000352E+00 0.  1.
       -3    1    3    3    0  502  0.57346419352E+03 -0.11898233633E+04 -0.18180129713E+04  0.22471564233E+04  0.10100000352E+00 0. -1.
</event>
<event>
 5   0  0.1031339E-06  0.2902468E+04  0.7818609E-02  0.8272144E-01
        2   -1    0    0  501    0  0.00000000000E+00  0.00000000000E+00  0.15970860269E+04  0.15970860269E+04  0.25500000920E-02 0.  1.
       -2   -1    0    0    0  501  0.00000000000E+00  0.00000000000E+00 -0.13187015690E+04  0.13187015690E+04  0.25500000920E-02 0. -1.
    10030    2    1    2    0    0  0.00000000000E+00  0.00000000000E+00  0.27838445792E+03  0.29157875959E+04  0.29024678117E+04 0.  0.
        5    1    3    3  502    0 -0.12481293174E+04  0.59798441338E+03  0.57782580674E+03  0.14997722842E+04  0.46999998093E+01 0.  1.
       -5    1    3    3    0  502  0.12481293174E+04 -0.59798441338E+03 -0.29944134882E+03  0.14160153117E+04  0.46999998093E+01 0. -1.
</event>
<event>
 5   0  0.3638028E-07  0.2916724E+04  0.7818609E-02  0.8267919E-01
        1   -1    0    0  501    0  0.00000000000E+00  0.00000000000E+00  0.26866556092E+04  0.26866556092E+04  0.50400001928E-02 0.  1.
       -1   -1    0    0    0  501  0.00000000000E+00  0.00000000000E+00 -0.79162331790E+03  0.79162331791E+03  0.50400001928E-02 0. -1.
    10030    2    1    2    0    0  0.00000000000E+00  0.00000000000E+00  0.18950322913E+04  0.34782789271E+04  0.29167236601E+04 0.  0.
        4    1    3    3  502    0 -0.53596967010E+02 -0.12962668381E+04  0.17418135259E+04  0.21718877324E+04  0.12699999809E+01 0. -1.
       -4    1    3    3    0  502  0.53596967010E+02  0.12962668381E+04  0.15321876539E+03  0.13063911946E+04  0.12699999809E+01 0.  1.
</event>
<event>
 5   0  0.1063979E-06  0.2907302E+04  0.7818609E-02  0.8270708E-01
       -2   -1    0    0    0  501  0.00000000000E+00  0.00000000000E+00  0.20629818448E+04  0.20629818448E+04  0.25500000920E-02 0. -1.
        2   -1    0    0  501    0  0.00000000000E+00  0.00000000000E+00 -0.10242945032E+04  0.10242945032E+04  0.25500000920E-02 0.  1.
    10030    2    1    2    0    0  0.00000000000E+00  0.00000000000E+00  0.10386873415E+04  0.30872763480E+04  0.29073018170E+04 0.  0.
        1    1    3    3  502    0  0.10807169987E+04 -0.61578312581E+03  0.13182196408E+04  0.18124130629E+04  0.50400001928E-02 0.  1.
       -1    1    3    3    0  502 -0.10807169987E+04  0.61578312581E+03 -0.27953229925E+03  0.12748632851E+04  0.50400001928E-02 0. -1.
</event>
<event>
 5   0  0.9950999E-07  0.2904925E+04  0.7818609E-02  0.8271414E-01
       -2   -1    0    0    0  501  0.00000000000E+00  0.00000000000E+00  0.10634395984E+04  0.10634395984E+04  0.25500000920E-02 0.  1.
        2   -1    0    0  501    0  0.00000000000E+00  0.00000000000E+00 -0.19837965496E+04  0.19837965496E+04  0.25500000920E-02 0. -1.
    10030    2    1    2    0    0  0.00000000000E+00  0.00000000000E+00 -0.92035695120E+03  0.30472361479E+04  0.29049253387E+04 0.  0.
        3    1    3    3  502    0 -0.50867120142E+03 -0.97397999602E+03 -0.14565883919E+04  0.18245638321E+04  0.10100000352E+00 0. -1.
       -3    1    3    3    0  502  0.50867120142E+03  0.97397999602E+03  0.53623144067E+03  0.12226723159E+04  0.10100000352E+00 0.  1.
</event>
<event>
 5   0  0.3770467E-07  0.2912723E+04  0.7818609E-02  0.8269102E-01
        1   -1    0    0  501    0  0.00000000000E+00  0.00000000000E+00  0.16248304768E+04  0.16248304768E+04  0.50400001928E-02 0.  1.
       -1   -1    0    0    0  501  0.00000000000E+00  0.00000000000E+00 -0.13053604083E+04  0.13053604083E+04  0.50400001928E-02 0. -1.
    10030    2    1    2    0    0  0.00000000000E+00  0.00000000000E+00  0.31947006854E+03  0.29301908851E+04  0.29127233817E+04 0.  0.
        1    1    3    3  502    0  0.61407207436E+03  0.62667591732E+03 -0.10096394726E+04  0.13376019896E+04  0.50400001928E-02 0. -1.
       -1    1    3    3    0  502 -0.61407207436E+03 -0.62667591732E+03  0.13291095411E+04  0.15925888955E+04  0.50400001928E-02 0.  1.
</event>
<event>
 5   0  0.9950999E-07  0.2896725E+04  0.7818609E-02  0.8273853E-01
        2   -1    0    0  501    0  0.00000000000E+00  0.00000000000E+00  0.14741760736E+04  0.14741760736E+04  0.25500000920E-02 0.  1.
       -2   -1    0    0    0  501  0.00000000000E+00  0.00000000000E+00 -0.14230006457E+04  0.14230006457E+04  0.25500000920E-02 0. -1.
    10030    2    1    2    0    0  0.00000000000E+00  0.00000000000E+00  0.51175427934E+02  0.28971767193E+04  0.28967247053E+04 0.  0.
        3    1    3    3  502    0 -0.64333028718E+03 -0.11315645597E+04 -0.60968167890E+03  0.14373670272E+04  0.10100000352E+00 0. -1.
       -3    1    3    3    0  502  0.64333028718E+03  0.11315645597E+04  0.66085710683E+03  0.14598096921E+04  0.10100000352E+00 0.  1.
</event>
<event>
 5   0  0.1063979E-06  0.2911399E+04  0.7818609E-02  0.8269494E-01
        2   -1    0    0  501    0  0.00000000000E+00  0.00000000000E+00  0.20863444677E+04  0.20863444677E+04  0.25500000920E-02 0.  1.
       -2   -1    0    0    0  501  0.00000000000E+00  0.00000000000E+00 -0.10156812901E+04  0.10156812901E+04  0.25500000920E-02 0. -1.
    10030    2    1    2    0    0  0.00000000000E+00  0.00000000000E+00  0.10706631776E+04  0.31020257578E+04  0.29113990043E+04 0.  0.
        1    1    3    3  502    0 -0.78199926206E+03  0.73100372527E+03 -0.51575481141E+03  0.11882307510E+04  0.50400001928E-02 0. -1.
       -1    1    3    3    0  502  0.78199926206E+03 -0.73100372527E+03  0.15864179890E+04  0.19137950068E+04  0.50400001928E-02 0.  1.
</event>
<event>
 5   0  0.3885904E-07  0.2900680E+04  0.7818609E-02  0.8272675E-01
        1   -1    0    0  501    0  0.00000000000E+00  0.00000000000E+00  0.18479793072E+04  0.18479793072E+04  0.50400001928E-02 0. -1.
       -1   -1    0    0    0  501  0.00000000000E+00  0.00000000000E+00 -0.11382624946E+04  0.11382624947E+04  0.50400001928E-02 0.  1.
    10030    2    1    2    0    0  0.00000000000E+00  0.00000000000E+00  0.70971681254E+03  0.29862418018E+04  0.29006796006E+04 0.  0.
        2    1    3    3  502    0  0.11202945732E+04 -0.85049773342E+03  0.71895597269E+03  0.15796531315E+04  0.25500000920E-02 0.  1.
       -2    1    3    3    0  502 -0.11202945732E+04  0.85049773342E+03 -0.92391601414E+01  0.14065886703E+04  0.25500000920E-02 0. -1.
</event>
<event>
 5   0  0.1006893E-06  0.2902682E+04  0.7818609E-02  0.8272080E-01
        2   -1    0    0  501    0  0.00000000000E+00  0.00000000000E+00  0.29898590961E+04  0.29898590961E+04  0.25500000920E-02 0.  1.
       -2   -1    0    0    0  501  0.00000000000E+00  0.00000000000E+00 -0.70451177968E+03  0.70451177969E+03  0.25500000920E-02 0. -1.
    10030    2    1    2    0    0  0.00000000000E+00  0.00000000000E+00  0.22853473165E+04  0.36943708758E+04  0.29026821754E+04 0.  0.
        4    1    3    3  502    0 -0.39798777303E+03  0.95151376165E+03 -0.15690727359E+03  0.10432613342E+04  0.12699999809E+01 0. -1.
       -4    1    3    3    0  502  0.39798777303E+03 -0.95151376165E+03  0.24422545900E+04  0.26511095416E+04  0.12699999809E+01 0.  1.
</event>
<event>
 5   0  0.9994311E-07  0.2905344E+04  0.7818609E-02  0.8271289E-01
        2   -1    0    0  501    0  0.00000000000E+00  0.00000000000E+00  0.16157572732E+04  0.16157572732E+04  0.25500000920E-02 0.  1.
       -2   -1    0    0    0  501  0.00000000000E+00  0.00000000000E+00 -0.13060475897E+04  0.13060475897E+04  0.25500000920E-02 0. -1.
    10030    2    1    2    0    0  0.00000000000E+00  0.00000000000E+00  0.30970968354E+03  0.29218048629E+04  0.29053439674E+04 0.  0.
        2    1    3    3  502    0  0.12480505891E+04 -0.24514729798E+03 -0.55092508031E+03  0.13860901539E+04  0.25500000920E-02 0. -1.
       -2    1    3    3    0  502 -0.12480505891E+04  0.24514729798E+03  0.86063476386E+03  0.15357147090E+04  0.25500000920E-02 0.  1.
</event>
<event>
 5   0  0.3769563E-07  0.2876424E+04  0.7818609E-02  0.8279927E-01
       -1   -1    0    0    0  501  0.00000000000E+00  0.00000000000E+00  0.15865641047E+04  0.15865641047E+04  0.50400001928E-02 0.  1.
        1   -1    0    0  501    0  0.00000000000E+00  0.00000000000E+00 -0.13037311644E+04  0.13037311644E+04  0.50400001928E-02 0. -1.
    10030    2    1    2    0    0  0.00000000000E+00  0.00000000000E+00  0.28283294032E+03  0.28902952691E+04  0.28764235207E+04 0.  0.
        3    1    3    3  502    0 -0.92436459381E+03 -0.10200439098E+04 -0.27714197818E+03  0.14041891491E+04  0.10100000352E+00 0. -1.
       -3    1    3    3    0  502  0.92436459381E+03  0.10200439098E+04  0.55997491849E+03  0.14861061200E+04  0.10100000352E+00 0.  1.
</event>
<event>
 5   0  0.3638028E-07  0.2897418E+04  0.7818609E-02  0.8273646E-01
        1   -1    0    0  501    0  0.00000000000E+00  0.00000000000E+00  0.18204250121E+04  0.18204250121E+04  0.50400001928E-02 0. -1.
       -1   -1    0    0    0  501  0.00000000000E+00  0.00000000000E+00 -0.11528942096E+04  0.11528942096E+04  0.50400001928E-02 0.  1.
    10030    2    1    2    0    0  0.00000000000E+00  0.00000000000E+00  0.66753080253E+03  0.29733192218E+04  0.28974177852E+04 0.  0.
        4    1    3    3  502    0 -0.11941111421E+04 -0.93434028221E+02 -0.50252125949E+03  0.12989074510E+04  0.12699999809E+01 0.  1.
       -4    1    3    3    0  502  0.11941111421E+04  0.93434028221E+02  0.11700520620E+04  0.16744117707E+04  0.12699999809E+01 0. -1.
</event>
<event>
 5   0  0.3786210E-07  0.2902204E+04  0.7818609E-02  0.8272222E-01
        1   -1    0    0  501    0  0.00000000000E+00  0.00000000000E+00  0.23096954432E+04  0.23096954432E+04  0.50400001928E-02 0. -1.
       -1   -1    0    0    0  501  0.00000000000E+00  0.00000000000E+00 -0.91167759855E+03  0.91167759856E+03  0.50400001928E-02 0.  1.
    10030    2    1    2    0    0  0.00000000000E+00  0.00000000000E+00  0.13980178447E+04  0.32213730418E+04  0.29022044002E+04 0.  0.
        5    1    3    3  502    0  0.80223532441E+03  0.66594415381E+03  0.18192654866E+04  0.20968576806E+04  0.46999998093E+01 0. -1.
       -5    1    3    3    0  502 -0.80223532441E+03 -0.66594415381E+03 -0.42124764197E+03  0.11245153612E+04  0.46999998093E+01 0.  1.
</event>
<event>
 5   0  0.3638028E-07  0.2900291E+04  0.7818609E-02  0.8272791E-01
        1   -1    0    0  501    0  0.00000000000E+00  0.00000000000E+00  0.19312448638E+04  0.19312448638E+04  0.50400001928E-02 0.  1.
       -1   -1    0    0    0  501  0.00000000000E+00  0.00000000000E+00 -0.10888943051E+04  0.10888943051E+04  0.50400001928E-02 0. -1.
    10030    2    1    2    0    0  0.00000000000E+00  0.00000000000E+00  0.84235055873E+03  0.30201391689E+04  0.29002906985E+04 0.  0.
        4    1    3    3  502    0 -0.12180987080E+04 -0.20151263147E+03  0.12132299670E+04  0.17309824866E+04  0.12699999809E+01 0.  1.
       -4    1    3    3    0  502  0.12180987080E+04  0.20151263147E+03 -0.37087940827E+03  0.12891566823E+04  0.12699999809E+01 0. -1.
</event>
<event>
 5   0  0.3770467E-07  0.2895564E+04  0.7818609E-02  0.8274199E-01
       -1   -1    0    0    0  501  0.00000000000E+00  0.00000000000E+00  0.96891254160E+03  0.96891254161E+03  0.50400001928E-02 0. -1.
        1   -1    0    0  501    0  0.00000000000E+00  0.00000000000E+00 -0.21633249890E+04  0.21633249890E+04  0.50400001928E-02 0.  1.
    10030    2    1    2    0    0  0.00000000000E+00  0.00000000000E+00 -0.11944124474E+04  0.31322375307E+04  0.28955639958E+04 0.  0.
        1    1    3    3  502    0  0.11168848775E+04  0.21964324060E+03  0.37056887982E+03  0.11970782252E+04  0.50400001928E-02 0. -1.
       -1    1    3    3    0  502 -0.11168848775E+04 -0.21964324060E+03 -0.15649813273E+04  0.19351593054E+04  0.50400001928E-02 0.  1.
</event>
<event>
 5   0  0.1031339E-06  0.2894450E+04  0.7818609E-02  0.8274531E-01
        2   -1    0    0  501    0  0.00000000000E+00  0.00000000000E+00  0.17428362764E+04  0.17428362764E+04  0.25500000920E-02 0. -1.
       -2   -1    0    0    0  501  0.00000000000E+00  0.00000000000E+00 -0.12017540283E+04  0.12017540283E+04  0.25500000920E-02 0.  1.
    10030    2    1    2    0    0  0.00000000000E+00  0.00000000000E+00  0.54108224806E+03  0.29445903047E+04  0.28944502178E+04 0.  0.
        5    1    3    3  502    0 -0.12893390302E+04  0.42449829305E+03 -0.23999328764E+03  0.13784820651E+04  0.46999998093E+01 0.  1.
       -5    1    3    3    0  502  0.12893390302E+04 -0.42449829305E+03  0.78107553570E+03  0.15661082396E+04  0.46999998093E+01 0. -1.
</event>
<event>
 5   0  0.3638028E-07  0.2899512E+04  0.7818609E-02  0.8273023E-01
       -1   -1    0    0    0  501  0.00000000000E+00  0.00000000000E+00  0.15758106201E+04  0.15758106201E+04  0.50400001928E-02 0.  1.
        1   -1    0    0  501    0  0.00000000000E+00  0.00000000000E+00 -0.13337845436E+04  0.13337845436E+04  0.50400001928E-02 0. -1.
    10030    2    1    2    0    0  0.00000000000E+00  0.00000000000E+00  0.24202607656E+03  0.29095951637E+04  0.28995115787E+04 0.  0.
        4    1    3    3  502    0  0.54946695354E+02  0.80593242816E+03 -0.10870190684E+04  0.13543110005E+04  0.12699999809E+01 0. -1.
       -4    1    3    3    0  502 -0.54946695354E+02 -0.80593242816E+03  0.13290451450E+04  0.15552841632E+04  0.12699999809E+01 0.  1.
</event>
<event>
 5   0  0.3378750E-07  0.2895754E+04  0.7818609E-02  0.8274142E-01
        4   -1    0    0  501    0  0.00000000000E+00  0.00000000000E+00  0.15398986352E+04  0.15398991590E+04  0.12699999809E+01 0.  1.
       -4   -1    0    0    0  501  0.00000000000E+00  0.00000000000E+00 -0.13613533540E+04  0.13613539464E+04  0.12699999809E+01 0. -1.
    10030    2    1    2    0    0  0.00000000000E+00  0.00000000000E+00  0.17854528124E+03  0.29012531053E+04  0.28957539888E+04 0.  0.
        2    1    3    3  502    0 -0.18606296145E+02  0.40965325347E+03 -0.13019556361E+04  0.13650093263E+04  0.25500000920E-02 0. -1.
       -2    1    3    3    0  502  0.18606296145E+02 -0.40965325347E+03  0.14805009174E+04  0.15362437791E+04  0.25500000920E-02 0.  1.
</event>
<event>
 5   0  0.9950999E-07  0.2899616E+04  0.7818609E-02  0.8272992E-01
       -2   -1    0    0    0  501  0.00000000000E+00  0.00000000000E+00  0.10949240768E+04  0.10949240768E+04  0.25500000920E-02 0.  1.
        2   -1    0    0  501    0  0.00000000000E+00  0.00000000000E+00 -0.19197154030E+04  0.19197154030E+04  0.25500000920E-02 0. -1.
    10030    2    1    2    0    0  0.00000000000E+00  0.00000000000E+00 -0.82479132625E+03  0.30146394798E+04  0.28996155713E+04 0.  0.
        3    1    3    3  502    0 -0.86719128202E+03 -0.53119841462E+03 -0.14867060521E+04  0.18012460606E+04  0.10100000352E+00 0. -1.
       -3    1    3    3    0  502  0.86719128202E+03  0.53119841462E+03  0.66191472586E+03  0.12133934192E+04  0.10100000352E+00 0.  1.
</event>
<event>
 5   0  0.9950999E-07  0.2872097E+04  0.7818609E-02  0.8281228E-01
        2   -1    0    0  501    0  0.00000000000E+00  0.00000000000E+00  0.25755674546E+04  0.25755674546E+04  0.25500000920E-02 0.  1.
       -2   -1    0    0    0  501  0.00000000000E+00  0.00000000000E+00 -0.80069178889E+03  0.80069178890E+03  0.25500000920E-02 0. -1.
    10030    2    1    2    0    0  0.00000000000E+00  0.00000000000E+00  0.17748756657E+04  0.33762592435E+04  0.28720972913E+04 0.  0.
        3    1    3    3  502    0 -0.92039530802E+03  0.63352824926E+01  0.21832347379E+04  0.23693209132E+04  0.10100000352E+00 0.  1.
       -3    1    3    3    0  502  0.92039530802E+03 -0.63352824926E+01 -0.40835907224E+03  0.10069383302E+04  0.10100000352E+00 0. -1.
</event>
<event>
 5   0  0.3786210E-07  0.2899299E+04  0.7818609E-02  0.8273086E-01
       -1   -1    0    0    0  501  0.00000000000E+00  0.00000000000E+00  0.15882407389E+04  0.15882407389E+04  0.50400001928E-02 0.  1.
        1   -1    0    0  501    0  0.00000000000E+00  0.00000000000E+00 -0.13231522353E+04  0.13231522353E+04  0.50400001928E-02 0. -1.
    10030    2    1    2    0    0  0.00000000000E+00  0.00000000000E+00  0.26508850359E+03  0.29113929743E+04  0.28992994216E+04 0.  0.
        5    1    3    3  502    0  0.13659403018E+03 -0.36473032571E+03  0.15347124954E+04  0.15833668789E+04  0.46999998093E+01 0.  1.
       -5    1    3    3    0  502 -0.13659403018E+03  0.36473032571E+03 -0.12696239918E+04  0.13280260954E+04  0.46999998093E+01 0. -1.
</event>
<event>
 5   0  0.1031339E-06  0.2902846E+04  0.7818609E-02  0.8272031E-01
        2   -1    0    0  501    0  0.00000000000E+00  0.00000000000E+00  0.26128069312E+04  0.26128069312E+04  0.25500000920E-02 0. -1.
       -2   -1    0    0    0  501  0.00000000000E+00  0.00000000000E+00 -0.80627037523E+03  0.80627037524E+03  0.25500000920E-02 0.  1.
    10030    2    1    2    0    0  0.00000000000E+00  0.00000000000E+00  0.18065365560E+04  0.34190773065E+04  0.29028460689E+04 0.  0.
        5    1    3    3  502    0 -0.98894585686E+03  0.58448562280E+03 -0.14160550427E+03  0.11574590964E+04  0.46999998093E+01 0.  1.
       -5    1    3    3    0  502  0.98894585686E+03 -0.58448562280E+03  0.19481420603E+04  0.22616182101E+04  0.46999998093E+01 0. -1.
</event>
<event>
 5   0  0.9950999E-07  0.2898154E+04  0.7818609E-02  0.8273427E-01
        2   -1    0    0  501    0  0.00000000000E+00  0.00000000000E+00  0.19015291478E+04  0.19015291478E+04  0.25500000920E-02 0. -1.
       -2   -1    0    0    0  501  0.00000000000E+00  0.00000000000E+00 -0.11042822278E+04  0.11042822278E+04  0.25500000920E-02 0.  1.
    10030    2    1    2    0    0  0.00000000000E+00  0.00000000000E+00  0.79724692003E+03  0.30058113756E+04  0.28981544773E+04 0.  0.
        3    1    3    3  502    0  0.12085323801E+04 -0.74193301738E+03  0.70770312808E+03  0.15848844891E+04  0.10100000352E+00 0. -1.
       -3    1    3    3    0  502 -0.12085323801E+04  0.74193301738E+03  0.89543791947E+02  0.14209268865E+04  0.10100000352E+00 0.  1.
</event>
<event>
 5   0  0.3769563E-07  0.2889378E+04  0.7818609E-02  0.8276045E-01
       -1   -1    0    0    0  501  0.00000000000E+00  0.00000000000E+00  0.10449091168E+04  0.10449091168E+04  0.50400001928E-02 0. -1.
        1   -1    0    0  501    0  0.00000000000E+00  0.00000000000E+00 -0.19974241556E+04  0.19974241556E+04  0.50400001928E-02 0.  1.
    10030    2    1    2    0    0  0.00000000000E+00  0.00000000000E+00 -0.95251503874E+03  0.30423332724E+04  0.28893782794E+04 0.  0.
        3    1    3    3  502    0 -0.33272498885E+03  0.11514896832E+04 -0.13254838685E+04  0.17870483777E+04  0.10100000352E+00 0.  1.
       -3    1    3    3    0  502  0.33272498885E+03 -0.11514896832E+04  0.37296882972E+03  0.12552848947E+04  0.10100000352E+00 0. -1.
</event>
<event>
 5   0  0.3769563E-07  0.2900593E+04  0.7818609E-02  0.8272701E-01
       -1   -1    0    0    0  501  0.00000000000E+00  0.00000000000E+00  0.14285208648E+04  0.14285208648E+04  0.50400001928E-02 0.  1.
        1   -1    0    0  501    0  0.00000000000E+00  0.00000000000E+00 -0.14724043040E+04  0.14724043040E+04  0.50400001928E-02 0. -1.
    10030    2    1    2    0    0  0.00000000000E+00  0.00000000000E+00 -0.43883439176E+02  0.29009251689E+04  0.29005932288E+04 0.  0.
        3    1    3    3  502    0  0.13247209271E+03 -0.89852171942E+03 -0.11527656464E+04  0.14675690040E+04  0.10100000352E+00 0. -1.
       -3    1    3    3    0  502 -0.13247209271E+03  0.89852171942E+03  0.11088822073E+04  0.14333561649E+04  0.10100000352E+00 0.  1.
</event>
<event>
 5   0  0.3638028E-07  0.2894864E+04  0.7818609E-02  0.8274407E-01
       -1   -1    0    0    0  501  0.00000000000E+00  0.00000000000E+00  0.94708982714E+03  0.94708982715E+03  0.50400001928E-02 0.  1.
        1   -1    0    0  501    0  0.00000000000E+00  0.00000000000E+00 -0.22121025093E+04  0.22121025093E+04  0.50400001928E-02 0. -1.
    10030    2    1    2    0    0  0.00000000000E+00  0.00000000000E+00 -0.12650126822E+04  0.31591923365E+04  0.28948642685E+04 0.  0.
        4    1    3    3  502    0  0.10156369265E+04 -0.50945665587E+02 -0.17565784246E+04  0.20297002739E+04  0.12699999809E+01 0. -1.
       -4    1    3    3    0  502 -0.10156369265E+04  0.50945665587E+02  0.49156574238E+03  0.11294920626E+04  0.12699999809E+01 0.  1.
</event>
<event>
 5   0  0.1063979E-06  0.2900456E+04  0.7818609E-02  0.8272742E-01
        2   -1    0    0  501    0  0.00000000000E+00  0.00000000000E+00  0.14348266585E+04  0.14348266586E+04  0.25500000920E-02 0.  1.
       -2   -1    0    0    0  501  0.00000000000E+00  0.00000000000E+00 -0.14657941942E+04  0.14657941942E+04  0.25500000920E-02 0. -1.
    10030    2    1    2    0    0  0.00000000000E+00  0.00000000000E+00 -0.30967535648E+02  0.29006208527E+04  0.29004555406E+04 0.  0.
        1    1    3    3  502    0  0.78723236164E+03 -0.10030106680E+04  0.67549366626E+03  0.14429334304E+04  0.50400001928E-02 0.  1.
       -1    1    3    3    0  502 -0.78723236164E+03  0.10030106680E+04 -0.70646120191E+03  0.14576874223E+04  0.50400001928E-02 0. -1.
</event>
<event>
 5   0  0.1031339E-06  0.2879087E+04  0.7818609E-02  0.8279127E-01
        2   -1    0    0  501    0  0.00000000000E+00  0.00000000000E+00  0.23138632837E+04  0.23138632837E+04  0.25500000920E-02 0.  1.
       -2   -1    0    0    0  501  0.00000000000E+00  0.00000000000E+00 -0.89559535522E+03  0.89559535523E+03  0.25500000920E-02 0. -1.
    10030    2    1    2    0    0  0.00000000000E+00  0.00000000000E+00  0.14182679285E+04  0.32094586389E+04  0.28790868063E+04 0.  0.
        5    1    3    3  502    0 -0.38236389996E+03 -0.21724591185E+03  0.22371391670E+04  0.22799587016E+04  0.46999998093E+01 0.  1.
       -5    1    3    3    0  502  0.38236389996E+03  0.21724591185E+03 -0.81887123856E+03  0.92949993735E+03  0.46999998093E+01 0. -1.
</event>
<event>
 5   0  0.9994311E-07  0.2905032E+04  0.7818609E-02  0.8271382E-01
       -2   -1    0    0    0  501  0.00000000000E+00  0.00000000000E+00  0.11798284219E+04  0.11798284219E+04  0.25500000920E-02 0. -1.
        2   -1    0    0  501    0  0.00000000000E+00  0.00000000000E+00 -0.17882286130E+04  0.17882286130E+04  0.25500000920E-02 0.  1.
    10030    2    1    2    0    0  0.00000000000E+00  0.00000000000E+00 -0.60840019106E+03  0.29680570349E+04  0.29050321461E+04 0.  0.
        2    1    3    3  502    0 -0.14723666772E+03 -0.93745689163E+03  0.81933883542E+03  0.12537225320E+04  0.25500000920E-02 0. -1.
       -2    1    3    3    0  502  0.14723666772E+03  0.93745689163E+03 -0.14277390265E+04  0.17143345029E+04  0.25500000920E-02 0.  1.
</event>
<event>
 5   0  0.9950999E-07  0.2895965E+04  0.7818609E-02  0.8274079E-01
        2   -1    0    0  501    0  0.00000000000E+00  0.00000000000E+00  0.12386481174E+04  0.12386481174E+04  0.25500000920E-02 0. -1.
       -2   -1    0    0    0  501  0.00000000000E+00  0.00000000000E+00 -0.16926948873E+04  0.16926948873E+04  0.25500000920E-02 0.  1.
    10030    2    1    2    0    0  0.00000000000E+00  0.00000000000E+00 -0.45404676993E+03  0.29313430047E+04  0.28959650104E+04 0.  0.
        3    1    3    3  502    0 -0.29712504876E+03  0.13272793471E+04 -0.72977968494E+03  0.15435453212E+04  0.10100000352E+00 0.  1.
       -3    1    3    3    0  502  0.29712504876E+03 -0.13272793471E+04  0.27573291501E+03  0.13877976835E+04  0.10100000352E+00 0. -1.
</event>
<event>
 5   0  0.3885904E-07  0.2884929E+04  0.7818609E-02  0.8277376E-01
       -1   -1    0    0    0  501  0.00000000000E+00  0.00000000000E+00  0.28773101570E+04  0.28773101570E+04  0.50400001928E-02 0. -1.
        1   -1    0    0  501    0  0.00000000000E+00  0.00000000000E+00 -0.72314195265E+03  0.72314195267E+03  0.50400001928E-02 0.  1.
    10030    2    1    2    0    0  0.00000000000E+00  0.00000000000E+00  0.21541682043E+04  0.36004521096E+04  0.28849288971E+04 0.  0.
        2    1    3    3  502    0  0.17663360988E+03 -0.13054760416E+04  0.18103817869E+04  0.22389616660E+04  0.25500000920E-02 0. -1.
       -2    1    3    3    0  502 -0.17663360988E+03  0.13054760416E+04  0.34378641741E+03  0.13614904437E+04  0.25500000920E-02 0.  1.
</event>
<event>
 5   0  0.3770467E-07  0.2859261E+04  0.7818609E-02  0.8285103E-01
        1   -1    0    0  501    0  0.00000000000E+00  0.00000000000E+00  0.15677620511E+04  0.15677620511E+04  0.50400001928E-02 0.  1.
       -1   -1    0    0    0  501  0.00000000000E+00  0.00000000000E+00 -0.13036697441E+04  0.13036697441E+04  0.50400001928E-02 0. -1.
    10030    2    1    2    0    0  0.00000000000E+00  0.00000000000E+00  0.26409230704E+03  0.28714317952E+04  0.28592614095E+04 0.  0.
        1    1    3    3  502    0 -0.75891966237E+03 -0.97468551485E+03 -0.59065091937E+03  0.13692477553E+04  0.50400001928E-02 0. -1.
       -1    1    3    3    0  502  0.75891966237E+03  0.97468551485E+03  0.85474322641E+03  0.15021840400E+04  0.50400001928E-02 0.  1.
</event>
<event>
 5   0  0.9950999E-07  0.2904692E+04  0.7818609E-02  0.8271483E-01
        2   -1    0    0  501    0  0.00000000000E+00  0.00000000000E+00  0.18237847775E+04  0.18237847775E+04  0.25500000920E-02 0.  1.
       -2   -1    0    0    0  501  0.00000000000E+00  0.00000000000E+00 -0.11565560446E+04  0.11565560446E+04  0.25500000920E-02 0. -1.
    10030    2    1    2    0    0  0.00000000000E+00  0.00000000000E+00  0.66722873293E+03  0.29803408222E+04  0.29046922787E+04 0.  0.
        3    1    3    3  502    0 -0.57726845600E+03 -0.20404521964E+03  0.16848930873E+04  0.17926901706E+04  0.10100000352E+00 0.  1.
       -3    1    3    3    0  502  0.57726845600E+03  0.20404521964E+03 -0.10176643543E+04  0.11876506516E+04  0.10100000352E+00 0. -1.
</event>
<event>
 5   0  0.1031339E-06  0.2899680E+04  0.7818609E-02  0.8272973E-01
        2   -1    0    0  501    0  0.00000000000E+00  0.00000000000E+00  0.13630240720E+04  0.13630240720E+04  0.25500000920E-02 0.  1.
       -2   -1    0    0    0  501  0.00000000000E+00  0.00000000000E+00 -0.15421860604E+04  0.15421860604E+04  0.25500000920E-02 0. -1.
    10030    2    1    2    0    0  0.00000000000E+00  0.00000000000E+00 -0.17916198849E+03  0.29052101324E+04  0.28996804816E+04 0.  0.
        5    1    3    3  502    0  0.86618123682E+03 -0.11336280769E+04  0.16904316812E+03  0.14366559207E+04  0.46999998093E+01 0.  1.
       -5    1    3    3    0  502 -0.86618123682E+03  0.11336280769E+04 -0.34820515660E+03  0.14685542117E+04  0.46999998093E+01 0. -1.
</event>
<event>
 5   0  0.3769563E-07  0.2893262E+04  0.7818609E-02  0.8274885E-01
       -1   -1    0    0    0  501  0.00000000000E+00  0.00000000000E+00  0.13681250930E+04  0.13681250930E+04  0.50400001928E-02 0.  1.
        1   -1    0    0  501    0  0.00000000000E+00  0.00000000000E+00 -0.15296422668E+04  0.15296422668E+04  0.50400001928E-02 0. -1.
    10030    2    1    2    0    0  0.00000000000E+00  0.00000000000E+00 -0.16151717379E+03  0.28977673599E+04  0.28932624967E+04 0.  0.
        3    1    3    3  502    0  0.51490700594E+03 -0.54083887018E+03  0.11601645166E+04  0.13797165013E+04  0.10100000352E+00 0.  1.
       -3    1    3    3    0  502 -0.51490700594E+03  0.54083887018E+03 -0.13216816904E+04  0.15180508586E+04  0.10100000352E+00 0. -1.
</event>
<event>
 5   0  0.3638028E-07  0.2900541E+04  0.7818609E-02  0.8272717E-01
       -1   -1    0    0    0  501  0.00000000000E+00  0.00000000000E+00  0.16984512107E+04  0.16984512107E+04  0.50400001928E-02 0. -1.
        1   -1    0    0  501    0  0.00000000000E+00  0.00000000000E+00 -0.12383544254E+04  0.12383544254E+04  0.50400001928E-02 0.  1.
    10030    2    1    2    0    0  0.00000000000E+00  0.00000000000E+00  0.46009678530E+03  0.29368056361E+04  0.29005410344E+04 0.  0.
        4    1    3    3  502    0 -0.10578219964E+04  0.97275006112E+03  0.42755884629E+03  0.14993459365E+04  0.12699999809E+01 0. -1.
       -4    1    3    3    0  502  0.10578219964E+04 -0.97275006112E+03  0.32537939012E+02  0.14374596995E+04  0.12699999809E+01 0.  1.
</event>
<event>
 5   0  0.3885904E-07  0.2898260E+04  0.7818609E-02  0.8273395E-01
        1   -1    0    0  501    0  0.00000000000E+00  0.00000000000E+00  0.17205969220E+04  0.17205969220E+04  0.50400001928E-02 0.  1.
       -1   -1    0    0    0  501  0.00000000000E+00  0.00000000000E+00 -0.12204937849E+04  0.12204937849E+04  0.50400001928E-02 0. -1.
    10030    2    1    2    0    0  0.00000000000E+00  0.00000000000E+00  0.50010313712E+03  0.29410907069E+04  0.28982600640E+04 0.  0.
        2    1    3    3  502    0  0.43480541925E+03  0.13743406456E+04  0.40094291202E+03  0.14962029213E+04  0.25500000920E-02 0.  1.
       -2    1    3    3    0  502 -0.43480541925E+03 -0.13743406456E+04  0.99160225091E+02  0.14448877857E+04  0.25500000920E-02 0. -1.
</event>
<event>
 5   0  0.1006893E-06  0.2898012E+04  0.7818609E-02  0.8273469E-01
       -2   -1    0    0    0  501  0.00000000000E+00  0.00000000000E+00  0.13088608881E+04  0.13088608881E+04  0.25500000920E-02 0.  1.
        2   -1    0    0  501    0  0.00000000000E+00  0.00000000000E+00 -0.16041565661E+04  0.16041565661E+04  0.25500000920E-02 0. -1.
    10030    2    1    2    0    0  0.00000000000E+00  0.00000000000E+00 -0.29529567795E+03  0.29130174542E+04  0.28980115857E+04 0.  0.
        4    1    3    3  502    0  0.12117607343E+04 -0.52607132405E+03  0.45083505016E+03  0.13958398800E+04  0.12699999809E+01 0. -1.
       -4    1    3    3    0  502 -0.12117607343E+04  0.52607132405E+03 -0.74613072810E+03  0.15171775742E+04  0.12699999809E+01 0.  1.
</event>
<event>
 5   0  0.3786210E-07  0.2903932E+04  0.7818609E-02  0.8271709E-01
        1   -1    0    0  501    0  0.00000000000E+00  0.00000000000E+00  0.15644493518E+04  0.15644493518E+04  0.50400001928E-02 0.  1.
       -1   -1    0    0    0  501  0.00000000000E+00  0.00000000000E+00 -0.13475699272E+04  0.13475699272E+04  0.50400001928E-02 0. -1.
    10030    2    1    2    0    0  0.00000000000E+00  0.00000000000E+00  0.21687942463E+03  0.29120192790E+04  0.29039317479E+04 0.  0.
        5    1    3    3  502    0  0.42579766951E+03 -0.13702276527E+04  0.33121903877E+03  0.14726016492E+04  0.46999998093E+01 0.  1.
       -5    1    3    3    0  502 -0.42579766951E+03  0.13702276527E+04 -0.11433961414E+03  0.14394176298E+04  0.46999998093E+01 0. -1.
</event>
<event>
 5   0  0.1031339E-06  0.2897089E+04  0.7818609E-02  0.8273744E-01
       -2   -1    0    0    0  501  0.00000000000E+00  0.00000000000E+00  0.14694059210E+04  0.14694059210E+04  0.25500000920E-02 0. -1.
        2   -1    0    0  501    0  0.00000000000E+00  0.00000000000E+00 -0.14279792332E+04  0.14279792332E+04  0.25500000920E-02 0.  1.
    10030    2    1    2    0    0  0.00000000000E+00  0.00000000000E+00  0.41426687862E+02  0.28973851542E+04  0.28970889806E+04 0.  0.
        5    1    3    3  502    0  0.76105324038E+03 -0.60972369592E+03  0.10919409674E+04  0.14640089434E+04  0.46999998093E+01 0. -1.
       -5    1    3    3    0  502 -0.76105324038E+03  0.60972369592E+03 -0.10505142796E+04  0.14333762108E+04  0.46999998093E+01 0.  1.
</event>
<event>
 5   0  0.3885904E-07  0.2901762E+04  0.7818609E-02  0.8272353E-01
       -1   -1    0    0    0  501  0.00000000000E+00  0.00000000000E+00  0.80302117510E+03  0.80302117511E+03  0.50400001928E-02 0.  1.
        1   -1    0    0  501    0  0.00000000000E+00  0.00000000000E+00 -0.26214199767E+04  0.26214199767E+04  0.50400001928E-02 0. -1.
    10030    2    1    2    0    0  0.00000000000E+00  0.00000000000E+00 -0.18183988016E+04  0.34244411519E+04  0.29017620510E+04 0.  0.
        2    1    3    3  502    0  0.69454353007E+02  0.96485250926E+03  0.36691409874E+03  0.10345966497E+04  0.25500000920E-02 0.  1.
       -2    1    3    3    0  502 -0.69454353007E+02 -0.96485250926E+03 -0.21853129004E+04  0.23898445021E+04  0.25500000920E-02 0. -1.
</event>
<event>
 5   0  0.1063979E-06  0.2899412E+04  0.7818609E-02  0.8273052E-01
       -2   -1    0    0    0  501  0.00000000000E+00  0.00000000000E+00  0.11137701454E+04  0.11137701455E+04  0.25500000920E-02 0.  1.
        2   -1    0    0  501    0  0.00000000000E+00  0.00000000000E+00 -0.18869674612E+04  0.18869674612E+04  0.25500000920E-02 0. -1.
    10030    2    1    2    0    0  0.00000000000E+00  0.00000000000E+00 -0.77319731577E+03  0.30007376067E+04  0.28994123706E+04 0.  0.
        1    1    3    3  502    0 -0.86777689877E+03  0.36616793448E+00  0.81528216463E+03  0.11906812706E+04  0.50400001928E-02 0.  1.
       -1    1    3    3    0  502  0.86777689877E+03 -0.36616793448E+00 -0.15884794804E+04  0.18100563361E+04  0.50400001928E-02 0. -1.
</event>
<event>
 5   0  0.3786210E-07  0.2903463E+04  0.7818609E-02  0.8271848E-01
       -1   -1    0    0    0  501  0.00000000000E+00  0.00000000000E+00  0.11053362350E+04  0.11053362350E+04  0.50400001928E-02 0.  1.
        1   -1    0    0  501    0  0.00000000000E+00  0.00000000000E+00 -0.19066812433E+04  0.19066812433E+04  0.50400001928E-02 0. -1.
    10030    2    1    2    0    0  0.00000000000E+00  0.00000000000E+00 -0.80134500830E+03  0.30120174783E+04  0.29034626685E+04 0.  0.
        5    1    3    3  502    0  0.80540489248E+03 -0.49089463037E+02  0.85126833599E+03  0.11729308104E+04  0.46999998093E+01 0.  1.
       -5    1    3    3    0  502 -0.80540489248E+03  0.49089463037E+02 -0.16526133443E+04  0.18390866679E+04  0.46999998093E+01 0. -1.
</event>
<event>
 5   0  0.3885904E-07  0.2902565E+04  0.7818609E-02  0.8272115E-01
        1   -1    0    0  501    0  0.00000000000E+00  0.00000000000E+00  0.13088138441E+04  0.13088138441E+04  0.50400001928E-02 0.  1.
       -1   -1    0    0    0  501  0.00000000000E+00  0.00000000000E+00 -0.16092595830E+04  0.16092595830E+04  0.50400001928E-02 0. -1.
    10030    2    1    2    0    0  0.00000000000E+00  0.00000000000E+00 -0.30044573885E+03  0.29180734271E+04  0.29025652248E+04 0.  0.
        2    1    3    3  502    0  0.29639270291E+03 -0.13522829520E+04  0.28765378414E+03  0.14139527984E+04  0.25500000920E-02 0. -1.
       -2    1    3    3    0  502 -0.29639270291E+03  0.13522829520E+04 -0.58809952299E+03  0.15041206287E+04  0.25500000920E-02 0.  1.
</event>
<event>
 5   0  0.9994311E-07  0.2901446E+04  0.7818609E-02  0.8272447E-01
       -2   -1    0    0    0  501  0.00000000000E+00  0.00000000000E+00  0.14015080759E+04  0.14015080759E+04  0.25500000920E-02 0.  1.
        2   -1    0    0  501    0  0.00000000000E+00  0.00000000000E+00 -0.15016662171E+04  0.15016662171E+04  0.25500000920E-02 0. -1.
    10030    2    1    2    0    0  0.00000000000E+00  0.00000000000E+00 -0.10015814123E+03  0.29031742929E+04  0.29014460743E+04 0.  0.
        2    1    3    3  502    0  0.11011808868E+03  0.14445640229E+04 -0.12566293315E+03  0.14541947540E+04  0.25500000920E-02 0. -1.
       -2    1    3    3    0  502 -0.11011808868E+03 -0.14445640229E+04  0.25504791922E+02  0.14489795389E+04  0.25500000920E-02 0.  1.
</event>
<event>
 5   0  0.9994311E-07  0.2898867E+04  0.7818609E-02  0.8273215E-01
       -2   -1    0    0    0  501  0.00000000000E+00  0.00000000000E+00  0.10424360273E+04  0.10424360273E+04  0.25500000920E-02 0.  1.
        2   -1    0    0  501    0  0.00000000000E+00  0.00000000000E+00 -0.20153353664E+04  0.20153353664E+04  0.25500000920E-02 0. -1.
    10030    2    1    2    0    0  0.00000000000E+00  0.00000000000E+00 -0.97289933910E+03  0.30577713936E+04  0.28988674981E+04 0.  0.
        2    1    3    3  502    0  0.78744221444E+03 -0.89447922473E+03 -0.13567206092E+04  0.18057821397E+04  0.25500000920E-02 0.  1.
       -2    1    3    3    0  502 -0.78744221444E+03  0.89447922473E+03  0.38382127012E+03  0.12519892539E+04  0.25500000920E-02 0. -1.
</event>
<event>
 5   0  0.1006893E-06  0.2837081E+04  0.7818609E-02  0.8291848E-01
        2   -1    0    0  501    0  0.00000000000E+00  0.00000000000E+00  0.20385588645E+04  0.20385588645E+04  0.25500000920E-02 0.  1.
       -2   -1    0    0    0  501  0.00000000000E+00  0.00000000000E+00 -0.98709813892E+03  0.98709813892E+03  0.25500000920E-02 0. -1.
    10030    2    1    2    0    0  0.00000000000E+00  0.00000000000E+00  0.10514607256E+04  0.30256570034E+04  0.28370813603E+04 0.  0.
        4    1    3    3  502    0 -0.58534387436E+03  0.29375552268E+03  0.18676746511E+04  0.19791740635E+04  0.12699999809E+01 0.  1.
       -4    1    3    3    0  502  0.58534387436E+03 -0.29375552268E+03 -0.81621392554E+03  0.10464829399E+04  0.12699999809E+01 0. -1.
</event>
<event>
 5   0  0.9994311E-07  0.2905868E+04  0.7818609E-02  0.8271134E-01
       -2   -1    0    0    0  501  0.00000000000E+00  0.00000000000E+00  0.27882134963E+04  0.27882134963E+04  0.25500000920E-02 0.  1.
        2   -1    0    0  501    0  0.00000000000E+00  0.00000000000E+00 -0.75712171557E+03  0.75712171557E+03  0.25500000920E-02 0. -1.
    10030    2    1    2    0    0  0.00000000000E+00  0.00000000000E+00  0.20310917807E+04  0.35453352119E+04  0.29058678467E+04 0.  0.
        2    1    3    3  502    0 -0.87734773856E+03  0.85089203154E+03  0.56993727007E+02  0.12235213887E+04  0.25500000920E-02 0. -1.
       -2    1    3    3    0  502  0.87734773856E+03 -0.85089203154E+03  0.19740980537E+04  0.23218138232E+04  0.25500000920E-02 0.  1.
</event>
<event>
 5   0  0.9994311E-07  0.2895790E+04  0.7818609E-02  0.8274131E-01
        2   -1    0    0  501    0  0.00000000000E+00  0.00000000000E+00  0.18858963999E+04  0.18858963999E+04  0.25500000920E-02 0.  1.
       -2   -1    0    0    0  501  0.00000000000E+00  0.00000000000E+00 -0.11116200552E+04  0.11116200552E+04  0.25500000920E-02 0. -1.
    10030    2    1    2    0    0  0.00000000000E+00  0.00000000000E+00  0.77427634474E+03  0.29975164551E+04  0.28957902273E+04 0.  0.
        2    1    3    3  502    0  0.38815442781E+03  0.13204732951E+04 -0.78194256227E+02  0.13785600911E+04  0.25500000920E-02 0. -1.
       -2    1    3    3    0  502 -0.38815442781E+03 -0.13204732951E+04  0.85247060097E+03  0.16189563640E+04  0.25500000920E-02 0.  1.
</event>
<event>
 5   0  0.9950999E-07  0.2898093E+04  0.7818609E-02  0.8273445E-01
        2   -1    0    0  501    0  0.00000000000E+00  0.00000000000E+00  0.14637977993E+04  0.14637977993E+04  0.25500000920E-02 0.  1.
       -2   -1    0    0    0  501  0.00000000000E+00  0.00000000000E+00 -0.14344441032E+04  0.14344441032E+04  0.25500000920E-02 0. -1.
    10030    2    1    2    0    0  0.00000000000E+00  0.00000000000E+00  0.29353696113E+02  0.28982419024E+04  0.28980932500E+04 0.  0.
        3    1    3    3  502    0  0.18356930520E+03 -0.11255477501E+04 -0.87933806830E+03  0.14400662749E+04  0.10100000352E+00 0. -1.
       -3    1    3    3    0  502 -0.18356930520E+03  0.11255477501E+04  0.90869176441E+03  0.14581756275E+04  0.10100000352E+00 0.  1.
</event>
<event>
 5   0  0.3638028E-07  0.2897731E+04  0.7818609E-02  0.8273553E-01
        1   -1    0    0  501    0  0.00000000000E+00  0.00000000000E+00  0.17979380284E+04  0.17979380284E+04  0.50400001928E-02 0.  1.
       -1   -1    0    0    0  501  0.00000000000E+00  0.00000000000E+00 -0.11675658414E+04  0.11675658414E+04  0.50400001928E-02 0. -1.
    10030    2    1    2    0    0  0.00000000000E+00  0.00000000000E+00  0.63037218694E+03  0.29655038698E+04  0.28977308550E+04 0.  0.
        4    1    3    3  502    0 -0.11089455204E+04 -0.83381438267E+03  0.74232392935E+03  0.15735479087E+04  0.12699999809E+01 0.  1.
       -4    1    3    3    0  502  0.11089455204E+04  0.83381438267E+03 -0.11195174240E+03  0.13919559611E+04  0.12699999809E+01 0. -1.
</event>
<event>
 5   0  0.3770467E-07  0.2896436E+04  0.7818609E-02  0.8273939E-01
       -1   -1    0    0    0  501  0.00000000000E+00  0.00000000000E+00  0.11241417026E+04  0.11241417026E+04  0.50400001928E-02 0.  1.
        1   -1    0    0  501    0  0.00000000000E+00  0.00000000000E+00 -0.18657211927E+04  0.18657211927E+04  0.50400001928E-02 0. -1.
    10030    2    1    2    0    0  0.00000000000E+00  0.00000000000E+00 -0.74157949011E+03  0.29898628953E+04  0.28964357394E+04 0.  0.
        1    1    3    3  502    0  0.74451526637E+02 -0.82064813863E+03  0.85856099277E+03  0.11900140233E+04  0.50400001928E-02 0.  1.
       -1    1    3    3    0  502 -0.74451526637E+02  0.82064813863E+03 -0.16001404829E+04  0.17998488721E+04  0.50400001928E-02 0. -1.
</event>
<event>
 5   0  0.3769563E-07  0.2906118E+04  0.7818609E-02  0.8271059E-01
        1   -1    0    0  501    0  0.00000000000E+00  0.00000000000E+00  0.13952429514E+04  0.13952429514E+04  0.50400001928E-02 0.  1.
       -1   -1    0    0    0  501  0.00000000000E+00  0.00000000000E+00 -0.15132710470E+04  0.15132710471E+04  0.50400001928E-02 0. -1.
    10030    2    1    2    0    0  0.00000000000E+00  0.00000000000E+00 -0.11802809564E+03  0.29085139985E+04  0.29061182096E+04 0.  0.
        3    1    3    3  502    0 -0.71218958002E+03 -0.20885474493E+03 -0.13092622324E+04  0.15049923274E+04  0.10100000352E+00 0. -1.
       -3    1    3    3    0  502  0.71218958002E+03  0.20885474493E+03  0.11912341367E+04  0.14035216710E+04  0.10100000352E+00 0.  1.
</event>
<event>
 5   0  0.3885904E-07  0.2915408E+04  0.7818609E-02  0.8268308E-01
       -1   -1    0    0    0  501  0.00000000000E+00  0.00000000000E+00  0.10950767187E+04  0.10950767187E+04  0.50400001928E-02 0.  1.
        1   -1    0    0  501    0  0.00000000000E+00  0.00000000000E+00 -0.19404134913E+04  0.19404134914E+04  0.50400001928E-02 0. -1.
    10030    2    1    2    0    0  0.00000000000E+00  0.00000000000E+00 -0.84533677267E+03  0.30354902100E+04  0.29154084716E+04 0.  0.
        2    1    3    3  502    0  0.12924874688E+04  0.46816347360E+03  0.82282072046E+02  0.13771242625E+04  0.25500000920E-02 0. -1.
       -2    1    3    3    0  502 -0.12924874688E+04 -0.46816347360E+03 -0.92761884471E+03  0.16583659476E+04  0.25500000920E-02 0.  1.
</event>
<event>
 5   0  0.3770467E-07  0.2896791E+04  0.7818609E-02  0.8273833E-01
       -1   -1    0    0    0  501  0.00000000000E+00  0.00000000000E+00  0.11407187587E+04  0.11407187587E+04  0.50400001928E-02 0. -1.
        1   -1    0    0  501    0  0.00000000000E+00  0.00000000000E+00 -0.18390591616E+04  0.18390591616E+04  0.50400001928E-02 0.  1.
    10030    2    1    2    0    0  0.00000000000E+00  0.00000000000E+00 -0.69834040292E+03  0.29797779203E+04  0.28967908341E+04 0.  0.
        1    1    3    3  502    0 -0.73809897789E+01 -0.10034763883E+04  0.72517855518E+03  0.12381047119E+04  0.50400001928E-02 0. -1.
       -1    1    3    3    0  502  0.73809897789E+01  0.10034763883E+04 -0.14235189581E+04  0.17416732084E+04  0.50400001928E-02 0.  1.
</event>
<event>
 5   0  0.1006893E-06  0.2900539E+04  0.7818609E-02  0.8272717E-01
       -2   -1    0    0    0  501  0.00000000000E+00  0.00000000000E+00  0.18852840733E+04  0.18852840733E+04  0.25500000920E-02 0. -1.
        2   -1    0    0  501    0  0.00000000000E+00  0.00000000000E+00 -0.11156312764E+04  0.11156312764E+04  0.25500000920E-02 0.  1.
    10030    2    1    2    0    0  0.00000000000E+00  0.00000000000E+00  0.76965279687E+03  0.30009153496E+04  0.29005391754E+04 0.  0.
        4    1    3    3  502    0 -0.28513050019E+03 -0.12198263279E+04  0.11408711539E+04  0.16943624981E+04  0.12699999809E+01 0. -1.
       -4    1    3    3    0  502  0.28513050019E+03  0.12198263279E+04 -0.37121835707E+03  0.13065528515E+04  0.12699999809E+01 0.  1.
</event>
<event>
 5   0  0.1006893E-06  0.2904551E+04  0.7818609E-02  0.8271525E-01
       -2   -1    0    0    0  501  0.00000000000E+00  0.00000000000E+00  0.20049300239E+04  0.20049300239E+04  0.25500000920E-02 0.  1.
        2   -1    0    0  501    0  0.00000000000E+00  0.00000000000E+00 -0.10519586263E+04  0.10519586263E+04  0.25500000920E-02 0. -1.
    10030    2    1    2    0    0  0.00000000000E+00  0.00000000000E+00  0.95297139760E+03  0.30568886502E+04  0.29045505220E+04 0.  0.
        4    1    3    3  502    0  0.24740368092E+03 -0.14190864011E+04  0.67079573769E+03  0.15890196127E+04  0.12699999809E+01 0.  1.
       -4    1    3    3    0  502 -0.24740368092E+03  0.14190864011E+04  0.28217565991E+03  0.14678690374E+04  0.12699999809E+01 0. -1.
</event>
<event>
 5   0  0.9994311E-07  0.2915436E+04  0.7818609E-02  0.8268300E-01
       -2   -1    0    0    0  501  0.00000000000E+00  0.00000000000E+00  0.13299543395E+04  0.13299543396E+04  0.25500000920E-02 0. -1.
        2   -1    0    0  501    0  0.00000000000E+00  0.00000000000E+00 -0.15977557488E+04  0.15977557488E+04  0.25500000920E-02 0.  1.
    10030    2    1    2    0    0  0.00000000000E+00  0.00000000000E+00 -0.26780140928E+03  0.29277100884E+04  0.29154362910E+04 0.  0.
        2    1    3    3  502    0 -0.14405575455E+04 -0.16919143416E+03 -0.27980659715E+03  0.14772012439E+04  0.25500000920E-02 0.  1.
       -2    1    3    3    0  502  0.14405575455E+04  0.16919143416E+03  0.12005187868E+02  0.14505088444E+04  0.25500000920E-02 0. -1.
</event>
<event>
 5   0  0.3378750E-07  0.2891463E+04  0.7818609E-02  0.8275422E-01
       -3   -1    0    0    0  501  0.00000000000E+00  0.00000000000E+00  0.11937222652E+04  0.11937222695E+04  0.10100000352E+00 0.  1.
        3   -1    0    0  501    0  0.00000000000E+00  0.00000000000E+00 -0.17509428525E+04  0.17509428554E+04  0.10100000352E+00 0. -1.
    10030    2    1    2    0    0  0.00000000000E+00  0.00000000000E+00 -0.55722058723E+03  0.29446651249E+04  0.28914629368E+04 0.  0.
        4    1    3    3  502    0 -0.86732814279E+03 -0.54214761733E+03  0.76193100537E+03  0.12754303651E+04  0.12699999809E+01 0.  1.
       -4    1    3    3    0  502  0.86732814279E+03  0.54214761733E+03 -0.13191515926E+04  0.16692347598E+04  0.12699999809E+01 0. -1.
</event>
<event>
 5   0  0.3638028E-07  0.2901548E+04  0.7818609E-02  0.8272417E-01
       -1   -1    0    0    0  501  0.00000000000E+00  0.00000000000E+00  0.11947924944E+04  0.11947924945E+04  0.50400001928E-02 0.  1.
        1   -1    0    0  501    0  0.00000000000E+00  0.00000000000E+00 -0.17615993962E+04  0.17615993963E+04  0.50400001928E-02 0. -1.
    10030    2    1    2    0    0  0.00000000000E+00  0.00000000000E+00 -0.56680690180E+03  0.29563918907E+04  0.29015483707E+04 0.  0.
        4    1    3    3  502    0  0.46272203750E+03 -0.76347130372E+03 -0.14485848874E+04  0.17015874660E+04  0.12699999809E+01 0. -1.
       -4    1    3    3    0  502 -0.46272203750E+03  0.76347130372E+03  0.88177798557E+03  0.12548044247E+04  0.12699999809E+01 0.  1.
</event>
<event>
 5   0  0.3769563E-07  0.2894416E+04  0.7818609E-02  0.8274541E-01
        1   -1    0    0  501    0  0.00000000000E+00  0.00000000000E+00  0.19936687100E+04  0.19936687101E+04  0.50400001928E-02 0. -1.
       -1   -1    0    0    0  501  0.00000000000E+00  0.00000000000E+00 -0.10505311384E+04  0.10505311384E+04  0.50400001928E-02 0.  1.
    10030    2    1    2    0    0  0.00000000000E+00  0.00000000000E+00  0.94313757162E+03  0.30441998485E+04  0.28944160445E+04 0.  0.
        3    1    3    3  502    0 -0.47507889833E+03  0.25660633436E+03  0.18837606984E+04  0.19596176029E+04  0.10100000352E+00 0. -1.
       -3    1    3    3    0  502  0.47507889833E+03 -0.25660633436E+03 -0.94062312683E+03  0.10845822456E+04  0.10100000352E+00 0.  1.
</event>
<event>
 5   0  0.3638028E-07  0.2901620E+04  0.7818609E-02  0.8272396E-01
       -1   -1    0    0    0  501  0.00000000000E+00  0.00000000000E+00  0.11260895930E+04  0.11260895930E+04  0.50400001928E-02 0. -1.
        1   -1    0    0  501    0  0.00000000000E+00  0.00000000000E+00 -0.18691675515E+04  0.18691675515E+04  0.50400001928E-02 0.  1.
    10030    2    1    2    0    0  0.00000000000E+00  0.00000000000E+00 -0.74307795852E+03  0.29952571445E+04  0.29016203248E+04 0.  0.
        4    1    3    3  502    0 -0.26019115292E+03  0.11431359137E+04 -0.12537464830E+04  0.17164909000E+04  0.12699999809E+01 0.  1.
       -4    1    3    3    0  502  0.26019115292E+03 -0.11431359137E+04  0.51066852452E+03  0.12787662445E+04  0.12699999809E+01 0. -1.
</event>
<event>
 5   0  0.3638028E-07  0.2891510E+04  0.7818609E-02  0.8275408E-01
        1   -1    0    0  501    0  0.00000000000E+00  0.00000000000E+00  0.11541994652E+04  0.11541994652E+04  0.50400001928E-02 0.  1.
       -1   -1    0    0    0  501  0.00000000000E+00  0.00000000000E+00 -0.18109585045E+04  0.18109585045E+04  0.50400001928E-02 0. -1.
    10030    2    1    2    0    0  0.00000000000E+00  0.00000000000E+00 -0.65675903933E+03  0.29651579697E+04  0.28915098736E+04 0.  0.
        4    1    3    3  502    0 -0.79609815768E+03 -0.56577397358E+03  0.76476105574E+03  0.12404569929E+04  0.12699999809E+01 0.  1.
       -4    1    3    3    0  502  0.79609815768E+03  0.56577397358E+03 -0.14215200951E+04  0.17247009768E+04  0.12699999809E+01 0. -1.
</event>
<event>
 5   0  0.1063979E-06  0.2856311E+04  0.7818609E-02  0.8285996E-01
       -2   -1    0    0    0  501  0.00000000000E+00  0.00000000000E+00  0.17305977601E+04  0.17305977601E+04  0.25500000920E-02 0.  1.
        2   -1    0    0  501    0  0.00000000000E+00  0.00000000000E+00 -0.11785686869E+04  0.11785686870E+04  0.25500000920E-02 0. -1.
    10030    2    1    2    0    0  0.00000000000E+00  0.00000000000E+00  0.55202907311E+03  0.29091664470E+04  0.28563111383E+04 0.  0.
        1    1    3    3  502    0  0.15087848149E+03 -0.62214089187E+03 -0.10242473801E+04  0.12078519368E+04  0.50400001928E-02 0. -1.
       -1    1    3    3    0  502 -0.15087848149E+03  0.62214089187E+03  0.15762764532E+04  0.17013145102E+04  0.50400001928E-02 0.  1.
</event>
<event>
 5   0  0.9994311E-07  0.2902702E+04  0.7818609E-02  0.8272074E-01
       -2   -1    0    0    0  501  0.00000000000E+00  0.00000000000E+00  0.13551286148E+04  0.13551286148E+04  0.25500000920E-02 0.  1.
        2   -1    0    0  501    0  0.00000000000E+00  0.00000000000E+00 -0.15544060780E+04  0.15544060780E+04  0.25500000920E-02 0. -1.
    10030    2    1    2    0    0  0.00000000000E+00  0.00000000000E+00 -0.19927746319E+03  0.29095346928E+04  0.29027022963E+04 0.  0.
        2    1    3    3  502    0  0.70954916968E+02 -0.74802178813E+03 -0.13442735885E+04  0.15400138559E+04  0.25500000920E-02 0. -1.
       -2    1    3    3    0  502 -0.70954916968E+02  0.74802178813E+03  0.11449961253E+04  0.13695208369E+04  0.25500000920E-02 0.  1.
</event>
<event>
 5   0  0.9950999E-07  0.2906553E+04  0.7818609E-02  0.8270930E-01
        2   -1    0    0  501    0  0.00000000000E+00  0.00000000000E+00  0.22928933325E+04  0.22928933325E+04  0.25500000920E-02 0. -1.
       -2   -1    0    0    0  501  0.00000000000E+00  0.00000000000E+00 -0.92111275435E+03  0.92111275436E+03  0.25500000920E-02 0.  1.
    10030    2    1    2    0    0  0.00000000000E+00  0.00000000000E+00  0.13717805781E+04  0.32140060868E+04  0.29065534868E+04 0.  0.
        3    1    3    3  502    0  0.11129838614E+04 -0.57673523849E+03  0.14989625763E+04  0.19540331181E+04  0.10100000352E+00 0. -1.
       -3    1    3    3    0  502 -0.11129838614E+04  0.57673523849E+03 -0.12718199818E+03  0.12599729688E+04  0.10100000352E+00 0.  1.
</event>
<event>
 5   0  0.1031339E-06  0.2905526E+04  0.7818609E-02  0.8271235E-01
       -2   -1    0    0    0  501  0.00000000000E+00  0.00000000000E+00  0.88987345849E+03  0.88987345850E+03  0.25500000920E-02 0. -1.
        2   -1    0    0  501    0  0.00000000000E+00  0.00000000000E+00 -0.23717076810E+04  0.23717076810E+04  0.25500000920E-02 0.  1.
    10030    2    1    2    0    0  0.00000000000E+00  0.00000000000E+00 -0.14818342225E+04  0.32615811395E+04  0.29055255749E+04 0.  0.
        5    1    3    3  502    0 -0.69380919645E+03 -0.11325970715E+04 -0.80282583608E+02  0.13306444720E+04  0.46999998093E+01 0. -1.
       -5    1    3    3    0  502  0.69380919645E+03  0.11325970715E+04 -0.14015516389E+04  0.19309366675E+04  0.46999998093E+01 0.  1.
</event>
<event>
 5   0  0.3786210E-07  0.2899840E+04  0.7818609E-02  0.8272925E-01
       -1   -1    0    0    0  501  0.00000000000E+00  0.00000000000E+00  0.10582461560E+04  0.10582461560E+04  0.50400001928E-02 0. -1.
        1   -1    0    0  501    0  0.00000000000E+00  0.00000000000E+00 -0.19865588434E+04  0.19865588434E+04  0.50400001928E-02 0.  1.
    10030    2    1    2    0    0  0.00000000000E+00  0.00000000000E+00 -0.92831268745E+03  0.30448049994E+04  0.28998401747E+04 0.  0.
        5    1    3    3  502    0  0.21357459728E+03  0.69230866349E+02 -0.19681883475E+04  0.19809579710E+04  0.46999998093E+01 0.  1.
       -5    1    3    3    0  502 -0.21357459728E+03 -0.69230866349E+02  0.10398756601E+04  0.10638470284E+04  0.46999998093E+01 0. -1.
</event>
<event>
 5   0  0.3885904E-07  0.2898450E+04  0.7818609E-02  0.8273339E-01
       -1   -1    0    0    0  501  0.00000000000E+00  0.00000000000E+00  0.10964438815E+04  0.10964438816E+04  0.50400001928E-02 0. -1.
        1   -1    0    0  501    0  0.00000000000E+00  0.00000000000E+00 -0.19155129684E+04  0.19155129684E+04  0.50400001928E-02 0.  1.
    10030    2    1    2    0    0  0.00000000000E+00  0.00000000000E+00 -0.81906908682E+03  0.30119568499E+04  0.28984495677E+04 0.  0.
        2    1    3    3  502    0 -0.15017885537E+03 -0.93397317817E+03 -0.15504338337E+04  0.18162336465E+04  0.25500000920E-02 0.  1.
       -2    1    3    3    0  502  0.15017885537E+03  0.93397317817E+03  0.73136474687E+03  0.11957232034E+04  0.25500000920E-02 0. -1.
</event>
<event>
 5   0  0.3786210E-07  0.2900813E+04  0.7818609E-02  0.8272636E-01
       -1   -1    0    0    0  501  0.00000000000E+00  0.00000000000E+00  0.10238710274E+04  0.10238710275E+04  0.50400001928E-02 0.  1.
        1   -1    0    0  501    0  0.00000000000E+00  0.00000000000E+00 -0.20546332540E+04  0.20546332540E+04  0.50400001928E-02 0. -1.
    10030    2    1    2    0    0  0.00000000000E+00  0.00000000000E+00 -0.10307622266E+04  0.30785042815E+04  0.29008133072E+04 0.  0.
        5    1    3    3  502    0 -0.32762127211E+03 -0.13430941740E+04 -0.98090799451E+03  0.16951224858E+04  0.46999998093E+01 0. -1.
       -5    1    3    3    0  502  0.32762127211E+03  0.13430941740E+04 -0.49854232070E+02  0.13833817957E+04  0.46999998093E+01 0.  1.
</event>
<event>
 5   0  0.9994311E-07  0.2898224E+04  0.7818609E-02  0.8273406E-01
        2   -1    0    0  501    0  0.00000000000E+00  0.00000000000E+00  0.11654728116E+04  0.11654728116E+04  0.25500000920E-02 0.  1.
       -2   -1    0    0    0  501  0.00000000000E+00  0.00000000000E+00 -0.18017802506E+04  0.18017802506E+04  0.25500000920E-02 0. -1.
    10030    2    1    2    0    0  0.00000000000E+00  0.00000000000E+00 -0.63630743895E+03  0.29672530622E+04  0.28982242112E+04 0.  0.
        2    1    3    3  502    0 -0.13260268322E+04  0.57963588236E+03 -0.24153152874E+03  0.14671954182E+04  0.25500000920E-02 0. -1.
       -2    1    3    3    0  502  0.13260268322E+04 -0.57963588236E+03 -0.39477591021E+03  0.15000576439E+04  0.25500000920E-02 0.  1.
</event>
<event>
 5   0  0.1063979E-06  0.2898334E+04  0.7818609E-02  0.8273373E-01
       -2   -1    0    0    0  501  0.00000000000E+00  0.00000000000E+00  0.18383638644E+04  0.18383638644E+04  0.25500000920E-02 0.  1.
        2   -1    0    0  501    0  0.00000000000E+00  0.00000000000E+00 -0.11423664172E+04  0.11423664172E+04  0.25500000920E-02 0. -1.
    10030    2    1    2    0    0  0.00000000000E+00  0.00000000000E+00  0.69599744726E+03  0.29807302816E+04  0.28983341017E+04 0.  0.
        1    1    3    3  502    0  0.72299264300E+03 -0.27054754373E+03 -0.91331409820E+03  0.11958498975E+04  0.50400001928E-02 0. -1.
       -1    1    3    3    0  502 -0.72299264300E+03  0.27054754373E+03  0.16093115455E+04  0.17848803841E+04  0.50400001928E-02 0.  1.
</event>
<event>
 5   0  0.1063979E-06  0.2893964E+04  0.7818609E-02  0.8274676E-01
        2   -1    0    0  501    0  0.00000000000E+00  0.00000000000E+00  0.23286927882E+04  0.23286927882E+04  0.25500000920E-02 0.  1.
       -2   -1    0    0    0  501  0.00000000000E+00  0.00000000000E+00 -0.89911225039E+03  0.89911225040E+03  0.25500000920E-02 0. -1.
    10030    2    1    2    0    0  0.00000000000E+00  0.00000000000E+00  0.14295805378E+04  0.32278050386E+04  0.28939635196E+04 0.  0.
        1    1    3    3  502    0 -0.88169615719E+03  0.37009957429E+03  0.19260681158E+04  0.21503721062E+04  0.50400001928E-02 0.  1.
       -1    1    3    3    0  502  0.88169615719E+03 -0.37009957429E+03 -0.49648757805E+03  0.10774329323E+04  0.50400001928E-02 0. -1.
</event>
<event>
 5   0  0.9950999E-07  0.2901221E+04  0.7818609E-02  0.8272514E-01
       -2   -1    0    0    0  501  0.00000000000E+00  0.00000000000E+00  0.83984780235E+03  0.83984780236E+03  0.25500000920E-02 0. -1.
        2   -1    0    0  501    0  0.00000000000E+00  0.00000000000E+00 -0.25055389104E+04  0.25055389104E+04  0.25500000920E-02 0.  1.
    10030    2    1    2    0    0  0.00000000000E+00  0.00000000000E+00 -0.16656911080E+04  0.33453867127E+04  0.29012213618E+04 0.  0.
        3    1    3    3  502    0 -0.11560498252E+04 -0.48558841896E+03 -0.16739135041E+04  0.20914668872E+04  0.10100000352E+00 0.  1.
       -3    1    3    3    0  502  0.11560498252E+04  0.48558841896E+03  0.82223960682E+01  0.12539198255E+04  0.10100000352E+00 0. -1.
</event>
<event>
 5   0  0.3638028E-07  0.2901781E+04  0.7818609E-02  0.8272348E-01
       -1   -1    0    0    0  501  0.00000000000E+00  0.00000000000E+00  0.76092420223E+03  0.76092420225E+03  0.50400001928E-02 0.  1.
        1   -1    0    0  501    0  0.00000000000E+00  0.00000000000E+00 -0.27664817838E+04  0.27664817838E+04  0.50400001928E-02 0. -1.
    10030    2    1    2    0    0  0.00000000000E+00  0.00000000000E+00 -0.20055575816E+04  0.35274059861E+04  0.29017807942E+04 0.  0.
        4    1    3    3  502    0 -0.49879429518E+03  0.60417896365E+02  0.65179373429E+03  0.82297190479E+03  0.12699999809E+01 0.  1.
       -4    1    3    3    0  502  0.49879429518E+03 -0.60417896365E+02 -0.26573513159E+04  0.27044340813E+04  0.12699999809E+01 0. -1.
</event>
<event>
 5   0  0.9950999E-07  0.2899023E+04  0.7818609E-02  0.8273168E-01
       -2   -1    0    0    0  501  0.00000000000E+00  0.00000000000E+00  0.15370735202E+04  0.15370735202E+04  0.25500000920E-02 0.  1.
        2   -1    0    0  501    0  0.00000000000E+00  0.00000000000E+00 -0.13669378275E+04  0.13669378275E+04  0.25500000920E-02 0. -1.
    10030    2    1    2    0    0  0.00000000000E+00  0.00000000000E+00  0.17013569277E+03  0.29040113477E+04  0.28990232413E+04 0.  0.
        3    1    3    3  502    0  0.36333108185E+03  0.12438194393E+04 -0.56565564517E+03  0.14138820997E+04  0.10100000352E+00 0. -1.
       -3    1    3    3    0  502 -0.36333108185E+03 -0.12438194393E+04  0.73579133795E+03  0.14901292480E+04  0.10100000352E+00 0.  1.
</event>
<event>
 5   0  0.3885904E-07  0.2916645E+04  0.7818609E-02  0.8267942E-01
        1   -1    0    0  501    0  0.00000000000E+00  0.00000000000E+00  0.18913653426E+04  0.18913653426E+04  0.50400001928E-02 0. -1.
       -1   -1    0    0    0  501  0.00000000000E+00  0.00000000000E+00 -0.11244280738E+04  0.11244280738E+04  0.50400001928E-02 0.  1.
    10030    2    1    2    0    0  0.00000000000E+00  0.00000000000E+00  0.76693726881E+03  0.30157934164E+04  0.29166448457E+04 0.  0.
        2    1    3    3  502    0  0.28210231904E+03  0.13658160718E+04  0.82418429844E+03  0.16199737709E+04  0.25500000920E-02 0. -1.
       -2    1    3    3    0  502 -0.28210231904E+03 -0.13658160718E+04 -0.57247029632E+02  0.13958196455E+04  0.25500000920E-02 0.  1.
</event>
<event>
 5   0  0.1031339E-06  0.2900252E+04  0.7818609E-02  0.8272802E-01
       -2   -1    0    0    0  501  0.00000000000E+00  0.00000000000E+00  0.12022440576E+04  0.12022440576E+04  0.25500000920E-02 0.  1.
        2   -1    0    0  501    0  0.00000000000E+00  0.00000000000E+00 -0.17491174004E+04  0.17491174004E+04  0.25500000920E-02 0. -1.
    10030    2    1    2    0    0  0.00000000000E+00  0.00000000000E+00 -0.54687334281E+03  0.29513614581E+04  0.29002524033E+04 0.  0.
        5    1    3    3  502    0  0.12166677131E+04  0.55211689351E+02 -0.10743999561E+04  0.16240954438E+04  0.46999998093E+01 0. -1.
       -5    1    3    3    0  502 -0.12166677131E+04 -0.55211689351E+02  0.52752661334E+03  0.13272660143E+04  0.46999998093E+01 0.  1.
</event>
<event>
 5   0  0.9950999E-07  0.2897213E+04  0.7818609E-02  0.8273707E-01
        2   -1    0    0  501    0  0.00000000000E+00  0.00000000000E+00  0.11761614058E+04  0.11761614058E+04  0.25500000920E-02 0. -1.
       -2   -1    0    0    0  501  0.00000000000E+00  0.00000000000E+00 -0.17841602720E+04  0.17841602720E+04  0.25500000920E-02 0.  1.
    10030    2    1    2    0    0  0.00000000000E+00  0.00000000000E+00 -0.60799886624E+03  0.29603216778E+04  0.28972127665E+04 0.  0.
        3    1    3    3  502    0  0.13767015538E+04 -0.44164845756E+03 -0.39595938863E+03  0.14990478231E+04  0.10100000352E+00 0.  1.
       -3    1    3    3    0  502 -0.13767015538E+04  0.44164845756E+03 -0.21203947761E+03  0.14612738547E+04  0.10100000352E+00 0. -1.
</event>
<event>
 5   0  0.3885904E-07  0.2891474E+04  0.7818609E-02  0.8275419E-01
       -1   -1    0    0    0  501  0.00000000000E+00  0.00000000000E+00  0.15206401676E+04  0.15206401676E+04  0.50400001928E-02 0.  1.
        1   -1    0    0  501    0  0.00000000000E+00  0.00000000000E+00 -0.13745236482E+04  0.13745236483E+04  0.50400001928E-02 0. -1.
    10030    2    1    2    0    0  0.00000000000E+00  0.00000000000E+00  0.14611651938E+03  0.28951638159E+04  0.28914742751E+04 0.  0.
        2    1    3    3  502    0  0.62156408529E+03  0.12711851945E+04  0.36991955846E+03  0.14625642518E+04  0.25500000920E-02 0.  1.
       -2    1    3    3    0  502 -0.62156408529E+03 -0.12711851945E+04 -0.22380303908E+03  0.14325995641E+04  0.25500000920E-02 0. -1.
</event>
<event>
 5   0  0.3885904E-07  0.2899570E+04  0.7818609E-02  0.8273006E-01
        1   -1    0    0  501    0  0.00000000000E+00  0.00000000000E+00  0.12434066449E+04  0.12434066449E+04  0.50400001928E-02 0.  1.
       -1   -1    0    0    0  501  0.00000000000E+00  0.00000000000E+00 -0.16904171618E+04  0.16904171619E+04  0.50400001928E-02 0. -1.
    10030    2    1    2    0    0  0.00000000000E+00  0.00000000000E+00 -0.44701051695E+03  0.29338238068E+04  0.28995695761E+04 0.  0.
        2    1    3    3  502    0  0.99731127176E+03  0.39573757464E+03  0.76301966921E+03  0.13166005531E+04  0.25500000920E-02 0.  1.
       -2    1    3    3    0  502 -0.99731127176E+03 -0.39573757464E+03 -0.12100301862E+04  0.16172232537E+04  0.25500000920E-02 0. -1.
</event>
<event>
 5   0  0.3786210E-07  0.2903766E+04  0.7818609E-02  0.8271758E-01
        1   -1    0    0  501    0  0.00000000000E+00  0.00000000000E+00  0.20841499510E+04  0.20841499510E+04  0.50400001928E-02 0. -1.
       -1   -1    0    0    0  501  0.00000000000E+00  0.00000000000E+00 -0.10114266488E+04  0.10114266488E+04  0.50400001928E-02 0.  1.
    10030    2    1    2    0    0  0.00000000000E+00  0.00000000000E+00  0.10727233021E+04  0.30955765998E+04  0.29037663822E+04 0.  0.
        5    1    3    3  502    0  0.10044178587E+04  0.10482899273E+04  0.52223071965E+03  0.15428914483E+04  0.46999998093E+01 0. -1.
       -5    1    3    3    0  502 -0.10044178587E+04 -0.10482899273E+04  0.55049258250E+03  0.15526851516E+04  0.46999998093E+01 0.  1.
</event>
<event>
 5   0  0.9994311E-07  0.2908053E+04  0.7818609E-02  0.8270486E-01
        2   -1    0    0  501    0  0.00000000000E+00  0.00000000000E+00  0.13859318215E+04  0.13859318215E+04  0.25500000920E-02 0.  1.
       -2   -1    0    0    0  501  0.00000000000E+00  0.00000000000E+00 -0.15254668104E+04  0.15254668104E+04  0.25500000920E-02 0. -1.
    10030    2    1    2    0    0  0.00000000000E+00  0.00000000000E+00 -0.13953498899E+03  0.29113986319E+04  0.29080529536E+04 0.  0.
        2    1    3    3  502    0  0.95473601576E+02  0.18467306248E+03 -0.15105109297E+04  0.15247500180E+04  0.25500000920E-02 0. -1.
       -2    1    3    3    0  502 -0.95473601576E+02 -0.18467306248E+03  0.13709759407E+04  0.13866486139E+04  0.25500000920E-02 0.  1.
</event>
<event>
 5   0  0.9994311E-07  0.2893366E+04  0.7818609E-02  0.8274854E-01
        2   -1    0    0  501    0  0.00000000000E+00  0.00000000000E+00  0.20817982720E+04  0.20817982720E+04  0.25500000920E-02 0. -1.
       -2   -1    0    0    0  501  0.00000000000E+00  0.00000000000E+00 -0.10053287602E+04  0.10053287602E+04  0.25500000920E-02 0.  1.
    10030    2    1    2    0    0  0.00000000000E+00  0.00000000000E+00  0.10764695118E+04  0.30871270322E+04  0.28933659815E+04 0.  0.
        2    1    3    3  502    0 -0.76984103271E+03 -0.27015167998E+03  0.18129167312E+04  0.19880402964E+04  0.25500000920E-02 0. -1.
       -2    1    3    3    0  502  0.76984103271E+03  0.27015167998E+03 -0.73644721936E+03  0.10990867358E+04  0.25500000920E-02 0.  1.
</event>
<event>
 5   0  0.3769563E-07  0.2926252E+04  0.7818609E-02  0.8265109E-01
        1   -1    0    0  501    0  0.00000000000E+00  0.00000000000E+00  0.29216267036E+04  0.29216267036E+04  0.50400001928E-02 0. -1.
       -1   -1    0    0    0  501  0.00000000000E+00  0.00000000000E+00 -0.73272127268E+03  0.73272127270E+03  0.50400001928E-02 0.  1.
    10030    2    1    2    0    0  0.00000000000E+00  0.00000000000E+00  0.21889054309E+04  0.36543479763E+04  0.29262522356E+04 0.  0.
        3    1    3    3  502    0 -0.13864353323E+04  0.72210510520E+02  0.51766675615E+03  0.14816869336E+04  0.10100000352E+00 0.  1.
       -3    1    3    3    0  502  0.13864353323E+04 -0.72210510520E+02  0.16712386747E+04  0.21726610427E+04  0.10100000352E+00 0. -1.
</event>
<event>
 5   0  0.1006893E-06  0.2903211E+04  0.7818609E-02  0.8271923E-01
        2   -1    0    0  501    0  0.00000000000E+00  0.00000000000E+00  0.19056209923E+04  0.19056209923E+04  0.25500000920E-02 0.  1.
       -2   -1    0    0    0  501  0.00000000000E+00  0.00000000000E+00 -0.11057592414E+04  0.11057592414E+04  0.25500000920E-02 0. -1.
    10030    2    1    2    0    0  0.00000000000E+00  0.00000000000E+00  0.79986175088E+03  0.30113802337E+04  0.29032106523E+04 0.  0.
        4    1    3    3  502    0 -0.79338476153E+03  0.73932141862E+03 -0.60095696470E+03  0.12398412907E+04  0.12699999809E+01 0. -1.
       -4    1    3    3    0  502  0.79338476153E+03 -0.73932141862E+03  0.14008187156E+04  0.17715389430E+04  0.12699999809E+01 0.  1.
</event>
<event>
 5   0  0.3770467E-07  0.2907689E+04  0.7818609E-02  0.8270593E-01
       -1   -1    0    0    0  501  0.00000000000E+00  0.00000000000E+00  0.10494165083E+04  0.10494165084E+04  0.50400001928E-02 0.  1.
        1   -1    0    0  501    0  0.00000000000E+00  0.00000000000E+00 -0.20141330806E+04  0.20141330806E+04  0.50400001928E-02 0. -1.
    10030    2    1    2    0    0  0.00000000000E+00  0.00000000000E+00 -0.96471657221E+03  0.30635495889E+04  0.29076894640E+04 0.  0.
        1    1    3    3  502    0 -0.11103713416E+04  0.42887680566E+03  0.39713477902E+03  0.12548210483E+04  0.50400001928E-02 0.  1.
       -1    1    3    3    0  502  0.11103713416E+04 -0.42887680566E+03 -0.13618513512E+04  0.18087285406E+04  0.50400001928E-02 0. -1.
</event>
<event>
 5   0  0.9994311E-07  0.2901015E+04  0.7818609E-02  0.8272575E-01
       -2   -1    0    0    0  501  0.00000000000E+00  0.00000000000E+00  0.99135997345E+03  0.99135997345E+03  0.25500000920E-02 0.  1.
        2   -1    0    0  501    0  0.00000000000E+00  0.00000000000E+00 -0.21223091582E+04  0.21223091582E+04  0.25500000920E-02 0. -1.
    10030    2    1    2    0    0  0.00000000000E+00  0.00000000000E+00 -0.11309491847E+04  0.31136691316E+04  0.29010152366E+04 0.  0.
        2    1    3    3  502    0 -0.10461653699E+04  0.89817174694E+02  0.50860291519E+03  0.11667073461E+04  0.25500000920E-02 0.  1.
       -2    1    3    3    0  502  0.10461653699E+04 -0.89817174694E+02 -0.16395520999E+04  0.19469617855E+04  0.25500000920E-02 0. -1.
</event>
<event>
 5   0  0.3769563E-07  0.2906345E+04  0.7818609E-02  0.8270992E-01
        1   -1    0    0  501    0  0.00000000000E+00  0.00000000000E+00  0.82366163634E+03  0.82366163635E+03  0.50400001928E-02 0.  1.
       -1   -1    0    0    0  501  0.00000000000E+00  0.00000000000E+00 -0.25638072321E+04  0.25638072321E+04  0.50400001928E-02 0. -1.
    10030    2    1    2    0    0  0.00000000000E+00  0.00000000000E+00 -0.17401455958E+04  0.33874688685E+04  0.29063445495E+04 0.  0.
        3    1    3    3  502    0  0.11630542602E+03 -0.82263492583E+02 -0.25556489031E+04  0.25596162917E+04  0.10100000352E+00 0. -1.
       -3    1    3    3    0  502 -0.11630542602E+03  0.82263492583E+02  0.81550330737E+03  0.82785257677E+03  0.10100000352E+00 0.  1.
</event>
<event>
 5   0  0.1063979E-06  0.2899971E+04  0.7818609E-02  0.8272886E-01
       -2   -1    0    0    0  501  0.00000000000E+00  0.00000000000E+00  0.12089935074E+04  0.12089935074E+04  0.25500000920E-02 0.  1.
        2   -1    0    0  501    0  0.00000000000E+00  0.00000000000E+00 -0.17390146792E+04  0.17390146792E+04  0.25500000920E-02 0. -1.
    10030    2    1    2    0    0  0.00000000000E+00  0.00000000000E+00 -0.53002117176E+03  0.29480081865E+04  0.28999706594E+04 0.  0.
        1    1    3    3  502    0  0.20722801316E+03  0.83737370250E+03 -0.14497859509E+04  0.16870143658E+04  0.50400001928E-02 0. -1.
       -1    1    3    3    0  502 -0.20722801316E+03 -0.83737370250E+03  0.91976477910E+03  0.12609938207E+04  0.50400001928E-02 0.  1.
</event>
<event>
 5   0  0.1031339E-06  0.2894465E+04  0.7818609E-02  0.8274526E-01
       -2   -1    0    0    0  501  0.00000000000E+00  0.00000000000E+00  0.10137983859E+04  0.10137983859E+04  0.25500000920E-02 0. -1.
        2   -1    0    0  501    0  0.00000000000E+00  0.00000000000E+00 -0.20659753152E+04  0.20659753152E+04  0.25500000920E-02 0.  1.
    10030    2    1    2    0    0  0.00000000000E+00  0.00000000000E+00 -0.10521769293E+04  0.30797737011E+04  0.28944653667E+04 0.  0.
        5    1    3    3  502    0 -0.43303214145E+03  0.13689523471E+04 -0.33305434063E+03  0.14739384817E+04  0.46999998093E+01 0. -1.
       -5    1    3    3    0  502  0.43303214145E+03 -0.13689523471E+04 -0.71912258871E+03  0.16058352193E+04  0.46999998093E+01 0.  1.
</event>
<event>
 5   0  0.3770467E-07  0.2898174E+04  0.7818609E-02  0.8273421E-01
        1   -1    0    0  501    0  0.00000000000E+00  0.00000000000E+00  0.26013936738E+04  0.26013936738E+04  0.50400001928E-02 0. -1.
       -1   -1    0    0    0  501  0.00000000000E+00  0.00000000000E+00 -0.80720306686E+03  0.80720306687E+03  0.50400001928E-02 0.  1.
    10030    2    1    2    0    0  0.00000000000E+00  0.00000000000E+00  0.17941906069E+04  0.34085967407E+04  0.28981738744E+04 0.  0.
        1    1    3    3  502    0  0.62502310048E+03  0.13058173825E+04  0.97185094451E+03  0.17436476625E+04  0.50400001928E-02 0. -1.
       -1    1    3    3    0  502 -0.62502310048E+03 -0.13058173825E+04  0.82233966244E+03  0.16649490782E+04  0.50400001928E-02 0.  1.
</event>
<event>
 5   0  0.3638028E-07  0.2905438E+04  0.7818609E-02  0.8271261E-01
        1   -1    0    0  501    0  0.00000000000E+00  0.00000000000E+00  0.12459341901E+04  0.12459341901E+04  0.50400001928E-02 0. -1.
       -1   -1    0    0    0  501  0.00000000000E+00  0.00000000000E+00 -0.16938231200E+04  0.16938231200E+04  0.50400001928E-02 0.  1.
    10030    2    1    2    0    0  0.00000000000E+00  0.00000000000E+00 -0.44788892992E+03  0.29397573101E+04  0.29054377551E+04 0.  0.
        4    1    3    3  502    0 -0.82761313617E+03  0.11399075209E+04 -0.58318462120E+03  0.15246109585E+04  0.12699999809E+01 0. -1.
       -4    1    3    3    0  502  0.82761313617E+03 -0.11399075209E+04  0.13529569129E+03  0.14151463516E+04  0.12699999809E+01 0.  1.
</event>
<event>
 5   0  0.3638028E-07  0.2900113E+04  0.7818609E-02  0.8272844E-01
       -1   -1    0    0    0  501  0.00000000000E+00  0.00000000000E+00  0.11860147753E+04  0.11860147753E+04  0.50400001928E-02 0.  1.
        1   -1    0    0  501    0  0.00000000000E+00  0.00000000000E+00 -0.17728816566E+04  0.17728816566E+04  0.50400001928E-02 0. -1.
    10030    2    1    2    0    0  0.00000000000E+00  0.00000000000E+00 -0.58686688127E+03  0.29588964320E+04  0.29001129907E+04 0.  0.
        4    1    3    3  502    0  0.62551645068E+03  0.10442661118E+04  0.51051012754E+03  0.13199942218E+04  0.12699999809E+01 0.  1.
       -4    1    3    3    0  502 -0.62551645068E+03 -0.10442661118E+04 -0.10973770088E+04  0.16389022102E+04  0.12699999809E+01 0. -1.
</event>
<event>
 5   0  0.9994311E-07  0.2898149E+04  0.7818609E-02  0.8273428E-01
        2   -1    0    0  501    0  0.00000000000E+00  0.00000000000E+00  0.14465667715E+04  0.14465667715E+04  0.25500000920E-02 0.  1.
       -2   -1    0    0    0  501  0.00000000000E+00  0.00000000000E+00 -0.14515868645E+04  0.14515868645E+04  0.25500000920E-02 0. -1.
    10030    2    1    2    0    0  0.00000000000E+00  0.00000000000E+00 -0.50200930006E+01  0.28981536360E+04  0.28981492882E+04 0.  0.
        2    1    3    3  502    0  0.55192131828E+03  0.62432929227E+03  0.11829929414E+04  0.14470233260E+04  0.25500000920E-02 0.  1.
       -2    1    3    3    0  502 -0.55192131828E+03 -0.62432929227E+03 -0.11880130344E+04  0.14511303100E+04  0.25500000920E-02 0. -1.
</event>
<event>
 5   0  0.9994311E-07  0.2885055E+04  0.7818609E-02  0.8277338E-01
       -2   -1    0    0    0  501  0.00000000000E+00  0.00000000000E+00  0.14288735061E+04  0.14288735061E+04  0.25500000920E-02 0. -1.
        2   -1    0    0  501    0  0.00000000000E+00  0.00000000000E+00 -0.14563117967E+04  0.14563117967E+04  0.25500000920E-02 0.  1.
    10030    2    1    2    0    0  0.00000000000E+00  0.00000000000E+00 -0.27438290654E+02  0.28851853028E+04  0.28850548300E+04 0.  0.
        2    1    3    3  502    0  0.65477602544E+03  0.57380353449E+03 -0.11639464529E+04  0.14535313842E+04  0.25500000920E-02 0.  1.
       -2    1    3    3    0  502 -0.65477602544E+03 -0.57380353449E+03  0.11365081623E+04  0.14316539186E+04  0.25500000920E-02 0. -1.
</event>
<event>
 5   0  0.1006893E-06  0.2895978E+04  0.7818609E-02  0.8274075E-01
        2   -1    0    0  501    0  0.00000000000E+00  0.00000000000E+00  0.12993645527E+04  0.12993645527E+04  0.25500000920E-02 0. -1.
       -2   -1    0    0    0  501  0.00000000000E+00  0.00000000000E+00 -0.16136138352E+04  0.16136138352E+04  0.25500000920E-02 0.  1.
    10030    2    1    2    0    0  0.00000000000E+00  0.00000000000E+00 -0.31424928255E+03  0.29129783879E+04  0.28959783281E+04 0.  0.
        4    1    3    3  502    0  0.95119992508E+03  0.86071846696E+03  0.51842294971E+03  0.13836117752E+04  0.12699999809E+01 0.  1.
       -4    1    3    3    0  502 -0.95119992508E+03 -0.86071846696E+03 -0.83267223226E+03  0.15293666127E+04  0.12699999809E+01 0. -1.
</event>
<event>
 5   0  0.1031339E-06  0.2907745E+04  0.7818609E-02  0.8270577E-01
        2   -1    0    0  501    0  0.00000000000E+00  0.00000000000E+00  0.19523133307E+04  0.19523133307E+04  0.25500000920E-02 0. -1.
       -2   -1    0    0    0  501  0.00000000000E+00  0.00000000000E+00 -0.10826877751E+04  0.10826877751E+04  0.25500000920E-02 0.  1.
    10030    2    1    2    0    0  0.00000000000E+00  0.00000000000E+00  0.86962555564E+03  0.30350011058E+04  0.29077453646E+04 0.  0.
        5    1    3    3  502    0  0.48258878456E+03 -0.31455891713E+03  0.18281051169E+04  0.19167236775E+04  0.46999998093E+01 0. -1.
       -5    1    3    3    0  502 -0.48258878456E+03  0.31455891713E+03 -0.95847956127E+03  0.11182774283E+04  0.46999998093E+01 0.  1.
</event>
<event>
 5   0  0.9994311E-07  0.2896283E+04  0.7818609E-02  0.8273984E-01
        2   -1    0    0  501    0  0.00000000000E+00  0.00000000000E+00  0.17036839954E+04  0.17036839954E+04  0.25500000920E-02 0.  1.
       -2   -1    0    0    0  501  0.00000000000E+00  0.00000000000E+00 -0.12309289356E+04  0.12309289356E+04  0.25500000920E-02 0. -1.
    10030    2    1    2    0    0  0.00000000000E+00  0.00000000000E+00  0.47275505979E+03  0.29346129310E+04  0.28962830850E+04 0.  0.
        2    1    3    3  502    0  0.12804042416E+04 -0.66898546072E+03  0.13436060678E+03  0.14508719245E+04  0.25500000920E-02 0. -1.
       -2    1    3    3    0  502 -0.12804042416E+04  0.66898546072E+03  0.33839445301E+03  0.14837410065E+04  0.25500000920E-02 0.  1.
</event>
<event>
 5   0  0.1063979E-06  0.2899362E+04  0.7818609E-02  0.8273067E-01
        2   -1    0    0  501    0  0.00000000000E+00  0.00000000000E+00  0.12533415186E+04  0.12533415186E+04  0.25500000920E-02 0.  1.
       -2   -1    0    0    0  501  0.00000000000E+00  0.00000000000E+00 -0.16767781852E+04  0.16767781852E+04  0.25500000920E-02 0. -1.
    10030    2    1    2    0    0  0.00000000000E+00  0.00000000000E+00 -0.42343666661E+03  0.29301197038E+04  0.28993624934E+04 0.  0.
        1    1    3    3  502    0  0.71777079212E+03 -0.62447841717E+02  0.10595935566E+04  0.12813403717E+04  0.50400001928E-02 0.  1.
       -1    1    3    3    0  502 -0.71777079212E+03  0.62447841717E+02 -0.14830302232E+04  0.16487793321E+04  0.50400001928E-02 0. -1.
</event>
<event>
 5   0  0.1006893E-06  0.2896593E+04  0.7818609E-02  0.8273892E-01
        2   -1    0    0  501    0  0.00000000000E+00  0.00000000000E+00  0.16080039532E+04  0.16080039532E+04  0.25500000920E-02 0.  1.
       -2   -1    0    0    0  501  0.00000000000E+00  0.00000000000E+00 -0.13044509903E+04  0.13044509903E+04  0.25500000920E-02 0. -1.
    10030    2    1    2    0    0  0.00000000000E+00  0.00000000000E+00  0.30355296286E+03  0.29124549435E+04  0.28965927219E+04 0.  0.
        4    1    3    3  502    0  0.93885759232E+03 -0.10487597473E+04  0.49453938364E+03  0.14919522114E+04  0.12699999809E+01 0.  1.
       -4    1    3    3    0  502 -0.93885759232E+03  0.10487597473E+04 -0.19098642078E+03  0.14205027321E+04  0.12699999809E+01 0. -1.
</event>
<event>
 5   0  0.1006893E-06  0.2902704E+04  0.7818609E-02  0.8272073E-01
       -2   -1    0    0    0  501  0.00000000000E+00  0.00000000000E+00  0.30042769362E+04  0.30042769362E+04  0.25500000920E-02 0.  1.
        2   -1    0    0  501    0  0.00000000000E+00  0.00000000000E+00 -0.70114145566E+03  0.70114145567E+03  0.25500000920E-02 0. -1.
    10030    2    1    2    0    0  0.00000000000E+00  0.00000000000E+00  0.23031354805E+04  0.37054183919E+04  0.29027043282E+04 0.  0.
        4    1    3    3  502    0  0.13858297724E+02  0.81518257100E+03  0.26843233984E+04  0.28054069930E+04  0.12699999809E+01 0.  1.
       -4    1    3    3    0  502 -0.13858297724E+02 -0.81518257100E+03 -0.38118791783E+03  0.90001139886E+03  0.12699999809E+01 0. -1.
</event>
<event>
 5   0  0.1031339E-06  0.2924895E+04  0.7818609E-02  0.8265509E-01
        2   -1    0    0  501    0  0.00000000000E+00  0.00000000000E+00  0.17100133300E+04  0.17100133300E+04  0.25500000920E-02 0. -1.
       -2   -1    0    0    0  501  0.00000000000E+00  0.00000000000E+00 -0.12507229523E+04  0.12507229523E+04  0.25500000920E-02 0.  1.
    10030    2    1    2    0    0  0.00000000000E+00  0.00000000000E+00  0.45929037773E+03  0.29607362824E+04  0.29248951575E+04 0.  0.
        5    1    3    3  502    0  0.13559177557E+04 -0.31530899818E+03  0.68324120167E+03  0.15507331667E+04  0.46999998093E+01 0. -1.
       -5    1    3    3    0  502 -0.13559177557E+04  0.31530899818E+03 -0.22395082394E+03  0.14100031157E+04  0.46999998093E+01 0.  1.
</event>
<event>
 5   0  0.3638028E-07  0.2899175E+04  0.7818609E-02  0.8273123E-01
        1   -1    0    0  501    0  0.00000000000E+00  0.00000000000E+00  0.20379281201E+04  0.20379281201E+04  0.50400001928E-02 0. -1.
       -1   -1    0    0    0  501  0.00000000000E+00  0.00000000000E+00 -0.10310981110E+04  0.10310981110E+04  0.50400001928E-02 0.  1.
    10030    2    1    2    0    0  0.00000000000E+00  0.00000000000E+00  0.10068300091E+04  0.30690262311E+04  0.28991749413E+04 0.  0.
        4    1    3    3  502    0  0.80504476354E+03  0.53942462448E+03 -0.63781061760E+03  0.11601206806E+04  0.12699999809E+01 0.  1.
       -4    1    3    3    0  502 -0.80504476354E+03 -0.53942462448E+03  0.16446406267E+04  0.19089055505E+04  0.12699999809E+01 0. -1.
</event>
<event>
 5   0  0.1031339E-06  0.2899720E+04  0.7818609E-02  0.8272961E-01
        2   -1    0    0  501    0  0.00000000000E+00  0.00000000000E+00  0.16692806084E+04  0.16692806085E+04  0.25500000920E-02 0. -1.
       -2   -1    0    0    0  501  0.00000000000E+00  0.00000000000E+00 -0.12592812671E+04  0.12592812672E+04  0.25500000920E-02 0.  1.
    10030    2    1    2    0    0  0.00000000000E+00  0.00000000000E+00  0.40999934130E+03  0.29285618756E+04  0.28997198484E+04 0.  0.
        5    1    3    3  502    0 -0.97213216575E+03  0.70566115989E+03 -0.61490838387E+03  0.13494936201E+04  0.46999998093E+01 0.  1.
       -5    1    3    3    0  502  0.97213216575E+03 -0.70566115989E+03  0.10249077252E+04  0.15790682555E+04  0.46999998093E+01 0. -1.
</event>
<event>
 5   0  0.9950999E-07  0.2898107E+04  0.7818609E-02  0.8273441E-01
       -2   -1    0    0    0  501  0.00000000000E+00  0.00000000000E+00  0.14340364058E+04  0.14340364058E+04  0.25500000920E-02 0.  1.
        2   -1    0    0  501    0  0.00000000000E+00  0.00000000000E+00 -0.14642280078E+04  0.14642280078E+04  0.25500000920E-02 0. -1.
    10030    2    1    2    0    0  0.00000000000E+00  0.00000000000E+00 -0.30191602005E+02  0.28982644137E+04  0.28981071545E+04 0.  0.
        3    1    3    3  502    0  0.12023274812E+02 -0.35719922490E+03  0.13892668425E+04  0.14345027763E+04  0.10100000352E+00 0.  1.
       -3    1    3    3    0  502 -0.12023274812E+02  0.35719922490E+03 -0.14194584445E+04  0.14637616374E+04  0.10100000352E+00 0. -1.
</event>
<event>
 5   0  0.3378750E-07  0.2965513E+04  0.7818609E-02  0.8253648E-01
       -4   -1    0    0    0  501  0.00000000000E+00  0.00000000000E+00  0.14587200337E+04  0.14587205865E+04  0.12699999809E+01 0.  1.
        4   -1    0    0  501    0  0.00000000000E+00  0.00000000000E+00 -0.15071878588E+04  0.15071883939E+04  0.12699999809E+01 0. -1.
    10030    2    1    2    0    0  0.00000000000E+00  0.00000000000E+00 -0.48467825117E+02  0.29659089804E+04  0.29655129320E+04 0.  0.
        4    1    3    3  502    0  0.57557786576E+03  0.11586291297E+04  0.70033077341E+03  0.14711139129E+04  0.12699999809E+01 0.  1.
       -4    1    3    3    0  502 -0.57557786576E+03 -0.11586291297E+04 -0.74879859853E+03  0.14947950675E+04  0.12699999809E+01 0. -1.
</event>
<event>
 5   0  0.3770467E-07  0.2900204E+04  0.7818609E-02  0.8272817E-01
        1   -1    0    0  501    0  0.00000000000E+00  0.00000000000E+00  0.16259411325E+04  0.16259411325E+04  0.50400001928E-02 0. -1.
       -1   -1    0    0    0  501  0.00000000000E+00  0.00000000000E+00 -0.12932792457E+04  0.12932792457E+04  0.50400001928E-02 0.  1.
    10030    2    1    2    0    0  0.00000000000E+00  0.00000000000E+00  0.33266188679E+03  0.29192203783E+04  0.29002040766E+04 0.  0.
        1    1    3    3  502    0  0.90143534235E+02 -0.76909627141E+03 -0.10677426846E+04  0.13189804290E+04  0.50400001928E-02 0.  1.
       -1    1    3    3    0  502 -0.90143534235E+02  0.76909627141E+03  0.14004045714E+04  0.16002399493E+04  0.50400001928E-02 0. -1.
</event>
<event>
 5   0  0.3786210E-07  0.2901323E+04  0.7818609E-02  0.8272484E-01
        1   -1    0    0  501    0  0.00000000000E+00  0.00000000000E+00  0.25746591520E+04  0.25746591520E+04  0.50400001928E-02 0.  1.
       -1   -1    0    0    0  501  0.00000000000E+00  0.00000000000E+00 -0.81735839425E+03  0.81735839427E+03  0.50400001928E-02 0. -1.
    10030    2    1    2    0    0  0.00000000000E+00  0.00000000000E+00  0.17573007578E+04  0.33920175463E+04  0.29013233327E+04 0.  0.
        5    1    3    3  502    0 -0.11683978686E+04 -0.22355886831E+03 -0.91982689150E+02  0.11931534068E+04  0.46999998093E+01 0. -1.
       -5    1    3    3    0  502  0.11683978686E+04  0.22355886831E+03  0.18492834469E+04  0.21988641395E+04  0.46999998093E+01 0.  1.
</event>
<event>
 5   0  0.3786210E-07  0.2893285E+04  0.7818609E-02  0.8274878E-01
        1   -1    0    0  501    0  0.00000000000E+00  0.00000000000E+00  0.19341256809E+04  0.19341256809E+04  0.50400001928E-02 0. -1.
       -1   -1    0    0    0  501  0.00000000000E+00  0.00000000000E+00 -0.10820264243E+04  0.10820264243E+04  0.50400001928E-02 0.  1.
    10030    2    1    2    0    0  0.00000000000E+00  0.00000000000E+00  0.85209925659E+03  0.30161521052E+04  0.28932853953E+04 0.  0.
        5    1    3    3  502    0 -0.30611632078E+03  0.13288921872E+04  0.92934744941E+03  0.16502637422E+04  0.46999998093E+01 0. -1.
       -5    1    3    3    0  502  0.30611632078E+03 -0.13288921872E+04 -0.77248192819E+02  0.13658883630E+04  0.46999998093E+01 0.  1.
</event>
<event>
 5   0  0.1063979E-06  0.2896978E+04  0.7818609E-02  0.8273777E-01
       -2   -1    0    0    0  501  0.00000000000E+00  0.00000000000E+00  0.81948704330E+03  0.81948704331E+03  0.25500000920E-02 0. -1.
        2   -1    0    0  501    0  0.00000000000E+00  0.00000000000E+00 -0.25602847229E+04  0.25602847229E+04  0.25500000920E-02 0.  1.
    10030    2    1    2    0    0  0.00000000000E+00  0.00000000000E+00 -0.17407976796E+04  0.33797717662E+04  0.28969778443E+04 0.  0.
        1    1    3    3  502    0  0.13835985631E+04  0.24178543281E+03 -0.12833927913E+04  0.19026040671E+04  0.50400001928E-02 0.  1.
       -1    1    3    3    0  502 -0.13835985631E+04 -0.24178543281E+03 -0.45740488829E+03  0.14771676991E+04  0.50400001928E-02 0. -1.
</event>
<event>
 5   0  0.1063979E-06  0.2888209E+04  0.7818609E-02  0.8276394E-01
       -2   -1    0    0    0  501  0.00000000000E+00  0.00000000000E+00  0.91348510071E+03  0.91348510071E+03  0.25500000920E-02 0.  1.
        2   -1    0    0  501    0  0.00000000000E+00  0.00000000000E+00 -0.22829471181E+04  0.22829471181E+04  0.25500000920E-02 0. -1.
    10030    2    1    2    0    0  0.00000000000E+00  0.00000000000E+00 -0.13694620174E+04  0.31964322188E+04  0.28882092570E+04 0.  0.
        1    1    3    3  502    0 -0.51064443523E+03 -0.21542515099E+03  0.79109783234E+03  0.96592003565E+03  0.50400001928E-02 0.  1.
       -1    1    3    3    0  502  0.51064443523E+03  0.21542515099E+03 -0.21605598497E+04  0.22305121831E+04  0.50400001928E-02 0. -1.
</event>
<event>
 5   0  0.3638028E-07  0.2878542E+04  0.7818609E-02  0.8279291E-01
       -1   -1    0    0    0  501  0.00000000000E+00  0.00000000000E+00  0.78587434902E+03  0.78587434903E+03  0.50400001928E-02 0.  1.
        1   -1    0    0  501    0  0.00000000000E+00  0.00000000000E+00 -0.26359181025E+04  0.26359181025E+04  0.50400001928E-02 0. -1.
    10030    2    1    2    0    0  0.00000000000E+00  0.00000000000E+00 -0.18500437535E+04  0.34217924515E+04  0.28785415911E+04 0.  0.
        4    1    3    3  502    0  0.13139606936E+04 -0.28828877534E+03 -0.31668333992E+03  0.13819888107E+04  0.12699999809E+01 0.  1.
       -4    1    3    3    0  502 -0.13139606936E+04  0.28828877534E+03 -0.15333604135E+04  0.20398036408E+04  0.12699999809E+01 0. -1.
</event>
<event>
 5   0  0.9994311E-07  0.2901527E+04  0.7818609E-02  0.8272423E-01
       -2   -1    0    0    0  501  0.00000000000E+00  0.00000000000E+00  0.85803776413E+03  0.85803776414E+03  0.25500000920E-02 0.  1.
        2   -1    0    0  501    0  0.00000000000E+00  0.00000000000E+00 -0.24529390658E+04  0.24529390658E+04  0.25500000920E-02 0. -1.
    10030    2    1    2    0    0  0.00000000000E+00  0.00000000000E+00 -0.15949013016E+04  0.33109768299E+04  0.29015267371E+04 0.  0.
        2    1    3    3  502    0  0.71697797595E+03  0.73817027348E+03 -0.19643836092E+04  0.22176013471E+04  0.25500000920E-02 0. -1.
       -2    1    3    3    0  502 -0.71697797595E+03 -0.73817027348E+03  0.36948230760E+03  0.10933754828E+04  0.25500000920E-02 0.  1.
</event>
<event>
 5   0  0.3378750E-07  0.2887623E+04  0.7818609E-02  0.8276569E-01
        3   -1    0    0  501    0  0.00000000000E+00  0.00000000000E+00  0.15408273869E+04  0.15408273902E+04  0.10100000352E+00 0. -1.
       -3   -1    0    0    0  501  0.00000000000E+00  0.00000000000E+00 -0.13529045172E+04  0.13529045210E+04  0.10100000352E+00 0.  1.
    10030    2    1    2    0    0  0.00000000000E+00  0.00000000000E+00  0.18792286967E+03  0.28937319112E+04  0.28876234811E+04 0.  0.
        3    1    3    3  502    0  0.12333740231E+04  0.25788483091E+03 -0.61242419346E+03  0.14009923161E+04  0.10100000352E+00 0.  1.
       -3    1    3    3    0  502 -0.12333740231E+04 -0.25788483091E+03  0.80034706313E+03  0.14927395950E+04  0.10100000352E+00 0. -1.
</event>
<event>
 5   0  0.1031339E-06  0.2892765E+04  0.7818609E-02  0.8275033E-01
        2   -1    0    0  501    0  0.00000000000E+00  0.00000000000E+00  0.18149598457E+04  0.18149598457E+04  0.25500000920E-02 0.  1.
       -2   -1    0    0    0  501  0.00000000000E+00  0.00000000000E+00 -0.11526548467E+04  0.11526548467E+04  0.25500000920E-02 0. -1.
    10030    2    1    2    0    0  0.00000000000E+00  0.00000000000E+00  0.66230499895E+03  0.29676146924E+04  0.28927649491E+04 0.  0.
        5    1    3    3  502    0 -0.11281253774E+04  0.51898938486E+03 -0.42964508790E+03  0.13140143988E+04  0.46999998093E+01 0. -1.
       -5    1    3    3    0  502  0.11281253774E+04 -0.51898938486E+03  0.10919500869E+04  0.16536002936E+04  0.46999998093E+01 0.  1.
</event>
<event>
 5   0  0.1031339E-06  0.2893237E+04  0.7818609E-02  0.8274892E-01
        2   -1    0    0  501    0  0.00000000000E+00  0.00000000000E+00  0.11318498424E+04  0.11318498424E+04  0.25500000920E-02 0. -1.
       -2   -1    0    0    0  501  0.00000000000E+00  0.00000000000E+00 -0.18489250911E+04  0.18489250911E+04  0.25500000920E-02 0.  1.
    10030    2    1    2    0    0  0.00000000000E+00  0.00000000000E+00 -0.71707524878E+03  0.29807749335E+04  0.28932373376E+04 0.  0.
        5    1    3    3  502    0  0.11620152657E+04  0.80174612720E+03 -0.68369258759E+03  0.15686089297E+04  0.46999998093E+01 0.  1.
       -5    1    3    3    0  502 -0.11620152657E+04 -0.80174612720E+03 -0.33382661191E+02  0.14121660038E+04  0.46999998093E+01 0. -1.
</event>
<event>
 5   0  0.3770467E-07  0.2892938E+04  0.7818609E-02  0.8274982E-01
       -1   -1    0    0    0  501  0.00000000000E+00  0.00000000000E+00  0.16636092682E+04  0.16636092682E+04  0.50400001928E-02 0.  1.
        1   -1    0    0  501    0  0.00000000000E+00  0.00000000000E+00 -0.12576710461E+04  0.12576710461E+04  0.50400001928E-02 0. -1.
    10030    2    1    2    0    0  0.00000000000E+00  0.00000000000E+00  0.40593822210E+03  0.29212803143E+04  0.28929384429E+04 0.  0.
        1    1    3    3  502    0  0.26744808283E+03 -0.13707168041E+04  0.58332916166E+03  0.15134946134E+04  0.50400001928E-02 0. -1.
       -1    1    3    3    0  502 -0.26744808283E+03  0.13707168041E+04 -0.17739093957E+03  0.14077857008E+04  0.50400001928E-02 0.  1.
</event>
<event>
 5   0  0.3638028E-07  0.2900518E+04  0.7818609E-02  0.8272723E-01
        1   -1    0    0  501    0  0.00000000000E+00  0.00000000000E+00  0.15461163822E+04  0.15461163822E+04  0.50400001928E-02 0. -1.
       -1   -1    0    0    0  501  0.00000000000E+00  0.00000000000E+00 -0.13603444199E+04  0.13603444199E+04  0.50400001928E-02 0.  1.
    10030    2    1    2    0    0  0.00000000000E+00  0.00000000000E+00  0.18577196225E+03  0.29064608021E+04  0.29005177421E+04 0.  0.
        4    1    3    3  502    0  0.42777200791E+03  0.97997186954E+03 -0.88887423450E+03  0.13904793323E+04  0.12699999809E+01 0.  1.
       -4    1    3    3    0  502 -0.42777200791E+03 -0.97997186954E+03  0.10746461968E+04  0.15159814699E+04  0.12699999809E+01 0. -1.
</event>
<event>
 5   0  0.9950999E-07  0.2900671E+04  0.7818609E-02  0.8272678E-01
        2   -1    0    0  501    0  0.00000000000E+00  0.00000000000E+00  0.15009655863E+04  0.15009655863E+04  0.25500000920E-02 0. -1.
       -2   -1    0    0    0  501  0.00000000000E+00  0.00000000000E+00 -0.14014135301E+04  0.14014135301E+04  0.25500000920E-02 0.  1.
    10030    2    1    2    0    0  0.00000000000E+00  0.00000000000E+00  0.99552056254E+02  0.29023791164E+04  0.29006712884E+04 0.  0.
        3    1    3    3  502    0  0.73253924928E+03 -0.78261691721E+03  0.10272700792E+04  0.14847177566E+04  0.10100000352E+00 0. -1.
       -3    1    3    3    0  502 -0.73253924928E+03  0.78261691721E+03 -0.92771802293E+03  0.14176613598E+04  0.10100000352E+00 0.  1.
</event>
<event>
 5   0  0.1063979E-06  0.2882353E+04  0.7818609E-02  0.8278147E-01
        2   -1    0    0  501    0  0.00000000000E+00  0.00000000000E+00  0.16555419926E+04  0.16555419926E+04  0.25500000920E-02 0.  1.
       -2   -1    0    0    0  501  0.00000000000E+00  0.00000000000E+00 -0.12545680207E+04  0.12545680207E+04  0.25500000920E-02 0. -1.
    10030    2    1    2    0    0  0.00000000000E+00  0.00000000000E+00  0.40097397192E+03  0.29101100133E+04  0.28823532336E+04 0.  0.
        1    1    3    3  502    0 -0.13100389447E+04 -0.30071708190E+03  0.72545302292E+03  0.15273882573E+04  0.50400001928E-02 0.  1.
       -1    1    3    3    0  502  0.13100389447E+04  0.30071708190E+03 -0.32447905100E+03  0.13827217560E+04  0.50400001928E-02 0. -1.
</event>
<event>
 5   0  0.1031339E-06  0.2895918E+04  0.7818609E-02  0.8274093E-01
       -2   -1    0    0    0  501  0.00000000000E+00  0.00000000000E+00  0.17575366624E+04  0.17575366624E+04  0.25500000920E-02 0. -1.
        2   -1    0    0  501    0  0.00000000000E+00  0.00000000000E+00 -0.11929113672E+04  0.11929113672E+04  0.25500000920E-02 0.  1.
    10030    2    1    2    0    0  0.00000000000E+00  0.00000000000E+00  0.56462529515E+03  0.29504480296E+04  0.28959181362E+04 0.  0.
        5    1    3    3  502    0  0.51893009016E+03  0.61722139932E+03 -0.94296013110E+03  0.12407443706E+04  0.46999998093E+01 0.  1.
       -5    1    3    3    0  502 -0.51893009016E+03 -0.61722139932E+03  0.15075854262E+04  0.17097036590E+04  0.46999998093E+01 0. -1.
</event>
<event>
 5   0  0.3378750E-07  0.2898478E+04  0.7818609E-02  0.8273331E-01
        4   -1    0    0  501    0  0.00000000000E+00  0.00000000000E+00  0.17618689155E+04  0.17618693732E+04  0.12699999809E+01 0.  1.
       -4   -1    0    0    0  501  0.00000000000E+00  0.00000000000E+00 -0.11920816027E+04  0.11920822792E+04  0.12699999809E+01 0. -1.
    10030    2    1    2    0    0  0.00000000000E+00  0.00000000000E+00  0.56978731282E+03  0.29539516524E+04  0.28984776665E+04 0.  0.
        3    1    3    3  502    0  0.94385723534E+03 -0.10948825012E+04  0.17967519964E+03  0.14566802531E+04  0.10100000352E+00 0.  1.
       -3    1    3    3    0  502 -0.94385723534E+03  0.10948825012E+04  0.39011211318E+03  0.14972713993E+04  0.10100000352E+00 0. -1.
</event>
<event>
 5   0  0.9950999E-07  0.2904109E+04  0.7818609E-02  0.8271656E-01
        2   -1    0    0  501    0  0.00000000000E+00  0.00000000000E+00  0.21887223071E+04  0.21887223071E+04  0.25500000920E-02 0.  1.
       -2   -1    0    0    0  501  0.00000000000E+00  0.00000000000E+00 -0.96333012773E+03  0.96333012774E+03  0.25500000920E-02 0. -1.
    10030    2    1    2    0    0  0.00000000000E+00  0.00000000000E+00  0.12253921793E+04  0.31520524348E+04  0.29041089095E+04 0.  0.
        3    1    3    3  502    0 -0.30774345116E+03 -0.11913464326E+04 -0.22413559975E+03  0.12506994569E+04  0.10100000352E+00 0. -1.
       -3    1    3    3    0  502  0.30774345116E+03  0.11913464326E+04  0.14495277791E+04  0.19013529779E+04  0.10100000352E+00 0.  1.
</event>
<event>
 5   0  0.1006893E-06  0.2899146E+04  0.7818609E-02  0.8273131E-01
       -2   -1    0    0    0  501  0.00000000000E+00  0.00000000000E+00  0.16378505230E+04  0.16378505230E+04  0.25500000920E-02 0. -1.
        2   -1    0    0  501    0  0.00000000000E+00  0.00000000000E+00 -0.12829391062E+04  0.12829391062E+04  0.25500000920E-02 0.  1.
    10030    2    1    2    0    0  0.00000000000E+00  0.00000000000E+00  0.35491141675E+03  0.29207896292E+04  0.28991464165E+04 0.  0.
        4    1    3    3  502    0  0.35615413528E+03 -0.33944756667E+03  0.15511562490E+04  0.16273161157E+04  0.12699999809E+01 0. -1.
       -4    1    3    3    0  502 -0.35615413528E+03  0.33944756667E+03 -0.11962448323E+04  0.12934735135E+04  0.12699999809E+01 0.  1.
</event>
<event>
 5   0  0.3378750E-07  0.2896404E+04  0.7818609E-02  0.8273948E-01
       -3   -1    0    0    0  501  0.00000000000E+00  0.00000000000E+00  0.82779020923E+03  0.82779021539E+03  0.10100000352E+00 0.  1.
        3   -1    0    0  501    0  0.00000000000E+00  0.00000000000E+00 -0.25335999079E+04  0.25335999100E+04  0.10100000352E+00 0. -1.
    10030    2    1    2    0    0  0.00000000000E+00  0.00000000000E+00 -0.17058096987E+04  0.33613901253E+04  0.28964041235E+04 0.  0.
        2    1    3    3  502    0  0.94456867890E+02 -0.83712704962E+03  0.51416160301E+03  0.98694779554E+03  0.25500000920E-02 0.  1.
       -2    1    3    3    0  502 -0.94456867890E+02  0.83712704962E+03 -0.22199713017E+04  0.23744423298E+04  0.25500000920E-02 0. -1.
</event>
<event>
 5   0  0.9950999E-07  0.2900694E+04  0.7818609E-02  0.8272671E-01
       -2   -1    0    0    0  501  0.00000000000E+00  0.00000000000E+00  0.24235531235E+04  0.24235531235E+04  0.25500000920E-02 0.  1.
        2   -1    0    0  501    0  0.00000000000E+00  0.00000000000E+00 -0.86794314555E+03  0.86794314556E+03  0.25500000920E-02 0. -1.
    10030    2    1    2    0    0  0.00000000000E+00  0.00000000000E+00  0.15556099779E+04  0.32914962690E+04  0.29006939317E+04 0.  0.
        3    1    3    3  502    0  0.12082987513E+04  0.36329637243E+03 -0.33771842873E+02  0.12621848811E+04  0.10100000352E+00 0. -1.
       -3    1    3    3    0  502 -0.12082987513E+04 -0.36329637243E+03  0.15893818208E+04  0.20293113879E+04  0.10100000352E+00 0.  1.
</event>
<event>
 5   0  0.1006893E-06  0.2900204E+04  0.7818609E-02  0.8272817E-01
       -2   -1    0    0    0  501  0.00000000000E+00  0.00000000000E+00  0.10386147387E+04  0.10386147387E+04  0.25500000920E-02 0. -1.
        2   -1    0    0  501    0  0.00000000000E+00  0.00000000000E+00 -0.20246152784E+04  0.20246152784E+04  0.25500000920E-02 0.  1.
    10030    2    1    2    0    0  0.00000000000E+00  0.00000000000E+00 -0.98600053963E+03  0.30632300171E+04  0.29002036262E+04 0.  0.
        4    1    3    3  502    0 -0.84866017490E+02  0.14404362813E+04 -0.34091037703E+03  0.14826599136E+04  0.12699999809E+01 0.  1.
       -4    1    3    3    0  502  0.84866017490E+02 -0.14404362813E+04 -0.64509016260E+03  0.15805701035E+04  0.12699999809E+01 0. -1.
</event>
<event>
 5   0  0.1063979E-06  0.2902690E+04  0.7818609E-02  0.8272078E-01
       -2   -1    0    0    0  501  0.00000000000E+00  0.00000000000E+00  0.10475225835E+04  0.10475225835E+04  0.25500000920E-02 0.  1.
        2   -1    0    0  501    0  0.00000000000E+00  0.00000000000E+00 -0.20108418287E+04  0.20108418287E+04  0.25500000920E-02 0. -1.
    10030    2    1    2    0    0  0.00000000000E+00  0.00000000000E+00 -0.96331924520E+03  0.30583644123E+04  0.29026899438E+04 0.  0.
        1    1    3    3  502    0  0.24582310343E+03 -0.20065155172E+03  0.10105261317E+04  0.10591756730E+04  0.50400001928E-02 0.  1.
       -1    1    3    3    0  502 -0.24582310343E+03  0.20065155172E+03 -0.19738453769E+04  0.19991887393E+04  0.50400001928E-02 0. -1.
</event>
<event>
 5   0  0.3638028E-07  0.2899158E+04  0.7818609E-02  0.8273128E-01
        1   -1    0    0  501    0  0.00000000000E+00  0.00000000000E+00  0.16015060896E+04  0.16015060896E+04  0.50400001928E-02 0.  1.
       -1   -1    0    0    0  501  0.00000000000E+00  0.00000000000E+00 -0.13120647252E+04  0.13120647252E+04  0.50400001928E-02 0. -1.
    10030    2    1    2    0    0  0.00000000000E+00  0.00000000000E+00  0.28944136437E+03  0.29135708148E+04  0.28991582553E+04 0.  0.
        4    1    3    3  502    0  0.20383788902E+03  0.12782146905E+04  0.80057156428E+03  0.15219392637E+04  0.12699999809E+01 0.  1.
       -4    1    3    3    0  502 -0.20383788902E+03 -0.12782146905E+04 -0.51113019991E+03  0.13916315511E+04  0.12699999809E+01 0. -1.
</event>
<event>
 5   0  0.9950999E-07  0.2898051E+04  0.7818609E-02  0.8273458E-01
       -2   -1    0    0    0  501  0.00000000000E+00  0.00000000000E+00  0.16794669653E+04  0.16794669653E+04  0.25500000920E-02 0.  1.
        2   -1    0    0  501    0  0.00000000000E+00  0.00000000000E+00 -0.12502031047E+04  0.12502031047E+04  0.25500000920E-02 0. -1.
    10030    2    1    2    0    0  0.00000000000E+00  0.00000000000E+00  0.42926386061E+03  0.29296700700E+04  0.28980509410E+04 0.  0.
        3    1    3    3  502    0 -0.53047329786E+03 -0.44564588079E+03 -0.10719170392E+04  0.12763261025E+04  0.10100000352E+00 0. -1.
       -3    1    3    3    0  502  0.53047329786E+03  0.44564588079E+03  0.15011808998E+04  0.16533439675E+04  0.10100000352E+00 0.  1.
</event>
<event>
 5   0  0.1031339E-06  0.2930445E+04  0.7818609E-02  0.8263877E-01
        2   -1    0    0  501    0  0.00000000000E+00  0.00000000000E+00  0.18479135754E+04  0.18479135754E+04  0.25500000920E-02 0.  1.
       -2   -1    0    0    0  501  0.00000000000E+00  0.00000000000E+00 -0.11617839584E+04  0.11617839584E+04  0.25500000920E-02 0. -1.
    10030    2    1    2    0    0  0.00000000000E+00  0.00000000000E+00  0.68612961702E+03  0.30096975338E+04  0.29304445727E+04 0.  0.
        5    1    3    3  502    0 -0.98605279757E+03 -0.10326412543E+04  0.68090815566E+03  0.15818679104E+04  0.46999998093E+01 0.  1.
       -5    1    3    3    0  502  0.98605279757E+03  0.10326412543E+04  0.52214613594E+01  0.14278296233E+04  0.46999998093E+01 0. -1.
</event>
<event>
 5   0  0.3769563E-07  0.2903024E+04  0.7818609E-02  0.8271978E-01
        1   -1    0    0  501    0  0.00000000000E+00  0.00000000000E+00  0.19714000073E+04  0.19714000073E+04  0.50400001928E-02 0. -1.
       -1   -1    0    0    0  501  0.00000000000E+00  0.00000000000E+00 -0.10687263953E+04  0.10687263953E+04  0.50400001928E-02 0.  1.
    10030    2    1    2    0    0  0.00000000000E+00  0.00000000000E+00  0.90267361198E+03  0.30401264027E+04  0.29030240947E+04 0.  0.
        3    1    3    3  502    0 -0.33991801463E+03  0.29526419007E+03  0.18964203296E+04  0.19491370592E+04  0.10100000352E+00 0. -1.
       -3    1    3    3    0  502  0.33991801463E+03 -0.29526419007E+03 -0.99374671764E+03  0.10909893435E+04  0.10100000352E+00 0.  1.
</event>
<event>
 5   0  0.3638028E-07  0.2892007E+04  0.7818609E-02  0.8275260E-01
        1   -1    0    0  501    0  0.00000000000E+00  0.00000000000E+00  0.23581228839E+04  0.23581228839E+04  0.50400001928E-02 0. -1.
       -1   -1    0    0    0  501  0.00000000000E+00  0.00000000000E+00 -0.88669090305E+03  0.88669090307E+03  0.50400001928E-02 0.  1.
    10030    2    1    2    0    0  0.00000000000E+00  0.00000000000E+00  0.14714319809E+04  0.32448137870E+04  0.28920069914E+04 0.  0.
        4    1    3    3  502    0  0.57114436856E+03 -0.99866176808E+03 -0.24716160602E+03  0.11766994897E+04  0.12699999809E+01 0.  1.
       -4    1    3    3    0  502 -0.57114436856E+03  0.99866176808E+03  0.17185935869E+04  0.20681142973E+04  0.12699999809E+01 0. -1.
</event>
<event>
 5   0  0.1006893E-06  0.2897282E+04  0.7818609E-02  0.8273687E-01
        2   -1    0    0  501    0  0.00000000000E+00  0.00000000000E+00  0.12864248164E+04  0.12864248164E+04  0.25500000920E-02 0. -1.
       -2   -1    0    0    0  501  0.00000000000E+00  0.00000000000E+00 -0.16313124175E+04  0.16313124175E+04  0.25500000920E-02 0.  1.
    10030    2    1    2    0    0  0.00000000000E+00  0.00000000000E+00 -0.34488760106E+03  0.29177372339E+04  0.28972820209E+04 0.  0.
        4    1    3    3  502    0 -0.10540694396E+04  0.98263922136E+03 -0.23354876732E+02  0.14412457410E+04  0.12699999809E+01 0.  1.
       -4    1    3    3    0  502  0.10540694396E+04 -0.98263922136E+03 -0.32153272433E+03  0.14764914929E+04  0.12699999809E+01 0. -1.
</event>
<event>
 5   0  0.3769563E-07  0.2901649E+04  0.7818609E-02  0.8272387E-01
       -1   -1    0    0    0  501  0.00000000000E+00  0.00000000000E+00  0.94442959129E+03  0.94442959130E+03  0.50400001928E-02 0. -1.
        1   -1    0    0  501    0  0.00000000000E+00  0.00000000000E+00 -0.22287435107E+04  0.22287435107E+04  0.50400001928E-02 0.  1.
    10030    2    1    2    0    0  0.00000000000E+00  0.00000000000E+00 -0.12843139194E+04  0.31731731020E+04  0.29016487196E+04 0.  0.
        3    1    3    3  502    0  0.31398966043E+03 -0.50061572066E+03 -0.20911700750E+04  0.21730618719E+04  0.10100000352E+00 0.  1.
       -3    1    3    3    0  502 -0.31398966043E+03  0.50061572066E+03  0.80685615553E+03  0.10001112301E+04  0.10100000352E+00 0. -1.
</event>
<event>
 5   0  0.1031339E-06  0.2891114E+04  0.7818609E-02  0.8275526E-01
       -2   -1    0    0    0  501  0.00000000000E+00  0.00000000000E+00  0.11996380455E+04  0.11996380455E+04  0.25500000920E-02 0. -1.
        2   -1    0    0  501    0  0.00000000000E+00  0.00000000000E+00 -0.17418882087E+04  0.17418882087E+04  0.25500000920E-02 0.  1.
    10030    2    1    2    0    0  0.00000000000E+00  0.00000000000E+00 -0.54225016317E+03  0.29415262542E+04  0.28911142255E+04 0.  0.
        5    1    3    3  502    0  0.14012238371E+04 -0.11209719045E+03  0.71827002287E+02  0.14075422658E+04  0.46999998093E+01 0.  1.
       -5    1    3    3    0  502 -0.14012238371E+04  0.11209719045E+03 -0.61407716546E+03  0.15339839885E+04  0.46999998093E+01 0. -1.
</event>
<event>
 5   0  0.9994311E-07  0.2901187E+04  0.7818609E-02  0.8272524E-01
        2   -1    0    0  501    0  0.00000000000E+00  0.00000000000E+00  0.20944549341E+04  0.20944549341E+04  0.25500000920E-02 0. -1.
       -2   -1    0    0    0  501  0.00000000000E+00  0.00000000000E+00 -0.10046629386E+04  0.10046629387E+04  0.25500000920E-02 0.  1.
    10030    2    1    2    0    0  0.00000000000E+00  0.00000000000E+00  0.10897919954E+04  0.30991178728E+04  0.29011868254E+04 0.  0.
        2    1    3    3  502    0 -0.49852152035E+02 -0.14232178289E+04  0.83974719859E+03  0.16532421429E+04  0.25500000920E-02 0. -1.
       -2    1    3    3    0  502  0.49852152035E+02  0.14232178289E+04  0.25004479685E+03  0.14458757298E+04  0.25500000920E-02 0.  1.
</event>
<event>
 5   0  0.1031339E-06  0.2891204E+04  0.7818609E-02  0.8275499E-01
        2   -1    0    0  501    0  0.00000000000E+00  0.00000000000E+00  0.15761102087E+04  0.15761102087E+04  0.25500000920E-02 0.  1.
       -2   -1    0    0    0  501  0.00000000000E+00  0.00000000000E+00 -0.13259003596E+04  0.13259003596E+04  0.25500000920E-02 0. -1.
    10030    2    1    2    0    0  0.00000000000E+00  0.00000000000E+00  0.25020984909E+03  0.29020105684E+04  0.28912039655E+04 0.  0.
        5    1    3    3  502    0  0.10583727807E+04  0.43232928514E+03 -0.76289469347E+03  0.13744424168E+04  0.46999998093E+01 0. -1.
       -5    1    3    3    0  502 -0.10583727807E+04 -0.43232928514E+03  0.10131045426E+04  0.15275681516E+04  0.46999998093E+01 0.  1.
</event>
<event>
 5   0  0.3786210E-07  0.2897893E+04  0.7818609E-02  0.8273505E-01
       -1   -1    0    0    0  501  0.00000000000E+00  0.00000000000E+00  0.14403138898E+04  0.14403138898E+04  0.50400001928E-02 0.  1.
        1   -1    0    0  501    0  0.00000000000E+00  0.00000000000E+00 -0.14576304695E+04  0.14576304695E+04  0.50400001928E-02 0. -1.
    10030    2    1    2    0    0  0.00000000000E+00  0.00000000000E+00 -0.17316579780E+02  0.28979443593E+04  0.28978926215E+04 0.  0.
        5    1    3    3  502    0  0.89516824180E+03 -0.17296174821E+01 -0.11480179787E+04  0.14557803894E+04  0.46999998093E+01 0. -1.
       -5    1    3    3    0  502 -0.89516824180E+03  0.17296174821E+01  0.11307013989E+04  0.14421639699E+04  0.46999998093E+01 0.  1.
</event>
<event>
 5   0  0.3638028E-07  0.2902031E+04  0.7818609E-02  0.8272273E-01
        1   -1    0    0  501    0  0.00000000000E+00  0.00000000000E+00  0.17565396742E+04  0.17565396742E+04  0.50400001928E-02 0. -1.
       -1   -1    0    0    0  501  0.00000000000E+00  0.00000000000E+00 -0.11986329178E+04  0.11986329178E+04  0.50400001928E-02 0.  1.
    10030    2    1    2    0    0  0.00000000000E+00  0.00000000000E+00  0.55790675644E+03  0.29551725921E+04  0.29020312025E+04 0.  0.
        4    1    3    3  502    0  0.11745893215E+01  0.66343431839E+02  0.17549933625E+04  0.17562477462E+04  0.12699999809E+01 0. -1.
       -4    1    3    3    0  502 -0.11745893215E+01 -0.66343431839E+02 -0.11970866061E+04  0.11989248459E+04  0.12699999809E+01 0.  1.
</event>
<event>
 5   0  0.9950999E-07  0.2899756E+04  0.7818609E-02  0.8272950E-01
        2   -1    0    0  501    0  0.00000000000E+00  0.00000000000E+00  0.12359121380E+04  0.12359121380E+04  0.25500000920E-02 0. -1.
       -2   -1    0    0    0  501  0.00000000000E+00  0.00000000000E+00 -0.17008862859E+04  0.17008862859E+04  0.25500000920E-02 0.  1.
    10030    2    1    2    0    0  0.00000000000E+00  0.00000000000E+00 -0.46497414787E+03  0.29367984239E+04  0.28997558560E+04 0.  0.
        3    1    3    3  502    0 -0.17070961575E+03 -0.38479235077E+03 -0.16376322537E+04  0.16908714720E+04  0.10100000352E+00 0.  1.
       -3    1    3    3    0  502  0.17070961575E+03  0.38479235077E+03  0.11726581059E+04  0.12459269519E+04  0.10100000352E+00 0. -1.
</event>
<event>
 5   0  0.3885904E-07  0.2900478E+04  0.7818609E-02  0.8272735E-01
       -1   -1    0    0    0  501  0.00000000000E+00  0.00000000000E+00  0.14864135921E+04  0.14864135921E+04  0.50400001928E-02 0.  1.
        1   -1    0    0  501    0  0.00000000000E+00  0.00000000000E+00 -0.14149445232E+04  0.14149445233E+04  0.50400001928E-02 0. -1.
    10030    2    1    2    0    0  0.00000000000E+00  0.00000000000E+00  0.71469068873E+02  0.29013581154E+04  0.29004777341E+04 0.  0.
        2    1    3    3  502    0 -0.10776049931E+04 -0.51767368858E+03  0.85694303836E+03  0.14709078625E+04  0.25500000920E-02 0.  1.
       -2    1    3    3    0  502  0.10776049931E+04  0.51767368858E+03 -0.78547396949E+03  0.14304502528E+04  0.25500000920E-02 0. -1.
</event>
<event>
 5   0  0.1006893E-06  0.2904583E+04  0.7818609E-02  0.8271515E-01
       -2   -1    0    0    0  501  0.00000000000E+00  0.00000000000E+00  0.17603514942E+04  0.17603514942E+04  0.25500000920E-02 0. -1.
        2   -1    0    0  501    0  0.00000000000E+00  0.00000000000E+00 -0.11981415327E+04  0.11981415327E+04  0.25500000920E-02 0.  1.
    10030    2    1    2    0    0  0.00000000000E+00  0.00000000000E+00  0.56220996153E+03  0.29584930269E+04  0.29045827496E+04 0.  0.
        4    1    3    3  502    0 -0.10717209403E+04  0.97106880606E+03  0.41618707870E+03  0.15049165084E+04  0.12699999809E+01 0. -1.
       -4    1    3    3    0  502  0.10717209403E+04 -0.97106880606E+03  0.14602288283E+03  0.14535765185E+04  0.12699999809E+01 0.  1.
</event>
<event>
 5   0  0.3638028E-07  0.2894955E+04  0.7818609E-02  0.8274380E-01
       -1   -1    0    0    0  501  0.00000000000E+00  0.00000000000E+00  0.13032717924E+04  0.13032717924E+04  0.50400001928E-02 0. -1.
        1   -1    0    0  501    0  0.00000000000E+00  0.00000000000E+00 -0.16076397259E+04  0.16076397259E+04  0.50400001928E-02 0.  1.
    10030    2    1    2    0    0  0.00000000000E+00  0.00000000000E+00 -0.30436793346E+03  0.29109115184E+04  0.28949552723E+04 0.  0.
        4    1    3    3  502    0  0.26667084835E+03  0.33885442396E+03  0.12371895852E+04  0.13101814167E+04  0.12699999809E+01 0. -1.
       -4    1    3    3    0  502 -0.26667084835E+03 -0.33885442396E+03 -0.15415575187E+04  0.16007301017E+04  0.12699999809E+01 0.  1.
</event>
<event>
 5   0  0.3770467E-07  0.2887861E+04  0.7818609E-02  0.8276498E-01
       -1   -1    0    0    0  501  0.00000000000E+00  0.00000000000E+00  0.12435215835E+04  0.12435215835E+04  0.50400001928E-02 0.  1.
        1   -1    0    0  501    0  0.00000000000E+00  0.00000000000E+00 -0.16766381327E+04  0.16766381327E+04  0.50400001928E-02 0. -1.
    10030    2    1    2    0    0  0.00000000000E+00  0.00000000000E+00 -0.43311654921E+03  0.29201597162E+04  0.28878612888E+04 0.  0.
        1    1    3    3  502    0 -0.90841899156E+03 -0.49938513007E+03  0.79983282852E+03  0.13093292657E+04  0.50400001928E-02 0.  1.
       -1    1    3    3    0  502  0.90841899156E+03  0.49938513007E+03 -0.12329493777E+04  0.16108304506E+04  0.50400001928E-02 0. -1.
</event>
<event>
 5   0  0.3786210E-07  0.2897874E+04  0.7818609E-02  0.8273510E-01
        1   -1    0    0  501    0  0.00000000000E+00  0.00000000000E+00  0.21568739390E+04  0.21568739390E+04  0.50400001928E-02 0.  1.
       -1   -1    0    0    0  501  0.00000000000E+00  0.00000000000E+00 -0.97336135118E+03  0.97336135120E+03  0.50400001928E-02 0. -1.
    10030    2    1    2    0    0  0.00000000000E+00  0.00000000000E+00  0.11835125878E+04  0.31302352902E+04  0.28978735180E+04 0.  0.
        5    1    3    3  502    0  0.11159011549E+03  0.13932784473E+04  0.10040956970E+04  0.17210193038E+04  0.46999998093E+01 0. -1.
       -5    1    3    3    0  502 -0.11159011549E+03 -0.13932784473E+04  0.17941689080E+03  0.14092159863E+04  0.46999998093E+01 0.  1.
</event>
<event>
 5   0  0.3769563E-07  0.2893293E+04  0.7818609E-02  0.8274876E-01
        1   -1    0    0  501    0  0.00000000000E+00  0.00000000000E+00  0.19020384222E+04  0.19020384222E+04  0.50400001928E-02 0. -1.
       -1   -1    0    0    0  501  0.00000000000E+00  0.00000000000E+00 -0.11002860976E+04  0.11002860976E+04  0.50400001928E-02 0.  1.
    10030    2    1    2    0    0  0.00000000000E+00  0.00000000000E+00  0.80175232456E+03  0.30023245198E+04  0.28932932330E+04 0.  0.
        3    1    3    3  502    0  0.89644474123E+01  0.14432903266E+04  0.50264909236E+03  0.15283400958E+04  0.10100000352E+00 0. -1.
       -3    1    3    3    0  502 -0.89644474123E+01 -0.14432903266E+04  0.29910323220E+03  0.14739844239E+04  0.10100000352E+00 0.  1.
</event>
<event>
 5   0  0.9994311E-07  0.2895292E+04  0.7818609E-02  0.8274280E-01
        2   -1    0    0  501    0  0.00000000000E+00  0.00000000000E+00  0.14763684954E+04  0.14763684954E+04  0.25500000920E-02 0. -1.
       -2   -1    0    0    0  501  0.00000000000E+00  0.00000000000E+00 -0.14194818313E+04  0.14194818313E+04  0.25500000920E-02 0.  1.
    10030    2    1    2    0    0  0.00000000000E+00  0.00000000000E+00  0.56886664141E+02  0.28958503268E+04  0.28952915263E+04 0.  0.
        2    1    3    3  502    0 -0.26400185765E+03 -0.18848905226E+03  0.14395498318E+04  0.14756452222E+04  0.25500000920E-02 0. -1.
       -2    1    3    3    0  502  0.26400185765E+03  0.18848905226E+03 -0.13826631677E+04  0.14202051045E+04  0.25500000920E-02 0.  1.
</event>
<event>
 5   0  0.3638028E-07  0.2900345E+04  0.7818609E-02  0.8272775E-01
       -1   -1    0    0    0  501  0.00000000000E+00  0.00000000000E+00  0.14052013933E+04  0.14052013933E+04  0.50400001928E-02 0. -1.
        1   -1    0    0  501    0  0.00000000000E+00  0.00000000000E+00 -0.14965830400E+04  0.14965830400E+04  0.50400001928E-02 0.  1.
    10030    2    1    2    0    0  0.00000000000E+00  0.00000000000E+00 -0.91381646708E+02  0.29017844334E+04  0.29003452023E+04 0.  0.
        4    1    3    3  502    0  0.12691330163E+04 -0.30910698058E+03  0.58450524067E+03  0.14310463751E+04  0.12699999809E+01 0. -1.
       -4    1    3    3    0  502 -0.12691330163E+04  0.30910698058E+03 -0.67588688738E+03  0.14707380582E+04  0.12699999809E+01 0.  1.
</event>
<event>
 5   0  0.9950999E-07  0.2903465E+04  0.7818609E-02  0.8271847E-01
       -2   -1    0    0    0  501  0.00000000000E+00  0.00000000000E+00  0.17861985151E+04  0.17861985151E+04  0.25500000920E-02 0. -1.
        2   -1    0    0  501    0  0.00000000000E+00  0.00000000000E+00 -0.11798950169E+04  0.11798950169E+04  0.25500000920E-02 0.  1.
    10030    2    1    2    0    0  0.00000000000E+00  0.00000000000E+00  0.60630349820E+03  0.29660935321E+04  0.29034646389E+04 0.  0.
        3    1    3    3  502    0  0.11252736939E+04 -0.28028830881E+03  0.11953309423E+04  0.16654184141E+04  0.10100000352E+00 0. -1.
       -3    1    3    3    0  502 -0.11252736939E+04  0.28028830881E+03 -0.58902744411E+03  0.13006751179E+04  0.10100000352E+00 0.  1.
</event>
<event>
 5   0  0.1006893E-06  0.2899146E+04  0.7818609E-02  0.8273132E-01
        2   -1    0    0  501    0  0.00000000000E+00  0.00000000000E+00  0.18296384920E+04  0.18296384920E+04  0.25500000920E-02 0. -1.
       -2   -1    0    0    0  501  0.00000000000E+00  0.00000000000E+00 -0.11484574503E+04  0.11484574503E+04  0.25500000920E-02 0.  1.
    10030    2    1    2    0    0  0.00000000000E+00  0.00000000000E+00  0.68118104168E+03  0.29780959423E+04  0.28991460518E+04 0.  0.
        4    1    3    3  502    0 -0.42710250273E+03 -0.46065145938E+03  0.16825520418E+04  0.17959953511E+04  0.12699999809E+01 0. -1.
       -4    1    3    3    0  502  0.42710250273E+03  0.46065145938E+03 -0.10013710001E+04  0.11821005912E+04  0.12699999809E+01 0.  1.
</event>
<event>
 5   0  0.3770467E-07  0.2905494E+04  0.7818609E-02  0.8271245E-01
       -1   -1    0    0    0  501  0.00000000000E+00  0.00000000000E+00  0.10701824130E+04  0.10701824130E+04  0.50400001928E-02 0.  1.
        1   -1    0    0  501    0  0.00000000000E+00  0.00000000000E+00 -0.19720691558E+04  0.19720691558E+04  0.50400001928E-02 0. -1.
    10030    2    1    2    0    0  0.00000000000E+00  0.00000000000E+00 -0.90188674280E+03  0.30422515689E+04  0.29054939187E+04 0.  0.
        1    1    3    3  502    0 -0.11308233055E+04  0.86444872032E+03 -0.14667886326E+03  0.14309254443E+04  0.50400001928E-02 0. -1.
       -1    1    3    3    0  502  0.11308233055E+04 -0.86444872032E+03 -0.75520787953E+03  0.16113261245E+04  0.50400001928E-02 0.  1.
</event>
<event>
 5   0  0.1031339E-06  0.2905380E+04  0.7818609E-02  0.8271279E-01
        2   -1    0    0  501    0  0.00000000000E+00  0.00000000000E+00  0.19053165484E+04  0.19053165484E+04  0.25500000920E-02 0.  1.
       -2   -1    0    0    0  501  0.00000000000E+00  0.00000000000E+00 -0.11075890990E+04  0.11075890990E+04  0.25500000920E-02 0. -1.
    10030    2    1    2    0    0  0.00000000000E+00  0.00000000000E+00  0.79772744935E+03  0.30129056474E+04  0.29053797268E+04 0.  0.
        5    1    3    3  502    0  0.12125848469E+03  0.24719032680E+03 -0.10802761434E+04  0.11148207541E+04  0.46999998093E+01 0. -1.
       -5    1    3    3    0  502 -0.12125848469E+03 -0.24719032680E+03  0.18780035928E+04  0.18980848933E+04  0.46999998093E+01 0.  1.
</event>
<event>
 5   0  0.1063979E-06  0.2902011E+04  0.7818609E-02  0.8272279E-01
        2   -1    0    0  501    0  0.00000000000E+00  0.00000000000E+00  0.22345971210E+04  0.22345971210E+04  0.25500000920E-02 0. -1.
       -2   -1    0    0    0  501  0.00000000000E+00  0.00000000000E+00 -0.94219066620E+03  0.94219066620E+03  0.25500000920E-02 0.  1.
    10030    2    1    2    0    0  0.00000000000E+00  0.00000000000E+00  0.12924064548E+04  0.31767877872E+04  0.29020107168E+04 0.  0.
        1    1    3    3  502    0  0.31984907796E+03 -0.12992713862E+04  0.31805949493E+02  0.13384398328E+04  0.50400001928E-02 0.  1.
       -1    1    3    3    0  502 -0.31984907796E+03  0.12992713862E+04  0.12606005053E+04  0.18383479544E+04  0.50400001928E-02 0. -1.
</event>
<event>
 5   0  0.9950999E-07  0.2869138E+04  0.7818609E-02  0.8282119E-01
       -2   -1    0    0    0  501  0.00000000000E+00  0.00000000000E+00  0.18502508065E+04  0.18502508065E+04  0.25500000920E-02 0.  1.
        2   -1    0    0  501    0  0.00000000000E+00  0.00000000000E+00 -0.11122755916E+04  0.11122755916E+04  0.25500000920E-02 0. -1.
    10030    2    1    2    0    0  0.00000000000E+00  0.00000000000E+00  0.73797521496E+03  0.29625263981E+04  0.28691384145E+04 0.  0.
        3    1    3    3  502    0 -0.76103358232E+03 -0.74307937506E+03  0.13629467442E+04  0.17288617379E+04  0.10100000352E+00 0.  1.
       -3    1    3    3    0  502  0.76103358232E+03  0.74307937506E+03 -0.62497152928E+03  0.12336646601E+04  0.10100000352E+00 0. -1.
</event>
<event>
 5   0  0.3770467E-07  0.2896034E+04  0.7818609E-02  0.8274058E-01
       -1   -1    0    0    0  501  0.00000000000E+00  0.00000000000E+00  0.11209494237E+04  0.11209494237E+04  0.50400001928E-02 0. -1.
        1   -1    0    0  501    0  0.00000000000E+00  0.00000000000E+00 -0.18705154351E+04  0.18705154351E+04  0.50400001928E-02 0.  1.
    10030    2    1    2    0    0  0.00000000000E+00  0.00000000000E+00 -0.74956601141E+03  0.29914648588E+04  0.28960339771E+04 0.  0.
        1    1    3    3  502    0 -0.32101341691E+03  0.13565712546E+04 -0.77937607067E+03  0.15971105917E+04  0.50400001928E-02 0.  1.
       -1    1    3    3    0  502  0.32101341691E+03 -0.13565712546E+04  0.29810059260E+02  0.13943542671E+04  0.50400001928E-02 0. -1.
</event>
<event>
 5   0  0.3885904E-07  0.2891623E+04  0.7818609E-02  0.8275374E-01
       -1   -1    0    0    0  501  0.00000000000E+00  0.00000000000E+00  0.12854073856E+04  0.12854073856E+04  0.50400001928E-02 0.  1.
        1   -1    0    0  501    0  0.00000000000E+00  0.00000000000E+00 -0.16262326711E+04  0.16262326711E+04  0.50400001928E-02 0. -1.
    10030    2    1    2    0    0  0.00000000000E+00  0.00000000000E+00 -0.34082528550E+03  0.29116400567E+04  0.28916234099E+04 0.  0.
        2    1    3    3  502    0  0.13957951021E+04 -0.28589897065E+03 -0.41785608180E+03  0.14847847970E+04  0.25500000920E-02 0. -1.
       -2    1    3    3    0  502 -0.13957951021E+04  0.28589897065E+03  0.77030796303E+02  0.14268552597E+04  0.25500000920E-02 0.  1.
</event>
<event>
 5   0  0.1063979E-06  0.2901353E+04  0.7818609E-02  0.8272475E-01
        2   -1    0    0  501    0  0.00000000000E+00  0.00000000000E+00  0.16448019909E+04  0.16448019909E+04  0.25500000920E-02 0. -1.
       -2   -1    0    0    0  501  0.00000000000E+00  0.00000000000E+00 -0.12794623577E+04  0.12794623577E+04  0.25500000920E-02 0.  1.
    10030    2    1    2    0    0  0.00000000000E+00  0.00000000000E+00  0.36533963316E+03  0.29242643487E+04  0.29013529488E+04 0.  0.
        1    1    3    3  502    0  0.72021767563E+03  0.43098355918E+03  0.13752302026E+04  0.16111233468E+04  0.50400001928E-02 0. -1.
       -1    1    3    3    0  502 -0.72021767563E+03 -0.43098355918E+03 -0.10098905694E+04  0.13131410019E+04  0.50400001928E-02 0.  1.
</event>
<event>
 5   0  0.9950999E-07  0.2901163E+04  0.7818609E-02  0.8272532E-01
       -2   -1    0    0    0  501  0.00000000000E+00  0.00000000000E+00  0.10428464776E+04  0.10428464776E+04  0.25500000920E-02 0. -1.
        2   -1    0    0  501    0  0.00000000000E+00  0.00000000000E+00 -0.20177337328E+04  0.20177337328E+04  0.25500000920E-02 0.  1.
    10030    2    1    2    0    0  0.00000000000E+00  0.00000000000E+00 -0.97488725524E+03  0.30605802104E+04  0.29011628813E+04 0.  0.
        3    1    3    3  502    0 -0.76670627924E+03  0.40634440095E+03  0.73885614829E+03  0.11396765808E+04  0.10100000352E+00 0. -1.
       -3    1    3    3    0  502  0.76670627924E+03 -0.40634440095E+03 -0.17137434035E+04  0.19209036296E+04  0.10100000352E+00 0.  1.
</event>
<event>
 5   0  0.3786210E-07  0.2902695E+04  0.7818609E-02  0.8272076E-01
        1   -1    0    0  501    0  0.00000000000E+00  0.00000000000E+00  0.92847054816E+03  0.92847054817E+03  0.50400001928E-02 0. -1.
       -1   -1    0    0    0  501  0.00000000000E+00  0.00000000000E+00 -0.22686881068E+04  0.22686881068E+04  0.50400001928E-02 0.  1.
    10030    2    1    2    0    0  0.00000000000E+00  0.00000000000E+00 -0.13402175586E+04  0.31971586549E+04  0.29026953613E+04 0.  0.
        5    1    3    3  502    0  0.99551073286E+03  0.67117970181E+03 -0.15682180924E+04  0.19750579452E+04  0.46999998093E+01 0.  1.
       -5    1    3    3    0  502 -0.99551073286E+03 -0.67117970181E+03  0.22800053384E+03  0.12221007098E+04  0.46999998093E+01 0. -1.
</event>
<event>
 5   0  0.9950999E-07  0.2905491E+04  0.7818609E-02  0.8271246E-01
       -2   -1    0    0    0  501  0.00000000000E+00  0.00000000000E+00  0.29282948996E+04  0.29282948996E+04  0.25500000920E-02 0. -1.
        2   -1    0    0  501    0  0.00000000000E+00  0.00000000000E+00 -0.72071611601E+03  0.72071611602E+03  0.25500000920E-02 0.  1.
    10030    2    1    2    0    0  0.00000000000E+00  0.00000000000E+00  0.22075787836E+04  0.36490110156E+04  0.29054908891E+04 0.  0.
        3    1    3    3  502    0  0.91440521588E+03 -0.10158463243E+04  0.48547150770E+03  0.14504355375E+04  0.10100000352E+00 0.  1.
       -3    1    3    3    0  502 -0.91440521588E+03  0.10158463243E+04  0.17221072759E+04  0.21985754782E+04  0.10100000352E+00 0. -1.
</event>
<event>
 5   0  0.3638028E-07  0.2846654E+04  0.7818609E-02  0.8288929E-01
       -1   -1    0    0    0  501  0.00000000000E+00  0.00000000000E+00  0.10136377305E+04  0.10136377305E+04  0.50400001928E-02 0.  1.
        1   -1    0    0  501    0  0.00000000000E+00  0.00000000000E+00 -0.19986032487E+04  0.19986032487E+04  0.50400001928E-02 0. -1.
    10030    2    1    2    0    0  0.00000000000E+00  0.00000000000E+00 -0.98496551827E+03  0.30122409792E+04  0.28466539383E+04 0.  0.
        4    1    3    3  502    0 -0.18265056461E+03  0.11340888395E+04  0.39684475942E+03  0.12153213981E+04  0.12699999809E+01 0.  1.
       -4    1    3    3    0  502  0.18265056461E+03 -0.11340888395E+04 -0.13818102777E+04  0.17969195811E+04  0.12699999809E+01 0. -1.
</event>
<event>
 5   0  0.3638028E-07  0.2899500E+04  0.7818609E-02  0.8273026E-01
        1   -1    0    0  501    0  0.00000000000E+00  0.00000000000E+00  0.18015936985E+04  0.18015936985E+04  0.50400001928E-02 0. -1.
       -1   -1    0    0    0  501  0.00000000000E+00  0.00000000000E+00 -0.11666198257E+04  0.11666198257E+04  0.50400001928E-02 0.  1.
    10030    2    1    2    0    0  0.00000000000E+00  0.00000000000E+00  0.63497387283E+03  0.29682135242E+04  0.28994999062E+04 0.  0.
        4    1    3    3  502    0  0.62013712440E+03 -0.96470557809E+03 -0.59040512065E+03  0.12898863225E+04  0.12699999809E+01 0.  1.
       -4    1    3    3    0  502 -0.62013712440E+03  0.96470557809E+03  0.12253789935E+04  0.16783272017E+04  0.12699999809E+01 0. -1.
</event>
<event>
 5   0  0.9950999E-07  0.2880460E+04  0.7818609E-02  0.8278715E-01
       -2   -1    0    0    0  501  0.00000000000E+00  0.00000000000E+00  0.16083620938E+04  0.16083620938E+04  0.25500000920E-02 0.  1.
        2   -1    0    0  501    0  0.00000000000E+00  0.00000000000E+00 -0.12896735142E+04  0.12896735142E+04  0.25500000920E-02 0. -1.
    10030    2    1    2    0    0  0.00000000000E+00  0.00000000000E+00  0.31868857957E+03  0.28980356080E+04  0.28804596812E+04 0.  0.
        3    1    3    3  502    0  0.33238763192E+03 -0.51003836454E+02 -0.12496217966E+04  0.12940778856E+04  0.10100000352E+00 0. -1.
       -3    1    3    3    0  502 -0.33238763192E+03  0.51003836454E+02  0.15683103762E+04  0.16039577225E+04  0.10100000352E+00 0.  1.
</event>
<event>
 5   0  0.3769563E-07  0.2904872E+04  0.7818609E-02  0.8271429E-01
        1   -1    0    0  501    0  0.00000000000E+00  0.00000000000E+00  0.24466077551E+04  0.24466077551E+04  0.50400001928E-02 0.  1.
       -1   -1    0    0    0  501  0.00000000000E+00  0.00000000000E+00 -0.86224289423E+03  0.86224289424E+03  0.50400001928E-02 0. -1.
    10030    2    1    2    0    0  0.00000000000E+00  0.00000000000E+00  0.15843648609E+04  0.33088506493E+04  0.29048718745E+04 0.  0.
        3    1    3    3  502    0 -0.90376588903E+03 -0.10485294707E+04  0.12930664979E+04  0.18942618117E+04  0.10100000352E+00 0.  1.
       -3    1    3    3    0  502  0.90376588903E+03  0.10485294707E+04  0.29129836291E+03  0.14145888376E+04  0.10100000352E+00 0. -1.
</event>
<event>
 5   0  0.3770467E-07  0.2904026E+04  0.7818609E-02  0.8271681E-01
        1   -1    0    0  501    0  0.00000000000E+00  0.00000000000E+00  0.88157627925E+03  0.88157627926E+03  0.50400001928E-02 0.  1.
       -1   -1    0    0    0  501  0.00000000000E+00  0.00000000000E+00 -0.23915596307E+04  0.23915596307E+04  0.50400001928E-02 0. -1.
    10030    2    1    2    0    0  0.00000000000E+00  0.00000000000E+00 -0.15099833515E+04  0.32731359100E+04  0.29040263366E+04 0.  0.
        1    1    3    3  502    0  0.66188610202E+03  0.12069817611E+04 -0.12757131906E+04  0.18767904327E+04  0.50400001928E-02 0. -1.
       -1    1    3    3    0  502 -0.66188610202E+03 -0.12069817611E+04 -0.23427016089E+03  0.13963454773E+04  0.50400001928E-02 0.  1.
</event>
<event>
 5   0  0.3638028E-07  0.2905832E+04  0.7818609E-02  0.8271144E-01
       -1   -1    0    0    0  501  0.00000000000E+00  0.00000000000E+00  0.13924718588E+04  0.13924718588E+04  0.50400001928E-02 0.  1.
        1   -1    0    0  501    0  0.00000000000E+00  0.00000000000E+00 -0.15159841732E+04  0.15159841732E+04  0.50400001928E-02 0. -1.
    10030    2    1    2    0    0  0.00000000000E+00  0.00000000000E+00 -0.12351231438E+03  0.29084560320E+04  0.29058322729E+04 0.  0.
        4    1    3    3  502    0  0.14341762103E+04  0.42418943129E+02 -0.29066096722E+03  0.14639488310E+04  0.12699999809E+01 0. -1.
       -4    1    3    3    0  502 -0.14341762103E+04 -0.42418943129E+02  0.16714865284E+03  0.14445072011E+04  0.12699999809E+01 0.  1.
</event>
<event>
 5   0  0.9994311E-07  0.2903634E+04  0.7818609E-02  0.8271797E-01
        2   -1    0    0  501    0  0.00000000000E+00  0.00000000000E+00  0.22783155534E+04  0.22783155534E+04  0.25500000920E-02 0.  1.
       -2   -1    0    0    0  501  0.00000000000E+00  0.00000000000E+00 -0.92514496989E+03  0.92514496990E+03  0.25500000920E-02 0. -1.
    10030    2    1    2    0    0  0.00000000000E+00  0.00000000000E+00  0.13531705835E+04  0.32034605233E+04  0.29036337056E+04 0.  0.
        2    1    3    3  502    0  0.10560937382E+03 -0.21520697252E+03  0.22563294604E+04  0.22690284297E+04  0.25500000920E-02 0.  1.
       -2    1    3    3    0  502 -0.10560937382E+03  0.21520697252E+03 -0.90315887684E+03  0.93443209367E+03  0.25500000920E-02 0. -1.
</event>
<event>
 5   0  0.9994311E-07  0.2902783E+04  0.7818609E-02  0.8272050E-01
       -2   -1    0    0    0  501  0.00000000000E+00  0.00000000000E+00  0.15961509364E+04  0.15961509364E+04  0.25500000920E-02 0.  1.
        2   -1    0    0  501    0  0.00000000000E+00  0.00000000000E+00 -0.13197603605E+04  0.13197603605E+04  0.25500000920E-02 0. -1.
    10030    2    1    2    0    0  0.00000000000E+00  0.00000000000E+00  0.27639057590E+03  0.29159112969E+04  0.29027826203E+04 0.  0.
        2    1    3    3  502    0 -0.13450701409E+04 -0.46743043900E+03 -0.14384465267E+03  0.14312219197E+04  0.25500000920E-02 0. -1.
       -2    1    3    3    0  502  0.13450701409E+04  0.46743043900E+03  0.42023522857E+03  0.14846893772E+04  0.25500000920E-02 0.  1.
</event>
<event>
 5   0  0.9994311E-07  0.2889902E+04  0.7818609E-02  0.8275888E-01
        2   -1    0    0  501    0  0.00000000000E+00  0.00000000000E+00  0.16335781931E+04  0.16335781931E+04  0.25500000920E-02 0. -1.
       -2   -1    0    0    0  501  0.00000000000E+00  0.00000000000E+00 -0.12781039351E+04  0.12781039351E+04  0.25500000920E-02 0.  1.
    10030    2    1    2    0    0  0.00000000000E+00  0.00000000000E+00  0.35547425803E+03  0.29116821282E+04  0.28899015325E+04 0.  0.
        2    1    3    3  502    0 -0.53406583277E+03 -0.88153201669E+03  0.11980678589E+04  0.15804086828E+04  0.25500000920E-02 0. -1.
       -2    1    3    3    0  502  0.53406583277E+03  0.88153201669E+03 -0.84259360085E+03  0.13312734454E+04  0.25500000920E-02 0.  1.
</event>
<event>
 5   0  0.3885904E-07  0.2856774E+04  0.7818609E-02  0.8285856E-01
        1   -1    0    0  501    0  0.00000000000E+00  0.00000000000E+00  0.25045000192E+04  0.25045000192E+04  0.50400001928E-02 0.  1.
       -1   -1    0    0    0  501  0.00000000000E+00  0.00000000000E+00 -0.81464950011E+03  0.81464950012E+03  0.50400001928E-02 0. -1.
    10030    2    1    2    0    0  0.00000000000E+00  0.00000000000E+00  0.16898505191E+04  0.33191495193E+04  0.28567741869E+04 0.  0.
        2    1    3    3  502    0 -0.14027377322E+04 -0.25666741101E+03  0.74955152952E+03  0.16110179392E+04  0.25500000920E-02 0. -1.
       -2    1    3    3    0  502  0.14027377322E+04  0.25666741101E+03  0.94029898959E+03  0.17081315801E+04  0.25500000920E-02 0.  1.
</event>
<event>
 5   0  0.3638028E-07  0.2898995E+04  0.7818609E-02  0.8273176E-01
       -1   -1    0    0    0  501  0.00000000000E+00  0.00000000000E+00  0.12577836672E+04  0.12577836672E+04  0.50400001928E-02 0. -1.
        1   -1    0    0  501    0  0.00000000000E+00  0.00000000000E+00 -0.16704329719E+04  0.16704329719E+04  0.50400001928E-02 0.  1.
    10030    2    1    2    0    0  0.00000000000E+00  0.00000000000E+00 -0.41264930471E+03  0.29282166392E+04  0.28989952117E+04 0.  0.
        4    1    3    3  502    0 -0.11044409758E+04 -0.23843786424E+02 -0.11542313392E+04  0.15976889536E+04  0.12699999809E+01 0.  1.
       -4    1    3    3    0  502  0.11044409758E+04  0.23843786424E+02  0.74158203454E+03  0.13305276855E+04  0.12699999809E+01 0. -1.
</event>
<event>
 5   0  0.3769563E-07  0.2895156E+04  0.7818609E-02  0.8274320E-01
       -1   -1    0    0    0  501  0.00000000000E+00  0.00000000000E+00  0.10217125853E+04  0.10217125853E+04  0.50400001928E-02 0.  1.
        1   -1    0    0  501    0  0.00000000000E+00  0.00000000000E+00 -0.20509507004E+04  0.20509507004E+04  0.50400001928E-02 0. -1.
    10030    2    1    2    0    0  0.00000000000E+00  0.00000000000E+00 -0.10292381151E+04  0.30726632857E+04  0.28951560528E+04 0.  0.
        3    1    3    3  502    0 -0.11202725485E+04  0.67706297218E+03  0.14138606971E+03  0.13165921472E+04  0.10100000352E+00 0.  1.
       -3    1    3    3    0  502  0.11202725485E+04 -0.67706297218E+03 -0.11706241848E+04  0.17560711385E+04  0.10100000352E+00 0. -1.
</event>
<event>
 5   0  0.1031339E-06  0.2897426E+04  0.7818609E-02  0.8273644E-01
       -2   -1    0    0    0  501  0.00000000000E+00  0.00000000000E+00  0.18130772596E+04  0.18130772596E+04  0.25500000920E-02 0.  1.
        2   -1    0    0  501    0  0.00000000000E+00  0.00000000000E+00 -0.11575734286E+04  0.11575734286E+04  0.25500000920E-02 0. -1.
    10030    2    1    2    0    0  0.00000000000E+00  0.00000000000E+00  0.65550383098E+03  0.29706506883E+04  0.28974264856E+04 0.  0.
        5    1    3    3  502    0 -0.30768982134E+03 -0.62280145549E+03  0.16311762090E+04  0.17729389707E+04  0.46999998093E+01 0.  1.
       -5    1    3    3    0  502  0.30768982134E+03  0.62280145549E+03 -0.97567237802E+03  0.11977117175E+04  0.46999998093E+01 0. -1.
</event>
<event>
 5   0  0.3638028E-07  0.2901316E+04  0.7818609E-02  0.8272486E-01
        1   -1    0    0  501    0  0.00000000000E+00  0.00000000000E+00  0.20320075857E+04  0.20320075857E+04  0.50400001928E-02 0. -1.
       -1   -1    0    0    0  501  0.00000000000E+00  0.00000000000E+00 -0.10356305273E+04  0.10356305273E+04  0.50400001928E-02 0.  1.
    10030    2    1    2    0    0  0.00000000000E+00  0.00000000000E+00  0.99637705844E+03  0.30676381130E+04  0.29013163133E+04 0.  0.
        4    1    3    3  502    0 -0.14095404260E+02 -0.40624812075E+03  0.19705590981E+04  0.20120489527E+04  0.12699999809E+01 0. -1.
       -4    1    3    3    0  502  0.14095404260E+02  0.40624812075E+03 -0.97418203968E+03  0.10555891603E+04  0.12699999809E+01 0.  1.
</event>
<event>
 5   0  0.1031339E-06  0.2901404E+04  0.7818609E-02  0.8272460E-01
       -2   -1    0    0    0  501  0.00000000000E+00  0.00000000000E+00  0.17611287523E+04  0.17611287523E+04  0.25500000920E-02 0.  1.
        2   -1    0    0  501    0  0.00000000000E+00  0.00000000000E+00 -0.11949926722E+04  0.11949926722E+04  0.25500000920E-02 0. -1.
    10030    2    1    2    0    0  0.00000000000E+00  0.00000000000E+00  0.56613608018E+03  0.29561214245E+04  0.29014037663E+04 0.  0.
        5    1    3    3  502    0  0.10786047984E+04  0.46613551757E+03 -0.58376679847E+03  0.13120504552E+04  0.46999998093E+01 0. -1.
       -5    1    3    3    0  502 -0.10786047984E+04 -0.46613551757E+03  0.11499028787E+04  0.16440709693E+04  0.46999998093E+01 0.  1.
</event>
<event>
 5   0  0.3638028E-07  0.2901512E+04  0.7818609E-02  0.8272428E-01
        1   -1    0    0  501    0  0.00000000000E+00  0.00000000000E+00  0.14861638984E+04  0.14861638984E+04  0.50400001928E-02 0. -1.
       -1   -1    0    0    0  501  0.00000000000E+00  0.00000000000E+00 -0.14161920371E+04  0.14161920371E+04  0.50400001928E-02 0.  1.
    10030    2    1    2    0    0  0.00000000000E+00  0.00000000000E+00  0.69971861333E+02  0.29023559356E+04  0.29015123497E+04 0.  0.
        4    1    3    3  502    0  0.13718008416E+04 -0.37008981621E+03 -0.25816555594E+03  0.14441104834E+04  0.12699999809E+01 0.  1.
       -4    1    3    3    0  502 -0.13718008416E+04  0.37008981621E+03  0.32813741727E+03  0.14582454521E+04  0.12699999809E+01 0. -1.
</event>
<event>
 5   0  0.3786210E-07  0.2905852E+04  0.7818609E-02  0.8271138E-01
        1   -1    0    0  501    0  0.00000000000E+00  0.00000000000E+00  0.11719229850E+04  0.11719229850E+04  0.50400001928E-02 0.  1.
       -1   -1    0    0    0  501  0.00000000000E+00  0.00000000000E+00 -0.18013080353E+04  0.18013080353E+04  0.50400001928E-02 0. -1.
    10030    2    1    2    0    0  0.00000000000E+00  0.00000000000E+00 -0.62938505027E+03  0.29732310203E+04  0.29058522259E+04 0.  0.
        5    1    3    3  502    0 -0.47357779609E+03  0.20786861490E+03  0.10745406934E+04  0.11925372454E+04  0.46999998093E+01 0.  1.
       -5    1    3    3    0  502  0.47357779609E+03 -0.20786861490E+03 -0.17039257437E+04  0.17806937749E+04  0.46999998093E+01 0. -1.
</event>
<event>
 5   0  0.3769563E-07  0.2899628E+04  0.7818609E-02  0.8272988E-01
        1   -1    0    0  501    0  0.00000000000E+00  0.00000000000E+00  0.20984769423E+04  0.20984769423E+04  0.50400001928E-02 0. -1.
       -1   -1    0    0    0  501  0.00000000000E+00  0.00000000000E+00 -0.10016601525E+04  0.10016601525E+04  0.50400001928E-02 0.  1.
    10030    2    1    2    0    0  0.00000000000E+00  0.00000000000E+00  0.10968167898E+04  0.31001370948E+04  0.28996280686E+04 0.  0.
        3    1    3    3  502    0  0.75689108409E+03  0.12144727360E+04  0.29965559101E+03  0.14620607454E+04  0.10100000352E+00 0.  1.
       -3    1    3    3    0  502 -0.75689108409E+03 -0.12144727360E+04  0.79716119879E+03  0.16380763495E+04  0.10100000352E+00 0. -1.
</event>
<event>
 5   0  0.3769563E-07  0.2897515E+04  0.7818609E-02  0.8273617E-01
       -1   -1    0    0    0  501  0.00000000000E+00  0.00000000000E+00  0.85094399024E+03  0.85094399026E+03  0.50400001928E-02 0.  1.
        1   -1    0    0  501    0  0.00000000000E+00  0.00000000000E+00 -0.24665522459E+04  0.24665522459E+04  0.50400001928E-02 0. -1.
    10030    2    1    2    0    0  0.00000000000E+00  0.00000000000E+00 -0.16156082557E+04  0.33174962362E+04  0.28975146663E+04 0.  0.
        3    1    3    3  502    0 -0.11290045904E+04  0.51942094732E+03 -0.16603452370E+04  0.20739324488E+04  0.10100000352E+00 0. -1.
       -3    1    3    3    0  502  0.11290045904E+04 -0.51942094732E+03  0.44736981339E+02  0.12435637874E+04  0.10100000352E+00 0.  1.
</event>
<event>
 5   0  0.1006893E-06  0.2900099E+04  0.7818609E-02  0.8272848E-01
        2   -1    0    0  501    0  0.00000000000E+00  0.00000000000E+00  0.14363294621E+04  0.14363294622E+04  0.25500000920E-02 0.  1.
       -2   -1    0    0    0  501  0.00000000000E+00  0.00000000000E+00 -0.14639001262E+04  0.14639001262E+04  0.25500000920E-02 0. -1.
    10030    2    1    2    0    0  0.00000000000E+00  0.00000000000E+00 -0.27570664044E+02  0.29002295883E+04  0.29000985369E+04 0.  0.
        4    1    3    3  502    0 -0.26273579113E+02 -0.32647844329E+03  0.13988516109E+04  0.14366857406E+04  0.12699999809E+01 0.  1.
       -4    1    3    3    0  502  0.26273579113E+02  0.32647844329E+03 -0.14264222750E+04  0.14635438478E+04  0.12699999809E+01 0. -1.
</event>
<event>
 5   0  0.9994311E-07  0.2888789E+04  0.7818609E-02  0.8276221E-01
        2   -1    0    0  501    0  0.00000000000E+00  0.00000000000E+00  0.29541157647E+04  0.29541157647E+04  0.25500000920E-02 0.  1.
       -2   -1    0    0    0  501  0.00000000000E+00  0.00000000000E+00 -0.70622684601E+03  0.70622684601E+03  0.25500000920E-02 0. -1.
    10030    2    1    2    0    0  0.00000000000E+00  0.00000000000E+00  0.22478889187E+04  0.36603426107E+04  0.28887892684E+04 0.  0.
        2    1    3    3  502    0  0.71200324929E+03 -0.10735405059E+04  0.19517673307E+04  0.23385537321E+04  0.25500000920E-02 0.  1.
       -2    1    3    3    0  502 -0.71200324929E+03  0.10735405059E+04  0.29612158796E+03  0.13217888786E+04  0.25500000920E-02 0. -1.
</event>
<event>
 5   0  0.3769563E-07  0.2896287E+04  0.7818609E-02  0.8273983E-01
       -1   -1    0    0    0  501  0.00000000000E+00  0.00000000000E+00  0.12451388642E+04  0.12451388642E+04  0.50400001928E-02 0. -1.
        1   -1    0    0  501    0  0.00000000000E+00  0.00000000000E+00 -0.16842460348E+04  0.16842460348E+04  0.50400001928E-02 0.  1.
    10030    2    1    2    0    0  0.00000000000E+00  0.00000000000E+00 -0.43910717063E+03  0.29293848990E+04  0.28962874131E+04 0.  0.
        3    1    3    3  502    0  0.10983168482E+04 -0.85895388029E+02 -0.11702106251E+04  0.16071934650E+04  0.10100000352E+00 0.  1.
       -3    1    3    3    0  502 -0.10983168482E+04  0.85895388029E+02  0.73110345443E+03  0.13221914340E+04  0.10100000352E+00 0. -1.
</event>
<event>
 5   0  0.9950999E-07  0.2885137E+04  0.7818609E-02  0.8277313E-01
       -2   -1    0    0    0  501  0.00000000000E+00  0.00000000000E+00  0.17677581683E+04  0.17677581683E+04  0.25500000920E-02 0.  1.
        2   -1    0    0  501    0  0.00000000000E+00  0.00000000000E+00 -0.11771992617E+04  0.11771992617E+04  0.25500000920E-02 0. -1.
    10030    2    1    2    0    0  0.00000000000E+00  0.00000000000E+00  0.59055890663E+03  0.29449574301E+04  0.28851368152E+04 0.  0.
        3    1    3    3  502    0  0.32461608803E+03 -0.38198274602E+03 -0.10854372903E+04  0.11956004953E+04  0.10100000352E+00 0. -1.
       -3    1    3    3    0  502 -0.32461608803E+03  0.38198274602E+03  0.16759961970E+04  0.17493569348E+04  0.10100000352E+00 0.  1.
</event>
<event>
 5   0  0.3770467E-07  0.2899996E+04  0.7818609E-02  0.8272879E-01
       -1   -1    0    0    0  501  0.00000000000E+00  0.00000000000E+00  0.13740787444E+04  0.13740787444E+04  0.50400001928E-02 0.  1.
        1   -1    0    0  501    0  0.00000000000E+00  0.00000000000E+00 -0.15301119489E+04  0.15301119489E+04  0.50400001928E-02 0. -1.
    10030    2    1    2    0    0  0.00000000000E+00  0.00000000000E+00 -0.15603320450E+03  0.29041906934E+04  0.28999960729E+04 0.  0.
        1    1    3    3  502    0 -0.83652649144E+03 -0.27529449889E+03 -0.12316075416E+04  0.15140742282E+04  0.50400001928E-02 0. -1.
       -1    1    3    3    0  502  0.83652649144E+03  0.27529449889E+03  0.10755743371E+04  0.13901164652E+04  0.50400001928E-02 0.  1.
</event>
<event>
 5   0  0.3638028E-07  0.2902622E+04  0.7818609E-02  0.8272098E-01
       -1   -1    0    0    0  501  0.00000000000E+00  0.00000000000E+00  0.15441274278E+04  0.15441274278E+04  0.50400001928E-02 0. -1.
        1   -1    0    0  501    0  0.00000000000E+00  0.00000000000E+00 -0.13640734731E+04  0.13640734731E+04  0.50400001928E-02 0.  1.
    10030    2    1    2    0    0  0.00000000000E+00  0.00000000000E+00  0.18005395474E+03  0.29082009009E+04  0.29026217552E+04 0.  0.
        4    1    3    3  502    0  0.33208853245E+03 -0.86281710570E+03  0.12109111843E+04  0.15234971810E+04  0.12699999809E+01 0. -1.
       -4    1    3    3    0  502 -0.33208853245E+03  0.86281710570E+03 -0.10308572296E+04  0.13847037199E+04  0.12699999809E+01 0.  1.
</event>
<event>
 5   0  0.3786210E-07  0.2897097E+04  0.7818609E-02  0.8273742E-01
       -1   -1    0    0    0  501  0.00000000000E+00  0.00000000000E+00  0.79331009486E+03  0.79331009488E+03  0.50400001928E-02 0. -1.
        1   -1    0    0  501    0  0.00000000000E+00  0.00000000000E+00 -0.26449837887E+04  0.26449837887E+04  0.50400001928E-02 0.  1.
    10030    2    1    2    0    0  0.00000000000E+00  0.00000000000E+00 -0.18516736938E+04  0.34382938836E+04  0.28970967125E+04 0.  0.
        5    1    3    3  502    0  0.42860308690E+03  0.46030825357E+03 -0.24744654569E+04  0.25531521071E+04  0.46999998093E+01 0.  1.
       -5    1    3    3    0  502 -0.42860308690E+03 -0.46030825357E+03  0.62279176306E+03  0.88514177652E+03  0.46999998093E+01 0. -1.
</event>
<event>
 5   0  0.9950999E-07  0.2900622E+04  0.7818609E-02  0.8272692E-01
       -2   -1    0    0    0  501  0.00000000000E+00  0.00000000000E+00  0.12981689284E+04  0.12981689284E+04  0.25500000920E-02 0. -1.
        2   -1    0    0  501    0  0.00000000000E+00  0.00000000000E+00 -0.16202837756E+04  0.16202837756E+04  0.25500000920E-02 0.  1.
    10030    2    1    2    0    0  0.00000000000E+00  0.00000000000E+00 -0.32211484728E+03  0.29184527040E+04  0.29006220386E+04 0.  0.
        3    1    3    3  502    0  0.54273802251E+03  0.73528205992E+03 -0.12941229087E+04  0.15842848171E+04  0.10100000352E+00 0.  1.
       -3    1    3    3    0  502 -0.54273802251E+03 -0.73528205992E+03  0.97200806142E+03  0.13341678869E+04  0.10100000352E+00 0. -1.
</event>
<event>
 5   0  0.3770467E-07  0.2979206E+04  0.7818609E-02  0.8249694E-01
       -1   -1    0    0    0  501  0.00000000000E+00  0.00000000000E+00  0.20531372271E+04  0.20531372271E+04  0.50400001928E-02 0.  1.
        1   -1    0    0  501    0  0.00000000000E+00  0.00000000000E+00 -0.10807443468E+04  0.10807443468E+04  0.50400001928E-02 0. -1.
    10030    2    1    2    0    0  0.00000000000E+00  0.00000000000E+00  0.97239288033E+03  0.31338815739E+04  0.29792055662E+04 0.  0.
        1    1    3    3  502    0 -0.87325044263E+03 -0.10090889781E+04 -0.21005091299E+03  0.13509064688E+04  0.50400001928E-02 0. -1.
       -1    1    3    3    0  502  0.87325044263E+03  0.10090889781E+04  0.11824437933E+04  0.17829751052E+04  0.50400001928E-02 0.  1.
</event>
<event>
 5   0  0.1063979E-06  0.2907204E+04  0.7818609E-02  0.8270737E-01
        2   -1    0    0  501    0  0.00000000000E+00  0.00000000000E+00  0.99097452679E+03  0.99097452679E+03  0.25500000920E-02 0. -1.
       -2   -1    0    0    0  501  0.00000000000E+00  0.00000000000E+00 -0.21322025166E+04  0.21322025166E+04  0.25500000920E-02 0.  1.
    10030    2    1    2    0    0  0.00000000000E+00  0.00000000000E+00 -0.11412279898E+04  0.31231770434E+04  0.29072037286E+04 0.  0.
        1    1    3    3  502    0 -0.30409285072E+03  0.13406765696E+04 -0.63221645838E+02  0.13761842547E+04  0.50400001928E-02 0. -1.
       -1    1    3    3    0  502  0.30409285072E+03 -0.13406765696E+04 -0.10780063440E+04  0.17469927887E+04  0.50400001928E-02 0.  1.
</event>
<event>
 5   0  0.3638028E-07  0.2894636E+04  0.7818609E-02  0.8274475E-01
       -1   -1    0    0    0  501  0.00000000000E+00  0.00000000000E+00  0.11785386710E+04  0.11785386711E+04  0.50400001928E-02 0. -1.
        1   -1    0    0  501    0  0.00000000000E+00  0.00000000000E+00 -0.17773961286E+04  0.17773961287E+04  0.50400001928E-02 0.  1.
    10030    2    1    2    0    0  0.00000000000E+00  0.00000000000E+00 -0.59885745760E+03  0.29559347997E+04  0.28946364686E+04 0.  0.
        4    1    3    3  502    0  0.31079531642E+03  0.97989267126E+03 -0.13397991803E+04  0.16887411976E+04  0.12699999809E+01 0.  1.
       -4    1    3    3    0  502 -0.31079531642E+03 -0.97989267126E+03  0.74094172272E+03  0.12671936021E+04  0.12699999809E+01 0. -1.
</event>
<event>
 5   0  0.3786210E-07  0.2965597E+04  0.7818609E-02  0.8253624E-01
       -1   -1    0    0    0  501  0.00000000000E+00  0.00000000000E+00  0.14151718089E+04  0.14151718089E+04  0.50400001928E-02 0. -1.
        1   -1    0    0  501    0  0.00000000000E+00  0.00000000000E+00 -0.15536567091E+04  0.15536567091E+04  0.50400001928E-02 0.  1.
    10030    2    1    2    0    0  0.00000000000E+00  0.00000000000E+00 -0.13848490021E+03  0.29688285180E+04  0.29655968543E+04 0.  0.
        5    1    3    3  502    0 -0.17277433106E+03  0.10346191835E+04  0.97993647490E+03  0.14354739319E+04  0.46999998093E+01 0. -1.
       -5    1    3    3    0  502  0.17277433106E+03 -0.10346191835E+04 -0.11184213751E+04  0.15333545861E+04  0.46999998093E+01 0.  1.
</event>
<event>
 5   0  0.3885904E-07  0.2899266E+04  0.7818609E-02  0.8273096E-01
       -1   -1    0    0    0  501  0.00000000000E+00  0.00000000000E+00  0.17395323681E+04  0.17395323682E+04  0.50400001928E-02 0.  1.
        1   -1    0    0  501    0  0.00000000000E+00  0.00000000000E+00 -0.12080462516E+04  0.12080462516E+04  0.50400001928E-02 0. -1.
    10030    2    1    2    0    0  0.00000000000E+00  0.00000000000E+00  0.53148611655E+03  0.29475786198E+04  0.28992658084E+04 0.  0.
        2    1    3    3  502    0  0.61727338982E+03  0.36916207004E+03  0.15453381500E+04  0.17045166674E+04  0.25500000920E-02 0.  1.
       -2    1    3    3    0  502 -0.61727338982E+03 -0.36916207004E+03 -0.10138520334E+04  0.12430619524E+04  0.25500000920E-02 0. -1.
</event>
<event>
 5   0  0.3638028E-07  0.2900845E+04  0.7818609E-02  0.8272626E-01
       -1   -1    0    0    0  501  0.00000000000E+00  0.00000000000E+00  0.11029183886E+04  0.11029183886E+04  0.50400001928E-02 0. -1.
        1   -1    0    0  501    0  0.00000000000E+00  0.00000000000E+00 -0.19074167679E+04  0.19074167679E+04  0.50400001928E-02 0.  1.
    10030    2    1    2    0    0  0.00000000000E+00  0.00000000000E+00 -0.80449837939E+03  0.30103351565E+04  0.29008447239E+04 0.  0.
        4    1    3    3  502    0 -0.52763838866E+03  0.12290268456E+04 -0.98450991405E+03  0.16607741087E+04  0.12699999809E+01 0.  1.
       -4    1    3    3    0  502  0.52763838866E+03 -0.12290268456E+04  0.18001153467E+03  0.13495610478E+04  0.12699999809E+01 0. -1.
</event>
<event>
 5   0  0.3786210E-07  0.2897071E+04  0.7818609E-02  0.8273750E-01
        1   -1    0    0  501    0  0.00000000000E+00  0.00000000000E+00  0.11355484224E+04  0.11355484224E+04  0.50400001928E-02 0. -1.
       -1   -1    0    0    0  501  0.00000000000E+00  0.00000000000E+00 -0.18477898215E+04  0.18477898215E+04  0.50400001928E-02 0.  1.
    10030    2    1    2    0    0  0.00000000000E+00  0.00000000000E+00 -0.71224139914E+03  0.29833382440E+04  0.28970708081E+04 0.  0.
        5    1    3    3  502    0  0.47608531021E+02  0.62297428752E+03  0.98964881959E+03  0.11703804558E+04  0.46999998093E+01 0. -1.
       -5    1    3    3    0  502 -0.47608531021E+02 -0.62297428752E+03 -0.17018902187E+04  0.18129577882E+04  0.46999998093E+01 0.  1.
</event>
<event>
 5   0  0.9994311E-07  0.2899423E+04  0.7818609E-02  0.8273049E-01
       -2   -1    0    0    0  501  0.00000000000E+00  0.00000000000E+00  0.12902042083E+04  0.12902042083E+04  0.25500000920E-02 0.  1.
        2   -1    0    0  501    0  0.00000000000E+00  0.00000000000E+00 -0.16289389776E+04  0.16289389776E+04  0.25500000920E-02 0. -1.
    10030    2    1    2    0    0  0.00000000000E+00  0.00000000000E+00 -0.33873476928E+03  0.29191431859E+04  0.28994233385E+04 0.  0.
        2    1    3    3  502    0 -0.36188924001E+03 -0.95431033956E+03  0.86719402484E+03  0.13392899324E+04  0.25500000920E-02 0.  1.
       -2    1    3    3    0  502  0.36188924001E+03  0.95431033956E+03 -0.12059287941E+04  0.15798532535E+04  0.25500000920E-02 0. -1.
</event>
<event>
 5   0  0.3770467E-07  0.2858152E+04  0.7818609E-02  0.8285439E-01
       -1   -1    0    0    0  501  0.00000000000E+00  0.00000000000E+00  0.14299133509E+04  0.14299133509E+04  0.50400001928E-02 0. -1.
        1   -1    0    0  501    0  0.00000000000E+00  0.00000000000E+00 -0.14282388060E+04  0.14282388060E+04  0.50400001928E-02 0.  1.
    10030    2    1    2    0    0  0.00000000000E+00  0.00000000000E+00  0.16745449139E+01  0.28581521569E+04  0.28581516663E+04 0.  0.
        1    1    3    3  502    0  0.13339986646E+04 -0.27869887978E+03 -0.42931653441E+03  0.14288240583E+04  0.50400001928E-02 0.  1.
       -1    1    3    3    0  502 -0.13339986646E+04  0.27869887978E+03  0.43099107932E+03  0.14293280986E+04  0.50400001928E-02 0. -1.
</event>
<event>
 5   0  0.3770467E-07  0.2897016E+04  0.7818609E-02  0.8273766E-01
        1   -1    0    0  501    0  0.00000000000E+00  0.00000000000E+00  0.17915535394E+04  0.17915535394E+04  0.50400001928E-02 0. -1.
       -1   -1    0    0    0  501  0.00000000000E+00  0.00000000000E+00 -0.11711485475E+04  0.11711485475E+04  0.50400001928E-02 0.  1.
    10030    2    1    2    0    0  0.00000000000E+00  0.00000000000E+00  0.62040499196E+03  0.29627020869E+04  0.28970159305E+04 0.  0.
        1    1    3    3  502    0 -0.19565619374E+03  0.41311701660E+03  0.17158593754E+04  0.17757027938E+04  0.50400001928E-02 0. -1.
       -1    1    3    3    0  502  0.19565619374E+03 -0.41311701660E+03 -0.10954543835E+04  0.11869992931E+04  0.50400001928E-02 0.  1.
</event>
<event>
 5   0  0.3770467E-07  0.2901702E+04  0.7818609E-02  0.8272371E-01
        1   -1    0    0  501    0  0.00000000000E+00  0.00000000000E+00  0.79876549388E+03  0.79876549389E+03  0.50400001928E-02 0. -1.
       -1   -1    0    0    0  501  0.00000000000E+00  0.00000000000E+00 -0.26352771082E+04  0.26352771082E+04  0.50400001928E-02 0.  1.
    10030    2    1    2    0    0  0.00000000000E+00  0.00000000000E+00 -0.18365116144E+04  0.34340426021E+04  0.29017018599E+04 0.  0.
        1    1    3    3  502    0 -0.12869635385E+04 -0.25222105455E+03 -0.16526464551E+04  0.21097703466E+04  0.50400001928E-02 0.  1.
       -1    1    3    3    0  502  0.12869635385E+04  0.25222105455E+03 -0.18386515923E+03  0.13242722555E+04  0.50400001928E-02 0. -1.
</event>
<event>
 5   0  0.1006893E-06  0.2899683E+04  0.7818609E-02  0.8272972E-01
        2   -1    0    0  501    0  0.00000000000E+00  0.00000000000E+00  0.20508738103E+04  0.20508738103E+04  0.25500000920E-02 0. -1.
       -2   -1    0    0    0  501  0.00000000000E+00  0.00000000000E+00 -0.10249487402E+04  0.10249487402E+04  0.25500000920E-02 0.  1.
    10030    2    1    2    0    0  0.00000000000E+00  0.00000000000E+00  0.10259250701E+04  0.30758225505E+04  0.28996831056E+04 0.  0.
        4    1    3    3  502    0 -0.56887192139E+03 -0.11900601795E+04  0.11513336434E+04  0.17508367329E+04  0.12699999809E+01 0.  1.
       -4    1    3    3    0  502  0.56887192139E+03  0.11900601795E+04 -0.12540857330E+03  0.13249858177E+04  0.12699999809E+01 0. -1.
</event>
<event>
 5   0  0.3769563E-07  0.2903664E+04  0.7818609E-02  0.8271788E-01
       -1   -1    0    0    0  501  0.00000000000E+00  0.00000000000E+00  0.94898128418E+03  0.94898128419E+03  0.50400001928E-02 0. -1.
        1   -1    0    0  501    0  0.00000000000E+00  0.00000000000E+00 -0.22211353957E+04  0.22211353957E+04  0.50400001928E-02 0.  1.
    10030    2    1    2    0    0  0.00000000000E+00  0.00000000000E+00 -0.12721541115E+04  0.31701166799E+04  0.29036638374E+04 0.  0.
        3    1    3    3  502    0 -0.32311422112E+03  0.12628196011E+04 -0.13340379743E+04  0.18651470376E+04  0.10100000352E+00 0.  1.
       -3    1    3    3    0  502  0.32311422112E+03 -0.12628196011E+04  0.61883862766E+02  0.13049696423E+04  0.10100000352E+00 0. -1.
</event>
<event>
 5   0  0.1006893E-06  0.2895089E+04  0.7818609E-02  0.8274340E-01
       -2   -1    0    0    0  501  0.00000000000E+00  0.00000000000E+00  0.94908537234E+03  0.94908537234E+03  0.25500000920E-02 0.  1.
        2   -1    0    0  501    0  0.00000000000E+00  0.00000000000E+00 -0.22077946307E+04  0.22077946307E+04  0.25500000920E-02 0. -1.
    10030    2    1    2    0    0  0.00000000000E+00  0.00000000000E+00 -0.12587092583E+04  0.31568800030E+04  0.28950893521E+04 0.  0.
        4    1    3    3  502    0 -0.85442089488E+03 -0.73614648086E+03 -0.16188445207E+04  0.19729688041E+04  0.12699999809E+01 0. -1.
       -4    1    3    3    0  502  0.85442089488E+03  0.73614648086E+03  0.36013526234E+03  0.11839111989E+04  0.12699999809E+01 0.  1.
</event>
<event>
 5   0  0.9950999E-07  0.2904945E+04  0.7818609E-02  0.8271408E-01
        2   -1    0    0  501    0  0.00000000000E+00  0.00000000000E+00  0.17955232669E+04  0.17955232669E+04  0.25500000920E-02 0.  1.
       -2   -1    0    0    0  501  0.00000000000E+00  0.00000000000E+00 -0.11749650373E+04  0.11749650373E+04  0.25500000920E-02 0. -1.
    10030    2    1    2    0    0  0.00000000000E+00  0.00000000000E+00  0.62055822961E+03  0.29704883042E+04  0.29049454812E+04 0.  0.
        3    1    3    3  502    0  0.42477481601E+03 -0.35464900146E+03 -0.10629532169E+04  0.11983651823E+04  0.10100000352E+00 0. -1.
       -3    1    3    3    0  502 -0.42477481601E+03  0.35464900146E+03  0.16835114465E+04  0.17721231219E+04  0.10100000352E+00 0.  1.
</event>
<event>
 5   0  0.1063979E-06  0.2903946E+04  0.7818609E-02  0.8271704E-01
       -2   -1    0    0    0  501  0.00000000000E+00  0.00000000000E+00  0.11983075009E+04  0.11983075009E+04  0.25500000920E-02 0. -1.
        2   -1    0    0  501    0  0.00000000000E+00  0.00000000000E+00 -0.17593358888E+04  0.17593358888E+04  0.25500000920E-02 0.  1.
    10030    2    1    2    0    0  0.00000000000E+00  0.00000000000E+00 -0.56102838794E+03  0.29576433897E+04  0.29039458619E+04 0.  0.
        1    1    3    3  502    0  0.67424617514E+03 -0.11653538089E+04  0.27320042613E+03  0.13737888766E+04  0.50400001928E-02 0. -1.
       -1    1    3    3    0  502 -0.67424617514E+03  0.11653538089E+04 -0.83422881407E+03  0.15838545131E+04  0.50400001928E-02 0.  1.
</event>
<event>
 5   0  0.1006893E-06  0.2899198E+04  0.7818609E-02  0.8273116E-01
        2   -1    0    0  501    0  0.00000000000E+00  0.00000000000E+00  0.11021325503E+04  0.11021325503E+04  0.25500000920E-02 0. -1.
       -2   -1    0    0    0  501  0.00000000000E+00  0.00000000000E+00 -0.19066101983E+04  0.19066101983E+04  0.25500000920E-02 0.  1.
    10030    2    1    2    0    0  0.00000000000E+00  0.00000000000E+00 -0.80447764802E+03  0.30087427486E+04  0.28991979306E+04 0.  0.
        4    1    3    3  502    0  0.82262565518E+03  0.62407079716E+03  0.65363143682E+03  0.12220527798E+04  0.12699999809E+01 0. -1.
       -4    1    3    3    0  502 -0.82262565518E+03 -0.62407079716E+03 -0.14581090848E+04  0.17866899688E+04  0.12699999809E+01 0.  1.
</event>
<event>
 5   0  0.3769563E-07  0.2902179E+04  0.7818609E-02  0.8272229E-01
       -1   -1    0    0    0  501  0.00000000000E+00  0.00000000000E+00  0.19689095532E+04  0.19689095532E+04  0.50400001928E-02 0. -1.
        1   -1    0    0  501    0  0.00000000000E+00  0.00000000000E+00 -0.10694554327E+04  0.10694554327E+04  0.50400001928E-02 0.  1.
    10030    2    1    2    0    0  0.00000000000E+00  0.00000000000E+00  0.89945412049E+03  0.30383649859E+04  0.29021791938E+04 0.  0.
        3    1    3    3  502    0 -0.38246328622E+03  0.12890851100E+04 -0.12143997361E+03  0.13500986125E+04  0.10100000352E+00 0.  1.
       -3    1    3    3    0  502  0.38246328622E+03 -0.12890851100E+04  0.10208940941E+04  0.16882663734E+04  0.10100000352E+00 0. -1.
</event>
<event>
 5   0  0.9950999E-07  0.2911892E+04  0.7818609E-02  0.8269348E-01
       -2   -1    0    0    0  501  0.00000000000E+00  0.00000000000E+00  0.12594701304E+04  0.12594701304E+04  0.25500000920E-02 0. -1.
        2   -1    0    0  501    0  0.00000000000E+00  0.00000000000E+00 -0.16830723208E+04  0.16830723208E+04  0.25500000920E-02 0.  1.
    10030    2    1    2    0    0  0.00000000000E+00  0.00000000000E+00 -0.42360219041E+03  0.29425424513E+04  0.29118923850E+04 0.  0.
        3    1    3    3  502    0  0.14236158124E+04 -0.16557174894E+03  0.47184115096E+02  0.14339882623E+04  0.10100000352E+00 0. -1.
       -3    1    3    3    0  502 -0.14236158124E+04  0.16557174894E+03 -0.47078630550E+03  0.15085541890E+04  0.10100000352E+00 0.  1.
</event>
<event>
 5   0  0.3769563E-07  0.2901251E+04  0.7818609E-02  0.8272505E-01
       -1   -1    0    0    0  501  0.00000000000E+00  0.00000000000E+00  0.11980055932E+04  0.11980055932E+04  0.50400001928E-02 0. -1.
        1   -1    0    0  501    0  0.00000000000E+00  0.00000000000E+00 -0.17565144553E+04  0.17565144553E+04  0.50400001928E-02 0.  1.
    10030    2    1    2    0    0  0.00000000000E+00  0.00000000000E+00 -0.55850886216E+03  0.29545200485E+04  0.29012508626E+04 0.  0.
        3    1    3    3  502    0 -0.79442379959E+03  0.62850322862E+03 -0.13366781228E+04  0.16771505287E+04  0.10100000352E+00 0.  1.
       -3    1    3    3    0  502  0.79442379959E+03 -0.62850322862E+03  0.77816926065E+03  0.12773695198E+04  0.10100000352E+00 0. -1.
</event>
<event>
 5   0  0.1006893E-06  0.2903243E+04  0.7818609E-02  0.8271913E-01
        2   -1    0    0  501    0  0.00000000000E+00  0.00000000000E+00  0.20510688606E+04  0.20510688606E+04  0.25500000920E-02 0. -1.
       -2   -1    0    0    0  501  0.00000000000E+00  0.00000000000E+00 -0.10273693667E+04  0.10273693667E+04  0.25500000920E-02 0.  1.
    10030    2    1    2    0    0  0.00000000000E+00  0.00000000000E+00  0.10236994939E+04  0.30784382273E+04  0.29032432322E+04 0.  0.
        4    1    3    3  502    0  0.10058507923E+04 -0.10171863771E+04  0.77330535290E+03  0.16261631910E+04  0.12699999809E+01 0. -1.
       -4    1    3    3    0  502 -0.10058507923E+04  0.10171863771E+04  0.25039414100E+03  0.14522750362E+04  0.12699999809E+01 0.  1.
</event>
<event>
 5   0  0.9994311E-07  0.2899482E+04  0.7818609E-02  0.8273032E-01
        2   -1    0    0  501    0  0.00000000000E+00  0.00000000000E+00  0.14646497307E+04  0.14646497307E+04  0.25500000920E-02 0.  1.
       -2   -1    0    0    0  501  0.00000000000E+00  0.00000000000E+00 -0.14349838366E+04  0.14349838366E+04  0.25500000920E-02 0. -1.
    10030    2    1    2    0    0  0.00000000000E+00  0.00000000000E+00  0.29665894076E+02  0.28996335673E+04  0.28994818088E+04 0.  0.
        2    1    3    3  502    0 -0.36118307404E+03  0.64978033352E+03 -0.12298530201E+04  0.14370825118E+04  0.25500000920E-02 0. -1.
       -2    1    3    3    0  502  0.36118307404E+03 -0.64978033352E+03  0.12595189142E+04  0.14625510555E+04  0.25500000920E-02 0.  1.
</event>
<event>
 5   0  0.1063979E-06  0.2899052E+04  0.7818609E-02  0.8273160E-01
        2   -1    0    0  501    0  0.00000000000E+00  0.00000000000E+00  0.18003462972E+04  0.18003462972E+04  0.25500000920E-02 0. -1.
       -2   -1    0    0    0  501  0.00000000000E+00  0.00000000000E+00 -0.11670673536E+04  0.11670673536E+04  0.25500000920E-02 0.  1.
    10030    2    1    2    0    0  0.00000000000E+00  0.00000000000E+00  0.63327894352E+03  0.29674136508E+04  0.28990518372E+04 0.  0.
        1    1    3    3  502    0 -0.57692460297E+02  0.98831583431E+03  0.14003929155E+04  0.17149918152E+04  0.50400001928E-02 0. -1.
       -1    1    3    3    0  502  0.57692460297E+02 -0.98831583431E+03 -0.76711397196E+03  0.12524218356E+04  0.50400001928E-02 0.  1.
</event>
<event>
 5   0  0.9950999E-07  0.2900377E+04  0.7818609E-02  0.8272765E-01
        2   -1    0    0  501    0  0.00000000000E+00  0.00000000000E+00  0.12502102130E+04  0.12502102130E+04  0.25500000920E-02 0.  1.
       -2   -1    0    0    0  501  0.00000000000E+00  0.00000000000E+00 -0.16821548541E+04  0.16821548541E+04  0.25500000920E-02 0. -1.
    10030    2    1    2    0    0  0.00000000000E+00  0.00000000000E+00 -0.43194464117E+03  0.29323650671E+04  0.29003773399E+04 0.  0.
        3    1    3    3  502    0 -0.90249601572E+03  0.10201367226E+04 -0.71932779495E+03  0.15403280423E+04  0.10100000352E+00 0. -1.
       -3    1    3    3    0  502  0.90249601572E+03 -0.10201367226E+04  0.28738315379E+03  0.13920370248E+04  0.10100000352E+00 0.  1.
</event>
<event>
 5   0  0.9994311E-07  0.2900919E+04  0.7818609E-02  0.8272604E-01
       -2   -1    0    0    0  501  0.00000000000E+00  0.00000000000E+00  0.88068221257E+03  0.88068221257E+03  0.25500000920E-02 0.  1.
        2   -1    0    0  501    0  0.00000000000E+00  0.00000000000E+00 -0.23888663097E+04  0.23888663097E+04  0.25500000920E-02 0. -1.
    10030    2    1    2    0    0  0.00000000000E+00  0.00000000000E+00 -0.15081840971E+04  0.32695485222E+04  0.29009185215E+04 0.  0.
        2    1    3    3  502    0  0.19318318701E+03  0.52412031974E+02  0.86504052253E+03  0.88789744367E+03  0.25500000920E-02 0.  1.
       -2    1    3    3    0  502 -0.19318318701E+03 -0.52412031974E+02 -0.23732246196E+04  0.23816510786E+04  0.25500000920E-02 0. -1.
</event>
<event>
 5   0  0.3885904E-07  0.2912061E+04  0.7818609E-02  0.8269298E-01
       -1   -1    0    0    0  501  0.00000000000E+00  0.00000000000E+00  0.13637161850E+04  0.13637161850E+04  0.50400001928E-02 0.  1.
        1   -1    0    0  501    0  0.00000000000E+00  0.00000000000E+00 -0.15545943859E+04  0.15545943859E+04  0.50400001928E-02 0. -1.
    10030    2    1    2    0    0  0.00000000000E+00  0.00000000000E+00 -0.19087820093E+03  0.29183105709E+04  0.29120614864E+04 0.  0.
        2    1    3    3  502    0  0.48162268494E+03  0.35041425840E+03 -0.14269267682E+04  0.15462440186E+04  0.25500000920E-02 0. -1.
       -2    1    3    3    0  502 -0.48162268494E+03 -0.35041425840E+03  0.12360485673E+04  0.13720665523E+04  0.25500000920E-02 0.  1.
</event>
<event>
 5   0  0.3885904E-07  0.2898414E+04  0.7818609E-02  0.8273349E-01
       -1   -1    0    0    0  501  0.00000000000E+00  0.00000000000E+00  0.15953234839E+04  0.15953234839E+04  0.50400001928E-02 0.  1.
        1   -1    0    0  501    0  0.00000000000E+00  0.00000000000E+00 -0.13164734851E+04  0.13164734851E+04  0.50400001928E-02 0. -1.
    10030    2    1    2    0    0  0.00000000000E+00  0.00000000000E+00  0.27884999872E+03  0.29117969690E+04  0.28984140951E+04 0.  0.
        2    1    3    3  502    0 -0.14981861623E+03 -0.42478821470E+03 -0.12443639328E+04  0.13233791001E+04  0.25500000920E-02 0. -1.
       -2    1    3    3    0  502  0.14981861623E+03  0.42478821470E+03  0.15232139316E+04  0.15884178690E+04  0.25500000920E-02 0.  1.
</event>
<event>
 5   0  0.3638028E-07  0.2918232E+04  0.7818609E-02  0.8267473E-01
        1   -1    0    0  501    0  0.00000000000E+00  0.00000000000E+00  0.27703007723E+04  0.27703007723E+04  0.50400001928E-02 0.  1.
       -1   -1    0    0    0  501  0.00000000000E+00  0.00000000000E+00 -0.76851576460E+03  0.76851576462E+03  0.50400001928E-02 0. -1.
    10030    2    1    2    0    0  0.00000000000E+00  0.00000000000E+00  0.20017850077E+04  0.35388165369E+04  0.29182322157E+04 0.  0.
        4    1    3    3  502    0 -0.72901766880E+02  0.13744369263E+04  0.15882829660E+04  0.21016745525E+04  0.12699999809E+01 0.  1.
       -4    1    3    3    0  502  0.72901766880E+02 -0.13744369263E+04  0.41350204173E+03  0.14371419844E+04  0.12699999809E+01 0. -1.
</event>
<event>
 5   0  0.3786210E-07  0.2902323E+04  0.7818609E-02  0.8272187E-01
        1   -1    0    0  501    0  0.00000000000E+00  0.00000000000E+00  0.20338849504E+04  0.20338849504E+04  0.50400001928E-02 0. -1.
       -1   -1    0    0    0  501  0.00000000000E+00  0.00000000000E+00 -0.10353929328E+04  0.10353929328E+04  0.50400001928E-02 0.  1.
    10030    2    1    2    0    0  0.00000000000E+00  0.00000000000E+00  0.99849201757E+03  0.30692778832E+04  0.29023232789E+04 0.  0.
        5    1    3    3  502    0  0.59554828732E+03  0.13144197024E+04  0.66126171630E+03  0.15873456032E+04  0.46999998093E+01 0. -1.
       -5    1    3    3    0  502 -0.59554828732E+03 -0.13144197024E+04  0.33723030127E+03  0.14819322800E+04  0.46999998093E+01 0.  1.
</event>
<event>
 5   0  0.3786210E-07  0.2903524E+04  0.7818609E-02  0.8271830E-01
       -1   -1    0    0    0  501  0.00000000000E+00  0.00000000000E+00  0.10740386995E+04  0.10740386995E+04  0.50400001928E-02 0. -1.
        1   -1    0    0  501    0  0.00000000000E+00  0.00000000000E+00 -0.19623248184E+04  0.19623248184E+04  0.50400001928E-02 0.  1.
    10030    2    1    2    0    0  0.00000000000E+00  0.00000000000E+00 -0.88828611882E+03  0.30363635179E+04  0.29035239252E+04 0.  0.
        5    1    3    3  502    0  0.22667056608E+03  0.91880649394E+03 -0.15954223763E+04  0.18549877540E+04  0.46999998093E+01 0.  1.
       -5    1    3    3    0  502 -0.22667056608E+03 -0.91880649394E+03  0.70713625747E+03  0.11813757639E+04  0.46999998093E+01 0. -1.
</event>
<event>
 5   0  0.9950999E-07  0.2887861E+04  0.7818609E-02  0.8276498E-01
        2   -1    0    0  501    0  0.00000000000E+00  0.00000000000E+00  0.17473504289E+04  0.17473504289E+04  0.25500000920E-02 0.  1.
       -2   -1    0    0    0  501  0.00000000000E+00  0.00000000000E+00 -0.11931983682E+04  0.11931983682E+04  0.25500000920E-02 0. -1.
    10030    2    1    2    0    0  0.00000000000E+00  0.00000000000E+00  0.55415206068E+03  0.29405487970E+04  0.28878612712E+04 0.  0.
        3    1    3    3  502    0  0.60528238896E+03  0.12863155320E+04  0.53459578028E+03  0.15188044893E+04  0.10100000352E+00 0.  1.
       -3    1    3    3    0  502 -0.60528238896E+03 -0.12863155320E+04  0.19556280401E+02  0.14217443077E+04  0.10100000352E+00 0. -1.
</event>
<event>
 5   0  0.9950999E-07  0.2877338E+04  0.7818609E-02  0.8279652E-01
       -2   -1    0    0    0  501  0.00000000000E+00  0.00000000000E+00  0.10647717132E+04  0.10647717132E+04  0.25500000920E-02 0.  1.
        2   -1    0    0  501    0  0.00000000000E+00  0.00000000000E+00 -0.19438618003E+04  0.19438618003E+04  0.25500000920E-02 0. -1.
    10030    2    1    2    0    0  0.00000000000E+00  0.00000000000E+00 -0.87909008713E+03  0.30086335135E+04  0.28773383947E+04 0.  0.
        3    1    3    3  502    0  0.20096603579E+03 -0.75102736734E+03 -0.17052937447E+04  0.18741548015E+04  0.10100000352E+00 0. -1.
       -3    1    3    3    0  502 -0.20096603579E+03  0.75102736734E+03  0.82620365759E+03  0.11344787120E+04  0.10100000352E+00 0.  1.
</event>
<event>
 5   0  0.3786210E-07  0.2901188E+04  0.7818609E-02  0.8272524E-01
        1   -1    0    0  501    0  0.00000000000E+00  0.00000000000E+00  0.13773964776E+04  0.13773964776E+04  0.50400001928E-02 0.  1.
       -1   -1    0    0    0  501  0.00000000000E+00  0.00000000000E+00 -0.15276813391E+04  0.15276813391E+04  0.50400001928E-02 0. -1.
    10030    2    1    2    0    0  0.00000000000E+00  0.00000000000E+00 -0.15028486152E+03  0.29050778167E+04  0.29011879604E+04 0.  0.
        5    1    3    3  502    0  0.65597093588E+03  0.11017021310E+04 -0.75439946103E+03  0.14876780871E+04  0.46999998093E+01 0. -1.
       -5    1    3    3    0  502 -0.65597093588E+03 -0.11017021310E+04  0.60411459951E+03  0.14173997296E+04  0.46999998093E+01 0.  1.
</event>
<event>
 5   0  0.1063979E-06  0.2901426E+04  0.7818609E-02  0.8272453E-01
        2   -1    0    0  501    0  0.00000000000E+00  0.00000000000E+00  0.14531060017E+04  0.14531060017E+04  0.25500000920E-02 0.  1.
       -2   -1    0    0    0  501  0.00000000000E+00  0.00000000000E+00 -0.14483240493E+04  0.14483240493E+04  0.25500000920E-02 0. -1.
    10030    2    1    2    0    0  0.00000000000E+00  0.00000000000E+00  0.47819523586E+01  0.29014300510E+04  0.29014261103E+04 0.  0.
        1    1    3    3  502    0 -0.16029864056E+03  0.23826758413E+03  0.14243989809E+04  0.14530586886E+04  0.50400001928E-02 0.  1.
       -1    1    3    3    0  502  0.16029864056E+03 -0.23826758413E+03 -0.14196170285E+04  0.14483713624E+04  0.50400001928E-02 0. -1.
</event>
<event>
 5   0  0.3885904E-07  0.2856978E+04  0.7818609E-02  0.8285794E-01
        1   -1    0    0  501    0  0.00000000000E+00  0.00000000000E+00  0.21442750369E+04  0.21442750370E+04  0.50400001928E-02 0.  1.
       -1   -1    0    0    0  501  0.00000000000E+00  0.00000000000E+00 -0.95164143961E+03  0.95164143963E+03  0.50400001928E-02 0. -1.
    10030    2    1    2    0    0  0.00000000000E+00  0.00000000000E+00  0.11926335973E+04  0.30959164766E+04  0.28569781120E+04 0.  0.
        2    1    3    3  502    0  0.13061302716E+04  0.52277084662E+03  0.86464535098E+03  0.16513258999E+04  0.25500000920E-02 0.  1.
       -2    1    3    3    0  502 -0.13061302716E+04 -0.52277084662E+03  0.32798824635E+03  0.14445905767E+04  0.25500000920E-02 0. -1.
</event>
<event>
 5   0  0.9950999E-07  0.2899170E+04  0.7818609E-02  0.8273125E-01
        2   -1    0    0  501    0  0.00000000000E+00  0.00000000000E+00  0.17250335825E+04  0.17250335825E+04  0.25500000920E-02 0. -1.
       -2   -1    0    0    0  501  0.00000000000E+00  0.00000000000E+00 -0.12181191237E+04  0.12181191237E+04  0.25500000920E-02 0.  1.
    10030    2    1    2    0    0  0.00000000000E+00  0.00000000000E+00  0.50691445878E+03  0.29431527062E+04  0.28991698094E+04 0.  0.
        3    1    3    3  502    0 -0.49653422196E+03 -0.84353123516E+01  0.16359839051E+04  0.17096960946E+04  0.10100000352E+00 0. -1.
       -3    1    3    3    0  502  0.49653422196E+03  0.84353123516E+01 -0.11290694463E+04  0.12334566116E+04  0.10100000352E+00 0.  1.
</event>
<event>
 5   0  0.1006893E-06  0.2901627E+04  0.7818609E-02  0.8272393E-01
        2   -1    0    0  501    0  0.00000000000E+00  0.00000000000E+00  0.13776466121E+04  0.13776466121E+04  0.25500000920E-02 0. -1.
       -2   -1    0    0    0  501  0.00000000000E+00  0.00000000000E+00 -0.15278667179E+04  0.15278667179E+04  0.25500000920E-02 0.  1.
    10030    2    1    2    0    0  0.00000000000E+00  0.00000000000E+00 -0.15022010582E+03  0.29055133300E+04  0.29016274108E+04 0.  0.
        4    1    3    3  502    0  0.33896570386E+03 -0.10884667852E+04  0.82342165596E+03  0.14063010088E+04  0.12699999809E+01 0. -1.
       -4    1    3    3    0  502 -0.33896570386E+03  0.10884667852E+04 -0.97364176178E+03  0.14992123212E+04  0.12699999809E+01 0.  1.
</event>
<event>
 5   0  0.1031339E-06  0.2906422E+04  0.7818609E-02  0.8270969E-01
       -2   -1    0    0    0  501  0.00000000000E+00  0.00000000000E+00  0.71010831398E+03  0.71010831399E+03  0.25500000920E-02 0. -1.
        2   -1    0    0  501    0  0.00000000000E+00  0.00000000000E+00 -0.29739434253E+04  0.29739434253E+04  0.25500000920E-02 0.  1.
    10030    2    1    2    0    0  0.00000000000E+00  0.00000000000E+00 -0.22638351113E+04  0.36840517393E+04  0.29064218218E+04 0.  0.
        5    1    3    3  502    0 -0.37353212342E+03  0.43160109760E+03  0.56205779296E+03  0.80108476911E+03  0.46999998093E+01 0. -1.
       -5    1    3    3    0  502  0.37353212342E+03 -0.43160109760E+03 -0.28258929043E+04  0.28829669702E+04  0.46999998093E+01 0.  1.
</event>
<event>
 5   0  0.3770467E-07  0.2897629E+04  0.7818609E-02  0.8273583E-01
        1   -1    0    0  501    0  0.00000000000E+00  0.00000000000E+00  0.22413606246E+04  0.22413606246E+04  0.50400001928E-02 0. -1.
       -1   -1    0    0    0  501  0.00000000000E+00  0.00000000000E+00 -0.93651294095E+03  0.93651294096E+03  0.50400001928E-02 0.  1.
    10030    2    1    2    0    0  0.00000000000E+00  0.00000000000E+00  0.13048476836E+04  0.31778735655E+04  0.28976288446E+04 0.  0.
        1    1    3    3  502    0  0.74700781474E+03 -0.11102758998E+04  0.12614020283E+04  0.18389856786E+04  0.50400001928E-02 0. -1.
       -1    1    3    3    0  502 -0.74700781474E+03  0.11102758998E+04  0.43445655302E+02  0.13388878870E+04  0.50400001928E-02 0.  1.
</event>
<event>
 5   0  0.3769563E-07  0.2899503E+04  0.7818609E-02  0.8273025E-01
       -1   -1    0    0    0  501  0.00000000000E+00  0.00000000000E+00  0.21770045868E+04  0.21770045868E+04  0.50400001928E-02 0. -1.
        1   -1    0    0  501    0  0.00000000000E+00  0.00000000000E+00 -0.96544579912E+03  0.96544579914E+03  0.50400001928E-02 0.  1.
    10030    2    1    2    0    0  0.00000000000E+00  0.00000000000E+00  0.12115587877E+04  0.31424503859E+04  0.28995033595E+04 0.  0.
        3    1    3    3  502    0 -0.13266879110E+04  0.40355824466E+03  0.10640823723E+04  0.17479220164E+04  0.10100000352E+00 0. -1.
       -3    1    3    3    0  502  0.13266879110E+04 -0.40355824466E+03  0.14747641532E+03  0.13945283695E+04  0.10100000352E+00 0.  1.
</event>
<event>
 5   0  0.3638028E-07  0.2893407E+04  0.7818609E-02  0.8274842E-01
        1   -1    0    0  501    0  0.00000000000E+00  0.00000000000E+00  0.12950604299E+04  0.12950604300E+04  0.50400001928E-02 0.  1.
       -1   -1    0    0    0  501  0.00000000000E+00  0.00000000000E+00 -0.16161028167E+04  0.16161028167E+04  0.50400001928E-02 0. -1.
    10030    2    1    2    0    0  0.00000000000E+00  0.00000000000E+00 -0.32104238671E+03  0.29111632466E+04  0.28934068560E+04 0.  0.
        4    1    3    3  502    0 -0.96039614041E+03  0.10755357672E+04 -0.42278654950E+02  0.14425418644E+04  0.12699999809E+01 0. -1.
       -4    1    3    3    0  502  0.96039614041E+03 -0.10755357672E+04 -0.27876373176E+03  0.14686213822E+04  0.12699999809E+01 0.  1.
</event>
<event>
 5   0  0.3786210E-07  0.2893493E+04  0.7818609E-02  0.8274816E-01
        1   -1    0    0  501    0  0.00000000000E+00  0.00000000000E+00  0.15038366627E+04  0.15038366627E+04  0.50400001928E-02 0.  1.
       -1   -1    0    0    0  501  0.00000000000E+00  0.00000000000E+00 -0.13918236338E+04  0.13918236338E+04  0.50400001928E-02 0. -1.
    10030    2    1    2    0    0  0.00000000000E+00  0.00000000000E+00  0.11201302894E+03  0.28956602966E+04  0.28934929816E+04 0.  0.
        5    1    3    3  502    0  0.13896029890E+04 -0.31138990254E+03 -0.19931824029E+03  0.14379534030E+04  0.46999998093E+01 0.  1.
       -5    1    3    3    0  502 -0.13896029890E+04  0.31138990254E+03  0.31133126923E+03  0.14577068936E+04  0.46999998093E+01 0. -1.
</event>
<event>
 5   0  0.9950999E-07  0.2881261E+04  0.7818609E-02  0.8278475E-01
       -2   -1    0    0    0  501  0.00000000000E+00  0.00000000000E+00  0.13688405466E+04  0.13688405466E+04  0.25500000920E-02 0. -1.
        2   -1    0    0  501    0  0.00000000000E+00  0.00000000000E+00 -0.15161855095E+04  0.15161855095E+04  0.25500000920E-02 0.  1.
    10030    2    1    2    0    0  0.00000000000E+00  0.00000000000E+00 -0.14734496292E+03  0.28850260561E+04  0.28812609750E+04 0.  0.
        3    1    3    3  502    0  0.17602837102E+03 -0.11813609165E+04 -0.88021657578E+03  0.14837051031E+04  0.10100000352E+00 0.  1.
       -3    1    3    3    0  502 -0.17602837102E+03  0.11813609165E+04  0.73287161286E+03  0.14013209531E+04  0.10100000352E+00 0. -1.
</event>
<event>
 5   0  0.3885904E-07  0.2903581E+04  0.7818609E-02  0.8271813E-01
       -1   -1    0    0    0  501  0.00000000000E+00  0.00000000000E+00  0.11479812456E+04  0.11479812456E+04  0.50400001928E-02 0. -1.
        1   -1    0    0  501    0  0.00000000000E+00  0.00000000000E+00 -0.18360015761E+04  0.18360015762E+04  0.50400001928E-02 0.  1.
    10030    2    1    2    0    0  0.00000000000E+00  0.00000000000E+00 -0.68802033057E+03  0.29839828217E+04  0.29035808074E+04 0.  0.
        2    1    3    3  502    0 -0.12437663922E+04 -0.65096061079E+03 -0.72438181124E+03  0.15796941361E+04  0.25500000920E-02 0.  1.
       -2    1    3    3    0  502  0.12437663922E+04  0.65096061079E+03  0.36361480664E+02  0.14042886856E+04  0.25500000920E-02 0. -1.
</event>
<event>
 5   0  0.3638028E-07  0.2901697E+04  0.7818609E-02  0.8272373E-01
        1   -1    0    0  501    0  0.00000000000E+00  0.00000000000E+00  0.17045779822E+04  0.17045779822E+04  0.50400001928E-02 0.  1.
       -1   -1    0    0    0  501  0.00000000000E+00  0.00000000000E+00 -0.12348870309E+04  0.12348870309E+04  0.50400001928E-02 0. -1.
    10030    2    1    2    0    0  0.00000000000E+00  0.00000000000E+00  0.46969095131E+03  0.29394650131E+04  0.29016969127E+04 0.  0.
        4    1    3    3  502    0  0.38409709859E+03 -0.12529131395E+04 -0.39586386043E+03  0.13689527841E+04  0.12699999809E+01 0.  1.
       -4    1    3    3    0  502 -0.38409709859E+03  0.12529131395E+04  0.86555481175E+03  0.15705122290E+04  0.12699999809E+01 0. -1.
</event>
<event>
 5   0  0.3769563E-07  0.2901356E+04  0.7818609E-02  0.8272474E-01
        1   -1    0    0  501    0  0.00000000000E+00  0.00000000000E+00  0.15455778469E+04  0.15455778469E+04  0.50400001928E-02 0.  1.
       -1   -1    0    0    0  501  0.00000000000E+00  0.00000000000E+00 -0.13616048545E+04  0.13616048545E+04  0.50400001928E-02 0. -1.
    10030    2    1    2    0    0  0.00000000000E+00  0.00000000000E+00  0.18397299240E+03  0.29071827013E+04  0.29013557516E+04 0.  0.
        3    1    3    3  502    0  0.99652036099E+03  0.77702144867E+03 -0.62194085415E+03  0.14084124388E+04  0.10100000352E+00 0.  1.
       -3    1    3    3    0  502 -0.99652036099E+03 -0.77702144867E+03  0.80591384655E+03  0.14987702625E+04  0.10100000352E+00 0. -1.
</event>
<event>
 5   0  0.3638028E-07  0.2829996E+04  0.7818609E-02  0.8294016E-01
       -1   -1    0    0    0  501  0.00000000000E+00  0.00000000000E+00  0.82454957143E+03  0.82454957144E+03  0.50400001928E-02 0.  1.
        1   -1    0    0  501    0  0.00000000000E+00  0.00000000000E+00 -0.24282589781E+04  0.24282589781E+04  0.50400001928E-02 0. -1.
    10030    2    1    2    0    0  0.00000000000E+00  0.00000000000E+00 -0.16037094067E+04  0.32528085496E+04  0.28299963956E+04 0.  0.
        4    1    3    3  502    0  0.12630915735E+04 -0.10858223730E+03 -0.79440153698E+02  0.12702372913E+04  0.12699999809E+01 0. -1.
       -4    1    3    3    0  502 -0.12630915735E+04  0.10858223730E+03 -0.15242692530E+04  0.19825712582E+04  0.12699999809E+01 0.  1.
</event>
<event>
 5   0  0.9994311E-07  0.2900568E+04  0.7818609E-02  0.8272708E-01
       -2   -1    0    0    0  501  0.00000000000E+00  0.00000000000E+00  0.13508096998E+04  0.13508096998E+04  0.25500000920E-02 0.  1.
        2   -1    0    0  501    0  0.00000000000E+00  0.00000000000E+00 -0.15570836988E+04  0.15570836988E+04  0.25500000920E-02 0. -1.
    10030    2    1    2    0    0  0.00000000000E+00  0.00000000000E+00 -0.20627399902E+03  0.29078933987E+04  0.29005680573E+04 0.  0.
        2    1    3    3  502    0 -0.12014746997E+04 -0.76452606885E+03  0.17193195190E+03  0.14344344391E+04  0.25500000920E-02 0.  1.
       -2    1    3    3    0  502  0.12014746997E+04  0.76452606885E+03 -0.37820595092E+03  0.14734589595E+04  0.25500000920E-02 0. -1.
</event>
<event>
 5   0  0.1031339E-06  0.2902922E+04  0.7818609E-02  0.8272009E-01
       -2   -1    0    0    0  501  0.00000000000E+00  0.00000000000E+00  0.11411281776E+04  0.11411281776E+04  0.25500000920E-02 0.  1.
        2   -1    0    0  501    0  0.00000000000E+00  0.00000000000E+00 -0.18461900706E+04  0.18461900706E+04  0.25500000920E-02 0. -1.
    10030    2    1    2    0    0  0.00000000000E+00  0.00000000000E+00 -0.70506189302E+03  0.29873182482E+04  0.29029223281E+04 0.  0.
        5    1    3    3  502    0 -0.12060255621E+04 -0.49578071935E+03 -0.10085769219E+04  0.16484980060E+04  0.46999998093E+01 0. -1.
       -5    1    3    3    0  502  0.12060255621E+04  0.49578071935E+03  0.30351502891E+03  0.13388202422E+04  0.46999998093E+01 0.  1.
</event>
<event>
 5   0  0.9950999E-07  0.2899405E+04  0.7818609E-02  0.8273054E-01
       -2   -1    0    0    0  501  0.00000000000E+00  0.00000000000E+00  0.10190698729E+04  0.10190698729E+04  0.25500000920E-02 0. -1.
        2   -1    0    0  501    0  0.00000000000E+00  0.00000000000E+00 -0.20623099107E+04  0.20623099107E+04  0.25500000920E-02 0.  1.
    10030    2    1    2    0    0  0.00000000000E+00  0.00000000000E+00 -0.10432400379E+04  0.30813797836E+04  0.28994053863E+04 0.  0.
        3    1    3    3  502    0  0.92665799889E+03 -0.24667519715E+03 -0.16770997420E+04  0.19318921436E+04  0.10100000352E+00 0.  1.
       -3    1    3    3    0  502 -0.92665799889E+03  0.24667519715E+03  0.63385970410E+03  0.11494876400E+04  0.10100000352E+00 0. -1.
</event>
<event>
 5   0  0.1031339E-06  0.2908340E+04  0.7818609E-02  0.8270400E-01
       -2   -1    0    0    0  501  0.00000000000E+00  0.00000000000E+00  0.11194215641E+04  0.11194215641E+04  0.25500000920E-02 0. -1.
        2   -1    0    0  501    0  0.00000000000E+00  0.00000000000E+00 -0.18890203234E+04  0.18890203234E+04  0.25500000920E-02 0.  1.
    10030    2    1    2    0    0  0.00000000000E+00  0.00000000000E+00 -0.76959875923E+03  0.30084418875E+04  0.29083397911E+04 0.  0.
        5    1    3    3  502    0 -0.45527344464E+03 -0.94912336852E+01 -0.18133555897E+04  0.18696642955E+04  0.46999998093E+01 0.  1.
       -5    1    3    3    0  502  0.45527344464E+03  0.94912336852E+01  0.10437568305E+04  0.11387775920E+04  0.46999998093E+01 0. -1.
</event>
<event>
 5   0  0.3638028E-07  0.2853886E+04  0.7818609E-02  0.8286731E-01
       -1   -1    0    0    0  501  0.00000000000E+00  0.00000000000E+00  0.13612061277E+04  0.13612061278E+04  0.50400001928E-02 0.  1.
        1   -1    0    0  501    0  0.00000000000E+00  0.00000000000E+00 -0.14958545686E+04  0.14958545686E+04  0.50400001928E-02 0. -1.
    10030    2    1    2    0    0  0.00000000000E+00  0.00000000000E+00 -0.13464844086E+03  0.28570606964E+04  0.28538860559E+04 0.  0.
        4    1    3    3  502    0 -0.43488335976E+02  0.67810028145E+03  0.11888438945E+04  0.13693292684E+04  0.12699999809E+01 0.  1.
       -4    1    3    3    0  502  0.43488335976E+02 -0.67810028145E+03 -0.13234923353E+04  0.14877314279E+04  0.12699999809E+01 0. -1.
</event>
<event>
 5   0  0.3769563E-07  0.2908526E+04  0.7818609E-02  0.8270345E-01
        1   -1    0    0  501    0  0.00000000000E+00  0.00000000000E+00  0.21142195895E+04  0.21142195895E+04  0.50400001928E-02 0. -1.
       -1   -1    0    0    0  501  0.00000000000E+00  0.00000000000E+00 -0.10003127243E+04  0.10003127243E+04  0.50400001928E-02 0.  1.
    10030    2    1    2    0    0  0.00000000000E+00  0.00000000000E+00  0.11139068652E+04  0.31145323138E+04  0.29085259203E+04 0.  0.
        3    1    3    3  502    0  0.48424017005E+03  0.62772003401E+03 -0.74856158733E+03  0.10903510644E+04  0.10100000352E+00 0.  1.
       -3    1    3    3    0  502 -0.48424017005E+03 -0.62772003401E+03  0.18624684526E+04  0.20241812494E+04  0.10100000352E+00 0. -1.
</event>
<event>
 5   0  0.3769563E-07  0.2897602E+04  0.7818609E-02  0.8273591E-01
        1   -1    0    0  501    0  0.00000000000E+00  0.00000000000E+00  0.31118757726E+04  0.31118757726E+04  0.50400001928E-02 0. -1.
       -1   -1    0    0    0  501  0.00000000000E+00  0.00000000000E+00 -0.67452063730E+03  0.67452063732E+03  0.50400001928E-02 0.  1.
    10030    2    1    2    0    0  0.00000000000E+00  0.00000000000E+00  0.24373551353E+04  0.37863964099E+04  0.28976020633E+04 0.  0.
        3    1    3    3  502    0  0.96501106366E+03  0.69930431613E+03  0.14210638314E+03  0.12001946150E+04  0.10100000352E+00 0. -1.
       -3    1    3    3    0  502 -0.96501106366E+03 -0.69930431613E+03  0.22952487522E+04  0.25862017949E+04  0.10100000352E+00 0.  1.
</event>
<event>
 5   0  0.3786210E-07  0.2897410E+04  0.7818609E-02  0.8273649E-01
       -1   -1    0    0    0  501  0.00000000000E+00  0.00000000000E+00  0.12420633689E+04  0.12420633689E+04  0.50400001928E-02 0. -1.
        1   -1    0    0  501    0  0.00000000000E+00  0.00000000000E+00 -0.16897252156E+04  0.16897252156E+04  0.50400001928E-02 0.  1.
    10030    2    1    2    0    0  0.00000000000E+00  0.00000000000E+00 -0.44766184670E+03  0.29317885845E+04  0.28974097355E+04 0.  0.
        5    1    3    3  502    0 -0.98197580188E+02 -0.13665868704E+04  0.25241409466E+03  0.13931752956E+04  0.46999998093E+01 0. -1.
       -5    1    3    3    0  502  0.98197580188E+02  0.13665868704E+04 -0.70007594136E+03  0.15386132889E+04  0.46999998093E+01 0.  1.
</event>
<event>
 5   0  0.9994311E-07  0.2897383E+04  0.7818609E-02  0.8273657E-01
       -2   -1    0    0    0  501  0.00000000000E+00  0.00000000000E+00  0.15605853966E+04  0.15605853966E+04  0.25500000920E-02 0.  1.
        2   -1    0    0  501    0  0.00000000000E+00  0.00000000000E+00 -0.13448201470E+04  0.13448201470E+04  0.25500000920E-02 0. -1.
    10030    2    1    2    0    0  0.00000000000E+00  0.00000000000E+00  0.21576524954E+03  0.29054055436E+04  0.28973827379E+04 0.  0.
        2    1    3    3  502    0  0.82170419836E+03  0.10249656544E+04  0.72027348727E+03  0.14981809900E+04  0.25500000920E-02 0.  1.
       -2    1    3    3    0  502 -0.82170419836E+03 -0.10249656544E+04 -0.50450823773E+03  0.14072245536E+04  0.25500000920E-02 0. -1.
</event>
<event>
 5   0  0.9950999E-07  0.2889393E+04  0.7818609E-02  0.8276040E-01
       -2   -1    0    0    0  501  0.00000000000E+00  0.00000000000E+00  0.16729968488E+04  0.16729968488E+04  0.25500000920E-02 0. -1.
        2   -1    0    0  501    0  0.00000000000E+00  0.00000000000E+00 -0.12475504603E+04  0.12475504604E+04  0.25500000920E-02 0.  1.
    10030    2    1    2    0    0  0.00000000000E+00  0.00000000000E+00  0.42544638845E+03  0.29205473092E+04  0.28893930082E+04 0.  0.
        3    1    3    3  502    0  0.88381366231E+03  0.10859441149E+04 -0.14713059123E+03  0.14078524892E+04  0.10100000352E+00 0.  1.
       -3    1    3    3    0  502 -0.88381366231E+03 -0.10859441149E+04  0.57257697969E+03  0.15126948199E+04  0.10100000352E+00 0. -1.
</event>
<event>
 5   0  0.9950999E-07  0.2893938E+04  0.7818609E-02  0.8274683E-01
       -2   -1    0    0    0  501  0.00000000000E+00  0.00000000000E+00  0.17996271197E+04  0.17996271197E+04  0.25500000920E-02 0. -1.
        2   -1    0    0  501    0  0.00000000000E+00  0.00000000000E+00 -0.11634181433E+04  0.11634181433E+04  0.25500000920E-02 0.  1.
    10030    2    1    2    0    0  0.00000000000E+00  0.00000000000E+00  0.63620897638E+03  0.29630452630E+04  0.28939376926E+04 0.  0.
        3    1    3    3  502    0 -0.93513734822E+03  0.60269572233E+03  0.12653982607E+04  0.16849204023E+04  0.10100000352E+00 0. -1.
       -3    1    3    3    0  502  0.93513734822E+03 -0.60269572233E+03 -0.62918928433E+03  0.12781248607E+04  0.10100000352E+00 0.  1.
</event>
<event>
 5   0  0.3885904E-07  0.2908497E+04  0.7818609E-02  0.8270354E-01
       -1   -1    0    0    0  501  0.00000000000E+00  0.00000000000E+00  0.86942007688E+03  0.86942007689E+03  0.50400001928E-02 0.  1.
        1   -1    0    0  501    0  0.00000000000E+00  0.00000000000E+00 -0.24324706994E+04  0.24324706994E+04  0.50400001928E-02 0. -1.
    10030    2    1    2    0    0  0.00000000000E+00  0.00000000000E+00 -0.15630506225E+04  0.33018907763E+04  0.29084971119E+04 0.  0.
        2    1    3    3  502    0 -0.84653861201E+03  0.91973554513E+03  0.62160431641E+02  0.12515610308E+04  0.25500000920E-02 0.  1.
       -2    1    3    3    0  502  0.84653861201E+03 -0.91973554513E+03 -0.16252110542E+04  0.20503297455E+04  0.25500000920E-02 0. -1.
</event>
<event>
 5   0  0.1006893E-06  0.2902247E+04  0.7818609E-02  0.8272209E-01
        2   -1    0    0  501    0  0.00000000000E+00  0.00000000000E+00  0.16201313018E+04  0.16201313018E+04  0.25500000920E-02 0. -1.
       -2   -1    0    0    0  501  0.00000000000E+00  0.00000000000E+00 -0.12997464974E+04  0.12997464974E+04  0.25500000920E-02 0.  1.
    10030    2    1    2    0    0  0.00000000000E+00  0.00000000000E+00  0.32038480442E+03  0.29198777993E+04  0.29022473946E+04 0.  0.
        4    1    3    3  502    0 -0.33551892572E+03 -0.12242792448E+04 -0.54716168040E+03  0.13823241791E+04  0.12699999809E+01 0.  1.
       -4    1    3    3    0  502  0.33551892572E+03  0.12242792448E+04  0.86754648481E+03  0.15375536202E+04  0.12699999809E+01 0. -1.
</event>
<event>
 5   0  0.9950999E-07  0.2918608E+04  0.7818609E-02  0.8267363E-01
       -2   -1    0    0    0  501  0.00000000000E+00  0.00000000000E+00  0.93823665173E+03  0.93823665174E+03  0.25500000920E-02 0.  1.
        2   -1    0    0  501    0  0.00000000000E+00  0.00000000000E+00 -0.22697554882E+04  0.22697554883E+04  0.25500000920E-02 0. -1.
    10030    2    1    2    0    0  0.00000000000E+00  0.00000000000E+00 -0.13315188365E+04  0.32079921400E+04  0.29186077431E+04 0.  0.
        3    1    3    3  502    0 -0.87895658563E+02 -0.13153053342E+04  0.22255010084E+02  0.13184267384E+04  0.10100000352E+00 0.  1.
       -3    1    3    3    0  502  0.87895658563E+02  0.13153053342E+04 -0.13537738466E+04  0.18895654016E+04  0.10100000352E+00 0. -1.
</event>
<event>
 5   0  0.9950999E-07  0.2898352E+04  0.7818609E-02  0.8273368E-01
        2   -1    0    0  501    0  0.00000000000E+00  0.00000000000E+00  0.11110804227E+04  0.11110804227E+04  0.25500000920E-02 0. -1.
       -2   -1    0    0    0  501  0.00000000000E+00  0.00000000000E+00 -0.18901527924E+04  0.18901527924E+04  0.25500000920E-02 0.  1.
    10030    2    1    2    0    0  0.00000000000E+00  0.00000000000E+00 -0.77907236968E+03  0.30012332151E+04  0.28983524724E+04 0.  0.
        3    1    3    3  502    0 -0.49628851954E+03 -0.10442900808E+04 -0.12941995066E+04  0.17354528057E+04  0.10100000352E+00 0.  1.
       -3    1    3    3    0  502  0.49628851954E+03  0.10442900808E+04  0.51512713692E+03  0.12657804095E+04  0.10100000352E+00 0. -1.
</event>
<event>
 5   0  0.9950999E-07  0.2900121E+04  0.7818609E-02  0.8272841E-01
        2   -1    0    0  501    0  0.00000000000E+00  0.00000000000E+00  0.24478008729E+04  0.24478008729E+04  0.25500000920E-02 0.  1.
       -2   -1    0    0    0  501  0.00000000000E+00  0.00000000000E+00 -0.85900614135E+03  0.85900614135E+03  0.25500000920E-02 0. -1.
    10030    2    1    2    0    0  0.00000000000E+00  0.00000000000E+00  0.15887947316E+04  0.33068070142E+04  0.29001213648E+04 0.  0.
        3    1    3    3  502    0  0.29561442921E+03 -0.16674546934E+03  0.24018733797E+04  0.24257344630E+04  0.10100000352E+00 0.  1.
       -3    1    3    3    0  502 -0.29561442921E+03  0.16674546934E+03 -0.81307864818E+03  0.88107255129E+03  0.10100000352E+00 0. -1.
</event>
<event>
 5   0  0.1031339E-06  0.2903261E+04  0.7818609E-02  0.8271908E-01
        2   -1    0    0  501    0  0.00000000000E+00  0.00000000000E+00  0.11214888669E+04  0.11214888669E+04  0.25500000920E-02 0. -1.
       -2   -1    0    0    0  501  0.00000000000E+00  0.00000000000E+00 -0.18789579386E+04  0.18789579386E+04  0.25500000920E-02 0.  1.
    10030    2    1    2    0    0  0.00000000000E+00  0.00000000000E+00 -0.75746907166E+03  0.30004468055E+04  0.29032605185E+04 0.  0.
        5    1    3    3  502    0 -0.22417346483E+02 -0.65916063936E+03  0.95769395466E+03  0.11628392351E+04  0.46999998093E+01 0. -1.
       -5    1    3    3    0  502  0.22417346483E+02  0.65916063936E+03 -0.17151630263E+04  0.18376075704E+04  0.46999998093E+01 0.  1.
</event>
<event>
 5   0  0.3769563E-07  0.2899399E+04  0.7818609E-02  0.8273056E-01
        1   -1    0    0  501    0  0.00000000000E+00  0.00000000000E+00  0.18282468452E+04  0.18282468452E+04  0.50400001928E-02 0.  1.
       -1   -1    0    0    0  501  0.00000000000E+00  0.00000000000E+00 -0.11495319736E+04  0.11495319736E+04  0.50400001928E-02 0. -1.
    10030    2    1    2    0    0  0.00000000000E+00  0.00000000000E+00  0.67871487163E+03  0.29777788188E+04  0.28993986992E+04 0.  0.
        3    1    3    3  502    0  0.79209776088E+03 -0.12071439010E+04  0.20539775667E+03  0.14583564411E+04  0.10100000352E+00 0. -1.
       -3    1    3    3    0  502 -0.79209776088E+03  0.12071439010E+04  0.47331711496E+03  0.15194223778E+04  0.10100000352E+00 0.  1.
</event>
<event>
 5   0  0.3885904E-07  0.2898880E+04  0.7818609E-02  0.8273211E-01
        1   -1    0    0  501    0  0.00000000000E+00  0.00000000000E+00  0.13609814276E+04  0.13609814276E+04  0.50400001928E-02 0.  1.
       -1   -1    0    0    0  501  0.00000000000E+00  0.00000000000E+00 -0.15436485203E+04  0.15436485203E+04  0.50400001928E-02 0. -1.
    10030    2    1    2    0    0  0.00000000000E+00  0.00000000000E+00 -0.18266709273E+03  0.29046299480E+04  0.28988804508E+04 0.  0.
        2    1    3    3  502    0  0.69700806199E+03 -0.16126305261E+03  0.11717422623E+04  0.13728823475E+04  0.25500000920E-02 0.  1.
       -2    1    3    3    0  502 -0.69700806199E+03  0.16126305261E+03 -0.13544093551E+04  0.15317476005E+04  0.25500000920E-02 0. -1.
</event>
<event>
 5   0  0.3638028E-07  0.2890686E+04  0.7818609E-02  0.8275654E-01
        1   -1    0    0  501    0  0.00000000000E+00  0.00000000000E+00  0.20903313899E+04  0.20903313899E+04  0.50400001928E-02 0. -1.
       -1   -1    0    0    0  501  0.00000000000E+00  0.00000000000E+00 -0.99937087971E+03  0.99937087972E+03  0.50400001928E-02 0.  1.
    10030    2    1    2    0    0  0.00000000000E+00  0.00000000000E+00  0.10909605101E+04  0.30897022696E+04  0.28906859532E+04 0.  0.
        4    1    3    3  502    0 -0.13464503512E+04 -0.15057590205E+03  0.74208669102E+01  0.13548646916E+04  0.12699999809E+01 0.  1.
       -4    1    3    3    0  502  0.13464503512E+04  0.15057590205E+03  0.10835396432E+04  0.17348375779E+04  0.12699999809E+01 0. -1.
</event>
<event>
 5   0  0.9950999E-07  0.2897230E+04  0.7818609E-02  0.8273702E-01
        2   -1    0    0  501    0  0.00000000000E+00  0.00000000000E+00  0.14912647925E+04  0.14912647925E+04  0.25500000920E-02 0. -1.
       -2   -1    0    0    0  501  0.00000000000E+00  0.00000000000E+00 -0.14071850716E+04  0.14071850716E+04  0.25500000920E-02 0.  1.
    10030    2    1    2    0    0  0.00000000000E+00  0.00000000000E+00  0.84079720992E+02  0.28984498641E+04  0.28972300936E+04 0.  0.
        3    1    3    3  502    0  0.17345254608E+03 -0.71163202539E+03 -0.12082781477E+04  0.14129550657E+04  0.10100000352E+00 0.  1.
       -3    1    3    3    0  502 -0.17345254608E+03  0.71163202539E+03  0.12923578686E+04  0.14854947984E+04  0.10100000352E+00 0. -1.
</event>
<event>
 5   0  0.9950999E-07  0.2897150E+04  0.7818609E-02  0.8273726E-01
       -2   -1    0    0    0  501  0.00000000000E+00  0.00000000000E+00  0.12282688488E+04  0.12282688488E+04  0.25500000920E-02 0. -1.
        2   -1    0    0  501    0  0.00000000000E+00  0.00000000000E+00 -0.17083960617E+04  0.17083960617E+04  0.25500000920E-02 0.  1.
    10030    2    1    2    0    0  0.00000000000E+00  0.00000000000E+00 -0.48012721290E+03  0.29366649104E+04  0.28971500920E+04 0.  0.
        3    1    3    3  502    0  0.89183371322E+03 -0.10147767693E+04  0.28978024618E+03  0.13817061427E+04  0.10100000352E+00 0. -1.
       -3    1    3    3    0  502 -0.89183371322E+03  0.10147767693E+04 -0.76990745908E+03  0.15549587677E+04  0.10100000352E+00 0.  1.
</event>
<event>
 5   0  0.1063979E-06  0.2901823E+04  0.7818609E-02  0.8272335E-01
       -2   -1    0    0    0  501  0.00000000000E+00  0.00000000000E+00  0.10459760954E+04  0.10459760955E+04  0.25500000920E-02 0. -1.
        2   -1    0    0  501    0  0.00000000000E+00  0.00000000000E+00 -0.20126125241E+04  0.20126125241E+04  0.25500000920E-02 0.  1.
    10030    2    1    2    0    0  0.00000000000E+00  0.00000000000E+00 -0.96663642870E+03  0.30585886196E+04  0.29018232818E+04 0.  0.
        1    1    3    3  502    0  0.12319592938E+04 -0.11496094011E+03 -0.12820179549E+04  0.17817153971E+04  0.50400001928E-02 0.  1.
       -1    1    3    3    0  502 -0.12319592938E+04  0.11496094011E+03  0.31538152622E+03  0.12768732225E+04  0.50400001928E-02 0. -1.
</event>
<event>
 5   0  0.3770467E-07  0.2903399E+04  0.7818609E-02  0.8271867E-01
       -1   -1    0    0    0  501  0.00000000000E+00  0.00000000000E+00  0.10423370047E+04  0.10423370047E+04  0.50400001928E-02 0.  1.
        1   -1    0    0  501    0  0.00000000000E+00  0.00000000000E+00 -0.20218331370E+04  0.20218331370E+04  0.50400001928E-02 0. -1.
    10030    2    1    2    0    0  0.00000000000E+00  0.00000000000E+00 -0.97949613236E+03  0.30641701417E+04  0.29033990397E+04 0.  0.
        1    1    3    3  502    0  0.42276716442E+03 -0.48893497607E+03  0.88209204476E+03  0.10935610918E+04  0.50400001928E-02 0.  1.
       -1    1    3    3    0  502 -0.42276716442E+03  0.48893497607E+03 -0.18615881771E+04  0.19706090498E+04  0.50400001928E-02 0. -1.
</event>
<event>
 5   0  0.9994311E-07  0.2908123E+04  0.7818609E-02  0.8270465E-01
       -2   -1    0    0    0  501  0.00000000000E+00  0.00000000000E+00  0.16297138768E+04  0.16297138768E+04  0.25500000920E-02 0.  1.
        2   -1    0    0  501    0  0.00000000000E+00  0.00000000000E+00 -0.12973408431E+04  0.12973408431E+04  0.25500000920E-02 0. -1.
    10030    2    1    2    0    0  0.00000000000E+00  0.00000000000E+00  0.33237303370E+03  0.29270547198E+04  0.29081226761E+04 0.  0.
        2    1    3    3  502    0  0.12490576810E+04  0.63267679869E+03 -0.22862897227E+03  0.14186952558E+04  0.25500000920E-02 0.  1.
       -2    1    3    3    0  502 -0.12490576810E+04 -0.63267679869E+03  0.56100200596E+03  0.15083594640E+04  0.25500000920E-02 0. -1.
</event>
<event>
 5   0  0.9950999E-07  0.2897372E+04  0.7818609E-02  0.8273660E-01
       -2   -1    0    0    0  501  0.00000000000E+00  0.00000000000E+00  0.75489221069E+03  0.75489221070E+03  0.25500000920E-02 0.  1.
        2   -1    0    0  501    0  0.00000000000E+00  0.00000000000E+00 -0.27801201414E+04  0.27801201414E+04  0.25500000920E-02 0. -1.
    10030    2    1    2    0    0  0.00000000000E+00  0.00000000000E+00 -0.20252279307E+04  0.35350123521E+04  0.28973719399E+04 0.  0.
        3    1    3    3  502    0 -0.81048939543E+03  0.10077841134E+04 -0.18090991282E+04  0.22238168866E+04  0.10100000352E+00 0. -1.
       -3    1    3    3    0  502  0.81048939543E+03 -0.10077841134E+04 -0.21612880254E+03  0.13111954655E+04  0.10100000352E+00 0.  1.
</event>
<event>
 5   0  0.3770467E-07  0.2908361E+04  0.7818609E-02  0.8270394E-01
       -1   -1    0    0    0  501  0.00000000000E+00  0.00000000000E+00  0.10874402747E+04  0.10874402747E+04  0.50400001928E-02 0. -1.
        1   -1    0    0  501    0  0.00000000000E+00  0.00000000000E+00 -0.19446038320E+04  0.19446038320E+04  0.50400001928E-02 0.  1.
    10030    2    1    2    0    0  0.00000000000E+00  0.00000000000E+00 -0.85716355729E+03  0.30320441068E+04  0.29083607241E+04 0.  0.
        1    1    3    3  502    0  0.10983726215E+04 -0.78559827762E+03 -0.99101844268E+03  0.16750237680E+04  0.50400001928E-02 0.  1.
       -1    1    3    3    0  502 -0.10983726215E+04  0.78559827762E+03  0.13385488539E+03  0.13570203388E+04  0.50400001928E-02 0. -1.
</event>
<event>
 5   0  0.1006893E-06  0.2893758E+04  0.7818609E-02  0.8274737E-01
       -2   -1    0    0    0  501  0.00000000000E+00  0.00000000000E+00  0.10348919745E+04  0.10348919745E+04  0.25500000920E-02 0.  1.
        2   -1    0    0  501    0  0.00000000000E+00  0.00000000000E+00 -0.20228766341E+04  0.20228766341E+04  0.25500000920E-02 0. -1.
    10030    2    1    2    0    0  0.00000000000E+00  0.00000000000E+00 -0.98798465954E+03  0.30577686086E+04  0.28937579678E+04 0.  0.
        4    1    3    3  502    0  0.61940398982E+03 -0.18374696600E+03 -0.18619847385E+04  0.19708914302E+04  0.12699999809E+01 0. -1.
       -4    1    3    3    0  502 -0.61940398982E+03  0.18374696600E+03  0.87400007898E+03  0.10868771785E+04  0.12699999809E+01 0.  1.
</event>
<event>
 5   0  0.3786210E-07  0.2904573E+04  0.7818609E-02  0.8271518E-01
        1   -1    0    0  501    0  0.00000000000E+00  0.00000000000E+00  0.19035199480E+04  0.19035199480E+04  0.50400001928E-02 0.  1.
       -1   -1    0    0    0  501  0.00000000000E+00  0.00000000000E+00 -0.11080192564E+04  0.11080192564E+04  0.50400001928E-02 0. -1.
    10030    2    1    2    0    0  0.00000000000E+00  0.00000000000E+00  0.79550069161E+03  0.30115392044E+04  0.29045734677E+04 0.  0.
        5    1    3    3  502    0 -0.27356102510E+03 -0.91988228862E+03  0.15278893152E+04  0.18042967907E+04  0.46999998093E+01 0.  1.
       -5    1    3    3    0  502  0.27356102510E+03  0.91988228862E+03 -0.73238862362E+03  0.12072424137E+04  0.46999998093E+01 0. -1.
</event>
<event>
 5   0  0.1031339E-06  0.2857602E+04  0.7818609E-02  0.8285605E-01
        2   -1    0    0  501    0  0.00000000000E+00  0.00000000000E+00  0.20920593847E+04  0.20920593847E+04  0.25500000920E-02 0. -1.
       -2   -1    0    0    0  501  0.00000000000E+00  0.00000000000E+00 -0.97581945304E+03  0.97581945304E+03  0.25500000920E-02 0.  1.
    10030    2    1    2    0    0  0.00000000000E+00  0.00000000000E+00  0.11162399317E+04  0.30678788377E+04  0.28576019628E+04 0.  0.
        5    1    3    3  502    0  0.58923184702E+02 -0.10027181108E+04  0.16490295961E+04  0.19308641201E+04  0.46999998093E+01 0. -1.
       -5    1    3    3    0  502 -0.58923184702E+02  0.10027181108E+04 -0.53278966448E+03  0.11370147176E+04  0.46999998093E+01 0.  1.
</event>
<event>
 5   0  0.1006893E-06  0.2893274E+04  0.7818609E-02  0.8274881E-01
       -2   -1    0    0    0  501  0.00000000000E+00  0.00000000000E+00  0.74415101172E+03  0.74415101173E+03  0.25500000920E-02 0. -1.
        2   -1    0    0  501    0  0.00000000000E+00  0.00000000000E+00 -0.28122767706E+04  0.28122767706E+04  0.25500000920E-02 0.  1.
    10030    2    1    2    0    0  0.00000000000E+00  0.00000000000E+00 -0.20681257588E+04  0.35564277823E+04  0.28932739961E+04 0.  0.
        4    1    3    3  502    0  0.98340101057E+03 -0.71985956532E+03 -0.76006620670E+02  0.12210872044E+04  0.12699999809E+01 0. -1.
       -4    1    3    3    0  502 -0.98340101057E+03  0.71985956532E+03 -0.19921191382E+04  0.23353405779E+04  0.12699999809E+01 0.  1.
</event>
<event>
 5   0  0.9950999E-07  0.2878768E+04  0.7818609E-02  0.8279223E-01
        2   -1    0    0  501    0  0.00000000000E+00  0.00000000000E+00  0.22111084345E+04  0.22111084345E+04  0.25500000920E-02 0. -1.
       -2   -1    0    0    0  501  0.00000000000E+00  0.00000000000E+00 -0.93700783421E+03  0.93700783422E+03  0.25500000920E-02 0.  1.
    10030    2    1    2    0    0  0.00000000000E+00  0.00000000000E+00  0.12741006003E+04  0.31481162688E+04  0.28787677402E+04 0.  0.
        3    1    3    3  502    0 -0.94473661097E+03 -0.55468770220E+03 -0.38390747467E+03  0.11608577305E+04  0.10100000352E+00 0.  1.
       -3    1    3    3    0  502  0.94473661097E+03  0.55468770220E+03  0.16580080750E+04  0.19872585383E+04  0.10100000352E+00 0. -1.
</event>
<event>
 5   0  0.9950999E-07  0.2900334E+04  0.7818609E-02  0.8272778E-01
       -2   -1    0    0    0  501  0.00000000000E+00  0.00000000000E+00  0.22450586686E+04  0.22450586686E+04  0.25500000920E-02 0.  1.
        2   -1    0    0  501    0  0.00000000000E+00  0.00000000000E+00 -0.93671711553E+03  0.93671711554E+03  0.25500000920E-02 0. -1.
    10030    2    1    2    0    0  0.00000000000E+00  0.00000000000E+00  0.13083415530E+04  0.31817757841E+04  0.29003343809E+04 0.  0.
        3    1    3    3  502    0  0.12468472820E+04 -0.21257775968E+03 -0.12400509081E+03  0.12709031125E+04  0.10100000352E+00 0. -1.
       -3    1    3    3    0  502 -0.12468472820E+04  0.21257775968E+03  0.14323466438E+04  0.19108726716E+04  0.10100000352E+00 0.  1.
</event>
<event>
 5   0  0.9994311E-07  0.2901220E+04  0.7818609E-02  0.8272514E-01
       -2   -1    0    0    0  501  0.00000000000E+00  0.00000000000E+00  0.86956972730E+03  0.86956972730E+03  0.25500000920E-02 0. -1.
        2   -1    0    0  501    0  0.00000000000E+00  0.00000000000E+00 -0.24198977147E+04  0.24198977147E+04  0.25500000920E-02 0.  1.
    10030    2    1    2    0    0  0.00000000000E+00  0.00000000000E+00 -0.15503279874E+04  0.32894674420E+04  0.29012202921E+04 0.  0.
        2    1    3    3  502    0 -0.35747376537E+03 -0.68306459993E+03 -0.21683840104E+04  0.23013591543E+04  0.25500000920E-02 0.  1.
       -2    1    3    3    0  502  0.35747376537E+03  0.68306459993E+03  0.61805602300E+03  0.98810828768E+03  0.25500000920E-02 0. -1.
</event>
<event>
 5   0  0.9950999E-07  0.2901621E+04  0.7818609E-02  0.8272395E-01
       -2   -1    0    0    0  501  0.00000000000E+00  0.00000000000E+00  0.14973880787E+04  0.14973880787E+04  0.25500000920E-02 0. -1.
        2   -1    0    0  501    0  0.00000000000E+00  0.00000000000E+00 -0.14056817320E+04  0.14056817320E+04  0.25500000920E-02 0.  1.
    10030    2    1    2    0    0  0.00000000000E+00  0.00000000000E+00  0.91706346677E+02  0.29030698107E+04  0.29016209732E+04 0.  0.
        3    1    3    3  502    0  0.68469217303E+03  0.91493078942E+03 -0.84843279804E+03  0.14232849132E+04  0.10100000352E+00 0.  1.
       -3    1    3    3    0  502 -0.68469217303E+03 -0.91493078942E+03  0.94013914472E+03  0.14797848975E+04  0.10100000352E+00 0. -1.
</event>
<event>
 5   0  0.3786210E-07  0.2896394E+04  0.7818609E-02  0.8273951E-01
        1   -1    0    0  501    0  0.00000000000E+00  0.00000000000E+00  0.16350582102E+04  0.16350582102E+04  0.50400001928E-02 0.  1.
       -1   -1    0    0    0  501  0.00000000000E+00  0.00000000000E+00 -0.12826911226E+04  0.12826911226E+04  0.50400001928E-02 0. -1.
    10030    2    1    2    0    0  0.00000000000E+00  0.00000000000E+00  0.35236708759E+03  0.29177493329E+04  0.28963940694E+04 0.  0.
        5    1    3    3  502    0 -0.73826326442E+03 -0.38780240365E+03 -0.10165347525E+04  0.13148339609E+04  0.46999998093E+01 0. -1.
       -5    1    3    3    0  502  0.73826326442E+03  0.38780240365E+03  0.13689018400E+04  0.16029153719E+04  0.46999998093E+01 0.  1.
</event>
<event>
 5   0  0.1063979E-06  0.2897516E+04  0.7818609E-02  0.8273617E-01
       -2   -1    0    0    0  501  0.00000000000E+00  0.00000000000E+00  0.17299450178E+04  0.17299450178E+04  0.25500000920E-02 0. -1.
        2   -1    0    0  501    0  0.00000000000E+00  0.00000000000E+00 -0.12132756834E+04  0.12132756834E+04  0.25500000920E-02 0.  1.
    10030    2    1    2    0    0  0.00000000000E+00  0.00000000000E+00  0.51666933435E+03  0.29432207012E+04  0.28975163321E+04 0.  0.
        1    1    3    3  502    0  0.86896260097E+02  0.46155655506E+02 -0.12098778147E+04  0.12138721642E+04  0.50400001928E-02 0.  1.
       -1    1    3    3    0  502 -0.86896260097E+02 -0.46155655506E+02  0.17265471490E+04  0.17293485370E+04  0.50400001928E-02 0. -1.
</event>
<event>
 5   0  0.3769563E-07  0.2870070E+04  0.7818609E-02  0.8281839E-01
       -1   -1    0    0    0  501  0.00000000000E+00  0.00000000000E+00  0.63439373197E+03  0.63439373199E+03  0.50400001928E-02 0. -1.
        1   -1    0    0  501    0  0.00000000000E+00  0.00000000000E+00 -0.32461321637E+04  0.32461321637E+04  0.50400001928E-02 0.  1.
    10030    2    1    2    0    0  0.00000000000E+00  0.00000000000E+00 -0.26117384317E+04  0.38805258957E+04  0.28700703112E+04 0.  0.
        3    1    3    3  502    0  0.16898044685E+03 -0.14229745860E+04 -0.12018846316E+04  0.18702774504E+04  0.10100000352E+00 0. -1.
       -3    1    3    3    0  502 -0.16898044685E+03  0.14229745860E+04 -0.14098538001E+04  0.20102484452E+04  0.10100000352E+00 0.  1.
</event>
<event>
 5   0  0.1006893E-06  0.2866524E+04  0.7818609E-02  0.8282908E-01
       -2   -1    0    0    0  501  0.00000000000E+00  0.00000000000E+00  0.14969996367E+04  0.14969996367E+04  0.25500000920E-02 0. -1.
        2   -1    0    0  501    0  0.00000000000E+00  0.00000000000E+00 -0.13722377691E+04  0.13722377691E+04  0.25500000920E-02 0.  1.
    10030    2    1    2    0    0  0.00000000000E+00  0.00000000000E+00  0.12476186762E+03  0.28692374058E+04  0.28665236380E+04 0.  0.
        4    1    3    3  502    0 -0.37672416417E+02  0.10803876388E+04  0.10043250614E+04  0.14755768712E+04  0.12699999809E+01 0. -1.
       -4    1    3    3    0  502  0.37672416417E+02 -0.10803876388E+04 -0.87956319375E+03  0.13936605346E+04  0.12699999809E+01 0.  1.
</event>
<event>
 5   0  0.1006893E-06  0.2899556E+04  0.7818609E-02  0.8273010E-01
        2   -1    0    0  501    0  0.00000000000E+00  0.00000000000E+00  0.11613248910E+04  0.11613248910E+04  0.25500000920E-02 0.  1.
       -2   -1    0    0    0  501  0.00000000000E+00  0.00000000000E+00 -0.18098774304E+04  0.18098774304E+04  0.25500000920E-02 0. -1.
    10030    2    1    2    0    0  0.00000000000E+00  0.00000000000E+00 -0.64855253943E+03  0.29712023214E+04  0.28995556277E+04 0.  0.
        4    1    3    3  502    0 -0.90430280012E+03  0.64224524904E+03  0.63239399855E+03  0.12767796586E+04  0.12699999809E+01 0.  1.
       -4    1    3    3    0  502  0.90430280012E+03 -0.64224524904E+03 -0.12809465380E+04  0.16944226628E+04  0.12699999809E+01 0. -1.
</event>
<event>
 5   0  0.3378750E-07  0.2898200E+04  0.7818609E-02  0.8273413E-01
        3   -1    0    0  501    0  0.00000000000E+00  0.00000000000E+00  0.83483067089E+03  0.83483067700E+03  0.10100000352E+00 0. -1.
       -3   -1    0    0    0  501  0.00000000000E+00  0.00000000000E+00 -0.25153492404E+04  0.25153492424E+04  0.10100000352E+00 0.  1.
    10030    2    1    2    0    0  0.00000000000E+00  0.00000000000E+00 -0.16805185695E+04  0.33501799194E+04  0.28981999293E+04 0.  0.
        5    1    3    3  502    0 -0.83982078395E+03 -0.23886831016E+02 -0.22050656347E+04  0.23597046580E+04  0.46999998093E+01 0.  1.
       -5    1    3    3    0  502  0.83982078395E+03  0.23886831016E+02  0.52454706518E+03  0.99047526140E+03  0.46999998093E+01 0. -1.
</event>
<event>
 5   0  0.1006893E-06  0.2924606E+04  0.7818609E-02  0.8265594E-01
       -2   -1    0    0    0  501  0.00000000000E+00  0.00000000000E+00  0.13281554813E+04  0.13281554813E+04  0.25500000920E-02 0.  1.
        2   -1    0    0  501    0  0.00000000000E+00  0.00000000000E+00 -0.16099999878E+04  0.16099999878E+04  0.25500000920E-02 0. -1.
    10030    2    1    2    0    0  0.00000000000E+00  0.00000000000E+00 -0.28184450648E+03  0.29381554691E+04  0.29246061674E+04 0.  0.
        4    1    3    3  502    0 -0.45653648255E+02  0.13113058730E+04 -0.78945252871E+03  0.15312884301E+04  0.12699999809E+01 0. -1.
       -4    1    3    3    0  502  0.45653648255E+02 -0.13113058730E+04  0.50760802223E+03  0.14068670390E+04  0.12699999809E+01 0.  1.
</event>
<event>
 5   0  0.1063979E-06  0.2906218E+04  0.7818609E-02  0.8271030E-01
       -2   -1    0    0    0  501  0.00000000000E+00  0.00000000000E+00  0.16335576587E+04  0.16335576587E+04  0.25500000920E-02 0. -1.
        2   -1    0    0  501    0  0.00000000000E+00  0.00000000000E+00 -0.12925934930E+04  0.12925934930E+04  0.25500000920E-02 0.  1.
    10030    2    1    2    0    0  0.00000000000E+00  0.00000000000E+00  0.34096416566E+03  0.29261511517E+04  0.29062181611E+04 0.  0.
        1    1    3    3  502    0 -0.13397024812E+03  0.14421055362E+04  0.28922994170E+03  0.14769124429E+04  0.50400001928E-02 0.  1.
       -1    1    3    3    0  502  0.13397024812E+03 -0.14421055362E+04  0.51734223955E+02  0.14492387087E+04  0.50400001928E-02 0. -1.
</event>
<event>
 5   0  0.3638028E-07  0.2897367E+04  0.7818609E-02  0.8273661E-01
       -1   -1    0    0    0  501  0.00000000000E+00  0.00000000000E+00  0.11859314453E+04  0.11859314453E+04  0.50400001928E-02 0. -1.
        1   -1    0    0  501    0  0.00000000000E+00  0.00000000000E+00 -0.17696507714E+04  0.17696507714E+04  0.50400001928E-02 0.  1.
    10030    2    1    2    0    0  0.00000000000E+00  0.00000000000E+00 -0.58371932609E+03  0.29555822168E+04  0.28973674238E+04 0.  0.
        4    1    3    3  502    0 -0.56362699044E+03  0.87984295460E+03 -0.13154570413E+04  0.16799487640E+04  0.12699999809E+01 0.  1.
       -4    1    3    3    0  502  0.56362699044E+03 -0.87984295460E+03  0.73173771522E+03  0.12756334528E+04  0.12699999809E+01 0. -1.
</event>
<event>
 5   0  0.3786210E-07  0.2900845E+04  0.7818609E-02  0.8272626E-01
        1   -1    0    0  501    0  0.00000000000E+00  0.00000000000E+00  0.14078239954E+04  0.14078239954E+04  0.50400001928E-02 0.  1.
       -1   -1    0    0    0  501  0.00000000000E+00  0.00000000000E+00 -0.14943099665E+04  0.14943099666E+04  0.50400001928E-02 0. -1.
    10030    2    1    2    0    0  0.00000000000E+00  0.00000000000E+00 -0.86485971184E+02  0.29021339619E+04  0.29008449993E+04 0.  0.
        5    1    3    3  502    0 -0.95178703151E+02 -0.11487205635E+04 -0.92402353463E+03  0.14773149634E+04  0.46999998093E+01 0. -1.
       -5    1    3    3    0  502  0.95178703151E+02  0.11487205635E+04  0.83753756344E+03  0.14248189985E+04  0.46999998093E+01 0.  1.
</event>
<event>
 5   0  0.1006893E-06  0.2926896E+04  0.7818609E-02  0.8264920E-01
       -2   -1    0    0    0  501  0.00000000000E+00  0.00000000000E+00  0.15497697898E+04  0.15497697898E+04  0.25500000920E-02 0.  1.
        2   -1    0    0  501    0  0.00000000000E+00  0.00000000000E+00 -0.13819340409E+04  0.13819340409E+04  0.25500000920E-02 0. -1.
    10030    2    1    2    0    0  0.00000000000E+00  0.00000000000E+00  0.16783574882E+03  0.29317038307E+04  0.29268957126E+04 0.  0.
        4    1    3    3  502    0  0.75956152804E+02 -0.11255140987E+04 -0.84988324422E+03  0.14123931695E+04  0.12699999809E+01 0. -1.
       -4    1    3    3    0  502 -0.75956152804E+02  0.11255140987E+04  0.10177189930E+04  0.15193106612E+04  0.12699999809E+01 0.  1.
</event>
<event>
 5   0  0.1063979E-06  0.2899796E+04  0.7818609E-02  0.8272938E-01
        2   -1    0    0  501    0  0.00000000000E+00  0.00000000000E+00  0.15341803295E+04  0.15341803295E+04  0.25500000920E-02 0. -1.
       -2   -1    0    0    0  501  0.00000000000E+00  0.00000000000E+00 -0.13702457528E+04  0.13702457528E+04  0.25500000920E-02 0.  1.
    10030    2    1    2    0    0  0.00000000000E+00  0.00000000000E+00  0.16393457672E+03  0.29044260822E+04  0.28997959104E+04 0.  0.
        1    1    3    3  502    0  0.24986631360E+03 -0.38398100122E+03 -0.12958488730E+04  0.13744449373E+04  0.50400001928E-02 0.  1.
       -1    1    3    3    0  502 -0.24986631360E+03  0.38398100122E+03  0.14597834497E+04  0.15299811450E+04  0.50400001928E-02 0. -1.
</event>
<event>
 5   0  0.9994311E-07  0.2903907E+04  0.7818609E-02  0.8271716E-01
        2   -1    0    0  501    0  0.00000000000E+00  0.00000000000E+00  0.14749075787E+04  0.14749075787E+04  0.25500000920E-02 0. -1.
       -2   -1    0    0    0  501  0.00000000000E+00  0.00000000000E+00 -0.14293568246E+04  0.14293568246E+04  0.25500000920E-02 0.  1.
    10030    2    1    2    0    0  0.00000000000E+00  0.00000000000E+00  0.45550754153E+02  0.29042644033E+04  0.29039071701E+04 0.  0.
        2    1    3    3  502    0 -0.67656191772E+03 -0.57325729464E+03 -0.11270656953E+04  0.14340979869E+04  0.25500000920E-02 0.  1.
       -2    1    3    3    0  502  0.67656191772E+03  0.57325729464E+03  0.11726164495E+04  0.14701664164E+04  0.25500000920E-02 0. -1.
</event>
<event>
 5   0  0.1031339E-06  0.2894805E+04  0.7818609E-02  0.8274425E-01
       -2   -1    0    0    0  501  0.00000000000E+00  0.00000000000E+00  0.13562620822E+04  0.13562620822E+04  0.25500000920E-02 0. -1.
        2   -1    0    0  501    0  0.00000000000E+00  0.00000000000E+00 -0.15446674258E+04  0.15446674258E+04  0.25500000920E-02 0.  1.
    10030    2    1    2    0    0  0.00000000000E+00  0.00000000000E+00 -0.18840534359E+03  0.29009295080E+04  0.28948049048E+04 0.  0.
        5    1    3    3  502    0  0.31873913507E+03  0.90853527081E+03 -0.11771929833E+04  0.15208012311E+04  0.46999998093E+01 0.  1.
       -5    1    3    3    0  502 -0.31873913507E+03 -0.90853527081E+03  0.98878763967E+03  0.13801282770E+04  0.46999998093E+01 0. -1.
</event>
<event>
 5   0  0.9994311E-07  0.2901372E+04  0.7818609E-02  0.8272470E-01
       -2   -1    0    0    0  501  0.00000000000E+00  0.00000000000E+00  0.13066911661E+04  0.13066911661E+04  0.25500000920E-02 0.  1.
        2   -1    0    0  501    0  0.00000000000E+00  0.00000000000E+00 -0.16105482453E+04  0.16105482453E+04  0.25500000920E-02 0. -1.
    10030    2    1    2    0    0  0.00000000000E+00  0.00000000000E+00 -0.30385707918E+03  0.29172394114E+04  0.29013715135E+04 0.  0.
        2    1    3    3  502    0 -0.11580564265E+04 -0.36480315241E+03 -0.95019321084E+03  0.15417662485E+04  0.25500000920E-02 0. -1.
       -2    1    3    3    0  502  0.11580564265E+04  0.36480315241E+03  0.64633613165E+03  0.13754731630E+04  0.25500000920E-02 0.  1.
</event>
<event>
 5   0  0.3769563E-07  0.2891707E+04  0.7818609E-02  0.8275349E-01
       -1   -1    0    0    0  501  0.00000000000E+00  0.00000000000E+00  0.10504156987E+04  0.10504156987E+04  0.50400001928E-02 0.  1.
        1   -1    0    0  501    0  0.00000000000E+00  0.00000000000E+00 -0.19901573623E+04  0.19901573623E+04  0.50400001928E-02 0. -1.
    10030    2    1    2    0    0  0.00000000000E+00  0.00000000000E+00 -0.93974166356E+03  0.30405730610E+04  0.28917071333E+04 0.  0.
        3    1    3    3  502    0  0.12044779894E+04  0.50786293321E+03 -0.11195806150E+04  0.17210905698E+04  0.10100000352E+00 0. -1.
       -3    1    3    3    0  502 -0.12044779894E+04 -0.50786293321E+03  0.17983895144E+03  0.13194824912E+04  0.10100000352E+00 0.  1.
</event>
<event>
 5   0  0.1063979E-06  0.2904306E+04  0.7818609E-02  0.8271597E-01
        2   -1    0    0  501    0  0.00000000000E+00  0.00000000000E+00  0.18027358818E+04  0.18027358818E+04  0.25500000920E-02 0. -1.
       -2   -1    0    0    0  501  0.00000000000E+00  0.00000000000E+00 -0.11697488527E+04  0.11697488527E+04  0.25500000920E-02 0.  1.
    10030    2    1    2    0    0  0.00000000000E+00  0.00000000000E+00  0.63298702912E+03  0.29724847345E+04  0.29043059270E+04 0.  0.
        1    1    3    3  502    0 -0.10883088891E+03  0.11216342188E+04  0.12538764232E+04  0.16858569239E+04  0.50400001928E-02 0. -1.
       -1    1    3    3    0  502  0.10883088891E+03 -0.11216342188E+04 -0.62088939409E+03  0.12866278106E+04  0.50400001928E-02 0.  1.
</event>
<event>
 5   0  0.3885904E-07  0.2899722E+04  0.7818609E-02  0.8272960E-01
        1   -1    0    0  501    0  0.00000000000E+00  0.00000000000E+00  0.11933919170E+04  0.11933919170E+04  0.50400001928E-02 0. -1.
       -1   -1    0    0    0  501  0.00000000000E+00  0.00000000000E+00 -0.17614470441E+04  0.17614470441E+04  0.50400001928E-02 0.  1.
    10030    2    1    2    0    0  0.00000000000E+00  0.00000000000E+00 -0.56805512706E+03  0.29548389611E+04  0.28997218243E+04 0.  0.
        2    1    3    3  502    0 -0.10196215012E+04 -0.79342199247E+03  0.38646883931E+03  0.13485194206E+04  0.25500000920E-02 0. -1.
       -2    1    3    3    0  502  0.10196215012E+04  0.79342199247E+03 -0.95452396637E+03  0.16063195405E+04  0.25500000920E-02 0.  1.
</event>
<event>
 5   0  0.3638028E-07  0.2902504E+04  0.7818609E-02  0.8272133E-01
        1   -1    0    0  501    0  0.00000000000E+00  0.00000000000E+00  0.20570383421E+04  0.20570383421E+04  0.50400001928E-02 0.  1.
       -1   -1    0    0    0  501  0.00000000000E+00  0.00000000000E+00 -0.10238663515E+04  0.10238663515E+04  0.50400001928E-02 0. -1.
    10030    2    1    2    0    0  0.00000000000E+00  0.00000000000E+00  0.10331719906E+04  0.30809046936E+04  0.29025039826E+04 0.  0.
        4    1    3    3  502    0 -0.25613388671E+03  0.13876666615E+04  0.87640113641E+03  0.16611152568E+04  0.12699999809E+01 0.  1.
       -4    1    3    3    0  502  0.25613388671E+03 -0.13876666615E+04  0.15677085420E+03  0.14197894369E+04  0.12699999809E+01 0. -1.
</event>
<event>
 5   0  0.9950999E-07  0.2899398E+04  0.7818609E-02  0.8273057E-01
       -2   -1    0    0    0  501  0.00000000000E+00  0.00000000000E+00  0.86040848482E+03  0.86040848482E+03  0.25500000920E-02 0. -1.
        2   -1    0    0  501    0  0.00000000000E+00  0.00000000000E+00 -0.24425924473E+04  0.24425924473E+04  0.25500000920E-02 0.  1.
    10030    2    1    2    0    0  0.00000000000E+00  0.00000000000E+00 -0.15821839624E+04  0.33030009321E+04  0.28993980524E+04 0.  0.
        3    1    3    3  502    0  0.11690066269E+04 -0.52620220314E+03 -0.15621914221E+04  0.20208679576E+04  0.10100000352E+00 0.  1.
       -3    1    3    3    0  502 -0.11690066269E+04  0.52620220314E+03 -0.19992540302E+02  0.12821329745E+04  0.10100000352E+00 0. -1.
</event>
<event>
 5   0  0.1031339E-06  0.2907314E+04  0.7818609E-02  0.8270705E-01
       -2   -1    0    0    0  501  0.00000000000E+00  0.00000000000E+00  0.11625741678E+04  0.11625741678E+04  0.25500000920E-02 0. -1.
        2   -1    0    0  501    0  0.00000000000E+00  0.00000000000E+00 -0.18176200838E+04  0.18176200838E+04  0.25500000920E-02 0.  1.
    10030    2    1    2    0    0  0.00000000000E+00  0.00000000000E+00 -0.65504591605E+03  0.29801942516E+04  0.29073136441E+04 0.  0.
        5    1    3    3  502    0  0.70044863547E+02 -0.75186487884E+03 -0.16007915485E+04  0.17699612285E+04  0.46999998093E+01 0.  1.
       -5    1    3    3    0  502 -0.70044863547E+02  0.75186487884E+03  0.94574563240E+03  0.12102330231E+04  0.46999998093E+01 0. -1.
</event>
<event>
 5   0  0.3378750E-07  0.2901179E+04  0.7818609E-02  0.8272527E-01
        3   -1    0    0  501    0  0.00000000000E+00  0.00000000000E+00  0.17926973098E+04  0.17926973126E+04  0.10100000352E+00 0. -1.
       -3   -1    0    0    0  501  0.00000000000E+00  0.00000000000E+00 -0.11737674288E+04  0.11737674332E+04  0.10100000352E+00 0.  1.
    10030    2    1    2    0    0  0.00000000000E+00  0.00000000000E+00  0.61892988093E+03  0.29664647458E+04  0.29011788794E+04 0.  0.
        5    1    3    3  502    0 -0.73310835813E+03 -0.83462784928E+03 -0.64433717871E+03  0.12842289521E+04  0.46999998093E+01 0.  1.
       -5    1    3    3    0  502  0.73310835813E+03  0.83462784928E+03  0.12632670596E+04  0.16822357937E+04  0.46999998093E+01 0. -1.
</event>
<event>
 5   0  0.1031339E-06  0.2899600E+04  0.7818609E-02  0.8272997E-01
       -2   -1    0    0    0  501  0.00000000000E+00  0.00000000000E+00  0.17219841443E+04  0.17219841443E+04  0.25500000920E-02 0.  1.
        2   -1    0    0  501    0  0.00000000000E+00  0.00000000000E+00 -0.12206381258E+04  0.12206381258E+04  0.25500000920E-02 0. -1.
    10030    2    1    2    0    0  0.00000000000E+00  0.00000000000E+00  0.50134601853E+03  0.29426222701E+04  0.28995996265E+04 0.  0.
        5    1    3    3  502    0 -0.57249572066E+03 -0.62504472085E+03  0.14443328833E+04  0.16746796174E+04  0.46999998093E+01 0.  1.
       -5    1    3    3    0  502  0.57249572066E+03  0.62504472085E+03 -0.94298686477E+03  0.12679426526E+04  0.46999998093E+01 0. -1.
</event>
<event>
 5   0  0.1063979E-06  0.2896260E+04  0.7818609E-02  0.8273991E-01
       -2   -1    0    0    0  501  0.00000000000E+00  0.00000000000E+00  0.86829474972E+03  0.86829474972E+03  0.25500000920E-02 0. -1.
        2   -1    0    0  501    0  0.00000000000E+00  0.00000000000E+00 -0.24151704774E+04  0.24151704774E+04  0.25500000920E-02 0.  1.
    10030    2    1    2    0    0  0.00000000000E+00  0.00000000000E+00 -0.15468757277E+04  0.32834652271E+04  0.28962595500E+04 0.  0.
        1    1    3    3  502    0  0.28376359165E+02  0.12879395387E+04 -0.23583009850E+02  0.12884679396E+04  0.50400001928E-02 0. -1.
       -1    1    3    3    0  502 -0.28376359165E+02 -0.12879395387E+04 -0.15232927179E+04  0.19949972875E+04  0.50400001928E-02 0.  1.
</event>
<event>
 5   0  0.3638028E-07  0.2871036E+04  0.7818609E-02  0.8281548E-01
        1   -1    0    0  501    0  0.00000000000E+00  0.00000000000E+00  0.16934727662E+04  0.16934727662E+04  0.50400001928E-02 0. -1.
       -1   -1    0    0    0  501  0.00000000000E+00  0.00000000000E+00 -0.12168557368E+04  0.12168557368E+04  0.50400001928E-02 0.  1.
    10030    2    1    2    0    0  0.00000000000E+00  0.00000000000E+00  0.47661702945E+03  0.29103285030E+04  0.28710360852E+04 0.  0.
        4    1    3    3  502    0  0.11892478574E+04  0.25049716466E+03  0.10127347041E+04  0.15819900409E+04  0.12699999809E+01 0. -1.
       -4    1    3    3    0  502 -0.11892478574E+04 -0.25049716466E+03 -0.53611767467E+03  0.13283384621E+04  0.12699999809E+01 0.  1.
</event>
<event>
 5   0  0.3786210E-07  0.2901807E+04  0.7818609E-02  0.8272340E-01
        1   -1    0    0  501    0  0.00000000000E+00  0.00000000000E+00  0.11918872496E+04  0.11918872496E+04  0.50400001928E-02 0.  1.
       -1   -1    0    0    0  501  0.00000000000E+00  0.00000000000E+00 -0.17662077827E+04  0.17662077828E+04  0.50400001928E-02 0. -1.
    10030    2    1    2    0    0  0.00000000000E+00  0.00000000000E+00 -0.57432053313E+03  0.29580950324E+04  0.29018067037E+04 0.  0.
        5    1    3    3  502    0 -0.32007204524E+03  0.81929830911E+03 -0.14634067686E+04  0.17074183125E+04  0.46999998093E+01 0. -1.
       -5    1    3    3    0  502  0.32007204524E+03 -0.81929830911E+03  0.88908623551E+03  0.12506767199E+04  0.46999998093E+01 0.  1.
</event>
<event>
 5   0  0.1031339E-06  0.2895753E+04  0.7818609E-02  0.8274142E-01
        2   -1    0    0  501    0  0.00000000000E+00  0.00000000000E+00  0.22767723940E+04  0.22767723940E+04  0.25500000920E-02 0.  1.
       -2   -1    0    0    0  501  0.00000000000E+00  0.00000000000E+00 -0.92075374946E+03  0.92075374946E+03  0.25500000920E-02 0. -1.
    10030    2    1    2    0    0  0.00000000000E+00  0.00000000000E+00  0.13560186445E+04  0.31975261434E+04  0.28957532481E+04 0.  0.
        5    1    3    3  502    0 -0.52686253511E+03 -0.10834851633E+02 -0.81109081572E+03  0.96726000964E+03  0.46999998093E+01 0. -1.
       -5    1    3    3    0  502  0.52686253511E+03  0.10834851633E+02  0.21671094602E+04  0.22302661338E+04  0.46999998093E+01 0.  1.
</event>
<event>
 5   0  0.9994311E-07  0.2900168E+04  0.7818609E-02  0.8272827E-01
       -2   -1    0    0    0  501  0.00000000000E+00  0.00000000000E+00  0.22011536525E+04  0.22011536525E+04  0.25500000920E-02 0.  1.
        2   -1    0    0  501    0  0.00000000000E+00  0.00000000000E+00 -0.95529185731E+03  0.95529185732E+03  0.25500000920E-02 0. -1.
    10030    2    1    2    0    0  0.00000000000E+00  0.00000000000E+00  0.12458617952E+04  0.31564455098E+04  0.29001683820E+04 0.  0.
        2    1    3    3  502    0 -0.41255054168E+03  0.14180786739E+03  0.21280422178E+04  0.21722962738E+04  0.25500000920E-02 0.  1.
       -2    1    3    3    0  502  0.41255054168E+03 -0.14180786739E+03 -0.88218042258E+03  0.98414923598E+03  0.25500000920E-02 0. -1.
</event>
<event>
 5   0  0.9950999E-07  0.2901972E+04  0.7818609E-02  0.8272291E-01
       -2   -1    0    0    0  501  0.00000000000E+00  0.00000000000E+00  0.12139351726E+04  0.12139351726E+04  0.25500000920E-02 0.  1.
        2   -1    0    0  501    0  0.00000000000E+00  0.00000000000E+00 -0.17343263262E+04  0.17343263262E+04  0.25500000920E-02 0. -1.
    10030    2    1    2    0    0  0.00000000000E+00  0.00000000000E+00 -0.52039115366E+03  0.29482614988E+04  0.29019715561E+04 0.  0.
        3    1    3    3  502    0 -0.48882155071E+03 -0.91359307195E+03  0.77176328364E+03  0.12919819603E+04  0.10100000352E+00 0.  1.
       -3    1    3    3    0  502  0.48882155071E+03  0.91359307195E+03 -0.12921544373E+04  0.16562795385E+04  0.10100000352E+00 0. -1.
</event>
<event>
 5   0  0.3770467E-07  0.2900161E+04  0.7818609E-02  0.8272829E-01
        1   -1    0    0  501    0  0.00000000000E+00  0.00000000000E+00  0.11128836128E+04  0.11128836128E+04  0.50400001928E-02 0.  1.
       -1   -1    0    0    0  501  0.00000000000E+00  0.00000000000E+00 -0.18894464151E+04  0.18894464151E+04  0.50400001928E-02 0. -1.
    10030    2    1    2    0    0  0.00000000000E+00  0.00000000000E+00 -0.77656280228E+03  0.30023300279E+04  0.29001613421E+04 0.  0.
        1    1    3    3  502    0  0.87958408643E+03 -0.10345030253E+04 -0.91499742035E+03  0.16374018913E+04  0.50400001928E-02 0.  1.
       -1    1    3    3    0  502 -0.87958408643E+03  0.10345030253E+04  0.13843461807E+03  0.13649281365E+04  0.50400001928E-02 0. -1.
</event>
<event>
 5   0  0.9950999E-07  0.2892187E+04  0.7818609E-02  0.8275206E-01
       -2   -1    0    0    0  501  0.00000000000E+00  0.00000000000E+00  0.15076270072E+04  0.15076270072E+04  0.25500000920E-02 0.  1.
        2   -1    0    0  501    0  0.00000000000E+00  0.00000000000E+00 -0.13870717846E+04  0.13870717846E+04  0.25500000920E-02 0. -1.
    10030    2    1    2    0    0  0.00000000000E+00  0.00000000000E+00  0.12055522261E+03  0.28946987918E+04  0.28921873268E+04 0.  0.
        3    1    3    3  502    0  0.37759244317E+03  0.12315630333E+04 -0.59745612497E+03  0.14199568267E+04  0.10100000352E+00 0. -1.
       -3    1    3    3    0  502 -0.37759244317E+03 -0.12315630333E+04  0.71801134759E+03  0.14747419651E+04  0.10100000352E+00 0.  1.
</event>
<event>
 5   0  0.1031339E-06  0.2893570E+04  0.7818609E-02  0.8274793E-01
        2   -1    0    0  501    0  0.00000000000E+00  0.00000000000E+00  0.13447721113E+04  0.13447721113E+04  0.25500000920E-02 0.  1.
       -2   -1    0    0    0  501  0.00000000000E+00  0.00000000000E+00 -0.15565366353E+04  0.15565366353E+04  0.25500000920E-02 0. -1.
    10030    2    1    2    0    0  0.00000000000E+00  0.00000000000E+00 -0.21176452398E+03  0.29013087466E+04  0.28935701529E+04 0.  0.
        5    1    3    3  502    0  0.29780011741E+03  0.58748090427E+03  0.11857189374E+04  0.13563812928E+04  0.46999998093E+01 0.  1.
       -5    1    3    3    0  502 -0.29780011741E+03 -0.58748090427E+03 -0.13974834614E+04  0.15449274539E+04  0.46999998093E+01 0. -1.
</event>
<event>
 5   0  0.3770467E-07  0.2897234E+04  0.7818609E-02  0.8273701E-01
        1   -1    0    0  501    0  0.00000000000E+00  0.00000000000E+00  0.16853515507E+04  0.16853515507E+04  0.50400001928E-02 0. -1.
       -1   -1    0    0    0  501  0.00000000000E+00  0.00000000000E+00 -0.12451354865E+04  0.12451354866E+04  0.50400001928E-02 0.  1.
    10030    2    1    2    0    0  0.00000000000E+00  0.00000000000E+00  0.44021606411E+03  0.29304870372E+04  0.28972338691E+04 0.  0.
        1    1    3    3  502    0  0.70685104815E+03 -0.11214223763E+04 -0.37077536943E+03  0.13764813565E+04  0.50400001928E-02 0.  1.
       -1    1    3    3    0  502 -0.70685104815E+03  0.11214223763E+04  0.81099143355E+03  0.15540056807E+04  0.50400001928E-02 0. -1.
</event>
<event>
 5   0  0.3885904E-07  0.2901550E+04  0.7818609E-02  0.8272417E-01
       -1   -1    0    0    0  501  0.00000000000E+00  0.00000000000E+00  0.14732193765E+04  0.14732193765E+04  0.50400001928E-02 0.  1.
        1   -1    0    0  501    0  0.00000000000E+00  0.00000000000E+00 -0.14286723295E+04  0.14286723295E+04  0.50400001928E-02 0. -1.
    10030    2    1    2    0    0  0.00000000000E+00  0.00000000000E+00  0.44547047067E+02  0.29018917060E+04  0.29015497642E+04 0.  0.
        2    1    3    3  502    0  0.69877557406E+03  0.12506242723E+04 -0.20666257289E+03  0.14474314465E+04  0.25500000920E-02 0. -1.
       -2    1    3    3    0  502 -0.69877557406E+03 -0.12506242723E+04  0.25120961996E+03  0.14544602595E+04  0.25500000920E-02 0.  1.
</event>
<event>
 5   0  0.1006893E-06  0.2895806E+04  0.7818609E-02  0.8274127E-01
        2   -1    0    0  501    0  0.00000000000E+00  0.00000000000E+00  0.17557494268E+04  0.17557494268E+04  0.25500000920E-02 0.  1.
       -2   -1    0    0    0  501  0.00000000000E+00  0.00000000000E+00 -0.11940328380E+04  0.11940328380E+04  0.25500000920E-02 0. -1.
    10030    2    1    2    0    0  0.00000000000E+00  0.00000000000E+00  0.56171658881E+03  0.29497822648E+04  0.28958055673E+04 0.  0.
        4    1    3    3  502    0 -0.81127944917E+03  0.17793393841E+03 -0.92724400470E+03  0.12448364906E+04  0.12699999809E+01 0. -1.
       -4    1    3    3    0  502  0.81127944917E+03 -0.17793393841E+03  0.14889605935E+04  0.17049457742E+04  0.12699999809E+01 0.  1.
</event>
<event>
 5   0  0.1006893E-06  0.2899261E+04  0.7818609E-02  0.8273097E-01
       -2   -1    0    0    0  501  0.00000000000E+00  0.00000000000E+00  0.84769727800E+03  0.84769727800E+03  0.25500000920E-02 0.  1.
        2   -1    0    0  501    0  0.00000000000E+00  0.00000000000E+00 -0.24789854242E+04  0.24789854242E+04  0.25500000920E-02 0. -1.
    10030    2    1    2    0    0  0.00000000000E+00  0.00000000000E+00 -0.16312881462E+04  0.33266827022E+04  0.28992614206E+04 0.  0.
        4    1    3    3  502    0  0.31384129829E+03 -0.13888045838E+04 -0.11280998189E+04  0.18165586550E+04  0.12699999809E+01 0. -1.
       -4    1    3    3    0  502 -0.31384129829E+03  0.13888045838E+04 -0.50318832728E+03  0.15101240473E+04  0.12699999809E+01 0.  1.
</event>
<event>
 5   0  0.9994311E-07  0.2899012E+04  0.7818609E-02  0.8273172E-01
        2   -1    0    0  501    0  0.00000000000E+00  0.00000000000E+00  0.11042530452E+04  0.11042530452E+04  0.25500000920E-02 0.  1.
       -2   -1    0    0    0  501  0.00000000000E+00  0.00000000000E+00 -0.19027046053E+04  0.19027046053E+04  0.25500000920E-02 0. -1.
    10030    2    1    2    0    0  0.00000000000E+00  0.00000000000E+00 -0.79845156013E+03  0.30069576505E+04  0.28990118003E+04 0.  0.
        2    1    3    3  502    0  0.13982622891E+04 -0.28457401655E+03 -0.13488830948E+03  0.14332880576E+04  0.25500000920E-02 0. -1.
       -2    1    3    3    0  502 -0.13982622891E+04  0.28457401655E+03 -0.66356325064E+03  0.15736695929E+04  0.25500000920E-02 0.  1.
</event>
<event>
 5   0  0.1063979E-06  0.2881200E+04  0.7818609E-02  0.8278493E-01
        2   -1    0    0  501    0  0.00000000000E+00  0.00000000000E+00  0.25849155063E+04  0.25849155063E+04  0.25500000920E-02 0. -1.
       -2   -1    0    0    0  501  0.00000000000E+00  0.00000000000E+00 -0.80286115879E+03  0.80286115880E+03  0.25500000920E-02 0.  1.
    10030    2    1    2    0    0  0.00000000000E+00  0.00000000000E+00  0.17820543476E+04  0.33877766651E+04  0.28811999298E+04 0.  0.
        1    1    3    3  502    0 -0.93808362220E+03 -0.60544810978E+03  0.19614509768E+04  0.22569577378E+04  0.50400001928E-02 0. -1.
       -1    1    3    3    0  502  0.93808362220E+03  0.60544810978E+03 -0.17939662920E+03  0.11308189274E+04  0.50400001928E-02 0.  1.
</event>
<event>
 5   0  0.1006893E-06  0.2899792E+04  0.7818609E-02  0.8272939E-01
       -2   -1    0    0    0  501  0.00000000000E+00  0.00000000000E+00  0.11900729069E+04  0.11900729069E+04  0.25500000920E-02 0. -1.
        2   -1    0    0  501    0  0.00000000000E+00  0.00000000000E+00 -0.17664451994E+04  0.17664451994E+04  0.25500000920E-02 0.  1.
    10030    2    1    2    0    0  0.00000000000E+00  0.00000000000E+00 -0.57637229255E+03  0.29565181063E+04  0.28997921121E+04 0.  0.
        4    1    3    3  502    0  0.50479521458E+03 -0.37709270168E+03 -0.16195561698E+04  0.17378092284E+04  0.12699999809E+01 0.  1.
       -4    1    3    3    0  502 -0.50479521458E+03  0.37709270168E+03  0.10431838773E+04  0.12187088779E+04  0.12699999809E+01 0. -1.
</event>
<event>
 5   0  0.9950999E-07  0.2900628E+04  0.7818609E-02  0.8272691E-01
       -2   -1    0    0    0  501  0.00000000000E+00  0.00000000000E+00  0.13066854513E+04  0.13066854513E+04  0.25500000920E-02 0. -1.
        2   -1    0    0  501    0  0.00000000000E+00  0.00000000000E+00 -0.16097297759E+04  0.16097297759E+04  0.25500000920E-02 0.  1.
    10030    2    1    2    0    0  0.00000000000E+00  0.00000000000E+00 -0.30304432463E+03  0.29164152272E+04  0.29006278484E+04 0.  0.
        3    1    3    3  502    0 -0.13472221868E+04 -0.33048604025E+03  0.27408048727E+03  0.14139832980E+04  0.10100000352E+00 0. -1.
       -3    1    3    3    0  502  0.13472221868E+04  0.33048604025E+03 -0.57712481190E+03  0.15024319292E+04  0.10100000352E+00 0.  1.
</event>
<event>
 5   0  0.3769563E-07  0.2898241E+04  0.7818609E-02  0.8273401E-01
        1   -1    0    0  501    0  0.00000000000E+00  0.00000000000E+00  0.13070789656E+04  0.13070789656E+04  0.50400001928E-02 0. -1.
       -1   -1    0    0    0  501  0.00000000000E+00  0.00000000000E+00 -0.16065981684E+04  0.16065981684E+04  0.50400001928E-02 0.  1.
    10030    2    1    2    0    0  0.00000000000E+00  0.00000000000E+00 -0.29951920277E+03  0.29136771341E+04  0.28982413096E+04 0.  0.
        3    1    3    3  502    0 -0.14474868156E+03  0.12983988161E+04 -0.78012300507E+03  0.15216384523E+04  0.10100000352E+00 0.  1.
       -3    1    3    3    0  502  0.14474868156E+03 -0.12983988161E+04  0.48060380229E+03  0.13920386817E+04  0.10100000352E+00 0. -1.
</event>
<event>
 5   0  0.3769563E-07  0.2892237E+04  0.7818609E-02  0.8275191E-01
       -1   -1    0    0    0  501  0.00000000000E+00  0.00000000000E+00  0.81081076712E+03  0.81081076714E+03  0.50400001928E-02 0.  1.
        1   -1    0    0  501    0  0.00000000000E+00  0.00000000000E+00 -0.25792199244E+04  0.25792199244E+04  0.50400001928E-02 0. -1.
    10030    2    1    2    0    0  0.00000000000E+00  0.00000000000E+00 -0.17684091573E+04  0.33900306916E+04  0.28922373938E+04 0.  0.
        3    1    3    3  502    0  0.67376776191E+03 -0.43445252625E+03  0.52649985371E+03  0.95912152552E+03  0.10100000352E+00 0.  1.
       -3    1    3    3    0  502 -0.67376776191E+03  0.43445252625E+03 -0.22949090110E+04  0.24309091661E+04  0.10100000352E+00 0. -1.
</event>
<event>
 5   0  0.3638028E-07  0.2899770E+04  0.7818609E-02  0.8272946E-01
        1   -1    0    0  501    0  0.00000000000E+00  0.00000000000E+00  0.12962023192E+04  0.12962023193E+04  0.50400001928E-02 0.  1.
       -1   -1    0    0    0  501  0.00000000000E+00  0.00000000000E+00 -0.16217894149E+04  0.16217894149E+04  0.50400001928E-02 0. -1.
    10030    2    1    2    0    0  0.00000000000E+00  0.00000000000E+00 -0.32558709561E+03  0.29179917341E+04  0.28997704743E+04 0.  0.
        4    1    3    3  502    0 -0.11905152647E+04 -0.80912799059E+03  0.11937661876E+02  0.14394995037E+04  0.12699999809E+01 0. -1.
       -4    1    3    3    0  502  0.11905152647E+04  0.80912799059E+03 -0.33752475749E+03  0.14784922304E+04  0.12699999809E+01 0.  1.
</event>
<event>
 5   0  0.3770467E-07  0.2901861E+04  0.7818609E-02  0.8272324E-01
       -1   -1    0    0    0  501  0.00000000000E+00  0.00000000000E+00  0.11838740188E+04  0.11838740188E+04  0.50400001928E-02 0.  1.
        1   -1    0    0  501    0  0.00000000000E+00  0.00000000000E+00 -0.17782289596E+04  0.17782289596E+04  0.50400001928E-02 0. -1.
    10030    2    1    2    0    0  0.00000000000E+00  0.00000000000E+00 -0.59435494078E+03  0.29621029784E+04  0.29018608269E+04 0.  0.
        1    1    3    3  502    0 -0.66509025640E+03  0.78510676786E+03  0.74702610344E+03  0.12715288771E+04  0.50400001928E-02 0.  1.
       -1    1    3    3    0  502  0.66509025640E+03 -0.78510676786E+03 -0.13413810442E+04  0.16905741013E+04  0.50400001928E-02 0. -1.
</event>
<event>
 5   0  0.1063979E-06  0.2901817E+04  0.7818609E-02  0.8272337E-01
       -2   -1    0    0    0  501  0.00000000000E+00  0.00000000000E+00  0.10155090375E+04  0.10155090375E+04  0.25500000920E-02 0. -1.
        2   -1    0    0  501    0  0.00000000000E+00  0.00000000000E+00 -0.20729857420E+04  0.20729857421E+04  0.25500000920E-02 0.  1.
    10030    2    1    2    0    0  0.00000000000E+00  0.00000000000E+00 -0.10574767046E+04  0.30884947795E+04  0.29018171932E+04 0.  0.
        1    1    3    3  502    0 -0.45649767641E+03  0.16561956523E+03  0.92644647846E+03  0.10460033683E+04  0.50400001928E-02 0. -1.
       -1    1    3    3    0  502  0.45649767641E+03 -0.16561956523E+03 -0.19839231830E+04  0.20424914113E+04  0.50400001928E-02 0.  1.
</event>
<event>
 5   0  0.1006893E-06  0.2905331E+04  0.7818609E-02  0.8271293E-01
       -2   -1    0    0    0  501  0.00000000000E+00  0.00000000000E+00  0.12829734192E+04  0.12829734192E+04  0.25500000920E-02 0. -1.
        2   -1    0    0  501    0  0.00000000000E+00  0.00000000000E+00 -0.16448022699E+04  0.16448022699E+04  0.25500000920E-02 0.  1.
    10030    2    1    2    0    0  0.00000000000E+00  0.00000000000E+00 -0.36182885075E+03  0.29277756891E+04  0.29053313698E+04 0.  0.
        4    1    3    3  502    0 -0.29552022818E+03  0.21930266224E+03 -0.15970498884E+04  0.16389007969E+04  0.12699999809E+01 0.  1.
       -4    1    3    3    0  502  0.29552022818E+03 -0.21930266224E+03  0.12352210377E+04  0.12888748922E+04  0.12699999809E+01 0. -1.
</event>
<event>
 5   0  0.9994311E-07  0.2899039E+04  0.7818609E-02  0.8273164E-01
        2   -1    0    0  501    0  0.00000000000E+00  0.00000000000E+00  0.18658466704E+04  0.18658466704E+04  0.25500000920E-02 0. -1.
       -2   -1    0    0    0  501  0.00000000000E+00  0.00000000000E+00 -0.11260872882E+04  0.11260872882E+04  0.25500000920E-02 0.  1.
    10030    2    1    2    0    0  0.00000000000E+00  0.00000000000E+00  0.73975938219E+03  0.29919339586E+04  0.28990386111E+04 0.  0.
        2    1    3    3  502    0  0.20596635942E+03 -0.78343042935E+03  0.16104461376E+04  0.18026985719E+04  0.25500000920E-02 0. -1.
       -2    1    3    3    0  502 -0.20596635942E+03  0.78343042935E+03 -0.87068675543E+03  0.11892353867E+04  0.25500000920E-02 0.  1.
</event>
<event>
 5   0  0.3786210E-07  0.2899922E+04  0.7818609E-02  0.8272901E-01
        1   -1    0    0  501    0  0.00000000000E+00  0.00000000000E+00  0.20191812097E+04  0.20191812098E+04  0.50400001928E-02 0.  1.
       -1   -1    0    0    0  501  0.00000000000E+00  0.00000000000E+00 -0.10412077370E+04  0.10412077370E+04  0.50400001928E-02 0. -1.
    10030    2    1    2    0    0  0.00000000000E+00  0.00000000000E+00  0.97797347277E+03  0.30603889467E+04  0.28999221355E+04 0.  0.
        5    1    3    3  502    0  0.14355995673E+04  0.15032250987E+03  0.34420174050E+03  0.14839271891E+04  0.46999998093E+01 0.  1.
       -5    1    3    3    0  502 -0.14355995673E+04 -0.15032250987E+03  0.63377173227E+03  0.15764617576E+04  0.46999998093E+01 0. -1.
</event>
<event>
 5   0  0.3769563E-07  0.2897629E+04  0.7818609E-02  0.8273583E-01
        1   -1    0    0  501    0  0.00000000000E+00  0.00000000000E+00  0.20571665757E+04  0.20571665757E+04  0.50400001928E-02 0.  1.
       -1   -1    0    0    0  501  0.00000000000E+00  0.00000000000E+00 -0.10203663897E+04  0.10203663897E+04  0.50400001928E-02 0. -1.
    10030    2    1    2    0    0  0.00000000000E+00  0.00000000000E+00  0.10368001860E+04  0.30775329654E+04  0.28976291218E+04 0.  0.
        3    1    3    3  502    0 -0.13046052179E+03  0.74481326507E+03  0.18309675951E+04  0.19809616584E+04  0.10100000352E+00 0.  1.
       -3    1    3    3    0  502  0.13046052179E+03 -0.74481326507E+03 -0.79416740910E+03  0.10965713070E+04  0.10100000352E+00 0. -1.
</event>
<event>
 5   0  0.1063979E-06  0.2901802E+04  0.7818609E-02  0.8272341E-01
        2   -1    0    0  501    0  0.00000000000E+00  0.00000000000E+00  0.29643390221E+04  0.29643390221E+04  0.25500000920E-02 0.  1.
       -2   -1    0    0    0  501  0.00000000000E+00  0.00000000000E+00 -0.71014627513E+03  0.71014627514E+03  0.25500000920E-02 0. -1.
    10030    2    1    2    0    0  0.00000000000E+00  0.00000000000E+00  0.22541927470E+04  0.36744852972E+04  0.29018024156E+04 0.  0.
        1    1    3    3  502    0  0.24550123235E+03 -0.67047466405E+03 -0.47228059079E+03  0.85607014121E+03  0.50400001928E-02 0. -1.
       -1    1    3    3    0  502 -0.24550123235E+03  0.67047466405E+03  0.27264733377E+04  0.28184151560E+04  0.50400001928E-02 0.  1.
</event>
<event>
 5   0  0.3638028E-07  0.2899044E+04  0.7818609E-02  0.8273162E-01
       -1   -1    0    0    0  501  0.00000000000E+00  0.00000000000E+00  0.86355742719E+03  0.86355742720E+03  0.50400001928E-02 0.  1.
        1   -1    0    0  501    0  0.00000000000E+00  0.00000000000E+00 -0.24330904274E+04  0.24330904274E+04  0.50400001928E-02 0. -1.
    10030    2    1    2    0    0  0.00000000000E+00  0.00000000000E+00 -0.15695330002E+04  0.32966478546E+04  0.28990435041E+04 0.  0.
        4    1    3    3  502    0  0.12218988040E+04  0.59260832656E+03 -0.13611237327E+04  0.19227274233E+04  0.12699999809E+01 0. -1.
       -4    1    3    3    0  502 -0.12218988040E+04 -0.59260832656E+03 -0.20840926758E+03  0.13739204313E+04  0.12699999809E+01 0.  1.
</event>
<event>
 5   0  0.3769563E-07  0.2902404E+04  0.7818609E-02  0.8272162E-01
        1   -1    0    0  501    0  0.00000000000E+00  0.00000000000E+00  0.19400608039E+04  0.19400608039E+04  0.50400001928E-02 0. -1.
       -1   -1    0    0    0  501  0.00000000000E+00  0.00000000000E+00 -0.10855267646E+04  0.10855267646E+04  0.50400001928E-02 0.  1.
    10030    2    1    2    0    0  0.00000000000E+00  0.00000000000E+00  0.85453403936E+03  0.30255875685E+04  0.29024044705E+04 0.  0.
        3    1    3    3  502    0  0.88786605844E+03 -0.11268992924E+04  0.19940402774E+03  0.14484371334E+04  0.10100000352E+00 0. -1.
       -3    1    3    3    0  502 -0.88786605844E+03  0.11268992924E+04  0.65513001161E+03  0.15771504352E+04  0.10100000352E+00 0.  1.
</event>
<event>
 5   0  0.3770467E-07  0.2888558E+04  0.7818609E-02  0.8276290E-01
        1   -1    0    0  501    0  0.00000000000E+00  0.00000000000E+00  0.11261502460E+04  0.11261502460E+04  0.50400001928E-02 0. -1.
       -1   -1    0    0    0  501  0.00000000000E+00  0.00000000000E+00 -0.18522762058E+04  0.18522762058E+04  0.50400001928E-02 0.  1.
    10030    2    1    2    0    0  0.00000000000E+00  0.00000000000E+00 -0.72612595982E+03  0.29784264518E+04  0.28885576365E+04 0.  0.
        1    1    3    3  502    0  0.12342338627E+04 -0.24543211399E+03  0.36777008877E+03  0.13110396594E+04  0.50400001928E-02 0. -1.
       -1    1    3    3    0  502 -0.12342338627E+04  0.24543211399E+03 -0.10938960486E+04  0.16673867924E+04  0.50400001928E-02 0.  1.
</event>
<event>
 5   0  0.3786210E-07  0.2898954E+04  0.7818609E-02  0.8273189E-01
       -1   -1    0    0    0  501  0.00000000000E+00  0.00000000000E+00  0.12514791512E+04  0.12514791512E+04  0.50400001928E-02 0.  1.
        1   -1    0    0  501    0  0.00000000000E+00  0.00000000000E+00 -0.16788005747E+04  0.16788005747E+04  0.50400001928E-02 0. -1.
    10030    2    1    2    0    0  0.00000000000E+00  0.00000000000E+00 -0.42732142349E+03  0.29302797259E+04  0.28989542379E+04 0.  0.
        5    1    3    3  502    0 -0.10805815702E+04  0.56613371897E+03  0.57761230938E+03  0.13497488610E+04  0.46999998093E+01 0.  1.
       -5    1    3    3    0  502  0.10805815702E+04 -0.56613371897E+03 -0.10049337329E+04  0.15805308650E+04  0.46999998093E+01 0. -1.
</event>
<event>
 5   0  0.3769563E-07  0.2895874E+04  0.7818609E-02  0.8274106E-01
       -1   -1    0    0    0  501  0.00000000000E+00  0.00000000000E+00  0.13309405110E+04  0.13309405110E+04  0.50400001928E-02 0. -1.
        1   -1    0    0  501    0  0.00000000000E+00  0.00000000000E+00 -0.15752179529E+04  0.15752179529E+04  0.50400001928E-02 0.  1.
    10030    2    1    2    0    0  0.00000000000E+00  0.00000000000E+00 -0.24427744193E+03  0.29061584639E+04  0.28958738834E+04 0.  0.
        3    1    3    3  502    0 -0.13836149070E+04 -0.62494412011E+02  0.30152834752E+03  0.14174678539E+04  0.10100000352E+00 0.  1.
       -3    1    3    3    0  502  0.13836149070E+04  0.62494412011E+02 -0.54580578944E+03  0.14886906100E+04  0.10100000352E+00 0. -1.
</event>
<event>
 5   0  0.1006893E-06  0.2899720E+04  0.7818609E-02  0.8272961E-01
       -2   -1    0    0    0  501  0.00000000000E+00  0.00000000000E+00  0.86821466014E+03  0.86821466015E+03  0.25500000920E-02 0.  1.
        2   -1    0    0  501    0  0.00000000000E+00  0.00000000000E+00 -0.24211692603E+04  0.24211692603E+04  0.25500000920E-02 0. -1.
    10030    2    1    2    0    0  0.00000000000E+00  0.00000000000E+00 -0.15529546001E+04  0.32893839204E+04  0.28997204324E+04 0.  0.
        4    1    3    3  502    0  0.12209607179E+04 -0.78032154386E+03 -0.72037139102E+03  0.16182037388E+04  0.12699999809E+01 0. -1.
       -4    1    3    3    0  502 -0.12209607179E+04  0.78032154386E+03 -0.83258320912E+03  0.16711801816E+04  0.12699999809E+01 0.  1.
</event>
<event>
 5   0  0.1063979E-06  0.2901095E+04  0.7818609E-02  0.8272552E-01
       -2   -1    0    0    0  501  0.00000000000E+00  0.00000000000E+00  0.94082419073E+03  0.94082419074E+03  0.25500000920E-02 0.  1.
        2   -1    0    0  501    0  0.00000000000E+00  0.00000000000E+00 -0.22364313546E+04  0.22364313546E+04  0.25500000920E-02 0. -1.
    10030    2    1    2    0    0  0.00000000000E+00  0.00000000000E+00 -0.12956071639E+04  0.31772555454E+04  0.29010954616E+04 0.  0.
        1    1    3    3  502    0  0.43020781668E+03 -0.12384346774E+03  0.86327229767E+03  0.97244795747E+03  0.50400001928E-02 0.  1.
       -1    1    3    3    0  502 -0.43020781668E+03  0.12384346774E+03 -0.21588794616E+04  0.22048075879E+04  0.50400001928E-02 0. -1.
</event>
<event>
 5   0  0.3638028E-07  0.2899760E+04  0.7818609E-02  0.8272949E-01
       -1   -1    0    0    0  501  0.00000000000E+00  0.00000000000E+00  0.14094426599E+04  0.14094426599E+04  0.50400001928E-02 0.  1.
        1   -1    0    0  501    0  0.00000000000E+00  0.00000000000E+00 -0.14914777006E+04  0.14914777006E+04  0.50400001928E-02 0. -1.
    10030    2    1    2    0    0  0.00000000000E+00  0.00000000000E+00 -0.82035040681E+02  0.29009203605E+04  0.28997601953E+04 0.  0.
        4    1    3    3  502    0  0.14296777369E+04 -0.23652638749E+03  0.61979865525E+01  0.14491249744E+04  0.12699999809E+01 0.  1.
       -4    1    3    3    0  502 -0.14296777369E+04  0.23652638749E+03 -0.88233027234E+02  0.14517953862E+04  0.12699999809E+01 0. -1.
</event>
<event>
 5   0  0.1031339E-06  0.2903543E+04  0.7818609E-02  0.8271824E-01
       -2   -1    0    0    0  501  0.00000000000E+00  0.00000000000E+00  0.13939578934E+04  0.13939578934E+04  0.25500000920E-02 0. -1.
        2   -1    0    0  501    0  0.00000000000E+00  0.00000000000E+00 -0.15119832359E+04  0.15119832359E+04  0.25500000920E-02 0.  1.
    10030    2    1    2    0    0  0.00000000000E+00  0.00000000000E+00 -0.11802534253E+03  0.29059411293E+04  0.29035433294E+04 0.  0.
        5    1    3    3  502    0 -0.71623845033E+02 -0.14219023494E+04 -0.34329408703E+03  0.14645167075E+04  0.46999998093E+01 0.  1.
       -5    1    3    3    0  502  0.71623845033E+02  0.14219023494E+04  0.22526874450E+03  0.14414244218E+04  0.46999998093E+01 0. -1.
</event>
<event>
 5   0  0.3638028E-07  0.2899682E+04  0.7818609E-02  0.8272972E-01
       -1   -1    0    0    0  501  0.00000000000E+00  0.00000000000E+00  0.18247893035E+04  0.18247893035E+04  0.50400001928E-02 0.  1.
        1   -1    0    0  501    0  0.00000000000E+00  0.00000000000E+00 -0.11519353386E+04  0.11519353386E+04  0.50400001928E-02 0. -1.
    10030    2    1    2    0    0  0.00000000000E+00  0.00000000000E+00  0.67285396493E+03  0.29767246421E+04  0.28996822475E+04 0.  0.
        4    1    3    3  502    0 -0.66102945596E+03  0.49842123888E+03 -0.88542936357E+03  0.12121759129E+04  0.12699999809E+01 0. -1.
       -4    1    3    3    0  502  0.66102945596E+03 -0.49842123888E+03  0.15582833285E+04  0.17645487292E+04  0.12699999809E+01 0.  1.
</event>
<event>
 5   0  0.3770467E-07  0.2903335E+04  0.7818609E-02  0.8271886E-01
       -1   -1    0    0    0  501  0.00000000000E+00  0.00000000000E+00  0.15465838781E+04  0.15465838781E+04  0.50400001928E-02 0.  1.
        1   -1    0    0  501    0  0.00000000000E+00  0.00000000000E+00 -0.13625762317E+04  0.13625762317E+04  0.50400001928E-02 0. -1.
    10030    2    1    2    0    0  0.00000000000E+00  0.00000000000E+00  0.18400764639E+03  0.29091601097E+04  0.29033349325E+04 0.  0.
        1    1    3    3  502    0 -0.68754162832E+03 -0.27445955956E+03  0.13432273189E+04  0.15337213472E+04  0.50400001928E-02 0.  1.
       -1    1    3    3    0  502  0.68754162832E+03  0.27445955956E+03 -0.11592196725E+04  0.13754387626E+04  0.50400001928E-02 0. -1.
</event>
<event>
 5   0  0.3770467E-07  0.2901686E+04  0.7818609E-02  0.8272376E-01
        1   -1    0    0  501    0  0.00000000000E+00  0.00000000000E+00  0.16816909311E+04  0.16816909311E+04  0.50400001928E-02 0. -1.
       -1   -1    0    0    0  501  0.00000000000E+00  0.00000000000E+00 -0.12516841646E+04  0.12516841646E+04  0.50400001928E-02 0.  1.
    10030    2    1    2    0    0  0.00000000000E+00  0.00000000000E+00  0.43000676655E+03  0.29333750957E+04  0.29016863430E+04 0.  0.
        1    1    3    3  502    0 -0.47557974462E+03 -0.13279843720E+04  0.55816196963E+03  0.15169915524E+04  0.50400001928E-02 0. -1.
       -1    1    3    3    0  502  0.47557974462E+03  0.13279843720E+04 -0.12815520309E+03  0.14163835433E+04  0.50400001928E-02 0.  1.
</event>
<event>
 5   0  0.3769563E-07  0.2892589E+04  0.7818609E-02  0.8275086E-01
       -1   -1    0    0    0  501  0.00000000000E+00  0.00000000000E+00  0.11846002567E+04  0.11846002567E+04  0.50400001928E-02 0.  1.
        1   -1    0    0  501    0  0.00000000000E+00  0.00000000000E+00 -0.17658008086E+04  0.17658008086E+04  0.50400001928E-02 0. -1.
    10030    2    1    2    0    0  0.00000000000E+00  0.00000000000E+00 -0.58120055191E+03  0.29504010653E+04  0.28925892146E+04 0.  0.
        3    1    3    3  502    0 -0.30378849833E+03 -0.16550405622E+03  0.11417774304E+04  0.11930359404E+04  0.10100000352E+00 0.  1.
       -3    1    3    3    0  502  0.30378849833E+03  0.16550405622E+03 -0.17229779823E+04  0.17573651249E+04  0.10100000352E+00 0. -1.
</event>
<event>
 5   0  0.1031339E-06  0.2904930E+04  0.7818609E-02  0.8271412E-01
       -2   -1    0    0    0  501  0.00000000000E+00  0.00000000000E+00  0.13687284243E+04  0.13687284243E+04  0.25500000920E-02 0.  1.
        2   -1    0    0  501    0  0.00000000000E+00  0.00000000000E+00 -0.15413240839E+04  0.15413240839E+04  0.25500000920E-02 0. -1.
    10030    2    1    2    0    0  0.00000000000E+00  0.00000000000E+00 -0.17259565959E+03  0.29100525083E+04  0.29049296617E+04 0.  0.
        5    1    3    3  502    0  0.14495991444E+04  0.55649704453E+02 -0.15851814051E+03  0.14593096518E+04  0.46999998093E+01 0. -1.
       -5    1    3    3    0  502 -0.14495991444E+04 -0.55649704453E+02 -0.14077519081E+02  0.14507428565E+04  0.46999998093E+01 0.  1.
</event>
<event>
 5   0  0.1063979E-06  0.2902254E+04  0.7818609E-02  0.8272207E-01
       -2   -1    0    0    0  501  0.00000000000E+00  0.00000000000E+00  0.17118967078E+04  0.17118967078E+04  0.25500000920E-02 0.  1.
        2   -1    0    0  501    0  0.00000000000E+00  0.00000000000E+00 -0.12300798231E+04  0.12300798231E+04  0.25500000920E-02 0. -1.
    10030    2    1    2    0    0  0.00000000000E+00  0.00000000000E+00  0.48181688473E+03  0.29419765309E+04  0.29022540202E+04 0.  0.
        1    1    3    3  502    0  0.11167473572E+04 -0.61253584349E+03  0.94572682106E+03  0.15864186205E+04  0.50400001928E-02 0.  1.
       -1    1    3    3    0  502 -0.11167473572E+04  0.61253584349E+03 -0.46390993633E+03  0.13555579104E+04  0.50400001928E-02 0. -1.
</event>
<event>
 5   0  0.3638028E-07  0.2897997E+04  0.7818609E-02  0.8273474E-01
       -1   -1    0    0    0  501  0.00000000000E+00  0.00000000000E+00  0.98718860686E+03  0.98718860687E+03  0.50400001928E-02 0.  1.
        1   -1    0    0  501    0  0.00000000000E+00  0.00000000000E+00 -0.21268444715E+04  0.21268444715E+04  0.50400001928E-02 0. -1.
    10030    2    1    2    0    0  0.00000000000E+00  0.00000000000E+00 -0.11396558647E+04  0.31140330784E+04  0.28979969847E+04 0.  0.
        4    1    3    3  502    0 -0.81100065974E+03 -0.14666950529E+03  0.71080498984E+03  0.10883378889E+04  0.12699999809E+01 0.  1.
       -4    1    3    3    0  502  0.81100065974E+03  0.14666950529E+03 -0.18504608545E+04  0.20256951895E+04  0.12699999809E+01 0. -1.
</event>
<event>
 5   0  0.3769563E-07  0.2900279E+04  0.7818609E-02  0.8272795E-01
       -1   -1    0    0    0  501  0.00000000000E+00  0.00000000000E+00  0.14781480166E+04  0.14781480167E+04  0.50400001928E-02 0. -1.
        1   -1    0    0  501    0  0.00000000000E+00  0.00000000000E+00 -0.14226614151E+04  0.14226614152E+04  0.50400001928E-02 0.  1.
    10030    2    1    2    0    0  0.00000000000E+00  0.00000000000E+00  0.55486601501E+02  0.29008094318E+04  0.29002787102E+04 0.  0.
        3    1    3    3  502    0  0.65995374285E+03  0.92245954574E+03 -0.87598918635E+03  0.14331181462E+04  0.10100000352E+00 0. -1.
       -3    1    3    3    0  502 -0.65995374285E+03 -0.92245954574E+03  0.93147578785E+03  0.14676912856E+04  0.10100000352E+00 0.  1.
</event>
<event>
 5   0  0.1031339E-06  0.2902595E+04  0.7818609E-02  0.8272106E-01
        2   -1    0    0  501    0  0.00000000000E+00  0.00000000000E+00  0.23820140932E+04  0.23820140932E+04  0.25500000920E-02 0. -1.
       -2   -1    0    0    0  501  0.00000000000E+00  0.00000000000E+00 -0.88423666977E+03  0.88423666978E+03  0.25500000920E-02 0.  1.
    10030    2    1    2    0    0  0.00000000000E+00  0.00000000000E+00  0.14977774234E+04  0.32662507629E+04  0.29025948454E+04 0.  0.
        5    1    3    3  502    0  0.93981538963E+03  0.21967461409E+03  0.19685311966E+04  0.21924066832E+04  0.46999998093E+01 0. -1.
       -5    1    3    3    0  502 -0.93981538963E+03 -0.21967461409E+03 -0.47075377317E+03  0.10738440798E+04  0.46999998093E+01 0.  1.
</event>
<event>
 5   0  0.3769563E-07  0.2901935E+04  0.7818609E-02  0.8272302E-01
        1   -1    0    0  501    0  0.00000000000E+00  0.00000000000E+00  0.19961910140E+04  0.19961910140E+04  0.50400001928E-02 0. -1.
       -1   -1    0    0    0  501  0.00000000000E+00  0.00000000000E+00 -0.10546621659E+04  0.10546621659E+04  0.50400001928E-02 0.  1.
    10030    2    1    2    0    0  0.00000000000E+00  0.00000000000E+00  0.94152884809E+03  0.30508531800E+04  0.29019353118E+04 0.  0.
        3    1    3    3  502    0  0.48843769740E+03 -0.10426994060E+04  0.13989727400E+04  0.18118824943E+04  0.10100000352E+00 0. -1.
       -3    1    3    3    0  502 -0.48843769740E+03  0.10426994060E+04 -0.45744389191E+03  0.12389706857E+04  0.10100000352E+00 0.  1.
</event>
<event>
 5   0  0.3769563E-07  0.2898792E+04  0.7818609E-02  0.8273237E-01
        1   -1    0    0  501    0  0.00000000000E+00  0.00000000000E+00  0.13132053590E+04  0.13132053590E+04  0.50400001928E-02 0.  1.
       -1   -1    0    0    0  501  0.00000000000E+00  0.00000000000E+00 -0.15997110523E+04  0.15997110523E+04  0.50400001928E-02 0. -1.
    10030    2    1    2    0    0  0.00000000000E+00  0.00000000000E+00 -0.28650569339E+03  0.29129164113E+04  0.28987922497E+04 0.  0.
        3    1    3    3  502    0  0.86875553439E+03  0.10625780162E+04  0.32478572681E+03  0.14104233399E+04  0.10100000352E+00 0.  1.
       -3    1    3    3    0  502 -0.86875553439E+03 -0.10625780162E+04 -0.61129142020E+03  0.15024930714E+04  0.10100000352E+00 0. -1.
</event>
<event>
 5   0  0.1006893E-06  0.2904490E+04  0.7818609E-02  0.8271543E-01
        2   -1    0    0  501    0  0.00000000000E+00  0.00000000000E+00  0.25576524311E+04  0.25576524311E+04  0.25500000920E-02 0.  1.
       -2   -1    0    0    0  501  0.00000000000E+00  0.00000000000E+00 -0.82459032309E+03  0.82459032309E+03  0.25500000920E-02 0. -1.
    10030    2    1    2    0    0  0.00000000000E+00  0.00000000000E+00  0.17330621080E+04  0.33822427542E+04  0.29044899342E+04 0.  0.
        4    1    3    3  502    0 -0.29095297755E+03  0.99440172119E+02 -0.78625066536E+03  0.84423557415E+03  0.12699999809E+01 0. -1.
       -4    1    3    3    0  502  0.29095297755E+03 -0.99440172119E+02  0.25193127733E+04  0.25380071800E+04  0.12699999809E+01 0.  1.
</event>
<event>
 5   0  0.9994311E-07  0.2897682E+04  0.7818609E-02  0.8273567E-01
       -2   -1    0    0    0  501  0.00000000000E+00  0.00000000000E+00  0.99888060387E+03  0.99888060387E+03  0.25500000920E-02 0.  1.
        2   -1    0    0  501    0  0.00000000000E+00  0.00000000000E+00 -0.21014928183E+04  0.21014928183E+04  0.25500000920E-02 0. -1.
    10030    2    1    2    0    0  0.00000000000E+00  0.00000000000E+00 -0.11026122145E+04  0.31003734222E+04  0.28976821188E+04 0.  0.
        2    1    3    3  502    0 -0.88925135341E+03  0.11323233596E+04 -0.72454627344E+03  0.16117975874E+04  0.25500000920E-02 0.  1.
       -2    1    3    3    0  502  0.88925135341E+03 -0.11323233596E+04 -0.37806594102E+03  0.14885758348E+04  0.25500000920E-02 0. -1.
</event>
<event>
 5   0  0.3885904E-07  0.2903567E+04  0.7818609E-02  0.8271817E-01
       -1   -1    0    0    0  501  0.00000000000E+00  0.00000000000E+00  0.14393859588E+04  0.14393859589E+04  0.50400001928E-02 0. -1.
        1   -1    0    0  501    0  0.00000000000E+00  0.00000000000E+00 -0.14642878549E+04  0.14642878550E+04  0.50400001928E-02 0.  1.
    10030    2    1    2    0    0  0.00000000000E+00  0.00000000000E+00 -0.24901896096E+02  0.29036738138E+04  0.29035670326E+04 0.  0.
        2    1    3    3  502    0  0.77991481676E+03  0.69954647957E+03 -0.10174968532E+04  0.14604561769E+04  0.25500000920E-02 0.  1.
       -2    1    3    3    0  502 -0.77991481676E+03 -0.69954647957E+03  0.99259495710E+03  0.14432176369E+04  0.25500000920E-02 0. -1.
</event>
<event>
 5   0  0.9994311E-07  0.2901001E+04  0.7818609E-02  0.8272580E-01
        2   -1    0    0  501    0  0.00000000000E+00  0.00000000000E+00  0.23719204358E+04  0.23719204358E+04  0.25500000920E-02 0. -1.
       -2   -1    0    0    0  501  0.00000000000E+00  0.00000000000E+00 -0.88702435470E+03  0.88702435471E+03  0.25500000920E-02 0.  1.
    10030    2    1    2    0    0  0.00000000000E+00  0.00000000000E+00  0.14848960811E+04  0.32589447905E+04  0.29010006508E+04 0.  0.
        2    1    3    3  502    0  0.49502018981E+02  0.54922892554E+03 -0.76466952584E+03  0.94277375138E+03  0.25500000920E-02 0.  1.
       -2    1    3    3    0  502 -0.49502018981E+02 -0.54922892554E+03  0.22495656069E+04  0.23161710391E+04  0.25500000920E-02 0. -1.
</event>
<event>
 5   0  0.3885904E-07  0.2901805E+04  0.7818609E-02  0.8272341E-01
       -1   -1    0    0    0  501  0.00000000000E+00  0.00000000000E+00  0.12937270195E+04  0.12937270195E+04  0.50400001928E-02 0. -1.
        1   -1    0    0  501    0  0.00000000000E+00  0.00000000000E+00 -0.16271737518E+04  0.16271737518E+04  0.50400001928E-02 0.  1.
    10030    2    1    2    0    0  0.00000000000E+00  0.00000000000E+00 -0.33344673232E+03  0.29209007714E+04  0.29018054023E+04 0.  0.
        2    1    3    3  502    0 -0.10719015968E+04  0.69138452765E+03 -0.86274525970E+03  0.15399074588E+04  0.25500000920E-02 0.  1.
       -2    1    3    3    0  502  0.10719015968E+04 -0.69138452765E+03  0.52929852738E+03  0.13809933126E+04  0.25500000920E-02 0. -1.
</event>
<event>
 5   0  0.3378750E-07  0.2900432E+04  0.7818609E-02  0.8272749E-01
        3   -1    0    0  501    0  0.00000000000E+00  0.00000000000E+00  0.13635971273E+04  0.13635971310E+04  0.10100000352E+00 0. -1.
       -3   -1    0    0    0  501  0.00000000000E+00  0.00000000000E+00 -0.15423375359E+04  0.15423375392E+04  0.10100000352E+00 0.  1.
    10030    2    1    2    0    0  0.00000000000E+00  0.00000000000E+00 -0.17874040861E+03  0.29059346702E+04  0.29004324115E+04 0.  0.
        3    1    3    3  502    0  0.98155852086E+03  0.28608722232E+03 -0.11198270432E+04  0.15163494470E+04  0.10100000352E+00 0.  1.
       -3    1    3    3    0  502 -0.98155852086E+03 -0.28608722232E+03  0.94108663455E+03  0.13895852232E+04  0.10100000352E+00 0. -1.
</event>
<event>
 5   0  0.3770467E-07  0.2883901E+04  0.7818609E-02  0.8277684E-01
       -1   -1    0    0    0  501  0.00000000000E+00  0.00000000000E+00  0.12920921083E+04  0.12920921083E+04  0.50400001928E-02 0.  1.
        1   -1    0    0  501    0  0.00000000000E+00  0.00000000000E+00 -0.16091897492E+04  0.16091897492E+04  0.50400001928E-02 0. -1.
    10030    2    1    2    0    0  0.00000000000E+00  0.00000000000E+00 -0.31709764094E+03  0.29012818575E+04  0.28839010910E+04 0.  0.
        1    1    3    3  502    0 -0.14226169404E+04 -0.17597673032E+03 -0.13553759353E+01  0.14334603607E+04  0.50400001928E-02 0.  1.
       -1    1    3    3    0  502  0.14226169404E+04  0.17597673032E+03 -0.31574226501E+03  0.14678214968E+04  0.50400001928E-02 0. -1.
</event>
<event>
 5   0  0.9994311E-07  0.2895686E+04  0.7818609E-02  0.8274162E-01
       -2   -1    0    0    0  501  0.00000000000E+00  0.00000000000E+00  0.12109743829E+04  0.12109743829E+04  0.25500000920E-02 0.  1.
        2   -1    0    0  501    0  0.00000000000E+00  0.00000000000E+00 -0.17310436573E+04  0.17310436573E+04  0.25500000920E-02 0. -1.
    10030    2    1    2    0    0  0.00000000000E+00  0.00000000000E+00 -0.52006927436E+03  0.29420180402E+04  0.28956861188E+04 0.  0.
        2    1    3    3  502    0 -0.89617221544E+03 -0.11298745541E+04 -0.12949390775E+03  0.14479329473E+04  0.25500000920E-02 0. -1.
       -2    1    3    3    0  502  0.89617221544E+03  0.11298745541E+04 -0.39057536661E+03  0.14940850929E+04  0.25500000920E-02 0.  1.
</event>
<event>
 5   0  0.1006893E-06  0.2873085E+04  0.7818609E-02  0.8280931E-01
        2   -1    0    0  501    0  0.00000000000E+00  0.00000000000E+00  0.13023099106E+04  0.13023099106E+04  0.25500000920E-02 0.  1.
       -2   -1    0    0    0  501  0.00000000000E+00  0.00000000000E+00 -0.15846109330E+04  0.15846109330E+04  0.25500000920E-02 0. -1.
    10030    2    1    2    0    0  0.00000000000E+00  0.00000000000E+00 -0.28230102239E+03  0.28869208436E+04  0.28730851171E+04 0.  0.
        4    1    3    3  502    0  0.13348394122E+04 -0.52733644672E+02  0.38966974266E+03  0.13915535257E+04  0.12699999809E+01 0.  1.
       -4    1    3    3    0  502 -0.13348394122E+04  0.52733644672E+02 -0.67197076506E+03  0.14953673179E+04  0.12699999809E+01 0. -1.
</event>
<event>
 5   0  0.1063979E-06  0.2893395E+04  0.7818609E-02  0.8274845E-01
        2   -1    0    0  501    0  0.00000000000E+00  0.00000000000E+00  0.69224298687E+03  0.69224298688E+03  0.25500000920E-02 0. -1.
       -2   -1    0    0    0  501  0.00000000000E+00  0.00000000000E+00 -0.30234081833E+04  0.30234081833E+04  0.25500000920E-02 0.  1.
    10030    2    1    2    0    0  0.00000000000E+00  0.00000000000E+00 -0.23311651965E+04  0.37156511702E+04  0.28933946232E+04 0.  0.
        1    1    3    3  502    0  0.80237690006E+03  0.11251524222E+04 -0.61599316776E+03  0.15130182569E+04  0.50400001928E-02 0. -1.
       -1    1    3    3    0  502 -0.80237690006E+03 -0.11251524222E+04 -0.17151720287E+04  0.22026329134E+04  0.50400001928E-02 0.  1.
</event>
<event>
 5   0  0.1063979E-06  0.2916926E+04  0.7818609E-02  0.8267859E-01
        2   -1    0    0  501    0  0.00000000000E+00  0.00000000000E+00  0.12564635869E+04  0.12564635869E+04  0.25500000920E-02 0.  1.
       -2   -1    0    0    0  501  0.00000000000E+00  0.00000000000E+00 -0.16929373739E+04  0.16929373739E+04  0.25500000920E-02 0. -1.
    10030    2    1    2    0    0  0.00000000000E+00  0.00000000000E+00 -0.43647378697E+03  0.29494009609E+04  0.29169258923E+04 0.  0.
        1    1    3    3  502    0  0.10580360182E+04 -0.74483097844E+03  0.46223461834E+03  0.13739993612E+04  0.50400001928E-02 0.  1.
       -1    1    3    3    0  502 -0.10580360182E+04  0.74483097844E+03 -0.89870840532E+03  0.15754015996E+04  0.50400001928E-02 0. -1.
</event>
<event>
 5   0  0.3885904E-07  0.2899432E+04  0.7818609E-02  0.8273047E-01
        1   -1    0    0  501    0  0.00000000000E+00  0.00000000000E+00  0.16484883546E+04  0.16484883546E+04  0.50400001928E-02 0. -1.
       -1   -1    0    0    0  501  0.00000000000E+00  0.00000000000E+00 -0.12749110831E+04  0.12749110831E+04  0.50400001928E-02 0.  1.
    10030    2    1    2    0    0  0.00000000000E+00  0.00000000000E+00  0.37357727152E+03  0.29233994378E+04  0.28994317193E+04 0.  0.
        2    1    3    3  502    0  0.10529967806E+04  0.56600725873E+03  0.10136344447E+04  0.15673612297E+04  0.25500000920E-02 0. -1.
       -2    1    3    3    0  502 -0.10529967806E+04 -0.56600725873E+03 -0.64005717322E+03  0.13560382081E+04  0.25500000920E-02 0.  1.
</event>
<event>
 5   0  0.3378750E-07  0.2906401E+04  0.7818609E-02  0.8270976E-01
       -4   -1    0    0    0  501  0.00000000000E+00  0.00000000000E+00  0.15344206632E+04  0.15344211888E+04  0.12699999809E+01 0.  1.
        4   -1    0    0  501    0  0.00000000000E+00  0.00000000000E+00 -0.13762785550E+04  0.13762791409E+04  0.12699999809E+01 0. -1.
    10030    2    1    2    0    0  0.00000000000E+00  0.00000000000E+00  0.15814210829E+03  0.29107003297E+04  0.29064011222E+04 0.  0.
        3    1    3    3  502    0 -0.10119056975E+04 -0.71420574886E+03  0.84029333972E+03  0.14967083548E+04  0.10100000352E+00 0.  1.
       -3    1    3    3    0  502  0.10119056975E+04  0.71420574886E+03 -0.68215123143E+03  0.14139919749E+04  0.10100000352E+00 0. -1.
</event>
<event>
 5   0  0.1063979E-06  0.2901953E+04  0.7818609E-02  0.8272297E-01
       -2   -1    0    0    0  501  0.00000000000E+00  0.00000000000E+00  0.13346791255E+04  0.13346791255E+04  0.25500000920E-02 0. -1.
        2   -1    0    0  501    0  0.00000000000E+00  0.00000000000E+00 -0.15774072894E+04  0.15774072894E+04  0.25500000920E-02 0.  1.
    10030    2    1    2    0    0  0.00000000000E+00  0.00000000000E+00 -0.24272816392E+03  0.29120864149E+04  0.29019528470E+04 0.  0.
        1    1    3    3  502    0  0.53783796649E+03 -0.54621422379E+03  0.11148928028E+04  0.13529987503E+04  0.50400001928E-02 0. -1.
       -1    1    3    3    0  502 -0.53783796649E+03  0.54621422379E+03 -0.13576209668E+04  0.15590876646E+04  0.50400001928E-02 0.  1.
</event>
<event>
 5   0  0.1031339E-06  0.2905721E+04  0.7818609E-02  0.8271177E-01
        2   -1    0    0  501    0  0.00000000000E+00  0.00000000000E+00  0.17790253949E+04  0.17790253949E+04  0.25500000920E-02 0. -1.
       -2   -1    0    0    0  501  0.00000000000E+00  0.00000000000E+00 -0.11864945565E+04  0.11864945565E+04  0.25500000920E-02 0.  1.
    10030    2    1    2    0    0  0.00000000000E+00  0.00000000000E+00  0.59253083837E+03  0.29655199515E+04  0.29057212165E+04 0.  0.
        5    1    3    3  502    0 -0.24441905720E+03  0.50308065212E+03  0.16647371685E+04  0.17561898384E+04  0.46999998093E+01 0. -1.
       -5    1    3    3    0  502  0.24441905720E+03 -0.50308065212E+03 -0.10722063302E+04  0.12093301131E+04  0.46999998093E+01 0.  1.
</event>
<event>
 5   0  0.1006893E-06  0.2890163E+04  0.7818609E-02  0.8275810E-01
        2   -1    0    0  501    0  0.00000000000E+00  0.00000000000E+00  0.10609327909E+04  0.10609327909E+04  0.25500000920E-02 0.  1.
       -2   -1    0    0    0  501  0.00000000000E+00  0.00000000000E+00 -0.19683254051E+04  0.19683254051E+04  0.25500000920E-02 0. -1.
    10030    2    1    2    0    0  0.00000000000E+00  0.00000000000E+00 -0.90739261420E+03  0.30292581960E+04  0.28901632933E+04 0.  0.
        4    1    3    3  502    0 -0.12260338462E+04  0.70261596890E+03 -0.13676800249E+03  0.14196954924E+04  0.12699999809E+01 0.  1.
       -4    1    3    3    0  502  0.12260338462E+04 -0.70261596890E+03 -0.77062461170E+03  0.16095627036E+04  0.12699999809E+01 0. -1.
</event>
<event>
 5   0  0.3770467E-07  0.2920038E+04  0.7818609E-02  0.8266940E-01
        1   -1    0    0  501    0  0.00000000000E+00  0.00000000000E+00  0.13877534361E+04  0.13877534361E+04  0.50400001928E-02 0.  1.
       -1   -1    0    0    0  501  0.00000000000E+00  0.00000000000E+00 -0.15360479041E+04  0.15360479041E+04  0.50400001928E-02 0. -1.
    10030    2    1    2    0    0  0.00000000000E+00  0.00000000000E+00 -0.14829446794E+03  0.29238013402E+04  0.29200381894E+04 0.  0.
        1    1    3    3  502    0  0.32023230256E+02 -0.10280839298E+04  0.96337040177E+03  0.14092780368E+04  0.50400001928E-02 0.  1.
       -1    1    3    3    0  502 -0.32023230256E+02  0.10280839298E+04 -0.11116648697E+04  0.15145233034E+04  0.50400001928E-02 0. -1.
</event>
<event>
 5   0  0.9950999E-07  0.2902193E+04  0.7818609E-02  0.8272225E-01
       -2   -1    0    0    0  501  0.00000000000E+00  0.00000000000E+00  0.99399441061E+03  0.99399441062E+03  0.25500000920E-02 0. -1.
        2   -1    0    0  501    0  0.00000000000E+00  0.00000000000E+00 -0.21184034658E+04  0.21184034658E+04  0.25500000920E-02 0.  1.
    10030    2    1    2    0    0  0.00000000000E+00  0.00000000000E+00 -0.11244090552E+04  0.31123978764E+04  0.29021931048E+04 0.  0.
        3    1    3    3  502    0  0.50221953254E+03  0.11622616347E+03 -0.20168983827E+04  0.20817329503E+04  0.10100000352E+00 0.  1.
       -3    1    3    3    0  502 -0.50221953254E+03 -0.11622616347E+03  0.89248932754E+03  0.10306649261E+04  0.10100000352E+00 0. -1.
</event>
<event>
 5   0  0.1063979E-06  0.2903943E+04  0.7818609E-02  0.8271705E-01
       -2   -1    0    0    0  501  0.00000000000E+00  0.00000000000E+00  0.10009783163E+04  0.10009783163E+04  0.25500000920E-02 0.  1.
        2   -1    0    0  501    0  0.00000000000E+00  0.00000000000E+00 -0.21061610102E+04  0.21061610102E+04  0.25500000920E-02 0. -1.
    10030    2    1    2    0    0  0.00000000000E+00  0.00000000000E+00 -0.11051826940E+04  0.31071393265E+04  0.29039431825E+04 0.  0.
        1    1    3    3  502    0 -0.74287639520E+03  0.37453202306E+03 -0.18258504886E+04  0.20064569722E+04  0.50400001928E-02 0. -1.
       -1    1    3    3    0  502  0.74287639520E+03 -0.37453202306E+03  0.72066779460E+03  0.11006823543E+04  0.50400001928E-02 0.  1.
</event>
<event>
 5   0  0.3638028E-07  0.2902058E+04  0.7818609E-02  0.8272265E-01
       -1   -1    0    0    0  501  0.00000000000E+00  0.00000000000E+00  0.16932652177E+04  0.16932652177E+04  0.50400001928E-02 0.  1.
        1   -1    0    0  501    0  0.00000000000E+00  0.00000000000E+00 -0.12434467547E+04  0.12434467548E+04  0.50400001928E-02 0. -1.
    10030    2    1    2    0    0  0.00000000000E+00  0.00000000000E+00  0.44981846299E+03  0.29367119725E+04  0.29020579870E+04 0.  0.
        4    1    3    3  502    0 -0.39543442511E+03  0.10792312493E+03  0.16334600099E+04  0.16841048074E+04  0.12699999809E+01 0.  1.
       -4    1    3    3    0  502  0.39543442511E+03 -0.10792312493E+03 -0.11836415469E+04  0.12526071651E+04  0.12699999809E+01 0. -1.
</event>
<event>
 5   0  0.9950999E-07  0.2957190E+04  0.7818609E-02  0.8256062E-01
        2   -1    0    0  501    0  0.00000000000E+00  0.00000000000E+00  0.14274558529E+04  0.14274558529E+04  0.25500000920E-02 0. -1.
       -2   -1    0    0    0  501  0.00000000000E+00  0.00000000000E+00 -0.15315665059E+04  0.15315665059E+04  0.25500000920E-02 0.  1.
    10030    2    1    2    0    0  0.00000000000E+00  0.00000000000E+00 -0.10411065294E+03  0.29590223588E+04  0.29571902698E+04 0.  0.
        3    1    3    3  502    0  0.60248207642E+03  0.22699344076E+03 -0.13839445398E+04  0.15263725542E+04  0.10100000352E+00 0.  1.
       -3    1    3    3    0  502 -0.60248207642E+03 -0.22699344076E+03  0.12798338869E+04  0.14326498047E+04  0.10100000352E+00 0. -1.
</event>
<event>
 5   0  0.1063979E-06  0.2908042E+04  0.7818609E-02  0.8270489E-01
       -2   -1    0    0    0  501  0.00000000000E+00  0.00000000000E+00  0.20447506780E+04  0.20447506780E+04  0.25500000920E-02 0. -1.
        2   -1    0    0  501    0  0.00000000000E+00  0.00000000000E+00 -0.10339537071E+04  0.10339537071E+04  0.25500000920E-02 0.  1.
    10030    2    1    2    0    0  0.00000000000E+00  0.00000000000E+00  0.10107969709E+04  0.30787043851E+04  0.29080423268E+04 0.  0.
        1    1    3    3  502    0 -0.11320341930E+04  0.28157183079E+01 -0.46065963786E+03  0.12221770102E+04  0.50400001928E-02 0.  1.
       -1    1    3    3    0  502  0.11320341930E+04 -0.28157183079E+01  0.14714566088E+04  0.18565273749E+04  0.50400001928E-02 0. -1.
</event>
<event>
 5   0  0.3885904E-07  0.2911100E+04  0.7818609E-02  0.8269583E-01
       -1   -1    0    0    0  501  0.00000000000E+00  0.00000000000E+00  0.13028180990E+04  0.13028180990E+04  0.50400001928E-02 0. -1.
        1   -1    0    0  501    0  0.00000000000E+00  0.00000000000E+00 -0.16261865252E+04  0.16261865252E+04  0.50400001928E-02 0.  1.
    10030    2    1    2    0    0  0.00000000000E+00  0.00000000000E+00 -0.32336842617E+03  0.29290046242E+04  0.29110996117E+04 0.  0.
        2    1    3    3  502    0 -0.64372512620E+03  0.11261170018E+04  0.50275900867E+03  0.13911463477E+04  0.25500000920E-02 0. -1.
       -2    1    3    3    0  502  0.64372512620E+03 -0.11261170018E+04 -0.82612743484E+03  0.15378582765E+04  0.25500000920E-02 0.  1.
</event>
<event>
 5   0  0.1031339E-06  0.2897995E+04  0.7818609E-02  0.8273474E-01
       -2   -1    0    0    0  501  0.00000000000E+00  0.00000000000E+00  0.12393156986E+04  0.12393156986E+04  0.25500000920E-02 0. -1.
        2   -1    0    0  501    0  0.00000000000E+00  0.00000000000E+00 -0.16941557059E+04  0.16941557059E+04  0.25500000920E-02 0.  1.
    10030    2    1    2    0    0  0.00000000000E+00  0.00000000000E+00 -0.45484000729E+03  0.29334714044E+04  0.28979950049E+04 0.  0.
        5    1    3    3  502    0  0.99809295841E+03  0.46974095984E+03  0.72361625492E+03  0.13192758231E+04  0.46999998093E+01 0. -1.
       -5    1    3    3    0  502 -0.99809295841E+03 -0.46974095984E+03 -0.11784562622E+04  0.16141955814E+04  0.46999998093E+01 0.  1.
</event>
<event>
 5   0  0.3770467E-07  0.2897859E+04  0.7818609E-02  0.8273515E-01
        1   -1    0    0  501    0  0.00000000000E+00  0.00000000000E+00  0.15937181220E+04  0.15937181220E+04  0.50400001928E-02 0.  1.
       -1   -1    0    0    0  501  0.00000000000E+00  0.00000000000E+00 -0.13172951416E+04  0.13172951416E+04  0.50400001928E-02 0. -1.
    10030    2    1    2    0    0  0.00000000000E+00  0.00000000000E+00  0.27642298039E+03  0.29110132637E+04  0.28978593060E+04 0.  0.
        1    1    3    3  502    0 -0.21847589560E+03  0.29335277176E+03 -0.12701544624E+04  0.13217715098E+04  0.50400001928E-02 0. -1.
       -1    1    3    3    0  502  0.21847589560E+03 -0.29335277176E+03  0.15465774428E+04  0.15892417539E+04  0.50400001928E-02 0.  1.
</event>
<event>
 5   0  0.1063979E-06  0.2895219E+04  0.7818609E-02  0.8274302E-01
        2   -1    0    0  501    0  0.00000000000E+00  0.00000000000E+00  0.15029149197E+04  0.15029149197E+04  0.25500000920E-02 0. -1.
       -2   -1    0    0    0  501  0.00000000000E+00  0.00000000000E+00 -0.13943388486E+04  0.13943388486E+04  0.25500000920E-02 0.  1.
    10030    2    1    2    0    0  0.00000000000E+00  0.00000000000E+00  0.10857607111E+03  0.28972537683E+04  0.28952185815E+04 0.  0.
        1    1    3    3  502    0  0.45231035536E+03 -0.21189557623E+03 -0.13053753730E+04  0.13976728005E+04  0.50400001928E-02 0.  1.
       -1    1    3    3    0  502 -0.45231035536E+03  0.21189557623E+03  0.14139514441E+04  0.14995809678E+04  0.50400001928E-02 0. -1.
</event>
<event>
 5   0  0.9994311E-07  0.2906385E+04  0.7818609E-02  0.8270980E-01
        2   -1    0    0  501    0  0.00000000000E+00  0.00000000000E+00  0.12275565859E+04  0.12275565859E+04  0.25500000920E-02 0. -1.
       -2   -1    0    0    0  501  0.00000000000E+00  0.00000000000E+00 -0.17203020763E+04  0.17203020764E+04  0.25500000920E-02 0.  1.
    10030    2    1    2    0    0  0.00000000000E+00  0.00000000000E+00 -0.49274549045E+03  0.29478586622E+04  0.29063847946E+04 0.  0.
        2    1    3    3  502    0 -0.10902887097E+04  0.91915620396E+03 -0.52998870522E+03  0.15213367890E+04  0.25500000920E-02 0.  1.
       -2    1    3    3    0  502  0.10902887097E+04 -0.91915620396E+03  0.37243214764E+02  0.14265218733E+04  0.25500000920E-02 0. -1.
</event>
<event>
 5   0  0.3786210E-07  0.2901787E+04  0.7818609E-02  0.8272346E-01
       -1   -1    0    0    0  501  0.00000000000E+00  0.00000000000E+00  0.10988443206E+04  0.10988443206E+04  0.50400001928E-02 0. -1.
        1   -1    0    0  501    0  0.00000000000E+00  0.00000000000E+00 -0.19157331114E+04  0.19157331114E+04  0.50400001928E-02 0.  1.
    10030    2    1    2    0    0  0.00000000000E+00  0.00000000000E+00 -0.81688879077E+03  0.30145774321E+04  0.29017873453E+04 0.  0.
        5    1    3    3  502    0 -0.25114819572E+03  0.13584286279E+04  0.52264049112E+02  0.13824461560E+04  0.46999998093E+01 0. -1.
       -5    1    3    3    0  502  0.25114819572E+03 -0.13584286279E+04 -0.86915283989E+03  0.16321312761E+04  0.46999998093E+01 0.  1.
</event>
<event>
 5   0  0.3769563E-07  0.2920851E+04  0.7818609E-02  0.8266701E-01
       -1   -1    0    0    0  501  0.00000000000E+00  0.00000000000E+00  0.22671684684E+04  0.22671684685E+04  0.50400001928E-02 0. -1.
        1   -1    0    0  501    0  0.00000000000E+00  0.00000000000E+00 -0.94075190948E+03  0.94075190949E+03  0.50400001928E-02 0.  1.
    10030    2    1    2    0    0  0.00000000000E+00  0.00000000000E+00  0.13264165590E+04  0.32079203779E+04  0.29208512909E+04 0.  0.
        3    1    3    3  502    0  0.64559568318E+03 -0.10838579794E+04  0.14712496729E+04  0.19380705653E+04  0.10100000352E+00 0. -1.
       -3    1    3    3    0  502 -0.64559568318E+03  0.10838579794E+04 -0.14483311393E+03  0.12698498127E+04  0.10100000352E+00 0.  1.
</event>
<event>
 5   0  0.9950999E-07  0.2917476E+04  0.7818609E-02  0.8267697E-01
        2   -1    0    0  501    0  0.00000000000E+00  0.00000000000E+00  0.18772374863E+04  0.18772374863E+04  0.25500000920E-02 0.  1.
       -2   -1    0    0    0  501  0.00000000000E+00  0.00000000000E+00 -0.11335361789E+04  0.11335361789E+04  0.25500000920E-02 0. -1.
    10030    2    1    2    0    0  0.00000000000E+00  0.00000000000E+00  0.74370130739E+03  0.30107736651E+04  0.29174760373E+04 0.  0.
        3    1    3    3  502    0  0.18003642090E+03 -0.11063095585E+04  0.13352915956E+04  0.17433696130E+04  0.10100000352E+00 0.  1.
       -3    1    3    3    0  502 -0.18003642090E+03  0.11063095585E+04 -0.59159028819E+03  0.12674040521E+04  0.10100000352E+00 0. -1.
</event>
<event>
 5   0  0.1031339E-06  0.2881756E+04  0.7818609E-02  0.8278326E-01
       -2   -1    0    0    0  501  0.00000000000E+00  0.00000000000E+00  0.99365790353E+03  0.99365790354E+03  0.25500000920E-02 0.  1.
        2   -1    0    0  501    0  0.00000000000E+00  0.00000000000E+00 -0.20893804080E+04  0.20893804080E+04  0.25500000920E-02 0. -1.
    10030    2    1    2    0    0  0.00000000000E+00  0.00000000000E+00 -0.10957225044E+04  0.30830383115E+04  0.28817559618E+04 0.  0.
        5    1    3    3  502    0 -0.83163326872E+03 -0.11762575054E+04 -0.58016378330E+03  0.15529995873E+04  0.46999998093E+01 0. -1.
       -5    1    3    3    0  502  0.83163326872E+03  0.11762575054E+04 -0.51555872115E+03  0.15300387242E+04  0.46999998093E+01 0.  1.
</event>
<event>
 5   0  0.3786210E-07  0.2899088E+04  0.7818609E-02  0.8273149E-01
        1   -1    0    0  501    0  0.00000000000E+00  0.00000000000E+00  0.26123322691E+04  0.26123322691E+04  0.50400001928E-02 0. -1.
       -1   -1    0    0    0  501  0.00000000000E+00  0.00000000000E+00 -0.80433045055E+03  0.80433045056E+03  0.50400001928E-02 0.  1.
    10030    2    1    2    0    0  0.00000000000E+00  0.00000000000E+00  0.18080018186E+04  0.34166627197E+04  0.28990884023E+04 0.  0.
        5    1    3    3  502    0 -0.12746545322E+04 -0.26164997158E+03  0.15126111960E+03  0.13100026337E+04  0.46999998093E+01 0.  1.
       -5    1    3    3    0  502  0.12746545322E+04  0.26164997158E+03  0.16567406990E+04  0.21066600859E+04  0.46999998093E+01 0. -1.
</event>
<event>
 5   0  0.1063979E-06  0.2900270E+04  0.7818609E-02  0.8272797E-01
       -2   -1    0    0    0  501  0.00000000000E+00  0.00000000000E+00  0.14456738879E+04  0.14456738879E+04  0.25500000920E-02 0. -1.
        2   -1    0    0  501    0  0.00000000000E+00  0.00000000000E+00 -0.14546097379E+04  0.14546097379E+04  0.25500000920E-02 0.  1.
    10030    2    1    2    0    0  0.00000000000E+00  0.00000000000E+00 -0.89358500040E+01  0.29002836258E+04  0.29002698600E+04 0.  0.
        1    1    3    3  502    0  0.66425086119E+03  0.44583194776E+03 -0.12139760357E+04  0.14538683391E+04  0.50400001928E-02 0.  1.
       -1    1    3    3    0  502 -0.66425086119E+03 -0.44583194776E+03  0.12050401857E+04  0.14464152866E+04  0.50400001928E-02 0. -1.
</event>
<event>
 5   0  0.3770467E-07  0.2898725E+04  0.7818609E-02  0.8273257E-01
        1   -1    0    0  501    0  0.00000000000E+00  0.00000000000E+00  0.12723518846E+04  0.12723518846E+04  0.50400001928E-02 0.  1.
       -1   -1    0    0    0  501  0.00000000000E+00  0.00000000000E+00 -0.16509987533E+04  0.16509987533E+04  0.50400001928E-02 0. -1.
    10030    2    1    2    0    0  0.00000000000E+00  0.00000000000E+00 -0.37864686872E+03  0.29233506379E+04  0.28987248060E+04 0.  0.
        1    1    3    3  502    0 -0.10423613087E+04 -0.80473059131E+03  0.42124782776E+03  0.13825911018E+04  0.50400001928E-02 0.  1.
       -1    1    3    3    0  502  0.10423613087E+04  0.80473059131E+03 -0.79989469648E+03  0.15407595361E+04  0.50400001928E-02 0. -1.
</event>
<event>
 5   0  0.9950999E-07  0.2952383E+04  0.7818609E-02  0.8257460E-01
       -2   -1    0    0    0  501  0.00000000000E+00  0.00000000000E+00  0.18012954714E+04  0.18012954714E+04  0.25500000920E-02 0.  1.
        2   -1    0    0  501    0  0.00000000000E+00  0.00000000000E+00 -0.12097637910E+04  0.12097637910E+04  0.25500000920E-02 0. -1.
    10030    2    1    2    0    0  0.00000000000E+00  0.00000000000E+00  0.59153168039E+03  0.30110592624E+04  0.29523834698E+04 0.  0.
        3    1    3    3  502    0  0.86694507560E+03 -0.11423444427E+04  0.65286369043E+03  0.15756825817E+04  0.10100000352E+00 0.  1.
       -3    1    3    3    0  502 -0.86694507560E+03  0.11423444427E+04 -0.61332010041E+02  0.14353766807E+04  0.10100000352E+00 0. -1.
</event>
<event>
 5   0  0.1006893E-06  0.2897370E+04  0.7818609E-02  0.8273660E-01
       -2   -1    0    0    0  501  0.00000000000E+00  0.00000000000E+00  0.12193716883E+04  0.12193716883E+04  0.25500000920E-02 0. -1.
        2   -1    0    0  501    0  0.00000000000E+00  0.00000000000E+00 -0.17211231695E+04  0.17211231695E+04  0.25500000920E-02 0.  1.
    10030    2    1    2    0    0  0.00000000000E+00  0.00000000000E+00 -0.50175148115E+03  0.29404948578E+04  0.28973704389E+04 0.  0.
        4    1    3    3  502    0  0.17333617684E+02  0.14309000335E+04 -0.47987074995E+03  0.15093220033E+04  0.12699999809E+01 0. -1.
       -4    1    3    3    0  502 -0.17333617684E+02 -0.14309000335E+04 -0.21880731195E+02  0.14311728545E+04  0.12699999809E+01 0.  1.
</event>
<event>
 5   0  0.9994311E-07  0.2897678E+04  0.7818609E-02  0.8273569E-01
        2   -1    0    0  501    0  0.00000000000E+00  0.00000000000E+00  0.17502780107E+04  0.17502780107E+04  0.25500000920E-02 0. -1.
       -2   -1    0    0    0  501  0.00000000000E+00  0.00000000000E+00 -0.11993148157E+04  0.11993148157E+04  0.25500000920E-02 0.  1.
    10030    2    1    2    0    0  0.00000000000E+00  0.00000000000E+00  0.55096319500E+03  0.29495928265E+04  0.28976779324E+04 0.  0.
        2    1    3    3  502    0  0.10590036523E+04 -0.64103578092E+03 -0.49081296296E+03  0.13316579788E+04  0.25500000920E-02 0.  1.
       -2    1    3    3    0  502 -0.10590036523E+04  0.64103578092E+03  0.10417761580E+04  0.16179348477E+04  0.25500000920E-02 0. -1.
</event>
<event>
 5   0  0.9994311E-07  0.2903649E+04  0.7818609E-02  0.8271793E-01
        2   -1    0    0  501    0  0.00000000000E+00  0.00000000000E+00  0.17964808698E+04  0.17964808698E+04  0.25500000920E-02 0.  1.
       -2   -1    0    0    0  501  0.00000000000E+00  0.00000000000E+00 -0.11732907816E+04  0.11732907816E+04  0.25500000920E-02 0. -1.
    10030    2    1    2    0    0  0.00000000000E+00  0.00000000000E+00  0.62319008822E+03  0.29697716514E+04  0.29036490448E+04 0.  0.
        2    1    3    3  502    0  0.27121710260E+02  0.14419319936E+04  0.48240407917E+03  0.15207291531E+04  0.25500000920E-02 0. -1.
       -2    1    3    3    0  502 -0.27121710260E+02 -0.14419319936E+04  0.14078600905E+03  0.14490424983E+04  0.25500000920E-02 0.  1.
</event>
<event>
 5   0  0.1063979E-06  0.2893168E+04  0.7818609E-02  0.8274913E-01
       -2   -1    0    0    0  501  0.00000000000E+00  0.00000000000E+00  0.15093028183E+04  0.15093028183E+04  0.25500000920E-02 0.  1.
        2   -1    0    0  501    0  0.00000000000E+00  0.00000000000E+00 -0.13864711334E+04  0.13864711334E+04  0.25500000920E-02 0. -1.
    10030    2    1    2    0    0  0.00000000000E+00  0.00000000000E+00  0.12283168492E+03  0.28957739517E+04  0.28931676683E+04 0.  0.
        1    1    3    3  502    0 -0.10052682466E+04  0.95292589981E+03  0.47889201618E+03  0.14655952993E+04  0.50400001928E-02 0. -1.
       -1    1    3    3    0  502  0.10052682466E+04 -0.95292589981E+03 -0.35606033127E+03  0.14301786524E+04  0.50400001928E-02 0.  1.
</event>
<event>
 5   0  0.3786210E-07  0.2903908E+04  0.7818609E-02  0.8271716E-01
        1   -1    0    0  501    0  0.00000000000E+00  0.00000000000E+00  0.21915493426E+04  0.21915493426E+04  0.50400001928E-02 0. -1.
       -1   -1    0    0    0  501  0.00000000000E+00  0.00000000000E+00 -0.96195459420E+03  0.96195459421E+03  0.50400001928E-02 0.  1.
    10030    2    1    2    0    0  0.00000000000E+00  0.00000000000E+00  0.12295947484E+04  0.31535039368E+04  0.29039083722E+04 0.  0.
        5    1    3    3  502    0  0.91254338882E+03  0.49848576852E+03  0.17152716887E+04  0.20058421059E+04  0.46999998093E+01 0. -1.
       -5    1    3    3    0  502 -0.91254338882E+03 -0.49848576852E+03 -0.48567694024E+03  0.11476618309E+04  0.46999998093E+01 0.  1.
</event>
<event>
 5   0  0.3770467E-07  0.2940928E+04  0.7818609E-02  0.8260803E-01
        1   -1    0    0  501    0  0.00000000000E+00  0.00000000000E+00  0.19372783268E+04  0.19372783268E+04  0.50400001928E-02 0. -1.
       -1   -1    0    0    0  501  0.00000000000E+00  0.00000000000E+00 -0.11161351558E+04  0.11161351558E+04  0.50400001928E-02 0.  1.
    10030    2    1    2    0    0  0.00000000000E+00  0.00000000000E+00  0.82114317104E+03  0.30534134826E+04  0.29409280488E+04 0.  0.
        1    1    3    3  502    0 -0.12352050263E+04 -0.57988074384E+03 -0.15835750541E+03  0.13737067495E+04  0.50400001928E-02 0.  1.
       -1    1    3    3    0  502  0.12352050263E+04  0.57988074384E+03  0.97950067645E+03  0.16797067331E+04  0.50400001928E-02 0. -1.
</event>
<event>
 5   0  0.1063979E-06  0.2895667E+04  0.7818609E-02  0.8274168E-01
        2   -1    0    0  501    0  0.00000000000E+00  0.00000000000E+00  0.21399403746E+04  0.21399403746E+04  0.25500000920E-02 0. -1.
       -2   -1    0    0    0  501  0.00000000000E+00  0.00000000000E+00 -0.97956995629E+03  0.97956995629E+03  0.25500000920E-02 0.  1.
    10030    2    1    2    0    0  0.00000000000E+00  0.00000000000E+00  0.11603704183E+04  0.31195103309E+04  0.28956666239E+04 0.  0.
        1    1    3    3  502    0  0.71605414741E+03  0.77583415876E+03 -0.48714379258E+03  0.11627386889E+04  0.50400001928E-02 0. -1.
       -1    1    3    3    0  502 -0.71605414741E+03 -0.77583415876E+03  0.16475142109E+04  0.19567716420E+04  0.50400001928E-02 0.  1.
</event>
<event>
 5   0  0.3885904E-07  0.2895575E+04  0.7818609E-02  0.8274195E-01
        1   -1    0    0  501    0  0.00000000000E+00  0.00000000000E+00  0.19421234919E+04  0.19421234919E+04  0.50400001928E-02 0.  1.
       -1   -1    0    0    0  501  0.00000000000E+00  0.00000000000E+00 -0.10792767346E+04  0.10792767346E+04  0.50400001928E-02 0. -1.
    10030    2    1    2    0    0  0.00000000000E+00  0.00000000000E+00  0.86284675726E+03  0.30214002265E+04  0.28955750382E+04 0.  0.
        2    1    3    3  502    0 -0.65094842118E+03  0.12751118290E+04  0.20654825918E+03  0.14464806279E+04  0.25500000920E-02 0.  1.
       -2    1    3    3    0  502  0.65094842118E+03 -0.12751118290E+04  0.65629849808E+03  0.15749195986E+04  0.25500000920E-02 0. -1.
</event>
<event>
 5   0  0.3769563E-07  0.2901668E+04  0.7818609E-02  0.8272381E-01
       -1   -1    0    0    0  501  0.00000000000E+00  0.00000000000E+00  0.15948783448E+04  0.15948783448E+04  0.50400001928E-02 0. -1.
        1   -1    0    0  501    0  0.00000000000E+00  0.00000000000E+00 -0.13197992818E+04  0.13197992818E+04  0.50400001928E-02 0.  1.
    10030    2    1    2    0    0  0.00000000000E+00  0.00000000000E+00  0.27507906307E+03  0.29146776266E+04  0.29016679989E+04 0.  0.
        3    1    3    3  502    0  0.17613087290E+02 -0.14151652943E+04 -0.18313504544E+03  0.14270744501E+04  0.10100000352E+00 0.  1.
       -3    1    3    3    0  502 -0.17613087290E+02  0.14151652943E+04  0.45821410852E+03  0.14876031765E+04  0.10100000352E+00 0. -1.
</event>
<event>
 5   0  0.3638028E-07  0.2901821E+04  0.7818609E-02  0.8272336E-01
        1   -1    0    0  501    0  0.00000000000E+00  0.00000000000E+00  0.14578530857E+04  0.14578530857E+04  0.50400001928E-02 0. -1.
       -1   -1    0    0    0  501  0.00000000000E+00  0.00000000000E+00 -0.14440012326E+04  0.14440012326E+04  0.50400001928E-02 0.  1.
    10030    2    1    2    0    0  0.00000000000E+00  0.00000000000E+00  0.13851853033E+02  0.29018543183E+04  0.29018212575E+04 0.  0.
        4    1    3    3  502    0  0.33595915701E+02  0.13675565316E+04  0.49046063518E+03  0.14532352873E+04  0.12699999809E+01 0.  1.
       -4    1    3    3    0  502 -0.33595915701E+02 -0.13675565316E+04 -0.47660878214E+03  0.14486190310E+04  0.12699999809E+01 0. -1.
</event>
<event>
 5   0  0.1063979E-06  0.2901934E+04  0.7818609E-02  0.8272302E-01
       -2   -1    0    0    0  501  0.00000000000E+00  0.00000000000E+00  0.31292546013E+04  0.31292546013E+04  0.25500000920E-02 0. -1.
        2   -1    0    0  501    0  0.00000000000E+00  0.00000000000E+00 -0.67278166979E+03  0.67278166979E+03  0.25500000920E-02 0.  1.
    10030    2    1    2    0    0  0.00000000000E+00  0.00000000000E+00  0.24564729315E+04  0.38020362711E+04  0.29019339316E+04 0.  0.
        1    1    3    3  502    0 -0.29151240008E+03 -0.42733667457E+03  0.30043352169E+04  0.30485449330E+04  0.50400001928E-02 0. -1.
       -1    1    3    3    0  502  0.29151240008E+03  0.42733667457E+03 -0.54786228539E+03  0.75349133811E+03  0.50400001928E-02 0.  1.
</event>
<event>
 5   0  0.3885904E-07  0.2899329E+04  0.7818609E-02  0.8273077E-01
       -1   -1    0    0    0  501  0.00000000000E+00  0.00000000000E+00  0.10552355599E+04  0.10552355599E+04  0.50400001928E-02 0. -1.
        1   -1    0    0  501    0  0.00000000000E+00  0.00000000000E+00 -0.19915245382E+04  0.19915245383E+04  0.50400001928E-02 0.  1.
    10030    2    1    2    0    0  0.00000000000E+00  0.00000000000E+00 -0.93628897837E+03  0.30467600981E+04  0.28993292405E+04 0.  0.
        2    1    3    3  502    0 -0.43551137629E+03  0.81015513153E+03 -0.16456152259E+04  0.18852243813E+04  0.25500000920E-02 0.  1.
       -2    1    3    3    0  502  0.43551137629E+03 -0.81015513153E+03  0.70932624756E+03  0.11615357168E+04  0.25500000920E-02 0. -1.
</event>
<event>
 5   0  0.3786210E-07  0.2912126E+04  0.7818609E-02  0.8269279E-01
        1   -1    0    0  501    0  0.00000000000E+00  0.00000000000E+00  0.13011267364E+04  0.13011267364E+04  0.50400001928E-02 0.  1.
       -1   -1    0    0    0  501  0.00000000000E+00  0.00000000000E+00 -0.16294484275E+04  0.16294484275E+04  0.50400001928E-02 0. -1.
    10030    2    1    2    0    0  0.00000000000E+00  0.00000000000E+00 -0.32832169107E+03  0.29305751639E+04  0.29121256255E+04 0.  0.
        5    1    3    3  502    0  0.14490091185E+04 -0.14111614717E+03 -0.14043965832E+03  0.14626300216E+04  0.46999998093E+01 0. -1.
       -5    1    3    3    0  502 -0.14490091185E+04  0.14111614717E+03 -0.18788203275E+03  0.14679451423E+04  0.46999998093E+01 0.  1.
</event>
<event>
 5   0  0.3786210E-07  0.2894376E+04  0.7818609E-02  0.8274553E-01
        1   -1    0    0  501    0  0.00000000000E+00  0.00000000000E+00  0.12561696579E+04  0.12561696579E+04  0.50400001928E-02 0.  1.
       -1   -1    0    0    0  501  0.00000000000E+00  0.00000000000E+00 -0.16672534643E+04  0.16672534643E+04  0.50400001928E-02 0. -1.
    10030    2    1    2    0    0  0.00000000000E+00  0.00000000000E+00 -0.41108380639E+03  0.29234231222E+04  0.28943760736E+04 0.  0.
        5    1    3    3  502    0  0.57952730866E+03 -0.85916439607E+03 -0.12257858253E+04  0.16051754859E+04  0.46999998093E+01 0. -1.
       -5    1    3    3    0  502 -0.57952730866E+03  0.85916439607E+03  0.81470201890E+03  0.13182476363E+04  0.46999998093E+01 0.  1.
</event>
<event>
 5   0  0.1063979E-06  0.2907533E+04  0.7818609E-02  0.8270640E-01
        2   -1    0    0  501    0  0.00000000000E+00  0.00000000000E+00  0.21365118926E+04  0.21365118926E+04  0.25500000920E-02 0.  1.
       -2   -1    0    0    0  501  0.00000000000E+00  0.00000000000E+00 -0.98919945999E+03  0.98919945999E+03  0.25500000920E-02 0. -1.
    10030    2    1    2    0    0  0.00000000000E+00  0.00000000000E+00  0.11473124326E+04  0.31257113526E+04  0.29075325693E+04 0.  0.
        1    1    3    3  502    0 -0.67840591173E+03  0.12233583319E+04  0.99907329486E+03  0.17190077480E+04  0.50400001928E-02 0.  1.
       -1    1    3    3    0  502  0.67840591173E+03 -0.12233583319E+04  0.14823913777E+03  0.14067036046E+04  0.50400001928E-02 0. -1.
</event>
<event>
 5   0  0.3786210E-07  0.2900233E+04  0.7818609E-02  0.8272808E-01
        1   -1    0    0  501    0  0.00000000000E+00  0.00000000000E+00  0.12733698897E+04  0.12733698897E+04  0.50400001928E-02 0. -1.
       -1   -1    0    0    0  501  0.00000000000E+00  0.00000000000E+00 -0.16513958017E+04  0.16513958017E+04  0.50400001928E-02 0.  1.
    10030    2    1    2    0    0  0.00000000000E+00  0.00000000000E+00 -0.37802591202E+03  0.29247656914E+04  0.29002328803E+04 0.  0.
        5    1    3    3  502    0 -0.26687626273E+03  0.33783892895E+02  0.12479795308E+04  0.12766515931E+04  0.46999998093E+01 0. -1.
       -5    1    3    3    0  502  0.26687626273E+03 -0.33783892895E+02 -0.16260054428E+04  0.16481140983E+04  0.46999998093E+01 0.  1.
</event>
<event>
 5   0  0.9994311E-07  0.2888620E+04  0.7818609E-02  0.8276272E-01
       -2   -1    0    0    0  501  0.00000000000E+00  0.00000000000E+00  0.16762184204E+04  0.16762184204E+04  0.25500000920E-02 0. -1.
        2   -1    0    0  501    0  0.00000000000E+00  0.00000000000E+00 -0.12444863576E+04  0.12444863576E+04  0.25500000920E-02 0.  1.
    10030    2    1    2    0    0  0.00000000000E+00  0.00000000000E+00  0.43173206276E+03  0.29207047779E+04  0.28886197095E+04 0.  0.
        2    1    3    3  502    0 -0.14123176127E+04 -0.19982823477E+03  0.44523055651E+03  0.14942565413E+04  0.25500000920E-02 0. -1.
       -2    1    3    3    0  502  0.14123176127E+04  0.19982823477E+03 -0.13498493746E+02  0.14264482367E+04  0.25500000920E-02 0.  1.
</event>
<event>
 5   0  0.3885904E-07  0.2900580E+04  0.7818609E-02  0.8272705E-01
       -1   -1    0    0    0  501  0.00000000000E+00  0.00000000000E+00  0.13814363555E+04  0.13814363555E+04  0.50400001928E-02 0. -1.
        1   -1    0    0  501    0  0.00000000000E+00  0.00000000000E+00 -0.15225757062E+04  0.15225757062E+04  0.50400001928E-02 0.  1.
    10030    2    1    2    0    0  0.00000000000E+00  0.00000000000E+00 -0.14113935069E+03  0.29040120618E+04  0.29005802417E+04 0.  0.
        2    1    3    3  502    0 -0.59200313459E+03 -0.61792718687E+03 -0.12428690928E+04  0.15089815444E+04  0.25500000920E-02 0.  1.
       -2    1    3    3    0  502  0.59200313459E+03  0.61792718687E+03  0.11017297421E+04  0.13950305173E+04  0.25500000920E-02 0. -1.
</event>
<event>
 5   0  0.1031339E-06  0.2904620E+04  0.7818609E-02  0.8271504E-01
        2   -1    0    0  501    0  0.00000000000E+00  0.00000000000E+00  0.22869612889E+04  0.22869612889E+04  0.25500000920E-02 0.  1.
       -2   -1    0    0    0  501  0.00000000000E+00  0.00000000000E+00 -0.92227371125E+03  0.92227371125E+03  0.25500000920E-02 0. -1.
    10030    2    1    2    0    0  0.00000000000E+00  0.00000000000E+00  0.13646875776E+04  0.32092350001E+04  0.29046199582E+04 0.  0.
        5    1    3    3  502    0  0.51356859797E+03  0.12386175322E+04  0.12987558547E+04  0.18667391238E+04  0.46999998093E+01 0.  1.
       -5    1    3    3    0  502 -0.51356859797E+03 -0.12386175322E+04  0.65931722882E+02  0.13424958764E+04  0.46999998093E+01 0. -1.
</event>
<event>
 5   0  0.1006893E-06  0.2901770E+04  0.7818609E-02  0.8272351E-01
        2   -1    0    0  501    0  0.00000000000E+00  0.00000000000E+00  0.23247984179E+04  0.23247984179E+04  0.25500000920E-02 0.  1.
       -2   -1    0    0    0  501  0.00000000000E+00  0.00000000000E+00 -0.90548405645E+03  0.90548405646E+03  0.25500000920E-02 0. -1.
    10030    2    1    2    0    0  0.00000000000E+00  0.00000000000E+00  0.14193143614E+04  0.32302824743E+04  0.29017704264E+04 0.  0.
        4    1    3    3  502    0 -0.71491998481E+03 -0.81921920942E+03  0.17790557993E+04  0.20850112345E+04  0.12699999809E+01 0.  1.
       -4    1    3    3    0  502  0.71491998481E+03  0.81921920942E+03 -0.35974143793E+03  0.11452712399E+04  0.12699999809E+01 0. -1.
</event>
<event>
 5   0  0.1006893E-06  0.2903260E+04  0.7818609E-02  0.8271908E-01
        2   -1    0    0  501    0  0.00000000000E+00  0.00000000000E+00  0.28055767610E+04  0.28055767610E+04  0.25500000920E-02 0.  1.
       -2   -1    0    0    0  501  0.00000000000E+00  0.00000000000E+00 -0.75108620620E+03  0.75108620620E+03  0.25500000920E-02 0. -1.
    10030    2    1    2    0    0  0.00000000000E+00  0.00000000000E+00  0.20544905548E+04  0.35566629672E+04  0.29032602402E+04 0.  0.
        4    1    3    3  502    0 -0.31049963525E+03 -0.13336364094E+04  0.43688373986E+03  0.14373117654E+04  0.12699999809E+01 0. -1.
       -4    1    3    3    0  502  0.31049963525E+03  0.13336364094E+04  0.16176068150E+04  0.21193512018E+04  0.12699999809E+01 0.  1.
</event>
<event>
 5   0  0.3786210E-07  0.2892044E+04  0.7818609E-02  0.8275249E-01
        1   -1    0    0  501    0  0.00000000000E+00  0.00000000000E+00  0.12415294396E+04  0.12415294396E+04  0.50400001928E-02 0. -1.
       -1   -1    0    0    0  501  0.00000000000E+00  0.00000000000E+00 -0.16841963966E+04  0.16841963966E+04  0.50400001928E-02 0.  1.
    10030    2    1    2    0    0  0.00000000000E+00  0.00000000000E+00 -0.44266695698E+03  0.29257258362E+04  0.28920438506E+04 0.  0.
        5    1    3    3  502    0  0.78649509370E+03  0.47294883505E+03  0.90913430217E+03  0.12918213508E+04  0.46999998093E+01 0. -1.
       -5    1    3    3    0  502 -0.78649509370E+03 -0.47294883505E+03 -0.13518012592E+04  0.16339044854E+04  0.46999998093E+01 0.  1.
</event>
<event>
 5   0  0.3378750E-07  0.2899046E+04  0.7818609E-02  0.8273161E-01
        3   -1    0    0  501    0  0.00000000000E+00  0.00000000000E+00  0.11429364874E+04  0.11429364919E+04  0.10100000352E+00 0. -1.
       -3   -1    0    0    0  501  0.00000000000E+00  0.00000000000E+00 -0.18383499715E+04  0.18383499743E+04  0.10100000352E+00 0.  1.
    10030    2    1    2    0    0  0.00000000000E+00  0.00000000000E+00 -0.69541348412E+03  0.29812864662E+04  0.28990462362E+04 0.  0.
        2    1    3    3  502    0 -0.12544158686E+04 -0.14754212209E+03 -0.10790705031E+04  0.16612408013E+04  0.25500000920E-02 0. -1.
       -2    1    3    3    0  502  0.12544158686E+04  0.14754212209E+03  0.38365701894E+03  0.13200456649E+04  0.25500000920E-02 0.  1.
</event>
<event>
 5   0  0.3786210E-07  0.2903300E+04  0.7818609E-02  0.8271896E-01
        1   -1    0    0  501    0  0.00000000000E+00  0.00000000000E+00  0.16795945142E+04  0.16795945142E+04  0.50400001928E-02 0.  1.
       -1   -1    0    0    0  501  0.00000000000E+00  0.00000000000E+00 -0.12546407036E+04  0.12546407036E+04  0.50400001928E-02 0. -1.
    10030    2    1    2    0    0  0.00000000000E+00  0.00000000000E+00  0.42495381061E+03  0.29342352178E+04  0.29032999453E+04 0.  0.
        5    1    3    3  502    0  0.82703334602E+03 -0.75160980306E+03 -0.72387434041E+03  0.13315095201E+04  0.46999998093E+01 0. -1.
       -5    1    3    3    0  502 -0.82703334602E+03  0.75160980306E+03  0.11488281510E+04  0.16027256977E+04  0.46999998093E+01 0.  1.
</event>
<event>
 5   0  0.1006893E-06  0.2913683E+04  0.7818609E-02  0.8268818E-01
       -2   -1    0    0    0  501  0.00000000000E+00  0.00000000000E+00  0.95361185372E+03  0.95361185373E+03  0.25500000920E-02 0. -1.
        2   -1    0    0  501    0  0.00000000000E+00  0.00000000000E+00 -0.22256300390E+04  0.22256300390E+04  0.25500000920E-02 0.  1.
    10030    2    1    2    0    0  0.00000000000E+00  0.00000000000E+00 -0.12720181853E+04  0.31792418927E+04  0.29136830213E+04 0.  0.
        4    1    3    3  502    0 -0.82076751549E+03  0.10256553946E+03 -0.19445638582E+04  0.21131751503E+04  0.12699999809E+01 0.  1.
       -4    1    3    3    0  502  0.82076751549E+03 -0.10256553946E+03  0.67254567288E+03  0.10660667425E+04  0.12699999809E+01 0. -1.
</event>
<event>
 5   0  0.1031339E-06  0.2899072E+04  0.7818609E-02  0.8273154E-01
       -2   -1    0    0    0  501  0.00000000000E+00  0.00000000000E+00  0.98672369880E+03  0.98672369880E+03  0.25500000920E-02 0.  1.
        2   -1    0    0  501    0  0.00000000000E+00  0.00000000000E+00 -0.21294255102E+04  0.21294255102E+04  0.25500000920E-02 0. -1.
    10030    2    1    2    0    0  0.00000000000E+00  0.00000000000E+00 -0.11427018114E+04  0.31161492090E+04  0.28990720003E+04 0.  0.
        5    1    3    3  502    0 -0.94654842784E+03 -0.27856229400E+03  0.57003693733E+03  0.11395240576E+04  0.46999998093E+01 0.  1.
       -5    1    3    3    0  502  0.94654842784E+03  0.27856229400E+03 -0.17127387488E+04  0.19766251515E+04  0.46999998093E+01 0. -1.
</event>
<event>
 5   0  0.3769563E-07  0.2899189E+04  0.7818609E-02  0.8273119E-01
       -1   -1    0    0    0  501  0.00000000000E+00  0.00000000000E+00  0.11914453790E+04  0.11914453790E+04  0.50400001928E-02 0. -1.
        1   -1    0    0  501    0  0.00000000000E+00  0.00000000000E+00 -0.17636768056E+04  0.17636768056E+04  0.50400001928E-02 0.  1.
    10030    2    1    2    0    0  0.00000000000E+00  0.00000000000E+00 -0.57223142653E+03  0.29551221846E+04  0.28991892523E+04 0.  0.
        3    1    3    3  502    0  0.14016691538E+04  0.67291353591E+02  0.84380013434E+02  0.14058181034E+04  0.10100000352E+00 0.  1.
       -3    1    3    3    0  502 -0.14016691538E+04 -0.67291353591E+02 -0.65661143996E+03  0.15493040812E+04  0.10100000352E+00 0. -1.
</event>
<event>
 5   0  0.1006893E-06  0.2902312E+04  0.7818609E-02  0.8272190E-01
       -2   -1    0    0    0  501  0.00000000000E+00  0.00000000000E+00  0.11511774339E+04  0.11511774339E+04  0.25500000920E-02 0. -1.
        2   -1    0    0  501    0  0.00000000000E+00  0.00000000000E+00 -0.18293043801E+04  0.18293043801E+04  0.25500000920E-02 0.  1.
    10030    2    1    2    0    0  0.00000000000E+00  0.00000000000E+00 -0.67812694623E+03  0.29804818140E+04  0.29023121280E+04 0.  0.
        4    1    3    3  502    0  0.93203405602E+03 -0.24438730100E+03  0.77526106072E+03  0.12367069013E+04  0.12699999809E+01 0. -1.
       -4    1    3    3    0  502 -0.93203405602E+03  0.24438730100E+03 -0.14533880070E+04  0.17437749127E+04  0.12699999809E+01 0.  1.
</event>
<event>
 5   0  0.1063979E-06  0.2900797E+04  0.7818609E-02  0.8272640E-01
        2   -1    0    0  501    0  0.00000000000E+00  0.00000000000E+00  0.23393475257E+04  0.23393475257E+04  0.25500000920E-02 0.  1.
       -2   -1    0    0    0  501  0.00000000000E+00  0.00000000000E+00 -0.89924910242E+03  0.89924910242E+03  0.25500000920E-02 0. -1.
    10030    2    1    2    0    0  0.00000000000E+00  0.00000000000E+00  0.14400984232E+04  0.32385966281E+04  0.29007972440E+04 0.  0.
        1    1    3    3  502    0  0.85182685396E+03  0.10277735381E+04  0.86785785654E+02  0.13377066971E+04  0.50400001928E-02 0. -1.
       -1    1    3    3    0  502 -0.85182685396E+03 -0.10277735381E+04  0.13533126376E+04  0.19008899310E+04  0.50400001928E-02 0.  1.
</event>
<event>
 5   0  0.3769563E-07  0.2900993E+04  0.7818609E-02  0.8272582E-01
        1   -1    0    0  501    0  0.00000000000E+00  0.00000000000E+00  0.12100868062E+04  0.12100868062E+04  0.50400001928E-02 0.  1.
       -1   -1    0    0    0  501  0.00000000000E+00  0.00000000000E+00 -0.17386693123E+04  0.17386693123E+04  0.50400001928E-02 0. -1.
    10030    2    1    2    0    0  0.00000000000E+00  0.00000000000E+00 -0.52858250606E+03  0.29487561185E+04  0.29009934817E+04 0.  0.
        3    1    3    3  502    0 -0.17315562839E+01  0.68340955063E+03  0.10361829452E+04  0.12412601332E+04  0.10100000352E+00 0.  1.
       -3    1    3    3    0  502  0.17315562839E+01 -0.68340955063E+03 -0.15647654513E+04  0.17074959853E+04  0.10100000352E+00 0. -1.
</event>
<event>
 5   0  0.9950999E-07  0.2898988E+04  0.7818609E-02  0.8273178E-01
       -2   -1    0    0    0  501  0.00000000000E+00  0.00000000000E+00  0.19228839934E+04  0.19228839934E+04  0.25500000920E-02 0. -1.
        2   -1    0    0  501    0  0.00000000000E+00  0.00000000000E+00 -0.10926470674E+04  0.10926470674E+04  0.25500000920E-02 0.  1.
    10030    2    1    2    0    0  0.00000000000E+00  0.00000000000E+00  0.83023692602E+03  0.30155310608E+04  0.28989884831E+04 0.  0.
        3    1    3    3  502    0  0.13650179394E+02 -0.10390770088E+04 -0.63603355753E+03  0.12183620374E+04  0.10100000352E+00 0.  1.
       -3    1    3    3    0  502 -0.13650179394E+02  0.10390770088E+04  0.14662704835E+04  0.17971690234E+04  0.10100000352E+00 0. -1.
</event>
<event>
 5   0  0.3769563E-07  0.2901850E+04  0.7818609E-02  0.8272327E-01
        1   -1    0    0  501    0  0.00000000000E+00  0.00000000000E+00  0.10467412781E+04  0.10467412781E+04  0.50400001928E-02 0. -1.
       -1   -1    0    0    0  501  0.00000000000E+00  0.00000000000E+00 -0.20111779397E+04  0.20111779397E+04  0.50400001928E-02 0.  1.
    10030    2    1    2    0    0  0.00000000000E+00  0.00000000000E+00 -0.96443666164E+03  0.30579192178E+04  0.29018497322E+04 0.  0.
        3    1    3    3  502    0  0.32481715404E+03  0.89847924961E+03 -0.16329239226E+04  0.18918804647E+04  0.10100000352E+00 0.  1.
       -3    1    3    3    0  502 -0.32481715404E+03 -0.89847924961E+03  0.66848726096E+03  0.11660387531E+04  0.10100000352E+00 0. -1.
</event>
<event>
 5   0  0.3786210E-07  0.2902662E+04  0.7818609E-02  0.8272086E-01
        1   -1    0    0  501    0  0.00000000000E+00  0.00000000000E+00  0.99527885262E+03  0.99527885264E+03  0.50400001928E-02 0.  1.
       -1   -1    0    0    0  501  0.00000000000E+00  0.00000000000E+00 -0.21163534236E+04  0.21163534236E+04  0.50400001928E-02 0. -1.
    10030    2    1    2    0    0  0.00000000000E+00  0.00000000000E+00 -0.11210745710E+04  0.31116322762E+04  0.29026620935E+04 0.  0.
        5    1    3    3  502    0  0.75667198069E+03 -0.12337911690E+04 -0.44534629550E+03  0.15143145472E+04  0.46999998093E+01 0.  1.
       -5    1    3    3    0  502 -0.75667198069E+03  0.12337911690E+04 -0.67572827547E+03  0.15973177290E+04  0.46999998093E+01 0. -1.
</event>
<event>
 5   0  0.3770467E-07  0.2900510E+04  0.7818609E-02  0.8272726E-01
       -1   -1    0    0    0  501  0.00000000000E+00  0.00000000000E+00  0.13943184956E+04  0.13943184956E+04  0.50400001928E-02 0. -1.
        1   -1    0    0  501    0  0.00000000000E+00  0.00000000000E+00 -0.15084356066E+04  0.15084356066E+04  0.50400001928E-02 0.  1.
    10030    2    1    2    0    0  0.00000000000E+00  0.00000000000E+00 -0.11411711093E+03  0.29027541022E+04  0.29005100694E+04 0.  0.
        1    1    3    3  502    0 -0.11205673330E+04 -0.84724498109E+03 -0.41753781415E+03  0.14655487136E+04  0.50400001928E-02 0.  1.
       -1    1    3    3    0  502  0.11205673330E+04  0.84724498109E+03  0.30342070322E+03  0.14372053886E+04  0.50400001928E-02 0. -1.
</event>
<event>
 5   0  0.3770467E-07  0.2925786E+04  0.7818609E-02  0.8265246E-01
        1   -1    0    0  501    0  0.00000000000E+00  0.00000000000E+00  0.20467436759E+04  0.20467436759E+04  0.50400001928E-02 0.  1.
       -1   -1    0    0    0  501  0.00000000000E+00  0.00000000000E+00 -0.10455906501E+04  0.10455906502E+04  0.50400001928E-02 0. -1.
    10030    2    1    2    0    0  0.00000000000E+00  0.00000000000E+00  0.10011530258E+04  0.30923343261E+04  0.29257860830E+04 0.  0.
        1    1    3    3  502    0  0.99401775770E+03  0.92657030432E+03 -0.71972368720E+02  0.13608026504E+04  0.50400001928E-02 0. -1.
       -1    1    3    3    0  502 -0.99401775770E+03 -0.92657030432E+03  0.10731253945E+04  0.17315316757E+04  0.50400001928E-02 0.  1.
</event>
<event>
 5   0  0.9950999E-07  0.2904621E+04  0.7818609E-02  0.8271504E-01
        2   -1    0    0  501    0  0.00000000000E+00  0.00000000000E+00  0.16092016245E+04  0.16092016245E+04  0.25500000920E-02 0. -1.
       -2   -1    0    0    0  501  0.00000000000E+00  0.00000000000E+00 -0.13107160244E+04  0.13107160244E+04  0.25500000920E-02 0.  1.
    10030    2    1    2    0    0  0.00000000000E+00  0.00000000000E+00  0.29848560011E+03  0.29199176490E+04  0.29046213907E+04 0.  0.
        3    1    3    3  502    0 -0.44882915362E+03 -0.10590688219E+04 -0.74206724301E+03  0.13688455655E+04  0.10100000352E+00 0.  1.
       -3    1    3    3    0  502  0.44882915362E+03  0.10590688219E+04  0.10405528431E+04  0.15510720835E+04  0.10100000352E+00 0. -1.
</event>
<event>
 5   0  0.3770467E-07  0.2898541E+04  0.7818609E-02  0.8273312E-01
       -1   -1    0    0    0  501  0.00000000000E+00  0.00000000000E+00  0.10749891614E+04  0.10749891614E+04  0.50400001928E-02 0. -1.
        1   -1    0    0  501    0  0.00000000000E+00  0.00000000000E+00 -0.19538667207E+04  0.19538667207E+04  0.50400001928E-02 0.  1.
    10030    2    1    2    0    0  0.00000000000E+00  0.00000000000E+00 -0.87887755929E+03  0.30288558821E+04  0.28985413902E+04 0.  0.
        1    1    3    3  502    0 -0.95757146245E+03  0.74146751718E+03  0.39238267067E+03  0.12730598356E+04  0.50400001928E-02 0. -1.
       -1    1    3    3    0  502  0.95757146245E+03 -0.74146751718E+03 -0.12712602300E+04  0.17557960465E+04  0.50400001928E-02 0.  1.
</event>
<event>
 5   0  0.3885904E-07  0.2892352E+04  0.7818609E-02  0.8275157E-01
        1   -1    0    0  501    0  0.00000000000E+00  0.00000000000E+00  0.27293855910E+04  0.27293855910E+04  0.50400001928E-02 0. -1.
       -1   -1    0    0    0  501  0.00000000000E+00  0.00000000000E+00 -0.76626238163E+03  0.76626238165E+03  0.50400001928E-02 0.  1.
    10030    2    1    2    0    0  0.00000000000E+00  0.00000000000E+00  0.19631232093E+04  0.34956479726E+04  0.28923523322E+04 0.  0.
        2    1    3    3  502    0 -0.27954704758E+03 -0.34410733192E+03  0.26452274535E+04  0.26821231681E+04  0.25500000920E-02 0. -1.
       -2    1    3    3    0  502  0.27954704758E+03  0.34410733192E+03 -0.68210424420E+03  0.81352480457E+03  0.25500000920E-02 0.  1.
</event>
<event>
 5   0  0.3786210E-07  0.2897892E+04  0.7818609E-02  0.8273505E-01
        1   -1    0    0  501    0  0.00000000000E+00  0.00000000000E+00  0.18775198054E+04  0.18775198054E+04  0.50400001928E-02 0.  1.
       -1   -1    0    0    0  501  0.00000000000E+00  0.00000000000E+00 -0.11182011928E+04  0.11182011928E+04  0.50400001928E-02 0. -1.
    10030    2    1    2    0    0  0.00000000000E+00  0.00000000000E+00  0.75931861261E+03  0.29957209982E+04  0.28978922588E+04 0.  0.
        5    1    3    3  502    0 -0.14116470512E+04 -0.32248305430E+03  0.32614216747E+03  0.14842956312E+04  0.46999998093E+01 0.  1.
       -5    1    3    3    0  502  0.14116470512E+04  0.32248305430E+03  0.43317644513E+03  0.15114253670E+04  0.46999998093E+01 0. -1.
</event>
<event>
 5   0  0.1006893E-06  0.2897188E+04  0.7818609E-02  0.8273715E-01
       -2   -1    0    0    0  501  0.00000000000E+00  0.00000000000E+00  0.13840089102E+04  0.13840089102E+04  0.25500000920E-02 0. -1.
        2   -1    0    0  501    0  0.00000000000E+00  0.00000000000E+00 -0.15161928366E+04  0.15161928366E+04  0.25500000920E-02 0.  1.
    10030    2    1    2    0    0  0.00000000000E+00  0.00000000000E+00 -0.13218392640E+03  0.29002017468E+04  0.28971878748E+04 0.  0.
        4    1    3    3  502    0  0.11529362918E+04 -0.16059475264E+03  0.79699403362E+03  0.14107635769E+04  0.12699999809E+01 0. -1.
       -4    1    3    3    0  502 -0.11529362918E+04  0.16059475264E+03 -0.92917796002E+03  0.14894381698E+04  0.12699999809E+01 0.  1.
</event>
<event>
 5   0  0.9950999E-07  0.2864771E+04  0.7818609E-02  0.8283437E-01
       -2   -1    0    0    0  501  0.00000000000E+00  0.00000000000E+00  0.77224984292E+03  0.77224984292E+03  0.25500000920E-02 0. -1.
        2   -1    0    0  501    0  0.00000000000E+00  0.00000000000E+00 -0.26568196698E+04  0.26568196698E+04  0.25500000920E-02 0.  1.
    10030    2    1    2    0    0  0.00000000000E+00  0.00000000000E+00 -0.18845698268E+04  0.34290695127E+04  0.28647712458E+04 0.  0.
        3    1    3    3  502    0  0.10337133467E+04  0.13491235919E+03 -0.21181077240E+04  0.23607509331E+04  0.10100000352E+00 0.  1.
       -3    1    3    3    0  502 -0.10337133467E+04 -0.13491235919E+03  0.23353789714E+03  0.10683185795E+04  0.10100000352E+00 0. -1.
</event>
<event>
 5   0  0.3638028E-07  0.2898023E+04  0.7818609E-02  0.8273466E-01
        1   -1    0    0  501    0  0.00000000000E+00  0.00000000000E+00  0.16271153574E+04  0.16271153574E+04  0.50400001928E-02 0. -1.
       -1   -1    0    0    0  501  0.00000000000E+00  0.00000000000E+00 -0.12904027563E+04  0.12904027563E+04  0.50400001928E-02 0.  1.
    10030    2    1    2    0    0  0.00000000000E+00  0.00000000000E+00  0.33671260116E+03  0.29175181137E+04  0.28980228723E+04 0.  0.
        4    1    3    3  502    0 -0.10831308485E+04 -0.16218939710E+03 -0.78679094481E+03  0.13485249123E+04  0.12699999809E+01 0.  1.
       -4    1    3    3    0  502  0.10831308485E+04  0.16218939710E+03  0.11235035460E+04  0.15689932014E+04  0.12699999809E+01 0. -1.
</event>
<event>
 5   0  0.3885904E-07  0.2919101E+04  0.7818609E-02  0.8267217E-01
       -1   -1    0    0    0  501  0.00000000000E+00  0.00000000000E+00  0.15193414548E+04  0.15193414548E+04  0.50400001928E-02 0. -1.
        1   -1    0    0  501    0  0.00000000000E+00  0.00000000000E+00 -0.14021121332E+04  0.14021121332E+04  0.50400001928E-02 0.  1.
    10030    2    1    2    0    0  0.00000000000E+00  0.00000000000E+00  0.11722932159E+03  0.29214535880E+04  0.29191006069E+04 0.  0.
        2    1    3    3  502    0  0.14561256523E+04 -0.96660458459E+02  0.33257923292E+02  0.14597093029E+04  0.25500000920E-02 0. -1.
       -2    1    3    3    0  502 -0.14561256523E+04  0.96660458459E+02  0.83971398302E+02  0.14617442851E+04  0.25500000920E-02 0.  1.
</event>
<event>
 5   0  0.3638028E-07  0.2901795E+04  0.7818609E-02  0.8272343E-01
       -1   -1    0    0    0  501  0.00000000000E+00  0.00000000000E+00  0.10100497148E+04  0.10100497148E+04  0.50400001928E-02 0. -1.
        1   -1    0    0  501    0  0.00000000000E+00  0.00000000000E+00 -0.20841589972E+04  0.20841589973E+04  0.50400001928E-02 0.  1.
    10030    2    1    2    0    0  0.00000000000E+00  0.00000000000E+00 -0.10741092824E+04  0.30942087121E+04  0.29017954447E+04 0.  0.
        4    1    3    3  502    0 -0.49850636303E+03  0.63545219495E+03  0.74818734247E+03  0.11009514060E+04  0.12699999809E+01 0. -1.
       -4    1    3    3    0  502  0.49850636303E+03 -0.63545219495E+03 -0.18222966249E+04  0.19932573061E+04  0.12699999809E+01 0.  1.
</event>
<event>
 5   0  0.3770467E-07  0.2897251E+04  0.7818609E-02  0.8273696E-01
       -1   -1    0    0    0  501  0.00000000000E+00  0.00000000000E+00  0.10371878268E+04  0.10371878268E+04  0.50400001928E-02 0.  1.
        1   -1    0    0  501    0  0.00000000000E+00  0.00000000000E+00 -0.20232745668E+04  0.20232745668E+04  0.50400001928E-02 0. -1.
    10030    2    1    2    0    0  0.00000000000E+00  0.00000000000E+00 -0.98608673998E+03  0.30604623937E+04  0.28972509391E+04 0.  0.
        1    1    3    3  502    0  0.46191448698E+03 -0.10797011425E+04  0.40290916983E+03  0.12415536032E+04  0.50400001928E-02 0.  1.
       -1    1    3    3    0  502 -0.46191448698E+03  0.10797011425E+04 -0.13889959098E+04  0.18189087904E+04  0.50400001928E-02 0. -1.
</event>
<event>
 5   0  0.3378750E-07  0.2911884E+04  0.7818609E-02  0.8269350E-01
        3   -1    0    0  501    0  0.00000000000E+00  0.00000000000E+00  0.18199002159E+04  0.18199002187E+04  0.10100000352E+00 0. -1.
       -3   -1    0    0    0  501  0.00000000000E+00  0.00000000000E+00 -0.11647708590E+04  0.11647708634E+04  0.10100000352E+00 0.  1.
    10030    2    1    2    0    0  0.00000000000E+00  0.00000000000E+00  0.65512935684E+03  0.29846710820E+04  0.29118837535E+04 0.  0.
        5    1    3    3  502    0  0.11332775114E+04  0.88957383653E+03  0.54277768110E+03  0.15395743664E+04  0.46999998093E+01 0. -1.
       -5    1    3    3    0  502 -0.11332775114E+04 -0.88957383653E+03  0.11235167575E+03  0.14450967157E+04  0.46999998093E+01 0.  1.
</event>
<event>
 5   0  0.3770467E-07  0.2899801E+04  0.7818609E-02  0.8272937E-01
        1   -1    0    0  501    0  0.00000000000E+00  0.00000000000E+00  0.17376919504E+04  0.17376919504E+04  0.50400001928E-02 0. -1.
       -1   -1    0    0    0  501  0.00000000000E+00  0.00000000000E+00 -0.12097726176E+04  0.12097726176E+04  0.50400001928E-02 0.  1.
    10030    2    1    2    0    0  0.00000000000E+00  0.00000000000E+00  0.52791933285E+03  0.29474645680E+04  0.28998014687E+04 0.  0.
        1    1    3    3  502    0 -0.62299317987E+03 -0.70809444656E+03 -0.85536460904E+03  0.12732505102E+04  0.50400001928E-02 0.  1.
       -1    1    3    3    0  502  0.62299317987E+03  0.70809444656E+03  0.13832839419E+04  0.16742140578E+04  0.50400001928E-02 0. -1.
</event>
<event>
 5   0  0.1006893E-06  0.2898485E+04  0.7818609E-02  0.8273328E-01
       -2   -1    0    0    0  501  0.00000000000E+00  0.00000000000E+00  0.13494232162E+04  0.13494232162E+04  0.25500000920E-02 0.  1.
        2   -1    0    0  501    0  0.00000000000E+00  0.00000000000E+00 -0.15564454957E+04  0.15564454957E+04  0.25500000920E-02 0. -1.
    10030    2    1    2    0    0  0.00000000000E+00  0.00000000000E+00 -0.20702227948E+03  0.29058687120E+04  0.28984849054E+04 0.  0.
        4    1    3    3  502    0  0.11826569215E+04 -0.83643639306E+03 -0.14833342364E+03  0.14561276218E+04  0.12699999809E+01 0. -1.
       -4    1    3    3    0  502 -0.11826569215E+04  0.83643639306E+03 -0.58688855844E+02  0.14497410901E+04  0.12699999809E+01 0.  1.
</event>
<event>
 5   0  0.1006893E-06  0.2954328E+04  0.7818609E-02  0.8256894E-01
       -2   -1    0    0    0  501  0.00000000000E+00  0.00000000000E+00  0.13490871192E+04  0.13490871192E+04  0.25500000920E-02 0. -1.
        2   -1    0    0  501    0  0.00000000000E+00  0.00000000000E+00 -0.16173996657E+04  0.16173996657E+04  0.25500000920E-02 0.  1.
    10030    2    1    2    0    0  0.00000000000E+00  0.00000000000E+00 -0.26831254649E+03  0.29664867849E+04  0.29543277107E+04 0.  0.
        4    1    3    3  502    0  0.99219605179E+02  0.74549094751E+03 -0.14107700759E+04  0.15987104500E+04  0.12699999809E+01 0.  1.
       -4    1    3    3    0  502 -0.99219605179E+02 -0.74549094751E+03  0.11424575294E+04  0.13677763349E+04  0.12699999809E+01 0. -1.
</event>
<event>
 5   0  0.3770467E-07  0.2897780E+04  0.7818609E-02  0.8273538E-01
       -1   -1    0    0    0  501  0.00000000000E+00  0.00000000000E+00  0.15265623325E+04  0.15265623325E+04  0.50400001928E-02 0. -1.
        1   -1    0    0  501    0  0.00000000000E+00  0.00000000000E+00 -0.13751693161E+04  0.13751693161E+04  0.50400001928E-02 0.  1.
    10030    2    1    2    0    0  0.00000000000E+00  0.00000000000E+00  0.15139301638E+03  0.29017316486E+04  0.28977796181E+04 0.  0.
        1    1    3    3  502    0  0.31472449945E+03 -0.44674583483E+03  0.14194089673E+04  0.15209717841E+04  0.50400001928E-02 0. -1.
       -1    1    3    3    0  502 -0.31472449945E+03  0.44674583483E+03 -0.12680159510E+04  0.13807598645E+04  0.50400001928E-02 0.  1.
</event>
<event>
 5   0  0.3638028E-07  0.2903907E+04  0.7818609E-02  0.8271716E-01
       -1   -1    0    0    0  501  0.00000000000E+00  0.00000000000E+00  0.17413860760E+04  0.17413860761E+04  0.50400001928E-02 0.  1.
        1   -1    0    0  501    0  0.00000000000E+00  0.00000000000E+00 -0.12106273678E+04  0.12106273678E+04  0.50400001928E-02 0. -1.
    10030    2    1    2    0    0  0.00000000000E+00  0.00000000000E+00  0.53075870828E+03  0.29520134438E+04  0.29039074652E+04 0.  0.
        4    1    3    3  502    0  0.14244886853E+04 -0.25462200174E+03  0.14437960480E+03  0.14542515125E+04  0.12699999809E+01 0.  1.
       -4    1    3    3    0  502 -0.14244886853E+04  0.25462200174E+03  0.38637910348E+03  0.14977619313E+04  0.12699999809E+01 0. -1.
</event>
<event>
 5   0  0.1006893E-06  0.2898266E+04  0.7818609E-02  0.8273394E-01
        2   -1    0    0  501    0  0.00000000000E+00  0.00000000000E+00  0.19241923504E+04  0.19241923504E+04  0.25500000920E-02 0.  1.
       -2   -1    0    0    0  501  0.00000000000E+00  0.00000000000E+00 -0.10913598989E+04  0.10913598989E+04  0.25500000920E-02 0. -1.
    10030    2    1    2    0    0  0.00000000000E+00  0.00000000000E+00  0.83283245155E+03  0.30155522493E+04  0.28982659430E+04 0.  0.
        4    1    3    3  502    0 -0.75494851004E+03  0.45326652493E+03  0.16138978616E+04  0.18384955034E+04  0.12699999809E+01 0.  1.
       -4    1    3    3    0  502  0.75494851004E+03 -0.45326652493E+03 -0.78106541008E+03  0.11770567459E+04  0.12699999809E+01 0. -1.
</event>
<event>
 5   0  0.1006893E-06  0.2952622E+04  0.7818609E-02  0.8257391E-01
        2   -1    0    0  501    0  0.00000000000E+00  0.00000000000E+00  0.15644564418E+04  0.15644564418E+04  0.25500000920E-02 0. -1.
       -2   -1    0    0    0  501  0.00000000000E+00  0.00000000000E+00 -0.13931320898E+04  0.13931320898E+04  0.25500000920E-02 0.  1.
    10030    2    1    2    0    0  0.00000000000E+00  0.00000000000E+00  0.17132435197E+03  0.29575885316E+04  0.29526222055E+04 0.  0.
        4    1    3    3  502    0  0.81499370245E+01 -0.13226139787E+04 -0.57127529586E+03  0.14407398220E+04  0.12699999809E+01 0.  1.
       -4    1    3    3    0  502 -0.81499370245E+01  0.13226139787E+04  0.74259964783E+03  0.15168487096E+04  0.12699999809E+01 0. -1.
</event>
<event>
 5   0  0.1031339E-06  0.2896578E+04  0.7818609E-02  0.8273896E-01
       -2   -1    0    0    0  501  0.00000000000E+00  0.00000000000E+00  0.14720683443E+04  0.14720683443E+04  0.25500000920E-02 0.  1.
        2   -1    0    0  501    0  0.00000000000E+00  0.00000000000E+00 -0.14248936640E+04  0.14248936640E+04  0.25500000920E-02 0. -1.
    10030    2    1    2    0    0  0.00000000000E+00  0.00000000000E+00  0.47174680310E+02  0.28969620084E+04  0.28965778822E+04 0.  0.
        5    1    3    3  502    0  0.14049315944E+04  0.29209244416E+03 -0.17231611286E+03  0.14452908751E+04  0.46999998093E+01 0. -1.
       -5    1    3    3    0  502 -0.14049315944E+04 -0.29209244416E+03  0.21949079317E+03  0.14516711333E+04  0.46999998093E+01 0.  1.
</event>
<event>
 5   0  0.1063979E-06  0.2925904E+04  0.7818609E-02  0.8265212E-01
       -2   -1    0    0    0  501  0.00000000000E+00  0.00000000000E+00  0.14593942902E+04  0.14593942902E+04  0.25500000920E-02 0.  1.
        2   -1    0    0  501    0  0.00000000000E+00  0.00000000000E+00 -0.14665188731E+04  0.14665188731E+04  0.25500000920E-02 0. -1.
    10030    2    1    2    0    0  0.00000000000E+00  0.00000000000E+00 -0.71245828988E+01  0.29259131633E+04  0.29259044892E+04 0.  0.
        1    1    3    3  502    0 -0.20144192223E+03  0.12992285182E+04  0.63804360025E+03  0.14613942747E+04  0.50400001928E-02 0.  1.
       -1    1    3    3    0  502  0.20144192223E+03 -0.12992285182E+04 -0.64516818315E+03  0.14645188886E+04  0.50400001928E-02 0. -1.
</event>
<event>
 5   0  0.3786210E-07  0.2914758E+04  0.7818609E-02  0.8268500E-01
        1   -1    0    0  501    0  0.00000000000E+00  0.00000000000E+00  0.19836799371E+04  0.19836799371E+04  0.50400001928E-02 0.  1.
       -1   -1    0    0    0  501  0.00000000000E+00  0.00000000000E+00 -0.10707141800E+04  0.10707141800E+04  0.50400001928E-02 0. -1.
    10030    2    1    2    0    0  0.00000000000E+00  0.00000000000E+00  0.91296575712E+03  0.30543941171E+04  0.29147584717E+04 0.  0.
        5    1    3    3  502    0  0.25819133354E+03 -0.93632934414E+03  0.15950691268E+04  0.18675232301E+04  0.46999998093E+01 0.  1.
       -5    1    3    3    0  502 -0.25819133354E+03  0.93632934414E+03 -0.68210336972E+03  0.11868708870E+04  0.46999998093E+01 0. -1.
</event>
<event>
 5   0  0.1031339E-06  0.2905124E+04  0.7818609E-02  0.8271355E-01
        2   -1    0    0  501    0  0.00000000000E+00  0.00000000000E+00  0.18020551788E+04  0.18020551788E+04  0.25500000920E-02 0. -1.
       -2   -1    0    0    0  501  0.00000000000E+00  0.00000000000E+00 -0.11708498017E+04  0.11708498017E+04  0.25500000920E-02 0.  1.
    10030    2    1    2    0    0  0.00000000000E+00  0.00000000000E+00  0.63120537709E+03  0.29729049805E+04  0.29051237142E+04 0.  0.
        5    1    3    3  502    0 -0.74915262178E+03  0.77309161603E+03 -0.68234953935E+03  0.12745678802E+04  0.46999998093E+01 0.  1.
       -5    1    3    3    0  502  0.74915262178E+03 -0.77309161603E+03  0.13135549164E+04  0.16983371002E+04  0.46999998093E+01 0. -1.
</event>
<event>
 5   0  0.3885904E-07  0.2902941E+04  0.7818609E-02  0.8272003E-01
       -1   -1    0    0    0  501  0.00000000000E+00  0.00000000000E+00  0.11155966462E+04  0.11155966462E+04  0.50400001928E-02 0. -1.
        1   -1    0    0  501    0  0.00000000000E+00  0.00000000000E+00 -0.18884658665E+04  0.18884658665E+04  0.50400001928E-02 0.  1.
    10030    2    1    2    0    0  0.00000000000E+00  0.00000000000E+00 -0.77286922029E+03  0.30040625127E+04  0.29029407070E+04 0.  0.
        2    1    3    3  502    0 -0.14245028741E+04  0.16164350694E+03 -0.15175499378E+03  0.14416541332E+04  0.25500000920E-02 0. -1.
       -2    1    3    3    0  502  0.14245028741E+04 -0.16164350694E+03 -0.62111422651E+03  0.15624083794E+04  0.25500000920E-02 0.  1.
</event>
<event>
 5   0  0.1031339E-06  0.2901860E+04  0.7818609E-02  0.8272324E-01
        2   -1    0    0  501    0  0.00000000000E+00  0.00000000000E+00  0.16261947179E+04  0.16261947179E+04  0.25500000920E-02 0.  1.
       -2   -1    0    0    0  501  0.00000000000E+00  0.00000000000E+00 -0.12945542414E+04  0.12945542414E+04  0.25500000920E-02 0. -1.
    10030    2    1    2    0    0  0.00000000000E+00  0.00000000000E+00  0.33164047647E+03  0.29207489594E+04  0.29018595896E+04 0.  0.
        5    1    3    3  502    0  0.98459716242E+03  0.54754104557E+03 -0.75443016323E+03  0.13558833763E+04  0.46999998093E+01 0. -1.
       -5    1    3    3    0  502 -0.98459716242E+03 -0.54754104557E+03  0.10860706397E+04  0.15648655831E+04  0.46999998093E+01 0.  1.
</event>
<event>
 5   0  0.3769563E-07  0.2902766E+04  0.7818609E-02  0.8272055E-01
       -1   -1    0    0    0  501  0.00000000000E+00  0.00000000000E+00  0.10419550148E+04  0.10419550149E+04  0.50400001928E-02 0.  1.
        1   -1    0    0  501    0  0.00000000000E+00  0.00000000000E+00 -0.20216929988E+04  0.20216929988E+04  0.50400001928E-02 0. -1.
    10030    2    1    2    0    0  0.00000000000E+00  0.00000000000E+00 -0.97973798394E+03  0.30636480136E+04  0.29027663761E+04 0.  0.
        3    1    3    3  502    0 -0.77509578186E+03  0.35021694013E+03  0.75135926600E+03  0.11348859560E+04  0.10100000352E+00 0.  1.
       -3    1    3    3    0  502  0.77509578186E+03 -0.35021694013E+03 -0.17310972499E+04  0.19287620577E+04  0.10100000352E+00 0. -1.
</event>
<event>
 5   0  0.3638028E-07  0.2897074E+04  0.7818609E-02  0.8273749E-01
       -1   -1    0    0    0  501  0.00000000000E+00  0.00000000000E+00  0.25986638987E+04  0.25986638987E+04  0.50400001928E-02 0.  1.
        1   -1    0    0  501    0  0.00000000000E+00  0.00000000000E+00 -0.80743765015E+03  0.80743765017E+03  0.50400001928E-02 0. -1.
    10030    2    1    2    0    0  0.00000000000E+00  0.00000000000E+00  0.17912262485E+04  0.34061015488E+04  0.28970737456E+04 0.  0.
        4    1    3    3  502    0  0.10943938107E+04 -0.87991276066E+03  0.47776123010E+03  0.14833076839E+04  0.12699999809E+01 0. -1.
       -4    1    3    3    0  502 -0.10943938107E+04  0.87991276066E+03  0.13134650184E+04  0.19227938649E+04  0.12699999809E+01 0.  1.
</event>
<event>
 5   0  0.3769563E-07  0.2895387E+04  0.7818609E-02  0.8274251E-01
       -1   -1    0    0    0  501  0.00000000000E+00  0.00000000000E+00  0.78872939839E+03  0.78872939841E+03  0.50400001928E-02 0.  1.
        1   -1    0    0  501    0  0.00000000000E+00  0.00000000000E+00 -0.26572057065E+04  0.26572057065E+04  0.50400001928E-02 0. -1.
    10030    2    1    2    0    0  0.00000000000E+00  0.00000000000E+00 -0.18684763081E+04  0.34459351049E+04  0.28953868538E+04 0.  0.
        3    1    3    3  502    0 -0.33774659546E+03  0.24189555689E+03 -0.25847403688E+04  0.26179131016E+04  0.10100000352E+00 0. -1.
       -3    1    3    3    0  502  0.33774659546E+03 -0.24189555689E+03  0.71626406068E+03  0.82802200333E+03  0.10100000352E+00 0.  1.
</event>
<event>
 5   0  0.3769563E-07  0.2923311E+04  0.7818609E-02  0.8265975E-01
       -1   -1    0    0    0  501  0.00000000000E+00  0.00000000000E+00  0.11477807850E+04  0.11477807850E+04  0.50400001928E-02 0. -1.
        1   -1    0    0  501    0  0.00000000000E+00  0.00000000000E+00 -0.18613631213E+04  0.18613631213E+04  0.50400001928E-02 0.  1.
    10030    2    1    2    0    0  0.00000000000E+00  0.00000000000E+00 -0.71358233633E+03  0.30091439063E+04  0.29233110163E+04 0.  0.
        3    1    3    3  502    0  0.70236949699E+03  0.26477958373E+03  0.93422915570E+03  0.11984219890E+04  0.10100000352E+00 0. -1.
       -3    1    3    3    0  502 -0.70236949699E+03 -0.26477958373E+03 -0.16478114920E+04  0.18107219173E+04  0.10100000352E+00 0.  1.
</event>
<event>
 5   0  0.9994311E-07  0.2899965E+04  0.7818609E-02  0.8272888E-01
        2   -1    0    0  501    0  0.00000000000E+00  0.00000000000E+00  0.17599594933E+04  0.17599594933E+04  0.25500000920E-02 0. -1.
       -2   -1    0    0    0  501  0.00000000000E+00  0.00000000000E+00 -0.11946008115E+04  0.11946008115E+04  0.25500000920E-02 0.  1.
    10030    2    1    2    0    0  0.00000000000E+00  0.00000000000E+00  0.56535868182E+03  0.29545603048E+04  0.28999648542E+04 0.  0.
        2    1    3    3  502    0  0.69616062130E+03 -0.98590287782E+03 -0.53606970471E+03  0.13206115339E+04  0.25500000920E-02 0.  1.
       -2    1    3    3    0  502 -0.69616062130E+03  0.98590287782E+03  0.11014283865E+04  0.16339487709E+04  0.25500000920E-02 0. -1.
</event>
<event>
 5   0  0.3786210E-07  0.2904108E+04  0.7818609E-02  0.8271656E-01
        1   -1    0    0  501    0  0.00000000000E+00  0.00000000000E+00  0.13835184648E+04  0.13835184649E+04  0.50400001928E-02 0.  1.
       -1   -1    0    0    0  501  0.00000000000E+00  0.00000000000E+00 -0.15239845510E+04  0.15239845510E+04  0.50400001928E-02 0. -1.
    10030    2    1    2    0    0  0.00000000000E+00  0.00000000000E+00 -0.14046608617E+03  0.29075030159E+04  0.29041079639E+04 0.  0.
        5    1    3    3  502    0  0.76145338874E+03  0.12037270044E+04  0.21235339455E+03  0.14400993085E+04  0.46999998093E+01 0.  1.
       -5    1    3    3    0  502 -0.76145338874E+03 -0.12037270044E+04 -0.35281948072E+03  0.14674037073E+04  0.46999998093E+01 0. -1.
</event>
<event>
 5   0  0.3885904E-07  0.2838908E+04  0.7818609E-02  0.8291290E-01
       -1   -1    0    0    0  501  0.00000000000E+00  0.00000000000E+00  0.11421283943E+04  0.11421283943E+04  0.50400001928E-02 0.  1.
        1   -1    0    0  501    0  0.00000000000E+00  0.00000000000E+00 -0.17641179450E+04  0.17641179450E+04  0.50400001928E-02 0. -1.
    10030    2    1    2    0    0  0.00000000000E+00  0.00000000000E+00 -0.62198955068E+03  0.29062463394E+04  0.28389076744E+04 0.  0.
        2    1    3    3  502    0 -0.55355280812E+03  0.20229717394E+02 -0.16489067291E+04  0.17394606503E+04  0.25500000920E-02 0. -1.
       -2    1    3    3    0  502  0.55355280812E+03 -0.20229717394E+02  0.10269171784E+04  0.11667856890E+04  0.25500000920E-02 0.  1.
</event>
<event>
 5   0  0.3769563E-07  0.2900240E+04  0.7818609E-02  0.8272806E-01
       -1   -1    0    0    0  501  0.00000000000E+00  0.00000000000E+00  0.81463788349E+03  0.81463788350E+03  0.50400001928E-02 0. -1.
        1   -1    0    0  501    0  0.00000000000E+00  0.00000000000E+00 -0.25813283453E+04  0.25813283453E+04  0.50400001928E-02 0.  1.
    10030    2    1    2    0    0  0.00000000000E+00  0.00000000000E+00 -0.17666904618E+04  0.33959662288E+04  0.29002398934E+04 0.  0.
        3    1    3    3  502    0  0.64249108634E+03  0.23199275196E+03  0.61444825331E+03  0.91878294454E+03  0.10100000352E+00 0. -1.
       -3    1    3    3    0  502 -0.64249108634E+03 -0.23199275196E+03 -0.23811387151E+04  0.24771832842E+04  0.10100000352E+00 0.  1.
</event>
<event>
 5   0  0.1063979E-06  0.2901043E+04  0.7818609E-02  0.8272567E-01
       -2   -1    0    0    0  501  0.00000000000E+00  0.00000000000E+00  0.10275632991E+04  0.10275632991E+04  0.25500000920E-02 0. -1.
        2   -1    0    0  501    0  0.00000000000E+00  0.00000000000E+00 -0.20475752203E+04  0.20475752204E+04  0.25500000920E-02 0.  1.
    10030    2    1    2    0    0  0.00000000000E+00  0.00000000000E+00 -0.10200119212E+04  0.30751385195E+04  0.29010433631E+04 0.  0.
        1    1    3    3  502    0  0.89875363059E+02  0.14474101866E+04 -0.54249352473E+03  0.15483452630E+04  0.50400001928E-02 0. -1.
       -1    1    3    3    0  502 -0.89875363059E+02 -0.14474101866E+04 -0.47751839649E+03  0.15267932565E+04  0.50400001928E-02 0.  1.
</event>
<event>
 5   0  0.9994311E-07  0.2896874E+04  0.7818609E-02  0.8273808E-01
       -2   -1    0    0    0  501  0.00000000000E+00  0.00000000000E+00  0.15566744725E+04  0.15566744725E+04  0.25500000920E-02 0.  1.
        2   -1    0    0  501    0  0.00000000000E+00  0.00000000000E+00 -0.13477256103E+04  0.13477256103E+04  0.25500000920E-02 0. -1.
    10030    2    1    2    0    0  0.00000000000E+00  0.00000000000E+00  0.20894886215E+03  0.29044000828E+04  0.28968742143E+04 0.  0.
        2    1    3    3  502    0  0.14169279726E+03 -0.36110901567E+03  0.15036261456E+04  0.15528580604E+04  0.25500000920E-02 0.  1.
       -2    1    3    3    0  502 -0.14169279726E+03  0.36110901567E+03 -0.12946772834E+04  0.13515420224E+04  0.25500000920E-02 0. -1.
</event>
<event>
 5   0  0.3769563E-07  0.2816007E+04  0.7818609E-02  0.8298316E-01
        1   -1    0    0  501    0  0.00000000000E+00  0.00000000000E+00  0.13325983008E+04  0.13325983008E+04  0.50400001928E-02 0. -1.
       -1   -1    0    0    0  501  0.00000000000E+00  0.00000000000E+00 -0.14876756325E+04  0.14876756325E+04  0.50400001928E-02 0.  1.
    10030    2    1    2    0    0  0.00000000000E+00  0.00000000000E+00 -0.15507733173E+03  0.28202739333E+04  0.28160071164E+04 0.  0.
        3    1    3    3  502    0 -0.62277730427E+03 -0.70725975784E+03 -0.11252624257E+04  0.14677477551E+04  0.10100000352E+00 0.  1.
       -3    1    3    3    0  502  0.62277730427E+03  0.70725975784E+03  0.97018509397E+03  0.13525261781E+04  0.10100000352E+00 0. -1.
</event>
<event>
 5   0  0.1063979E-06  0.2907315E+04  0.7818609E-02  0.8270704E-01
        2   -1    0    0  501    0  0.00000000000E+00  0.00000000000E+00  0.21170611690E+04  0.21170611690E+04  0.25500000920E-02 0.  1.
       -2   -1    0    0    0  501  0.00000000000E+00  0.00000000000E+00 -0.99813833603E+03  0.99813833603E+03  0.25500000920E-02 0. -1.
    10030    2    1    2    0    0  0.00000000000E+00  0.00000000000E+00  0.11189228330E+04  0.31151995050E+04  0.29073148522E+04 0.  0.
        1    1    3    3  502    0 -0.11342682627E+04  0.86741181610E+03  0.85124154257E+03  0.16624018510E+04  0.50400001928E-02 0. -1.
       -1    1    3    3    0  502  0.11342682627E+04 -0.86741181610E+03  0.26768129042E+03  0.14527976541E+04  0.50400001928E-02 0.  1.
</event>
<event>
 5   0  0.3770467E-07  0.2904087E+04  0.7818609E-02  0.8271662E-01
        1   -1    0    0  501    0  0.00000000000E+00  0.00000000000E+00  0.19003711911E+04  0.19003711911E+04  0.50400001928E-02 0. -1.
       -1   -1    0    0    0  501  0.00000000000E+00  0.00000000000E+00 -0.11094835132E+04  0.11094835132E+04  0.50400001928E-02 0.  1.
    10030    2    1    2    0    0  0.00000000000E+00  0.00000000000E+00  0.79088767789E+03  0.30098547042E+04  0.29040871236E+04 0.  0.
        1    1    3    3  502    0  0.77061935648E+03  0.54184709701E+03 -0.74977851316E+03  0.12040017807E+04  0.50400001928E-02 0.  1.
       -1    1    3    3    0  502 -0.77061935648E+03 -0.54184709701E+03  0.15406661911E+04  0.18058529235E+04  0.50400001928E-02 0. -1.
</event>
<event>
 5   0  0.3769563E-07  0.2902617E+04  0.7818609E-02  0.8272099E-01
       -1   -1    0    0    0  501  0.00000000000E+00  0.00000000000E+00  0.11915446648E+04  0.11915446649E+04  0.50400001928E-02 0.  1.
        1   -1    0    0  501    0  0.00000000000E+00  0.00000000000E+00 -0.17677027488E+04  0.17677027488E+04  0.50400001928E-02 0. -1.
    10030    2    1    2    0    0  0.00000000000E+00  0.00000000000E+00 -0.57615808395E+03  0.29592474137E+04  0.29026172875E+04 0.  0.
        3    1    3    3  502    0 -0.37918705518E+03 -0.55749167405E+03  0.10221864880E+04  0.12245182791E+04  0.10100000352E+00 0.  1.
       -3    1    3    3    0  502  0.37918705518E+03  0.55749167405E+03 -0.15983445719E+04  0.17347291346E+04  0.10100000352E+00 0. -1.
</event>
<event>
 5   0  0.1006893E-06  0.2903346E+04  0.7818609E-02  0.8271883E-01
        2   -1    0    0  501    0  0.00000000000E+00  0.00000000000E+00  0.16074590274E+04  0.16074590274E+04  0.25500000920E-02 0.  1.
       -2   -1    0    0    0  501  0.00000000000E+00  0.00000000000E+00 -0.13109850112E+04  0.13109850112E+04  0.25500000920E-02 0. -1.
    10030    2    1    2    0    0  0.00000000000E+00  0.00000000000E+00  0.29647401622E+03  0.29184440386E+04  0.29033461323E+04 0.  0.
        4    1    3    3  502    0  0.77574611478E+03  0.11914114568E+04 -0.14673364220E+03  0.14292570338E+04  0.12699999809E+01 0.  1.
       -4    1    3    3    0  502 -0.77574611478E+03 -0.11914114568E+04  0.44320765842E+03  0.14891870048E+04  0.12699999809E+01 0. -1.
</event>
<event>
 5   0  0.1031339E-06  0.2858951E+04  0.7818609E-02  0.8285196E-01
        2   -1    0    0  501    0  0.00000000000E+00  0.00000000000E+00  0.19822661071E+04  0.19822661071E+04  0.25500000920E-02 0.  1.
       -2   -1    0    0    0  501  0.00000000000E+00  0.00000000000E+00 -0.10308407727E+04  0.10308407727E+04  0.25500000920E-02 0. -1.
    10030    2    1    2    0    0  0.00000000000E+00  0.00000000000E+00  0.95142533433E+03  0.30131068798E+04  0.28589513641E+04 0.  0.
        5    1    3    3  502    0  0.13380224873E+04  0.50091714696E+03  0.42677090960E+03  0.14910994816E+04  0.46999998093E+01 0. -1.
       -5    1    3    3    0  502 -0.13380224873E+04 -0.50091714696E+03  0.52465442473E+03  0.15220073982E+04  0.46999998093E+01 0.  1.
</event>
<event>
 5   0  0.1063979E-06  0.2897260E+04  0.7818609E-02  0.8273693E-01
       -2   -1    0    0    0  501  0.00000000000E+00  0.00000000000E+00  0.91315100832E+03  0.91315100832E+03  0.25500000920E-02 0.  1.
        2   -1    0    0  501    0  0.00000000000E+00  0.00000000000E+00 -0.22981183910E+04  0.22981183910E+04  0.25500000920E-02 0. -1.
    10030    2    1    2    0    0  0.00000000000E+00  0.00000000000E+00 -0.13849673827E+04  0.32112693993E+04  0.28972601720E+04 0.  0.
        1    1    3    3  502    0 -0.70791087791E+03 -0.13727285387E+03 -0.20850570069E+04  0.22062285397E+04  0.50400001928E-02 0. -1.
       -1    1    3    3    0  502  0.70791087791E+03  0.13727285387E+03  0.70008962422E+03  0.10050408596E+04  0.50400001928E-02 0.  1.
</event>
<event>
 5   0  0.1031339E-06  0.2906115E+04  0.7818609E-02  0.8271060E-01
        2   -1    0    0  501    0  0.00000000000E+00  0.00000000000E+00  0.20837374379E+04  0.20837374379E+04  0.25500000920E-02 0. -1.
       -2   -1    0    0    0  501  0.00000000000E+00  0.00000000000E+00 -0.10132642729E+04  0.10132642729E+04  0.25500000920E-02 0.  1.
    10030    2    1    2    0    0  0.00000000000E+00  0.00000000000E+00  0.10704731650E+04  0.30970017108E+04  0.29061154141E+04 0.  0.
        5    1    3    3  502    0 -0.71498886162E+03  0.11718818206E+04  0.10427961345E+04  0.17239379171E+04  0.46999998093E+01 0. -1.
       -5    1    3    3    0  502  0.71498886162E+03 -0.11718818206E+04  0.27677030450E+02  0.13730637938E+04  0.46999998093E+01 0.  1.
</event>
<event>
 5   0  0.1006893E-06  0.2896369E+04  0.7818609E-02  0.8273959E-01
       -2   -1    0    0    0  501  0.00000000000E+00  0.00000000000E+00  0.24535337897E+04  0.24535337897E+04  0.25500000920E-02 0.  1.
        2   -1    0    0  501    0  0.00000000000E+00  0.00000000000E+00 -0.85478281793E+03  0.85478281793E+03  0.25500000920E-02 0. -1.
    10030    2    1    2    0    0  0.00000000000E+00  0.00000000000E+00  0.15987509718E+04  0.33083166077E+04  0.28963691247E+04 0.  0.
        4    1    3    3  502    0 -0.28478721042E+03  0.35466530701E+03 -0.77107327142E+03  0.89523563267E+03  0.12699999809E+01 0. -1.
       -4    1    3    3    0  502  0.28478721042E+03 -0.35466530701E+03  0.23698242432E+04  0.24130809750E+04  0.12699999809E+01 0.  1.
</event>
<event>
 5   0  0.3769563E-07  0.2904147E+04  0.7818609E-02  0.8271645E-01
        1   -1    0    0  501    0  0.00000000000E+00  0.00000000000E+00  0.14541047716E+04  0.14541047716E+04  0.50400001928E-02 0.  1.
       -1   -1    0    0    0  501  0.00000000000E+00  0.00000000000E+00 -0.14500452224E+04  0.14500452224E+04  0.50400001928E-02 0. -1.
    10030    2    1    2    0    0  0.00000000000E+00  0.00000000000E+00  0.40595491906E+01  0.29041499941E+04  0.29041471567E+04 0.  0.
        3    1    3    3  502    0  0.19463161453E+03 -0.86868730369E+03 -0.11451498719E+04  0.14504714186E+04  0.10100000352E+00 0. -1.
       -3    1    3    3    0  502 -0.19463161453E+03  0.86868730369E+03  0.11492094211E+04  0.14536785754E+04  0.10100000352E+00 0.  1.
</event>
<event>
 5   0  0.3769563E-07  0.2904133E+04  0.7818609E-02  0.8271649E-01
       -1   -1    0    0    0  501  0.00000000000E+00  0.00000000000E+00  0.16114610855E+04  0.16114610855E+04  0.50400001928E-02 0.  1.
        1   -1    0    0  501    0  0.00000000000E+00  0.00000000000E+00 -0.13084378798E+04  0.13084378798E+04  0.50400001928E-02 0. -1.
    10030    2    1    2    0    0  0.00000000000E+00  0.00000000000E+00  0.30302320572E+03  0.29198989653E+04  0.29041327285E+04 0.  0.
        3    1    3    3  502    0 -0.79276951508E+03 -0.83877107660E+03 -0.73445114877E+03  0.13680054543E+04  0.10100000352E+00 0. -1.
       -3    1    3    3    0  502  0.79276951508E+03  0.83877107660E+03  0.10374743545E+04  0.15518935110E+04  0.10100000352E+00 0.  1.
</event>
<event>
 5   0  0.9950999E-07  0.2901634E+04  0.7818609E-02  0.8272391E-01
        2   -1    0    0  501    0  0.00000000000E+00  0.00000000000E+00  0.14927949391E+04  0.14927949391E+04  0.25500000920E-02 0.  1.
       -2   -1    0    0    0  501  0.00000000000E+00  0.00000000000E+00 -0.14100195636E+04  0.14100195636E+04  0.25500000920E-02 0. -1.
    10030    2    1    2    0    0  0.00000000000E+00  0.00000000000E+00  0.82775375538E+02  0.29028145026E+04  0.29016340696E+04 0.  0.
        3    1    3    3  502    0 -0.97213854578E+03  0.87309467191E+03  0.67213795787E+03  0.14693934473E+04  0.10100000352E+00 0.  1.
       -3    1    3    3    0  502  0.97213854578E+03 -0.87309467191E+03 -0.58936258233E+03  0.14334210554E+04  0.10100000352E+00 0. -1.
</event>
<event>
 5   0  0.1006893E-06  0.2896665E+04  0.7818609E-02  0.8273870E-01
        2   -1    0    0  501    0  0.00000000000E+00  0.00000000000E+00  0.22447969168E+04  0.22447969168E+04  0.25500000920E-02 0. -1.
       -2   -1    0    0    0  501  0.00000000000E+00  0.00000000000E+00 -0.93445758821E+03  0.93445758821E+03  0.25500000920E-02 0.  1.
    10030    2    1    2    0    0  0.00000000000E+00  0.00000000000E+00  0.13103393286E+04  0.31792545050E+04  0.28966653330E+04 0.  0.
        4    1    3    3  502    0 -0.89362012174E+03 -0.11271122853E+04  0.84119459880E+03  0.16662979901E+04  0.12699999809E+01 0.  1.
       -4    1    3    3    0  502  0.89362012174E+03  0.11271122853E+04  0.46914472979E+03  0.15129565149E+04  0.12699999809E+01 0. -1.
</event>
<event>
 5   0  0.3885904E-07  0.2899007E+04  0.7818609E-02  0.8273173E-01
       -1   -1    0    0    0  501  0.00000000000E+00  0.00000000000E+00  0.13453690715E+04  0.13453690715E+04  0.50400001928E-02 0. -1.
        1   -1    0    0  501    0  0.00000000000E+00  0.00000000000E+00 -0.15616986299E+04  0.15616986299E+04  0.50400001928E-02 0.  1.
    10030    2    1    2    0    0  0.00000000000E+00  0.00000000000E+00 -0.21632955835E+03  0.29070677014E+04  0.28990074409E+04 0.  0.
        2    1    3    3  502    0 -0.11352609728E+04  0.28368253914E+03  0.74964789075E+03  0.13896996868E+04  0.25500000920E-02 0.  1.
       -2    1    3    3    0  502  0.11352609728E+04 -0.28368253914E+03 -0.96597744910E+03  0.15173680146E+04  0.25500000920E-02 0. -1.
</event>
<event>
 5   0  0.3770467E-07  0.2900977E+04  0.7818609E-02  0.8272587E-01
       -1   -1    0    0    0  501  0.00000000000E+00  0.00000000000E+00  0.13551586732E+04  0.13551586732E+04  0.50400001928E-02 0.  1.
        1   -1    0    0  501    0  0.00000000000E+00  0.00000000000E+00 -0.15525248471E+04  0.15525248472E+04  0.50400001928E-02 0. -1.
    10030    2    1    2    0    0  0.00000000000E+00  0.00000000000E+00 -0.19736617398E+03  0.29076835203E+04  0.29009774297E+04 0.  0.
        1    1    3    3  502    0  0.48812213798E+03  0.94743979311E+03 -0.10848335536E+04  0.15207791497E+04  0.50400001928E-02 0. -1.
       -1    1    3    3    0  502 -0.48812213798E+03 -0.94743979311E+03  0.88746737967E+03  0.13869043706E+04  0.50400001928E-02 0.  1.
</event>
<event>
 5   0  0.3885904E-07  0.2892480E+04  0.7818609E-02  0.8275118E-01
       -1   -1    0    0    0  501  0.00000000000E+00  0.00000000000E+00  0.21765107922E+04  0.21765107922E+04  0.50400001928E-02 0.  1.
        1   -1    0    0  501    0  0.00000000000E+00  0.00000000000E+00 -0.96099254321E+03  0.96099254322E+03  0.50400001928E-02 0. -1.
    10030    2    1    2    0    0  0.00000000000E+00  0.00000000000E+00  0.12155182490E+04  0.31375033354E+04  0.28924803484E+04 0.  0.
        2    1    3    3  502    0  0.10672512104E+04  0.80239264489E+03  0.12104829295E+04  0.18022563706E+04  0.25500000920E-02 0.  1.
       -2    1    3    3    0  502 -0.10672512104E+04 -0.80239264489E+03  0.50353194708E+01  0.13352469648E+04  0.25500000920E-02 0. -1.
</event>
<event>
 5   0  0.1006893E-06  0.2897662E+04  0.7818609E-02  0.8273573E-01
        2   -1    0    0  501    0  0.00000000000E+00  0.00000000000E+00  0.24329815432E+04  0.24329815432E+04  0.25500000920E-02 0.  1.
       -2   -1    0    0    0  501  0.00000000000E+00  0.00000000000E+00 -0.86277345199E+03  0.86277345199E+03  0.25500000920E-02 0. -1.
    10030    2    1    2    0    0  0.00000000000E+00  0.00000000000E+00  0.15702080912E+04  0.32957549952E+04  0.28976624266E+04 0.  0.
        4    1    3    3  502    0  0.89111923505E+03  0.17354019658E+02  0.20842712839E+04  0.22668442935E+04  0.12699999809E+01 0.  1.
       -4    1    3    3    0  502 -0.89111923505E+03 -0.17354019658E+02 -0.51406319271E+03  0.10289107017E+04  0.12699999809E+01 0. -1.
</event>
<event>
 5   0  0.1006893E-06  0.2888789E+04  0.7818609E-02  0.8276221E-01
       -2   -1    0    0    0  501  0.00000000000E+00  0.00000000000E+00  0.11694680122E+04  0.11694680122E+04  0.25500000920E-02 0.  1.
        2   -1    0    0  501    0  0.00000000000E+00  0.00000000000E+00 -0.17839521755E+04  0.17839521755E+04  0.25500000920E-02 0. -1.
    10030    2    1    2    0    0  0.00000000000E+00  0.00000000000E+00 -0.61448416328E+03  0.29534201877E+04  0.28887886766E+04 0.  0.
        4    1    3    3  502    0  0.96719714056E+01  0.56041400116E+03  0.10537498118E+04  0.11935441670E+04  0.12699999809E+01 0.  1.
       -4    1    3    3    0  502 -0.96719714056E+01 -0.56041400116E+03 -0.16682339751E+04  0.17598760207E+04  0.12699999809E+01 0. -1.
</event>
<event>
 5   0  0.1031339E-06  0.2896445E+04  0.7818609E-02  0.8273936E-01
       -2   -1    0    0    0  501  0.00000000000E+00  0.00000000000E+00  0.17780921154E+04  0.17780921154E+04  0.25500000920E-02 0. -1.
        2   -1    0    0  501    0  0.00000000000E+00  0.00000000000E+00 -0.11795502185E+04  0.11795502185E+04  0.25500000920E-02 0.  1.
    10030    2    1    2    0    0  0.00000000000E+00  0.00000000000E+00  0.59854189693E+03  0.29576423338E+04  0.28964453685E+04 0.  0.
        5    1    3    3  502    0  0.82000513226E+03 -0.11108042481E+04 -0.14703613654E+03  0.13885014260E+04  0.46999998093E+01 0.  1.
       -5    1    3    3    0  502 -0.82000513226E+03  0.11108042481E+04  0.74557803347E+03  0.15691409078E+04  0.46999998093E+01 0. -1.
</event>
<event>
 5   0  0.3769563E-07  0.2869155E+04  0.7818609E-02  0.8282114E-01
       -1   -1    0    0    0  501  0.00000000000E+00  0.00000000000E+00  0.30095481045E+04  0.30095481045E+04  0.50400001928E-02 0. -1.
        1   -1    0    0  501    0  0.00000000000E+00  0.00000000000E+00 -0.68382765385E+03  0.68382765387E+03  0.50400001928E-02 0.  1.
    10030    2    1    2    0    0  0.00000000000E+00  0.00000000000E+00  0.23257204506E+04  0.36933757583E+04  0.28691547323E+04 0.  0.
        3    1    3    3  502    0 -0.10860553795E+04 -0.71216122716E+03  0.19472736993E+04  0.23406334124E+04  0.10100000352E+00 0. -1.
       -3    1    3    3    0  502  0.10860553795E+04  0.71216122716E+03  0.37844675127E+03  0.13527423460E+04  0.10100000352E+00 0.  1.
</event>
<event>
 5   0  0.3885904E-07  0.2816792E+04  0.7818609E-02  0.8298074E-01
        1   -1    0    0  501    0  0.00000000000E+00  0.00000000000E+00  0.12503761884E+04  0.12503761884E+04  0.50400001928E-02 0. -1.
       -1   -1    0    0    0  501  0.00000000000E+00  0.00000000000E+00 -0.15863860142E+04  0.15863860142E+04  0.50400001928E-02 0.  1.
    10030    2    1    2    0    0  0.00000000000E+00  0.00000000000E+00 -0.33600982574E+03  0.28367622026E+04  0.28167920035E+04 0.  0.
        2    1    3    3  502    0 -0.13930677612E+04 -0.29238346697E+02  0.38599800852E+02  0.13939091122E+04  0.25500000920E-02 0. -1.
       -2    1    3    3    0  502  0.13930677612E+04  0.29238346697E+02 -0.37460962659E+03  0.14428530905E+04  0.25500000920E-02 0.  1.
</event>
<event>
 5   0  0.1063979E-06  0.2893232E+04  0.7818609E-02  0.8274894E-01
        2   -1    0    0  501    0  0.00000000000E+00  0.00000000000E+00  0.16620971265E+04  0.16620971265E+04  0.25500000920E-02 0.  1.
       -2   -1    0    0    0  501  0.00000000000E+00  0.00000000000E+00 -0.12590705684E+04  0.12590705684E+04  0.25500000920E-02 0. -1.
    10030    2    1    2    0    0  0.00000000000E+00  0.00000000000E+00  0.40302655808E+03  0.29211676948E+04  0.28932318080E+04 0.  0.
        1    1    3    3  502    0 -0.12881148732E+03  0.40527814278E+03  0.15975624373E+04  0.16531934289E+04  0.50400001928E-02 0.  1.
       -1    1    3    3    0  502  0.12881148732E+03 -0.40527814278E+03 -0.11945358792E+04  0.12679742659E+04  0.50400001928E-02 0. -1.
</event>
<event>
 5   0  0.3638028E-07  0.2913679E+04  0.7818609E-02  0.8268819E-01
       -1   -1    0    0    0  501  0.00000000000E+00  0.00000000000E+00  0.13677497348E+04  0.13677497349E+04  0.50400001928E-02 0.  1.
        1   -1    0    0  501    0  0.00000000000E+00  0.00000000000E+00 -0.15517323452E+04  0.15517323452E+04  0.50400001928E-02 0. -1.
    10030    2    1    2    0    0  0.00000000000E+00  0.00000000000E+00 -0.18398261032E+03  0.29194820800E+04  0.29136791201E+04 0.  0.
        4    1    3    3  502    0 -0.46669574041E+03  0.12937387260E+04  0.38939772250E+03  0.14294044229E+04  0.12699999809E+01 0.  1.
       -4    1    3    3    0  502  0.46669574041E+03 -0.12937387260E+04 -0.57338033282E+03  0.14900776571E+04  0.12699999809E+01 0. -1.
</event>
<event>
 5   0  0.1006893E-06  0.2948059E+04  0.7818609E-02  0.8258721E-01
       -2   -1    0    0    0  501  0.00000000000E+00  0.00000000000E+00  0.91644341748E+03  0.91644341748E+03  0.25500000920E-02 0. -1.
        2   -1    0    0  501    0  0.00000000000E+00  0.00000000000E+00 -0.23708638316E+04  0.23708638316E+04  0.25500000920E-02 0.  1.
    10030    2    1    2    0    0  0.00000000000E+00  0.00000000000E+00 -0.14544204142E+04  0.32873072491E+04  0.29480587187E+04 0.  0.
        4    1    3    3  502    0  0.30481768340E+03 -0.12050015584E+04 -0.16107399525E+04  0.20345582772E+04  0.12699999809E+01 0.  1.
       -4    1    3    3    0  502 -0.30481768340E+03  0.12050015584E+04  0.15631953831E+03  0.12527489720E+04  0.12699999809E+01 0. -1.
</event>
<event>
 5   0  0.9994311E-07  0.2886842E+04  0.7818609E-02  0.8276803E-01
        2   -1    0    0  501    0  0.00000000000E+00  0.00000000000E+00  0.14700460746E+04  0.14700460746E+04  0.25500000920E-02 0.  1.
       -2   -1    0    0    0  501  0.00000000000E+00  0.00000000000E+00 -0.14172786073E+04  0.14172786073E+04  0.25500000920E-02 0. -1.
    10030    2    1    2    0    0  0.00000000000E+00  0.00000000000E+00  0.52767467250E+02  0.28873246819E+04  0.28868424642E+04 0.  0.
        2    1    3    3  502    0 -0.81315178297E+03  0.82620485458E+03 -0.83378002226E+03  0.14279423691E+04  0.25500000920E-02 0. -1.
       -2    1    3    3    0  502  0.81315178297E+03 -0.82620485458E+03  0.88654748951E+03  0.14593823128E+04  0.25500000920E-02 0.  1.
</event>
<event>
 5   0  0.3638028E-07  0.2905085E+04  0.7818609E-02  0.8271366E-01
       -1   -1    0    0    0  501  0.00000000000E+00  0.00000000000E+00  0.11252158548E+04  0.11252158549E+04  0.50400001928E-02 0.  1.
        1   -1    0    0  501    0  0.00000000000E+00  0.00000000000E+00 -0.18750893215E+04  0.18750893215E+04  0.50400001928E-02 0. -1.
    10030    2    1    2    0    0  0.00000000000E+00  0.00000000000E+00 -0.74987346669E+03  0.30003051764E+04  0.29050853577E+04 0.  0.
        4    1    3    3  502    0 -0.54002899345E+03  0.11762808573E+04 -0.10557950035E+04  0.16703211282E+04  0.12699999809E+01 0. -1.
       -4    1    3    3    0  502  0.54002899345E+03 -0.11762808573E+04  0.30592153677E+03  0.13299840482E+04  0.12699999809E+01 0.  1.
</event>
<event>
 5   0  0.1006893E-06  0.2893381E+04  0.7818609E-02  0.8274850E-01
        2   -1    0    0  501    0  0.00000000000E+00  0.00000000000E+00  0.16211131130E+04  0.16211131130E+04  0.25500000920E-02 0.  1.
       -2   -1    0    0    0  501  0.00000000000E+00  0.00000000000E+00 -0.12910345615E+04  0.12910345615E+04  0.25500000920E-02 0. -1.
    10030    2    1    2    0    0  0.00000000000E+00  0.00000000000E+00  0.33007855147E+03  0.29121476746E+04  0.28933807610E+04 0.  0.
        4    1    3    3  502    0  0.40378538531E+03  0.69407409442E+03 -0.10461487648E+04  0.13187912408E+04  0.12699999809E+01 0. -1.
       -4    1    3    3    0  502 -0.40378538531E+03 -0.69407409442E+03  0.13762273163E+04  0.15933564337E+04  0.12699999809E+01 0.  1.
</event>
<event>
 5   0  0.3769563E-07  0.2900967E+04  0.7818609E-02  0.8272590E-01
       -1   -1    0    0    0  501  0.00000000000E+00  0.00000000000E+00  0.10693867326E+04  0.10693867326E+04  0.50400001928E-02 0.  1.
        1   -1    0    0  501    0  0.00000000000E+00  0.00000000000E+00 -0.19673914027E+04  0.19673914027E+04  0.50400001928E-02 0. -1.
    10030    2    1    2    0    0  0.00000000000E+00  0.00000000000E+00 -0.89800467009E+03  0.30367781353E+04  0.29009669174E+04 0.  0.
        3    1    3    3  502    0 -0.75891918792E+03  0.51271018695E+03 -0.16264129343E+04  0.18665607712E+04  0.10100000352E+00 0. -1.
       -3    1    3    3    0  502  0.75891918792E+03 -0.51271018695E+03  0.72840826422E+03  0.11702173641E+04  0.10100000352E+00 0.  1.
</event>
<event>
 5   0  0.1031339E-06  0.2899425E+04  0.7818609E-02  0.8273049E-01
       -2   -1    0    0    0  501  0.00000000000E+00  0.00000000000E+00  0.12127515904E+04  0.12127515904E+04  0.25500000920E-02 0.  1.
        2   -1    0    0  501    0  0.00000000000E+00  0.00000000000E+00 -0.17329732878E+04  0.17329732878E+04  0.25500000920E-02 0. -1.
    10030    2    1    2    0    0  0.00000000000E+00  0.00000000000E+00 -0.52022169740E+03  0.29457248782E+04  0.28994248470E+04 0.  0.
        5    1    3    3  502    0 -0.34823858461E+03 -0.64663938516E+03  0.10097408657E+04  0.12486037450E+04  0.46999998093E+01 0.  1.
       -5    1    3    3    0  502  0.34823858461E+03  0.64663938516E+03 -0.15299625631E+04  0.16971211332E+04  0.46999998093E+01 0. -1.
</event>
<event>
 5   0  0.1031339E-06  0.2900311E+04  0.7818609E-02  0.8272785E-01
       -2   -1    0    0    0  501  0.00000000000E+00  0.00000000000E+00  0.84988654632E+03  0.84988654632E+03  0.25500000920E-02 0.  1.
        2   -1    0    0  501    0  0.00000000000E+00  0.00000000000E+00 -0.24743909864E+04  0.24743909864E+04  0.25500000920E-02 0. -1.
    10030    2    1    2    0    0  0.00000000000E+00  0.00000000000E+00 -0.16245044401E+04  0.33242775328E+04  0.29003114382E+04 0.  0.
        5    1    3    3  502    0  0.65987501271E+03  0.29902919176E+03 -0.22521000647E+04  0.23657620932E+04  0.46999998093E+01 0. -1.
       -5    1    3    3    0  502 -0.65987501271E+03 -0.29902919176E+03  0.62759562460E+03  0.95851543960E+03  0.46999998093E+01 0.  1.
</event>
<event>
 5   0  0.1063979E-06  0.2898647E+04  0.7818609E-02  0.8273280E-01
       -2   -1    0    0    0  501  0.00000000000E+00  0.00000000000E+00  0.13945703879E+04  0.13945703879E+04  0.25500000920E-02 0.  1.
        2   -1    0    0  501    0  0.00000000000E+00  0.00000000000E+00 -0.15062260777E+04  0.15062260778E+04  0.25500000920E-02 0. -1.
    10030    2    1    2    0    0  0.00000000000E+00  0.00000000000E+00 -0.11165568982E+03  0.29007964657E+04  0.28986467778E+04 0.  0.
        1    1    3    3  502    0 -0.11654496462E+04  0.20497531218E+03 -0.89325817079E+03  0.14826320906E+04  0.50400001928E-02 0. -1.
       -1    1    3    3    0  502  0.11654496462E+04 -0.20497531218E+03  0.78160248097E+03  0.14181643751E+04  0.50400001928E-02 0.  1.
</event>
<event>
 5   0  0.3638028E-07  0.2907664E+04  0.7818609E-02  0.8270601E-01
        1   -1    0    0  501    0  0.00000000000E+00  0.00000000000E+00  0.25592309649E+04  0.25592309649E+04  0.50400001928E-02 0.  1.
       -1   -1    0    0    0  501  0.00000000000E+00  0.00000000000E+00 -0.82588390068E+03  0.82588390070E+03  0.50400001928E-02 0. -1.
    10030    2    1    2    0    0  0.00000000000E+00  0.00000000000E+00  0.17333470642E+04  0.33851148656E+04  0.29076641155E+04 0.  0.
        4    1    3    3  502    0 -0.11120318635E+04 -0.18109542494E+03 -0.20301136785E+03  0.11448255966E+04  0.12699999809E+01 0. -1.
       -4    1    3    3    0  502  0.11120318635E+04  0.18109542494E+03  0.19363584321E+04  0.22402892690E+04  0.12699999809E+01 0.  1.
</event>
<event>
 5   0  0.3769563E-07  0.2893537E+04  0.7818609E-02  0.8274803E-01
       -1   -1    0    0    0  501  0.00000000000E+00  0.00000000000E+00  0.87773991627E+03  0.87773991629E+03  0.50400001928E-02 0.  1.
        1   -1    0    0  501    0  0.00000000000E+00  0.00000000000E+00 -0.23846921409E+04  0.23846921409E+04  0.50400001928E-02 0. -1.
    10030    2    1    2    0    0  0.00000000000E+00  0.00000000000E+00 -0.15069522246E+04  0.32624320572E+04  0.28935372678E+04 0.  0.
        3    1    3    3  502    0 -0.33405797010E+03 -0.13371662911E+04 -0.12494830200E+04  0.18603269188E+04  0.10100000352E+00 0. -1.
       -3    1    3    3    0  502  0.33405797010E+03  0.13371662911E+04 -0.25746920460E+03  0.14021051383E+04  0.10100000352E+00 0.  1.
</event>
<event>
 5   0  0.3769563E-07  0.2902006E+04  0.7818609E-02  0.8272281E-01
       -1   -1    0    0    0  501  0.00000000000E+00  0.00000000000E+00  0.21407800709E+04  0.21407800709E+04  0.50400001928E-02 0. -1.
        1   -1    0    0  501    0  0.00000000000E+00  0.00000000000E+00 -0.98347804620E+03  0.98347804621E+03  0.50400001928E-02 0.  1.
    10030    2    1    2    0    0  0.00000000000E+00  0.00000000000E+00  0.11573020247E+04  0.31242581171E+04  0.29020063415E+04 0.  0.
        3    1    3    3  502    0 -0.13758352728E+04  0.16065149595E+03  0.10438039908E+04  0.17344331588E+04  0.10100000352E+00 0. -1.
       -3    1    3    3    0  502  0.13758352728E+04 -0.16065149595E+03  0.11349803393E+03  0.13898249583E+04  0.10100000352E+00 0.  1.
</event>
<event>
 5   0  0.1006893E-06  0.2903331E+04  0.7818609E-02  0.8271887E-01
        2   -1    0    0  501    0  0.00000000000E+00  0.00000000000E+00  0.19547540461E+04  0.19547540461E+04  0.25500000920E-02 0. -1.
       -2   -1    0    0    0  501  0.00000000000E+00  0.00000000000E+00 -0.10780554264E+04  0.10780554264E+04  0.25500000920E-02 0.  1.
    10030    2    1    2    0    0  0.00000000000E+00  0.00000000000E+00  0.87669861971E+03  0.30328094725E+04  0.29033313325E+04 0.  0.
        4    1    3    3  502    0 -0.70184249738E+03  0.54598390430E+03 -0.76027682986E+03  0.11699161448E+04  0.12699999809E+01 0.  1.
       -4    1    3    3    0  502  0.70184249738E+03 -0.54598390430E+03  0.16369754496E+04  0.18628933277E+04  0.12699999809E+01 0. -1.
</event>
<event>
 5   0  0.3786210E-07  0.2891028E+04  0.7818609E-02  0.8275552E-01
        1   -1    0    0  501    0  0.00000000000E+00  0.00000000000E+00  0.15928705673E+04  0.15928705673E+04  0.50400001928E-02 0.  1.
       -1   -1    0    0    0  501  0.00000000000E+00  0.00000000000E+00 -0.13117894299E+04  0.13117894299E+04  0.50400001928E-02 0. -1.
    10030    2    1    2    0    0  0.00000000000E+00  0.00000000000E+00  0.28108113743E+03  0.29046599971E+04  0.28910280340E+04 0.  0.
        5    1    3    3  502    0 -0.64481944481E+03 -0.96971947723E+03 -0.71985050440E+03  0.13690707869E+04  0.46999998093E+01 0.  1.
       -5    1    3    3    0  502  0.64481944481E+03  0.96971947723E+03  0.10009316418E+04  0.15355892102E+04  0.46999998093E+01 0. -1.
</event>
<event>
 5   0  0.3638028E-07  0.2898407E+04  0.7818609E-02  0.8273352E-01
       -1   -1    0    0    0  501  0.00000000000E+00  0.00000000000E+00  0.15703407545E+04  0.15703407545E+04  0.50400001928E-02 0. -1.
        1   -1    0    0  501    0  0.00000000000E+00  0.00000000000E+00 -0.13374106374E+04  0.13374106374E+04  0.50400001928E-02 0.  1.
    10030    2    1    2    0    0  0.00000000000E+00  0.00000000000E+00  0.23293011709E+03  0.29077513918E+04  0.28984067550E+04 0.  0.
        4    1    3    3  502    0  0.65876814995E+03 -0.11504684008E+04  0.70370327090E+03  0.15009173605E+04  0.12699999809E+01 0. -1.
       -4    1    3    3    0  502 -0.65876814995E+03  0.11504684008E+04 -0.47077315382E+03  0.14068340314E+04  0.12699999809E+01 0.  1.
</event>
<event>
 5   0  0.3885904E-07  0.2899964E+04  0.7818609E-02  0.8272888E-01
       -1   -1    0    0    0  501  0.00000000000E+00  0.00000000000E+00  0.12244534251E+04  0.12244534251E+04  0.50400001928E-02 0.  1.
        1   -1    0    0  501    0  0.00000000000E+00  0.00000000000E+00 -0.17170502311E+04  0.17170502311E+04  0.50400001928E-02 0. -1.
    10030    2    1    2    0    0  0.00000000000E+00  0.00000000000E+00 -0.49259680600E+03  0.29415036562E+04  0.28999641629E+04 0.  0.
        2    1    3    3  502    0 -0.99529956538E+03  0.58732753816E+03  0.64195838431E+03  0.13220005405E+04  0.25500000920E-02 0.  1.
       -2    1    3    3    0  502  0.99529956538E+03 -0.58732753816E+03 -0.11345551903E+04  0.16195031157E+04  0.25500000920E-02 0. -1.
</event>
<event>
 5   0  0.9950999E-07  0.2898965E+04  0.7818609E-02  0.8273186E-01
       -2   -1    0    0    0  501  0.00000000000E+00  0.00000000000E+00  0.11419174289E+04  0.11419174289E+04  0.25500000920E-02 0. -1.
        2   -1    0    0  501    0  0.00000000000E+00  0.00000000000E+00 -0.18398870179E+04  0.18398870179E+04  0.25500000920E-02 0.  1.
    10030    2    1    2    0    0  0.00000000000E+00  0.00000000000E+00 -0.69796958898E+03  0.29818044469E+04  0.28989646793E+04 0.  0.
        3    1    3    3  502    0 -0.13007616011E+04  0.12163221409E+02 -0.10066866185E+04  0.16448545969E+04  0.10100000352E+00 0.  1.
       -3    1    3    3    0  502  0.13007616011E+04 -0.12163221409E+02  0.30871702948E+03  0.13369498500E+04  0.10100000352E+00 0. -1.
</event>
<event>
 5   0  0.1006893E-06  0.2889263E+04  0.7818609E-02  0.8276079E-01
        2   -1    0    0  501    0  0.00000000000E+00  0.00000000000E+00  0.15157547966E+04  0.15157547966E+04  0.25500000920E-02 0.  1.
       -2   -1    0    0    0  501  0.00000000000E+00  0.00000000000E+00 -0.13768457685E+04  0.13768457685E+04  0.25500000920E-02 0. -1.
    10030    2    1    2    0    0  0.00000000000E+00  0.00000000000E+00  0.13890902803E+03  0.28926005651E+04  0.28892632818E+04 0.  0.
        4    1    3    3  502    0  0.32492692843E+03 -0.14228259417E+00  0.14786959139E+04  0.15139751477E+04  0.12699999809E+01 0.  1.
       -4    1    3    3    0  502 -0.32492692843E+03  0.14228259417E+00 -0.13397868859E+04  0.13786254174E+04  0.12699999809E+01 0. -1.
</event>
<event>
 5   0  0.1063979E-06  0.2899758E+04  0.7818609E-02  0.8272949E-01
        2   -1    0    0  501    0  0.00000000000E+00  0.00000000000E+00  0.26626795207E+04  0.26626795207E+04  0.25500000920E-02 0.  1.
       -2   -1    0    0    0  501  0.00000000000E+00  0.00000000000E+00 -0.78948661364E+03  0.78948661364E+03  0.25500000920E-02 0. -1.
    10030    2    1    2    0    0  0.00000000000E+00  0.00000000000E+00  0.18731929070E+04  0.34521661343E+04  0.28997584989E+04 0.  0.
        1    1    3    3  502    0 -0.31739890098E+03 -0.13170196487E+04  0.32159334439E+03  0.13923739069E+04  0.50400001928E-02 0. -1.
       -1    1    3    3    0  502  0.31739890098E+03  0.13170196487E+04  0.15515995626E+04  0.20597922274E+04  0.50400001928E-02 0.  1.
</event>
<event>
 5   0  0.9950999E-07  0.2895854E+04  0.7818609E-02  0.8274112E-01
       -2   -1    0    0    0  501  0.00000000000E+00  0.00000000000E+00  0.15392852869E+04  0.15392852869E+04  0.25500000920E-02 0. -1.
        2   -1    0    0  501    0  0.00000000000E+00  0.00000000000E+00 -0.13619909970E+04  0.13619909970E+04  0.25500000920E-02 0.  1.
    10030    2    1    2    0    0  0.00000000000E+00  0.00000000000E+00  0.17729428991E+03  0.29012762839E+04  0.28958540727E+04 0.  0.
        3    1    3    3  502    0 -0.62057312116E+03  0.97042750174E+03  0.96758801711E+03  0.15043493995E+04  0.10100000352E+00 0. -1.
       -3    1    3    3    0  502  0.62057312116E+03 -0.97042750174E+03 -0.79029372721E+03  0.13969268844E+04  0.10100000352E+00 0.  1.
</event>
<event>
 5   0  0.3786210E-07  0.2897821E+04  0.7818609E-02  0.8273526E-01
        1   -1    0    0  501    0  0.00000000000E+00  0.00000000000E+00  0.19120809042E+04  0.19120809042E+04  0.50400001928E-02 0.  1.
       -1   -1    0    0    0  501  0.00000000000E+00  0.00000000000E+00 -0.10979355277E+04  0.10979355277E+04  0.50400001928E-02 0. -1.
    10030    2    1    2    0    0  0.00000000000E+00  0.00000000000E+00  0.81414537645E+03  0.30100164319E+04  0.28978209445E+04 0.  0.
        5    1    3    3  502    0  0.10497218379E+03  0.78621826166E+03  0.16665193823E+04  0.18456617393E+04  0.46999998093E+01 0.  1.
       -5    1    3    3    0  502 -0.10497218379E+03 -0.78621826166E+03 -0.85237400585E+03  0.11643546926E+04  0.46999998093E+01 0. -1.
</event>
<event>
 5   0  0.3638028E-07  0.2900115E+04  0.7818609E-02  0.8272843E-01
        1   -1    0    0  501    0  0.00000000000E+00  0.00000000000E+00  0.12452873680E+04  0.12452873680E+04  0.50400001928E-02 0.  1.
       -1   -1    0    0    0  501  0.00000000000E+00  0.00000000000E+00 -0.16884989026E+04  0.16884989026E+04  0.50400001928E-02 0. -1.
    10030    2    1    2    0    0  0.00000000000E+00  0.00000000000E+00 -0.44321153465E+03  0.29337862706E+04  0.29001147248E+04 0.  0.
        4    1    3    3  502    0 -0.27092120864E+03  0.90407865028E+03 -0.13352543319E+04  0.16351337104E+04  0.12699999809E+01 0. -1.
       -4    1    3    3    0  502  0.27092120864E+03 -0.90407865028E+03  0.89204279722E+03  0.12986525602E+04  0.12699999809E+01 0.  1.
</event>
<event>
 5   0  0.3786210E-07  0.2902225E+04  0.7818609E-02  0.8272216E-01
       -1   -1    0    0    0  501  0.00000000000E+00  0.00000000000E+00  0.13480045012E+04  0.13480045012E+04  0.50400001928E-02 0.  1.
        1   -1    0    0  501    0  0.00000000000E+00  0.00000000000E+00 -0.15621070042E+04  0.15621070043E+04  0.50400001928E-02 0. -1.
    10030    2    1    2    0    0  0.00000000000E+00  0.00000000000E+00 -0.21410250307E+03  0.29101115054E+04  0.29022248521E+04 0.  0.
        5    1    3    3  502    0  0.25408174781E+03 -0.60270158983E+03  0.11918059560E+04  0.13594963287E+04  0.46999998093E+01 0.  1.
       -5    1    3    3    0  502 -0.25408174781E+03  0.60270158983E+03 -0.14059084591E+04  0.15506151767E+04  0.46999998093E+01 0. -1.
</event>
<event>
 5   0  0.3770467E-07  0.2900947E+04  0.7818609E-02  0.8272596E-01
        1   -1    0    0  501    0  0.00000000000E+00  0.00000000000E+00  0.14192249362E+04  0.14192249362E+04  0.50400001928E-02 0. -1.
       -1   -1    0    0    0  501  0.00000000000E+00  0.00000000000E+00 -0.14824100298E+04  0.14824100298E+04  0.50400001928E-02 0.  1.
    10030    2    1    2    0    0  0.00000000000E+00  0.00000000000E+00 -0.63185093613E+02  0.29016349659E+04  0.29009469350E+04 0.  0.
        1    1    3    3  502    0 -0.12848147098E+04  0.12964706460E+03 -0.69229147268E+03  0.14652046557E+04  0.50400001928E-02 0.  1.
       -1    1    3    3    0  502  0.12848147098E+04 -0.12964706460E+03  0.62910637906E+03  0.14364303102E+04  0.50400001928E-02 0. -1.
</event>
<event>
 5   0  0.1006893E-06  0.2900850E+04  0.7818609E-02  0.8272625E-01
        2   -1    0    0  501    0  0.00000000000E+00  0.00000000000E+00  0.20131610145E+04  0.20131610145E+04  0.25500000920E-02 0. -1.
       -2   -1    0    0    0  501  0.00000000000E+00  0.00000000000E+00 -0.10449898893E+04  0.10449898893E+04  0.25500000920E-02 0.  1.
    10030    2    1    2    0    0  0.00000000000E+00  0.00000000000E+00  0.96817112520E+03  0.30581509039E+04  0.29008501552E+04 0.  0.
        4    1    3    3  502    0  0.10884327516E+04  0.24962262305E+03  0.14598761249E+04  0.18379981560E+04  0.12699999809E+01 0. -1.
       -4    1    3    3    0  502 -0.10884327516E+04 -0.24962262305E+03 -0.49170499966E+03  0.12201527479E+04  0.12699999809E+01 0.  1.
</event>
<event>
 5   0  0.1063979E-06  0.2808386E+04  0.7818609E-02  0.8300670E-01
        2   -1    0    0  501    0  0.00000000000E+00  0.00000000000E+00  0.12797260613E+04  0.12797260613E+04  0.25500000920E-02 0. -1.
       -2   -1    0    0    0  501  0.00000000000E+00  0.00000000000E+00 -0.15407654270E+04  0.15407654270E+04  0.25500000920E-02 0.  1.
    10030    2    1    2    0    0  0.00000000000E+00  0.00000000000E+00 -0.26103936572E+03  0.28204914882E+04  0.28083857792E+04 0.  0.
        1    1    3    3  502    0 -0.14139583638E+03 -0.78788231138E+03 -0.12891852268E+04  0.15174814227E+04  0.50400001928E-02 0.  1.
       -1    1    3    3    0  502  0.14139583638E+03  0.78788231138E+03  0.10281458611E+04  0.13030100655E+04  0.50400001928E-02 0. -1.
</event>
<event>
 5   0  0.9994311E-07  0.2901720E+04  0.7818609E-02  0.8272366E-01
        2   -1    0    0  501    0  0.00000000000E+00  0.00000000000E+00  0.19800019241E+04  0.19800019241E+04  0.25500000920E-02 0.  1.
       -2   -1    0    0    0  501  0.00000000000E+00  0.00000000000E+00 -0.10631278438E+04  0.10631278438E+04  0.25500000920E-02 0. -1.
    10030    2    1    2    0    0  0.00000000000E+00  0.00000000000E+00  0.91687408027E+03  0.30431297679E+04  0.29017203010E+04 0.  0.
        2    1    3    3  502    0 -0.39554118545E+03  0.73165250201E+03  0.17051626525E+04  0.18971947408E+04  0.25500000920E-02 0.  1.
       -2    1    3    3    0  502  0.39554118545E+03 -0.73165250201E+03 -0.78828857225E+03  0.11459350271E+04  0.25500000920E-02 0. -1.
</event>
<event>
 5   0  0.3769563E-07  0.2899609E+04  0.7818609E-02  0.8272994E-01
       -1   -1    0    0    0  501  0.00000000000E+00  0.00000000000E+00  0.19983548551E+04  0.19983548551E+04  0.50400001928E-02 0.  1.
        1   -1    0    0  501    0  0.00000000000E+00  0.00000000000E+00 -0.10518318321E+04  0.10518318321E+04  0.50400001928E-02 0. -1.
    10030    2    1    2    0    0  0.00000000000E+00  0.00000000000E+00  0.94652302294E+03  0.30501866872E+04  0.28996091105E+04 0.  0.
        3    1    3    3  502    0 -0.53092525795E+03 -0.61651947553E+03 -0.78903527826E+03  0.11333819188E+04  0.10100000352E+00 0. -1.
       -3    1    3    3    0  502  0.53092525795E+03  0.61651947553E+03  0.17355583012E+04  0.19168047684E+04  0.10100000352E+00 0.  1.
</event>
<event>
 5   0  0.9950999E-07  0.2899461E+04  0.7818609E-02  0.8273038E-01
        2   -1    0    0  501    0  0.00000000000E+00  0.00000000000E+00  0.16338060484E+04  0.16338060484E+04  0.25500000920E-02 0. -1.
       -2   -1    0    0    0  501  0.00000000000E+00  0.00000000000E+00 -0.12863942596E+04  0.12863942596E+04  0.25500000920E-02 0.  1.
    10030    2    1    2    0    0  0.00000000000E+00  0.00000000000E+00  0.34741178886E+03  0.29202003080E+04  0.28994611375E+04 0.  0.
        3    1    3    3  502    0 -0.66285183864E+03 -0.28553725329E+03 -0.10925918212E+04  0.13094506409E+04  0.10100000352E+00 0.  1.
       -3    1    3    3    0  502  0.66285183864E+03  0.28553725329E+03  0.14400036100E+04  0.16107496671E+04  0.10100000352E+00 0. -1.
</event>
<event>
 5   0  0.1031339E-06  0.2901992E+04  0.7818609E-02  0.8272285E-01
       -2   -1    0    0    0  501  0.00000000000E+00  0.00000000000E+00  0.96136170525E+03  0.96136170525E+03  0.25500000920E-02 0.  1.
        2   -1    0    0  501    0  0.00000000000E+00  0.00000000000E+00 -0.21900079246E+04  0.21900079246E+04  0.25500000920E-02 0. -1.
    10030    2    1    2    0    0  0.00000000000E+00  0.00000000000E+00 -0.12286462194E+04  0.31513696299E+04  0.29019922488E+04 0.  0.
        5    1    3    3  502    0  0.18604164401E+03 -0.92831971167E+01 -0.21769616887E+04  0.21849214986E+04  0.46999998093E+01 0. -1.
       -5    1    3    3    0  502 -0.18604164401E+03  0.92831971167E+01  0.94831546933E+03  0.96644813126E+03  0.46999998093E+01 0.  1.
</event>
<event>
 5   0  0.1063979E-06  0.2903498E+04  0.7818609E-02  0.8271837E-01
       -2   -1    0    0    0  501  0.00000000000E+00  0.00000000000E+00  0.11633993762E+04  0.11633993762E+04  0.25500000920E-02 0.  1.
        2   -1    0    0  501    0  0.00000000000E+00  0.00000000000E+00 -0.18115667330E+04  0.18115667330E+04  0.25500000920E-02 0. -1.
    10030    2    1    2    0    0  0.00000000000E+00  0.00000000000E+00 -0.64816735677E+03  0.29749661091E+04  0.29034983086E+04 0.  0.
        1    1    3    3  502    0  0.10575354422E+04  0.13427579778E+03  0.68564995739E+03  0.12674884873E+04  0.50400001928E-02 0.  1.
       -1    1    3    3    0  502 -0.10575354422E+04 -0.13427579778E+03 -0.13338173142E+04  0.17074776218E+04  0.50400001928E-02 0. -1.
</event>
<event>
 5   0  0.3769563E-07  0.2887567E+04  0.7818609E-02  0.8276586E-01
       -1   -1    0    0    0  501  0.00000000000E+00  0.00000000000E+00  0.10589113798E+04  0.10589113798E+04  0.50400001928E-02 0. -1.
        1   -1    0    0  501    0  0.00000000000E+00  0.00000000000E+00 -0.19685414028E+04  0.19685414028E+04  0.50400001928E-02 0.  1.
    10030    2    1    2    0    0  0.00000000000E+00  0.00000000000E+00 -0.90963002301E+03  0.30274527827E+04  0.28875670681E+04 0.  0.
        3    1    3    3  502    0  0.63883584392E+02  0.11702340330E+04 -0.13388605265E+04  0.17793471623E+04  0.10100000352E+00 0.  1.
       -3    1    3    3    0  502 -0.63883584392E+02 -0.11702340330E+04  0.42923050352E+03  0.12481056204E+04  0.10100000352E+00 0. -1.
</event>
<event>
 5   0  0.3638028E-07  0.2905385E+04  0.7818609E-02  0.8271277E-01
        1   -1    0    0  501    0  0.00000000000E+00  0.00000000000E+00  0.14668059035E+04  0.14668059035E+04  0.50400001928E-02 0.  1.
       -1   -1    0    0    0  501  0.00000000000E+00  0.00000000000E+00 -0.14387150095E+04  0.14387150095E+04  0.50400001928E-02 0. -1.
    10030    2    1    2    0    0  0.00000000000E+00  0.00000000000E+00  0.28090894041E+02  0.29055209130E+04  0.29053851169E+04 0.  0.
        4    1    3    3  502    0 -0.12923957398E+04 -0.23523264524E+03  0.63431060991E+03  0.14587572480E+04  0.12699999809E+01 0.  1.
       -4    1    3    3    0  502  0.12923957398E+04  0.23523264524E+03 -0.60621971587E+03  0.14467636651E+04  0.12699999809E+01 0. -1.
</event>
<event>
 5   0  0.3769563E-07  0.2901690E+04  0.7818609E-02  0.8272375E-01
       -1   -1    0    0    0  501  0.00000000000E+00  0.00000000000E+00  0.28404949652E+04  0.28404949652E+04  0.50400001928E-02 0. -1.
        1   -1    0    0  501    0  0.00000000000E+00  0.00000000000E+00 -0.74105093730E+03  0.74105093732E+03  0.50400001928E-02 0.  1.
    10030    2    1    2    0    0  0.00000000000E+00  0.00000000000E+00  0.20994440279E+04  0.35815459025E+04  0.29016901670E+04 0.  0.
        3    1    3    3  502    0  0.82005834523E+03 -0.22988638267E+03 -0.40004207122E+03  0.94094479512E+03  0.10100000352E+00 0.  1.
       -3    1    3    3    0  502 -0.82005834523E+03  0.22988638267E+03  0.24994860991E+04  0.26406011074E+04  0.10100000352E+00 0. -1.
</event>
<event>
 5   0  0.1006893E-06  0.2898548E+04  0.7818609E-02  0.8273310E-01
        2   -1    0    0  501    0  0.00000000000E+00  0.00000000000E+00  0.16220392197E+04  0.16220392197E+04  0.25500000920E-02 0. -1.
       -2   -1    0    0    0  501  0.00000000000E+00  0.00000000000E+00 -0.12949104622E+04  0.12949104622E+04  0.25500000920E-02 0.  1.
    10030    2    1    2    0    0  0.00000000000E+00  0.00000000000E+00  0.32712875752E+03  0.29169496819E+04  0.28985482958E+04 0.  0.
        4    1    3    3  502    0  0.34302972259E+03 -0.13904201414E+03 -0.12465420440E+04  0.13003348617E+04  0.12699999809E+01 0.  1.
       -4    1    3    3    0  502 -0.34302972259E+03  0.13904201414E+03  0.15736708015E+04  0.16166148202E+04  0.12699999809E+01 0. -1.
</event>
<event>
 5   0  0.1031339E-06  0.2904764E+04  0.7818609E-02  0.8271461E-01
       -2   -1    0    0    0  501  0.00000000000E+00  0.00000000000E+00  0.10136238667E+04  0.10136238667E+04  0.25500000920E-02 0. -1.
        2   -1    0    0  501    0  0.00000000000E+00  0.00000000000E+00 -0.20810614541E+04  0.20810614541E+04  0.25500000920E-02 0.  1.
    10030    2    1    2    0    0  0.00000000000E+00  0.00000000000E+00 -0.10674375874E+04  0.30946853208E+04  0.29047640578E+04 0.  0.
        5    1    3    3  502    0 -0.12592621028E+04 -0.34250045437E+03  0.14541053367E+03  0.13130932632E+04  0.46999998093E+01 0. -1.
       -5    1    3    3    0  502  0.12592621028E+04  0.34250045437E+03 -0.12128481211E+04  0.17815920575E+04  0.46999998093E+01 0.  1.
</event>
<event>
 5   0  0.9994311E-07  0.2916603E+04  0.7818609E-02  0.8267955E-01
       -2   -1    0    0    0  501  0.00000000000E+00  0.00000000000E+00  0.17093651574E+04  0.17093651574E+04  0.25500000920E-02 0. -1.
        2   -1    0    0  501    0  0.00000000000E+00  0.00000000000E+00 -0.12441131700E+04  0.12441131700E+04  0.25500000920E-02 0.  1.
    10030    2    1    2    0    0  0.00000000000E+00  0.00000000000E+00  0.46525198737E+03  0.29534783274E+04  0.29166033016E+04 0.  0.
        2    1    3    3  502    0  0.50889711407E+03 -0.15030144340E+03  0.16081357085E+04  0.16934188063E+04  0.25500000920E-02 0. -1.
       -2    1    3    3    0  502 -0.50889711407E+03  0.15030144340E+03 -0.11428837212E+04  0.12600595211E+04  0.25500000920E-02 0.  1.
</event>
<event>
 5   0  0.9950999E-07  0.2896861E+04  0.7818609E-02  0.8273812E-01
       -2   -1    0    0    0  501  0.00000000000E+00  0.00000000000E+00  0.85400269914E+03  0.85400269914E+03  0.25500000920E-02 0.  1.
        2   -1    0    0  501    0  0.00000000000E+00  0.00000000000E+00 -0.24566084894E+04  0.24566084894E+04  0.25500000920E-02 0. -1.
    10030    2    1    2    0    0  0.00000000000E+00  0.00000000000E+00 -0.16026057902E+04  0.33106111885E+04  0.28968605632E+04 0.  0.
        3    1    3    3  502    0  0.20707227198E+03 -0.45765612269E+02 -0.24387701102E+04  0.24479732592E+04  0.10100000352E+00 0. -1.
       -3    1    3    3    0  502 -0.20707227198E+03  0.45765612269E+02  0.83616431992E+03  0.86263792938E+03  0.10100000352E+00 0.  1.
</event>
<event>
 5   0  0.9994311E-07  0.2899903E+04  0.7818609E-02  0.8272906E-01
       -2   -1    0    0    0  501  0.00000000000E+00  0.00000000000E+00  0.13221797333E+04  0.13221797333E+04  0.25500000920E-02 0. -1.
        2   -1    0    0  501    0  0.00000000000E+00  0.00000000000E+00 -0.15900712838E+04  0.15900712838E+04  0.25500000920E-02 0.  1.
    10030    2    1    2    0    0  0.00000000000E+00  0.00000000000E+00 -0.26789155049E+03  0.29122510170E+04  0.28999034645E+04 0.  0.
        2    1    3    3  502    0 -0.58972061804E+03  0.56986847417E+03 -0.13347962005E+04  0.15665890917E+04  0.25500000920E-02 0.  1.
       -2    1    3    3    0  502  0.58972061804E+03 -0.56986847417E+03  0.10669046500E+04  0.13456619254E+04  0.25500000920E-02 0. -1.
</event>
<event>
 5   0  0.9950999E-07  0.2904132E+04  0.7818609E-02  0.8271649E-01
       -2   -1    0    0    0  501  0.00000000000E+00  0.00000000000E+00  0.72305022266E+03  0.72305022266E+03  0.25500000920E-02 0. -1.
        2   -1    0    0  501    0  0.00000000000E+00  0.00000000000E+00 -0.29161126927E+04  0.29161126927E+04  0.25500000920E-02 0.  1.
    10030    2    1    2    0    0  0.00000000000E+00  0.00000000000E+00 -0.21930624700E+04  0.36391629153E+04  0.29041321814E+04 0.  0.
        3    1    3    3  502    0  0.11627636979E+04  0.41317599919E+03 -0.13747129165E+03  0.12416248184E+04  0.10100000352E+00 0. -1.
       -3    1    3    3    0  502 -0.11627636979E+04 -0.41317599919E+03 -0.20555911783E+04  0.23975380969E+04  0.10100000352E+00 0.  1.
</event>
<event>
 5   0  0.9950999E-07  0.2896075E+04  0.7818609E-02  0.8274046E-01
        2   -1    0    0  501    0  0.00000000000E+00  0.00000000000E+00  0.17371306978E+04  0.17371306978E+04  0.25500000920E-02 0. -1.
       -2   -1    0    0    0  501  0.00000000000E+00  0.00000000000E+00 -0.12070552207E+04  0.12070552207E+04  0.25500000920E-02 0.  1.
    10030    2    1    2    0    0  0.00000000000E+00  0.00000000000E+00  0.53007547707E+03  0.29441859184E+04  0.28960750527E+04 0.  0.
        3    1    3    3  502    0  0.27434183092E+03 -0.56605963989E+03  0.15909769775E+04  0.17108169713E+04  0.10100000352E+00 0. -1.
       -3    1    3    3    0  502 -0.27434183092E+03  0.56605963989E+03 -0.10609015004E+04  0.12333689472E+04  0.10100000352E+00 0.  1.
</event>
<event>
 5   0  0.1006893E-06  0.2898059E+04  0.7818609E-02  0.8273455E-01
       -2   -1    0    0    0  501  0.00000000000E+00  0.00000000000E+00  0.12169119816E+04  0.12169119816E+04  0.25500000920E-02 0. -1.
        2   -1    0    0  501    0  0.00000000000E+00  0.00000000000E+00 -0.17254222478E+04  0.17254222478E+04  0.25500000920E-02 0.  1.
    10030    2    1    2    0    0  0.00000000000E+00  0.00000000000E+00 -0.50851026622E+03  0.29423342294E+04  0.28980593553E+04 0.  0.
        4    1    3    3  502    0 -0.21218908367E+03 -0.81738843340E+03 -0.14497576982E+04  0.16777803953E+04  0.12699999809E+01 0.  1.
       -4    1    3    3    0  502  0.21218908367E+03  0.81738843340E+03  0.94124743201E+03  0.12645538341E+04  0.12699999809E+01 0. -1.
</event>
<event>
 5   0  0.3786210E-07  0.2900506E+04  0.7818609E-02  0.8272727E-01
        1   -1    0    0  501    0  0.00000000000E+00  0.00000000000E+00  0.17957750718E+04  0.17957750718E+04  0.50400001928E-02 0.  1.
       -1   -1    0    0    0  501  0.00000000000E+00  0.00000000000E+00 -0.11712124036E+04  0.11712124036E+04  0.50400001928E-02 0. -1.
    10030    2    1    2    0    0  0.00000000000E+00  0.00000000000E+00  0.62456266818E+03  0.29669874754E+04  0.29005061890E+04 0.  0.
        5    1    3    3  502    0  0.73772008582E+03  0.69627408026E+03 -0.74790240932E+03  0.12603208416E+04  0.46999998093E+01 0. -1.
       -5    1    3    3    0  502 -0.73772008582E+03 -0.69627408026E+03  0.13724650775E+04  0.17066666338E+04  0.46999998093E+01 0.  1.
</event>
<event>
 5   0  0.3885904E-07  0.2888133E+04  0.7818609E-02  0.8276417E-01
       -1   -1    0    0    0  501  0.00000000000E+00  0.00000000000E+00  0.83211525940E+03  0.83211525942E+03  0.50400001928E-02 0. -1.
        1   -1    0    0  501    0  0.00000000000E+00  0.00000000000E+00 -0.25060572140E+04  0.25060572140E+04  0.50400001928E-02 0.  1.
    10030    2    1    2    0    0  0.00000000000E+00  0.00000000000E+00 -0.16739419546E+04  0.33381724735E+04  0.28881332717E+04 0.  0.
        2    1    3    3  502    0 -0.13649050609E+04 -0.43032385873E+03 -0.10598502059E+04  0.17808500520E+04  0.25500000920E-02 0.  1.
       -2    1    3    3    0  502  0.13649050609E+04  0.43032385873E+03 -0.61409174869E+03  0.15573224215E+04  0.25500000920E-02 0. -1.
</event>
<event>
 5   0  0.3885904E-07  0.2912546E+04  0.7818609E-02  0.8269154E-01
       -1   -1    0    0    0  501  0.00000000000E+00  0.00000000000E+00  0.29738207639E+04  0.29738207639E+04  0.50400001928E-02 0.  1.
        1   -1    0    0  501    0  0.00000000000E+00  0.00000000000E+00 -0.71313350645E+03  0.71313350647E+03  0.50400001928E-02 0. -1.
    10030    2    1    2    0    0  0.00000000000E+00  0.00000000000E+00  0.22606872575E+04  0.36869542704E+04  0.29125461225E+04 0.  0.
        2    1    3    3  502    0 -0.69719028713E+03  0.57236127111E+03 -0.31690324417E+03  0.95608544980E+03  0.25500000920E-02 0. -1.
       -2    1    3    3    0  502  0.69719028713E+03 -0.57236127111E+03  0.25775905016E+04  0.27308688206E+04  0.25500000920E-02 0.  1.
</event>
<event>
 5   0  0.3769563E-07  0.2884314E+04  0.7818609E-02  0.8277560E-01
       -1   -1    0    0    0  501  0.00000000000E+00  0.00000000000E+00  0.13303050394E+04  0.13303050394E+04  0.50400001928E-02 0. -1.
        1   -1    0    0  501    0  0.00000000000E+00  0.00000000000E+00 -0.15634135107E+04  0.15634135108E+04  0.50400001928E-02 0.  1.
    10030    2    1    2    0    0  0.00000000000E+00  0.00000000000E+00 -0.23310847135E+03  0.28937185502E+04  0.28843140412E+04 0.  0.
        3    1    3    3  502    0 -0.48714728546E+03  0.24741005183E+03  0.12224482468E+04  0.13389936287E+04  0.10100000352E+00 0. -1.
       -3    1    3    3    0  502  0.48714728546E+03 -0.24741005183E+03 -0.14555567181E+04  0.15547249214E+04  0.10100000352E+00 0.  1.
</event>
<event>
 5   0  0.1063979E-06  0.2898939E+04  0.7818609E-02  0.8273193E-01
       -2   -1    0    0    0  501  0.00000000000E+00  0.00000000000E+00  0.14437808055E+04  0.14437808055E+04  0.25500000920E-02 0. -1.
        2   -1    0    0  501    0  0.00000000000E+00  0.00000000000E+00 -0.14551804316E+04  0.14551804316E+04  0.25500000920E-02 0.  1.
    10030    2    1    2    0    0  0.00000000000E+00  0.00000000000E+00 -0.11399626119E+02  0.28989612371E+04  0.28989388236E+04 0.  0.
        1    1    3    3  502    0  0.17569490241E+03  0.96180484186E+03  0.10643665536E+04  0.14452727815E+04  0.50400001928E-02 0. -1.
       -1    1    3    3    0  502 -0.17569490241E+03 -0.96180484186E+03 -0.10757661797E+04  0.14536884556E+04  0.50400001928E-02 0.  1.
</event>
<event>
 5   0  0.3769563E-07  0.2904747E+04  0.7818609E-02  0.8271466E-01
       -1   -1    0    0    0  501  0.00000000000E+00  0.00000000000E+00  0.13016069836E+04  0.13016069836E+04  0.50400001928E-02 0. -1.
        1   -1    0    0  501    0  0.00000000000E+00  0.00000000000E+00 -0.16206039183E+04  0.16206039183E+04  0.50400001928E-02 0.  1.
    10030    2    1    2    0    0  0.00000000000E+00  0.00000000000E+00 -0.31899693470E+03  0.29222109019E+04  0.29047474091E+04 0.  0.
        3    1    3    3  502    0  0.47835308836E+03  0.63399317661E+03  0.10637974379E+04  0.13275669566E+04  0.10100000352E+00 0. -1.
       -3    1    3    3    0  502 -0.47835308836E+03 -0.63399317661E+03 -0.13827943726E+04  0.15946439453E+04  0.10100000352E+00 0.  1.
</event>
<event>
 5   0  0.9950999E-07  0.2906358E+04  0.7818609E-02  0.8270988E-01
       -2   -1    0    0    0  501  0.00000000000E+00  0.00000000000E+00  0.14705110775E+04  0.14705110775E+04  0.25500000920E-02 0. -1.
        2   -1    0    0  501    0  0.00000000000E+00  0.00000000000E+00 -0.14360511410E+04  0.14360511411E+04  0.25500000920E-02 0.  1.
    10030    2    1    2    0    0  0.00000000000E+00  0.00000000000E+00  0.34459936459E+02  0.29065622186E+04  0.29063579344E+04 0.  0.
        3    1    3    3  502    0 -0.92692513070E+03  0.11016212563E+04  0.21465080996E+03  0.14556217128E+04  0.10100000352E+00 0. -1.
       -3    1    3    3    0  502  0.92692513070E+03 -0.11016212563E+04 -0.18019087350E+03  0.14509405058E+04  0.10100000352E+00 0.  1.
</event>
<event>
 5   0  0.3770467E-07  0.2916080E+04  0.7818609E-02  0.8268109E-01
       -1   -1    0    0    0  501  0.00000000000E+00  0.00000000000E+00  0.13318625737E+04  0.13318625737E+04  0.50400001928E-02 0.  1.
        1   -1    0    0  501    0  0.00000000000E+00  0.00000000000E+00 -0.15961708340E+04  0.15961708340E+04  0.50400001928E-02 0. -1.
    10030    2    1    2    0    0  0.00000000000E+00  0.00000000000E+00 -0.26430826027E+03  0.29280334077E+04  0.29160796938E+04 0.  0.
        1    1    3    3  502    0  0.15800078099E+03 -0.12834401788E+04 -0.80848578573E+03  0.15250679346E+04  0.50400001928E-02 0. -1.
       -1    1    3    3    0  502 -0.15800078099E+03  0.12834401788E+04  0.54417752547E+03  0.14029654731E+04  0.50400001928E-02 0.  1.
</event>
<event>
 5   0  0.1006893E-06  0.2898473E+04  0.7818609E-02  0.8273332E-01
       -2   -1    0    0    0  501  0.00000000000E+00  0.00000000000E+00  0.12728288539E+04  0.12728288539E+04  0.25500000920E-02 0. -1.
        2   -1    0    0  501    0  0.00000000000E+00  0.00000000000E+00 -0.16500930867E+04  0.16500930867E+04  0.25500000920E-02 0.  1.
    10030    2    1    2    0    0  0.00000000000E+00  0.00000000000E+00 -0.37726423288E+03  0.29229219406E+04  0.28984727650E+04 0.  0.
        4    1    3    3  502    0 -0.42063249334E+03  0.71712035924E+03  0.10084323539E+04  0.13069547542E+04  0.12699999809E+01 0. -1.
       -4    1    3    3    0  502  0.42063249334E+03 -0.71712035924E+03 -0.13856965868E+04  0.16159671864E+04  0.12699999809E+01 0.  1.
</event>
<event>
 5   0  0.1006893E-06  0.2900545E+04  0.7818609E-02  0.8272715E-01
       -2   -1    0    0    0  501  0.00000000000E+00  0.00000000000E+00  0.15309437792E+04  0.15309437792E+04  0.25500000920E-02 0. -1.
        2   -1    0    0  501    0  0.00000000000E+00  0.00000000000E+00 -0.13738517357E+04  0.13738517357E+04  0.25500000920E-02 0.  1.
    10030    2    1    2    0    0  0.00000000000E+00  0.00000000000E+00  0.15709204354E+03  0.29047955149E+04  0.29005446167E+04 0.  0.
        4    1    3    3  502    0 -0.29396671236E+02 -0.14459261579E+04 -0.29878694771E+02  0.14465341226E+04  0.12699999809E+01 0.  1.
       -4    1    3    3    0  502  0.29396671236E+02  0.14459261579E+04  0.18697073831E+03  0.14582613923E+04  0.12699999809E+01 0. -1.
</event>
<event>
 5   0  0.3786210E-07  0.2901368E+04  0.7818609E-02  0.8272471E-01
       -1   -1    0    0    0  501  0.00000000000E+00  0.00000000000E+00  0.11590346915E+04  0.11590346915E+04  0.50400001928E-02 0. -1.
        1   -1    0    0  501    0  0.00000000000E+00  0.00000000000E+00 -0.18157212007E+04  0.18157212007E+04  0.50400001928E-02 0.  1.
    10030    2    1    2    0    0  0.00000000000E+00  0.00000000000E+00 -0.65668650921E+03  0.29747558922E+04  0.29013678579E+04 0.  0.
        5    1    3    3  502    0  0.75951091974E+03 -0.12146786355E+04 -0.56250742220E+03  0.15390704061E+04  0.46999998093E+01 0.  1.
       -5    1    3    3    0  502 -0.75951091974E+03  0.12146786355E+04 -0.94179087014E+02  0.14356854862E+04  0.46999998093E+01 0. -1.
</event>
<event>
 5   0  0.3769563E-07  0.2892819E+04  0.7818609E-02  0.8275017E-01
        1   -1    0    0  501    0  0.00000000000E+00  0.00000000000E+00  0.92695179308E+03  0.92695179310E+03  0.50400001928E-02 0.  1.
       -1   -1    0    0    0  501  0.00000000000E+00  0.00000000000E+00 -0.22569682757E+04  0.22569682757E+04  0.50400001928E-02 0. -1.
    10030    2    1    2    0    0  0.00000000000E+00  0.00000000000E+00 -0.13300164826E+04  0.31839200688E+04  0.28928192409E+04 0.  0.
        3    1    3    3  502    0  0.61138769949E+03 -0.13097912540E+04 -0.72275436098E+03  0.16160822766E+04  0.10100000352E+00 0. -1.
       -3    1    3    3    0  502 -0.61138769949E+03  0.13097912540E+04 -0.60726212163E+03  0.15678377922E+04  0.10100000352E+00 0.  1.
</event>
<event>
 5   0  0.3885904E-07  0.2915535E+04  0.7818609E-02  0.8268270E-01
       -1   -1    0    0    0  501  0.00000000000E+00  0.00000000000E+00  0.10954975840E+04  0.10954975840E+04  0.50400001928E-02 0.  1.
        1   -1    0    0  501    0  0.00000000000E+00  0.00000000000E+00 -0.19398363077E+04  0.19398363077E+04  0.50400001928E-02 0. -1.
    10030    2    1    2    0    0  0.00000000000E+00  0.00000000000E+00 -0.84433872367E+03  0.30353338917E+04  0.29155349344E+04 0.  0.
        2    1    3    3  502    0  0.11505600610E+04  0.11288712154E+03  0.50232432533E+03  0.12605005689E+04  0.25500000920E-02 0.  1.
       -2    1    3    3    0  502 -0.11505600610E+04 -0.11288712154E+03 -0.13466630490E+04  0.17748333228E+04  0.25500000920E-02 0. -1.
</event>
<event>
 5   0  0.1006893E-06  0.2902310E+04  0.7818609E-02  0.8272190E-01
       -2   -1    0    0    0  501  0.00000000000E+00  0.00000000000E+00  0.96760170104E+03  0.96760170105E+03  0.25500000920E-02 0.  1.
        2   -1    0    0  501    0  0.00000000000E+00  0.00000000000E+00 -0.21763618978E+04  0.21763618978E+04  0.25500000920E-02 0. -1.
    10030    2    1    2    0    0  0.00000000000E+00  0.00000000000E+00 -0.12087601968E+04  0.31439635989E+04  0.29023104413E+04 0.  0.
        4    1    3    3  502    0 -0.67436655848E+03  0.17047215733E+03 -0.19840068067E+04  0.21024071046E+04  0.12699999809E+01 0. -1.
       -4    1    3    3    0  502  0.67436655848E+03 -0.17047215733E+03  0.77524660992E+03  0.10415564943E+04  0.12699999809E+01 0.  1.
</event>
<event>
 5   0  0.3769563E-07  0.2897588E+04  0.7818609E-02  0.8273595E-01
        1   -1    0    0  501    0  0.00000000000E+00  0.00000000000E+00  0.16657398564E+04  0.16657398564E+04  0.50400001928E-02 0. -1.
       -1   -1    0    0    0  501  0.00000000000E+00  0.00000000000E+00 -0.12601034151E+04  0.12601034152E+04  0.50400001928E-02 0.  1.
    10030    2    1    2    0    0  0.00000000000E+00  0.00000000000E+00  0.40563644126E+03  0.29258432716E+04  0.28975882950E+04 0.  0.
        3    1    3    3  502    0 -0.49364584048E+03  0.66315947109E+03  0.14041835966E+04  0.16294779173E+04  0.10100000352E+00 0. -1.
       -3    1    3    3    0  502  0.49364584048E+03 -0.66315947109E+03 -0.99854715535E+03  0.12963653542E+04  0.10100000352E+00 0.  1.
</event>
<event>
 5   0  0.9994311E-07  0.2899979E+04  0.7818609E-02  0.8272884E-01
       -2   -1    0    0    0  501  0.00000000000E+00  0.00000000000E+00  0.80177743114E+03  0.80177743114E+03  0.25500000920E-02 0.  1.
        2   -1    0    0  501    0  0.00000000000E+00  0.00000000000E+00 -0.26222600196E+04  0.26222600196E+04  0.25500000920E-02 0. -1.
    10030    2    1    2    0    0  0.00000000000E+00  0.00000000000E+00 -0.18204825884E+04  0.34240374507E+04  0.28999785532E+04 0.  0.
        2    1    3    3  502    0  0.80609928428E+03  0.32937264765E+03  0.45866425993E+03  0.98420287568E+03  0.25500000920E-02 0. -1.
       -2    1    3    3    0  502 -0.80609928428E+03 -0.32937264765E+03 -0.22791468484E+04  0.24398345750E+04  0.25500000920E-02 0.  1.
</event>
<event>
 5   0  0.1006893E-06  0.2898221E+04  0.7818609E-02  0.8273407E-01
       -2   -1    0    0    0  501  0.00000000000E+00  0.00000000000E+00  0.11072117743E+04  0.11072117743E+04  0.25500000920E-02 0.  1.
        2   -1    0    0  501    0  0.00000000000E+00  0.00000000000E+00 -0.18965855866E+04  0.18965855866E+04  0.25500000920E-02 0. -1.
    10030    2    1    2    0    0  0.00000000000E+00  0.00000000000E+00 -0.78937381233E+03  0.30037973609E+04  0.28982214494E+04 0.  0.
        4    1    3    3  502    0 -0.11604652878E+04 -0.85574962139E+03 -0.24473338168E+03  0.14624920990E+04  0.12699999809E+01 0.  1.
       -4    1    3    3    0  502  0.11604652878E+04  0.85574962139E+03 -0.54464043065E+03  0.15413052619E+04  0.12699999809E+01 0. -1.
</event>
<event>
 5   0  0.3786210E-07  0.2901773E+04  0.7818609E-02  0.8272350E-01
        1   -1    0    0  501    0  0.00000000000E+00  0.00000000000E+00  0.13142082048E+04  0.13142082048E+04  0.50400001928E-02 0.  1.
       -1   -1    0    0    0  501  0.00000000000E+00  0.00000000000E+00 -0.16017799140E+04  0.16017799140E+04  0.50400001928E-02 0. -1.
    10030    2    1    2    0    0  0.00000000000E+00  0.00000000000E+00 -0.28757170918E+03  0.29159881188E+04  0.29017734613E+04 0.  0.
        5    1    3    3  502    0 -0.65499474038E+03 -0.53450683545E+03  0.10411147005E+04  0.13411404016E+04  0.46999998093E+01 0.  1.
       -5    1    3    3    0  502  0.65499474038E+03  0.53450683545E+03 -0.13286864097E+04  0.15748477172E+04  0.46999998093E+01 0. -1.
</event>
<event>
 5   0  0.3885904E-07  0.2900630E+04  0.7818609E-02  0.8272690E-01
        1   -1    0    0  501    0  0.00000000000E+00  0.00000000000E+00  0.25015806845E+04  0.25015806845E+04  0.50400001928E-02 0.  1.
       -1   -1    0    0    0  501  0.00000000000E+00  0.00000000000E+00 -0.84083376857E+03  0.84083376858E+03  0.50400001928E-02 0. -1.
    10030    2    1    2    0    0  0.00000000000E+00  0.00000000000E+00  0.16607469159E+04  0.33424144531E+04  0.29006299415E+04 0.  0.
        2    1    3    3  502    0  0.78172528631E+03 -0.12202508152E+04  0.76410793254E+03  0.16382818462E+04  0.25500000920E-02 0. -1.
       -2    1    3    3    0  502 -0.78172528631E+03  0.12202508152E+04  0.89663898339E+03  0.17041326068E+04  0.25500000920E-02 0.  1.
</event>
<event>
 5   0  0.9994311E-07  0.2876859E+04  0.7818609E-02  0.8279796E-01
        2   -1    0    0  501    0  0.00000000000E+00  0.00000000000E+00  0.18736762107E+04  0.18736762107E+04  0.25500000920E-02 0.  1.
       -2   -1    0    0    0  501  0.00000000000E+00  0.00000000000E+00 -0.11042883759E+04  0.11042883760E+04  0.25500000920E-02 0. -1.
    10030    2    1    2    0    0  0.00000000000E+00  0.00000000000E+00  0.76938783473E+03  0.29779645866E+04  0.28768586060E+04 0.  0.
        2    1    3    3  502    0  0.81901377479E+03  0.10769007151E+04  0.89030683597E+03  0.16196126005E+04  0.25500000920E-02 0.  1.
       -2    1    3    3    0  502 -0.81901377479E+03 -0.10769007151E+04 -0.12091900124E+03  0.13583519862E+04  0.25500000920E-02 0. -1.
</event>
<event>
 5   0  0.9950999E-07  0.2901530E+04  0.7818609E-02  0.8272422E-01
        2   -1    0    0  501    0  0.00000000000E+00  0.00000000000E+00  0.24580314736E+04  0.24580314736E+04  0.25500000920E-02 0.  1.
       -2   -1    0    0    0  501  0.00000000000E+00  0.00000000000E+00 -0.85626231793E+03  0.85626231793E+03  0.25500000920E-02 0. -1.
    10030    2    1    2    0    0  0.00000000000E+00  0.00000000000E+00  0.16017691557E+04  0.33142937915E+04  0.29015304425E+04 0.  0.
        3    1    3    3  502    0  0.10519457791E+04 -0.46725917538E+03 -0.20779937923E+03  0.11696587756E+04  0.10100000352E+00 0. -1.
       -3    1    3    3    0  502 -0.10519457791E+04  0.46725917538E+03  0.18095685349E+04  0.21446350160E+04  0.10100000352E+00 0.  1.
</event>
<event>
 5   0  0.1031339E-06  0.2898037E+04  0.7818609E-02  0.8273462E-01
       -2   -1    0    0    0  501  0.00000000000E+00  0.00000000000E+00  0.11937961913E+04  0.11937961913E+04  0.25500000920E-02 0. -1.
        2   -1    0    0  501    0  0.00000000000E+00  0.00000000000E+00 -0.17588054672E+04  0.17588054672E+04  0.25500000920E-02 0.  1.
    10030    2    1    2    0    0  0.00000000000E+00  0.00000000000E+00 -0.56500927598E+03  0.29526016585E+04  0.28980374518E+04 0.  0.
        5    1    3    3  502    0  0.81876870918E+03 -0.84379518233E+03 -0.11453627258E+04  0.16414171842E+04  0.46999998093E+01 0.  1.
       -5    1    3    3    0  502 -0.81876870918E+03  0.84379518233E+03  0.58035344985E+03  0.13111844743E+04  0.46999998093E+01 0. -1.
</event>
<event>
 5   0  0.3885904E-07  0.2901584E+04  0.7818609E-02  0.8272406E-01
       -1   -1    0    0    0  501  0.00000000000E+00  0.00000000000E+00  0.79686398636E+03  0.79686398638E+03  0.50400001928E-02 0.  1.
        1   -1    0    0  501    0  0.00000000000E+00  0.00000000000E+00 -0.26413511178E+04  0.26413511178E+04  0.50400001928E-02 0. -1.
    10030    2    1    2    0    0  0.00000000000E+00  0.00000000000E+00 -0.18444871314E+04  0.34382151042E+04  0.29015841061E+04 0.  0.
        2    1    3    3  502    0  0.11613746555E+04  0.66965646800E+03 -0.26508898322E+03  0.13665661508E+04  0.25500000920E-02 0.  1.
       -2    1    3    3    0  502 -0.11613746555E+04 -0.66965646800E+03 -0.15793981482E+04  0.20716489534E+04  0.25500000920E-02 0. -1.
</event>
<event>
 5   0  0.9994311E-07  0.2901449E+04  0.7818609E-02  0.8272447E-01
        2   -1    0    0  501    0  0.00000000000E+00  0.00000000000E+00  0.16466158195E+04  0.16466158195E+04  0.25500000920E-02 0. -1.
       -2   -1    0    0    0  501  0.00000000000E+00  0.00000000000E+00 -0.12781372438E+04  0.12781372438E+04  0.25500000920E-02 0.  1.
    10030    2    1    2    0    0  0.00000000000E+00  0.00000000000E+00  0.36847857563E+03  0.29247530633E+04  0.29014486073E+04 0.  0.
        2    1    3    3  502    0  0.38785521675E+03 -0.13185279359E+04  0.65235422049E+03  0.15213525614E+04  0.25500000920E-02 0. -1.
       -2    1    3    3    0  502 -0.38785521675E+03  0.13185279359E+04 -0.28387564486E+03  0.14034005019E+04  0.25500000920E-02 0.  1.
</event>
<event>
 5   0  0.3885904E-07  0.2898790E+04  0.7818609E-02  0.8273238E-01
       -1   -1    0    0    0  501  0.00000000000E+00  0.00000000000E+00  0.14952628948E+04  0.14952628948E+04  0.50400001928E-02 0. -1.
        1   -1    0    0  501    0  0.00000000000E+00  0.00000000000E+00 -0.14049338445E+04  0.14049338445E+04  0.50400001928E-02 0.  1.
    10030    2    1    2    0    0  0.00000000000E+00  0.00000000000E+00  0.90329050248E+02  0.29001967393E+04  0.28987897111E+04 0.  0.
        2    1    3    3  502    0 -0.81290470839E+03  0.11782951385E+04 -0.18199622448E+03  0.14430232583E+04  0.25500000920E-02 0.  1.
       -2    1    3    3    0  502  0.81290470839E+03 -0.11782951385E+04  0.27232527472E+03  0.14571734810E+04  0.25500000920E-02 0. -1.
</event>
<event>
 5   0  0.1031339E-06  0.2912007E+04  0.7818609E-02  0.8269314E-01
       -2   -1    0    0    0  501  0.00000000000E+00  0.00000000000E+00  0.18359044159E+04  0.18359044159E+04  0.25500000920E-02 0.  1.
        2   -1    0    0  501    0  0.00000000000E+00  0.00000000000E+00 -0.11547147608E+04  0.11547147608E+04  0.25500000920E-02 0. -1.
    10030    2    1    2    0    0  0.00000000000E+00  0.00000000000E+00  0.68118965509E+03  0.29906191767E+04  0.29120068190E+04 0.  0.
        5    1    3    3  502    0 -0.31997979374E+03  0.65232899497E+03 -0.95521346848E+03  0.12001562592E+04  0.46999998093E+01 0. -1.
       -5    1    3    3    0  502  0.31997979374E+03 -0.65232899497E+03  0.16364031236E+04  0.17904629175E+04  0.46999998093E+01 0.  1.
</event>
<event>
 5   0  0.3770467E-07  0.2894746E+04  0.7818609E-02  0.8274442E-01
       -1   -1    0    0    0  501  0.00000000000E+00  0.00000000000E+00  0.20649847057E+04  0.20649847057E+04  0.50400001928E-02 0. -1.
        1   -1    0    0  501    0  0.00000000000E+00  0.00000000000E+00 -0.10144814935E+04  0.10144814935E+04  0.50400001928E-02 0.  1.
    10030    2    1    2    0    0  0.00000000000E+00  0.00000000000E+00  0.10505032121E+04  0.30794661992E+04  0.28947461155E+04 0.  0.
        1    1    3    3  502    0  0.69927410254E+03  0.70036035983E+02 -0.82079641318E+03  0.10805535936E+04  0.50400001928E-02 0.  1.
       -1    1    3    3    0  502 -0.69927410254E+03 -0.70036035983E+02  0.18712996253E+04  0.19989126055E+04  0.50400001928E-02 0. -1.
</event>
<event>
 5   0  0.3885904E-07  0.2898244E+04  0.7818609E-02  0.8273400E-01
        1   -1    0    0  501    0  0.00000000000E+00  0.00000000000E+00  0.22578789394E+04  0.22578789394E+04  0.50400001928E-02 0.  1.
       -1   -1    0    0    0  501  0.00000000000E+00  0.00000000000E+00 -0.93005638680E+03  0.93005638681E+03  0.50400001928E-02 0. -1.
    10030    2    1    2    0    0  0.00000000000E+00  0.00000000000E+00  0.13278225526E+04  0.31879353262E+04  0.28982441086E+04 0.  0.
        2    1    3    3  502    0  0.13529944254E+04  0.30185103476E+03  0.19951859172E+03  0.14005411921E+04  0.25500000920E-02 0.  1.
       -2    1    3    3    0  502 -0.13529944254E+04 -0.30185103476E+03  0.11283039608E+04  0.17873941341E+04  0.25500000920E-02 0. -1.
</event>
<event>
 5   0  0.3770467E-07  0.2897136E+04  0.7818609E-02  0.8273730E-01
        1   -1    0    0  501    0  0.00000000000E+00  0.00000000000E+00  0.18129124539E+04  0.18129124539E+04  0.50400001928E-02 0.  1.
       -1   -1    0    0    0  501  0.00000000000E+00  0.00000000000E+00 -0.11574469236E+04  0.11574469236E+04  0.50400001928E-02 0. -1.
    10030    2    1    2    0    0  0.00000000000E+00  0.00000000000E+00  0.65546553034E+03  0.29703593775E+04  0.28971364776E+04 0.  0.
        1    1    3    3  502    0 -0.16469186579E+03  0.88233124464E+03 -0.83798109029E+03  0.12279430539E+04  0.50400001928E-02 0. -1.
       -1    1    3    3    0  502  0.16469186579E+03 -0.88233124464E+03  0.14934466206E+04  0.17424163236E+04  0.50400001928E-02 0.  1.
</event>
<event>
 5   0  0.1031339E-06  0.2902409E+04  0.7818609E-02  0.8272161E-01
        2   -1    0    0  501    0  0.00000000000E+00  0.00000000000E+00  0.25166061187E+04  0.25166061187E+04  0.25500000920E-02 0. -1.
       -2   -1    0    0    0  501  0.00000000000E+00  0.00000000000E+00 -0.83683922633E+03  0.83683922633E+03  0.25500000920E-02 0.  1.
    10030    2    1    2    0    0  0.00000000000E+00  0.00000000000E+00  0.16797668924E+04  0.33534453450E+04  0.29024091492E+04 0.  0.
        5    1    3    3  502    0  0.92482683695E+03  0.61800070223E+03 -0.23702374620E+03  0.11372914721E+04  0.46999998093E+01 0.  1.
       -5    1    3    3    0  502 -0.92482683695E+03 -0.61800070223E+03  0.19167906386E+04  0.22161538729E+04  0.46999998093E+01 0. -1.
</event>
<event>
 5   0  0.3786210E-07  0.2900647E+04  0.7818609E-02  0.8272685E-01
        1   -1    0    0  501    0  0.00000000000E+00  0.00000000000E+00  0.16624241029E+04  0.16624241029E+04  0.50400001928E-02 0. -1.
       -1   -1    0    0    0  501  0.00000000000E+00  0.00000000000E+00 -0.12652838200E+04  0.12652838200E+04  0.50400001928E-02 0.  1.
    10030    2    1    2    0    0  0.00000000000E+00  0.00000000000E+00  0.39714028291E+03  0.29277079229E+04  0.29006470446E+04 0.  0.
        5    1    3    3  502    0 -0.15645109381E+02  0.26634861321E+03 -0.12402923037E+04  0.12686738910E+04  0.46999998093E+01 0.  1.
       -5    1    3    3    0  502  0.15645109381E+02 -0.26634861321E+03  0.16374325866E+04  0.16590340319E+04  0.46999998093E+01 0. -1.
</event>
<event>
 5   0  0.3769563E-07  0.2898999E+04  0.7818609E-02  0.8273175E-01
        1   -1    0    0  501    0  0.00000000000E+00  0.00000000000E+00  0.19651471740E+04  0.19651471740E+04  0.50400001928E-02 0. -1.
       -1   -1    0    0    0  501  0.00000000000E+00  0.00000000000E+00 -0.10691560578E+04  0.10691560578E+04  0.50400001928E-02 0.  1.
    10030    2    1    2    0    0  0.00000000000E+00  0.00000000000E+00  0.89599111619E+03  0.30343032319E+04  0.28989991416E+04 0.  0.
        3    1    3    3  502    0  0.48357493598E+03  0.12613102638E+04 -0.10218074622E+03  0.13546915573E+04  0.10100000352E+00 0.  1.
       -3    1    3    3    0  502 -0.48357493598E+03 -0.12613102638E+04  0.99817186241E+03  0.16796116746E+04  0.10100000352E+00 0. -1.
</event>
<event>
 5   0  0.1063979E-06  0.2893808E+04  0.7818609E-02  0.8274722E-01
       -2   -1    0    0    0  501  0.00000000000E+00  0.00000000000E+00  0.13474940476E+04  0.13474940476E+04  0.25500000920E-02 0.  1.
        2   -1    0    0  501    0  0.00000000000E+00  0.00000000000E+00 -0.15536477429E+04  0.15536477429E+04  0.25500000920E-02 0. -1.
    10030    2    1    2    0    0  0.00000000000E+00  0.00000000000E+00 -0.20615369537E+03  0.29011417905E+04  0.28938079312E+04 0.  0.
        1    1    3    3  502    0 -0.75656350600E+03  0.10939992619E+04 -0.67400088171E+03  0.14911404737E+04  0.50400001928E-02 0. -1.
       -1    1    3    3    0  502  0.75656350600E+03 -0.10939992619E+04  0.46784718633E+03  0.14100013168E+04  0.50400001928E-02 0.  1.
</event>
<event>
 5   0  0.3769563E-07  0.2897679E+04  0.7818609E-02  0.8273568E-01
       -1   -1    0    0    0  501  0.00000000000E+00  0.00000000000E+00  0.83409614704E+03  0.83409614705E+03  0.50400001928E-02 0.  1.
        1   -1    0    0  501    0  0.00000000000E+00  0.00000000000E+00 -0.25166600785E+04  0.25166600785E+04  0.50400001928E-02 0. -1.
    10030    2    1    2    0    0  0.00000000000E+00  0.00000000000E+00 -0.16825639315E+04  0.33507562256E+04  0.28976793991E+04 0.  0.
        3    1    3    3  502    0 -0.86382502488E+01  0.14257057564E+04 -0.54325326434E+03  0.15257246287E+04  0.10100000352E+00 0.  1.
       -3    1    3    3    0  502  0.86382502488E+01 -0.14257057564E+04 -0.11393106671E+04  0.18250315969E+04  0.10100000352E+00 0. -1.
</event>
<event>
 5   0  0.9950999E-07  0.2897351E+04  0.7818609E-02  0.8273666E-01
       -2   -1    0    0    0  501  0.00000000000E+00  0.00000000000E+00  0.14709995368E+04  0.14709995368E+04  0.25500000920E-02 0. -1.
        2   -1    0    0  501    0  0.00000000000E+00  0.00000000000E+00 -0.14266906761E+04  0.14266906761E+04  0.25500000920E-02 0.  1.
    10030    2    1    2    0    0  0.00000000000E+00  0.00000000000E+00  0.44308860723E+02  0.28976902129E+04  0.28973514276E+04 0.  0.
        3    1    3    3  502    0  0.93754246340E+03 -0.32934361766E+03 -0.10321074466E+04  0.14327242863E+04  0.10100000352E+00 0.  1.
       -3    1    3    3    0  502 -0.93754246340E+03  0.32934361766E+03  0.10764163073E+04  0.14649659266E+04  0.10100000352E+00 0. -1.
</event>
<event>
 5   0  0.3770467E-07  0.2901220E+04  0.7818609E-02  0.8272514E-01
       -1   -1    0    0    0  501  0.00000000000E+00  0.00000000000E+00  0.14495644131E+04  0.14495644131E+04  0.50400001928E-02 0. -1.
        1   -1    0    0  501    0  0.00000000000E+00  0.00000000000E+00 -0.14516567454E+04  0.14516567454E+04  0.50400001928E-02 0.  1.
    10030    2    1    2    0    0  0.00000000000E+00  0.00000000000E+00 -0.20923322650E+01  0.29012211585E+04  0.29012204041E+04 0.  0.
        1    1    3    3  502    0  0.13890929075E+04 -0.37288857344E+03 -0.18984495556E+03  0.14507467391E+04  0.50400001928E-02 0.  1.
       -1    1    3    3    0  502 -0.13890929075E+04  0.37288857344E+03  0.18775262330E+03  0.14504744194E+04  0.50400001928E-02 0. -1.
</event>
<event>
 5   0  0.3770467E-07  0.2896282E+04  0.7818609E-02  0.8273984E-01
       -1   -1    0    0    0  501  0.00000000000E+00  0.00000000000E+00  0.13419436439E+04  0.13419436439E+04  0.50400001928E-02 0. -1.
        1   -1    0    0  501    0  0.00000000000E+00  0.00000000000E+00 -0.15627428116E+04  0.15627428116E+04  0.50400001928E-02 0.  1.
    10030    2    1    2    0    0  0.00000000000E+00  0.00000000000E+00 -0.22079916767E+03  0.29046864556E+04  0.28962822951E+04 0.  0.
        1    1    3    3  502    0  0.12967570835E+04  0.66535473339E+02 -0.75343625827E+03  0.15012235337E+04  0.50400001928E-02 0.  1.
       -1    1    3    3    0  502 -0.12967570835E+04 -0.66535473339E+02  0.53263709061E+03  0.14034629219E+04  0.50400001928E-02 0. -1.
</event>
<event>
 5   0  0.1063979E-06  0.2897880E+04  0.7818609E-02  0.8273509E-01
       -2   -1    0    0    0  501  0.00000000000E+00  0.00000000000E+00  0.12424390815E+04  0.12424390815E+04  0.25500000920E-02 0. -1.
        2   -1    0    0  501    0  0.00000000000E+00  0.00000000000E+00 -0.16897621260E+04  0.16897621260E+04  0.25500000920E-02 0.  1.
    10030    2    1    2    0    0  0.00000000000E+00  0.00000000000E+00 -0.44732304448E+03  0.29322012075E+04  0.28978795722E+04 0.  0.
        1    1    3    3  502    0 -0.81287941949E+03  0.42841211915E+03 -0.13572501312E+04  0.16390356351E+04  0.50400001928E-02 0.  1.
       -1    1    3    3    0  502  0.81287941949E+03 -0.42841211915E+03  0.90992708672E+03  0.12931655724E+04  0.50400001928E-02 0. -1.
</event>
<event>
 5   0  0.3770467E-07  0.2895068E+04  0.7818609E-02  0.8274346E-01
        1   -1    0    0  501    0  0.00000000000E+00  0.00000000000E+00  0.12555025908E+04  0.12555025908E+04  0.50400001928E-02 0. -1.
       -1   -1    0    0    0  501  0.00000000000E+00  0.00000000000E+00 -0.16689366724E+04  0.16689366724E+04  0.50400001928E-02 0.  1.
    10030    2    1    2    0    0  0.00000000000E+00  0.00000000000E+00 -0.41343408164E+03  0.29244392632E+04  0.28950677478E+04 0.  0.
        1    1    3    3  502    0  0.27780220731E+03 -0.97831942530E+03 -0.12472507865E+04  0.16093220587E+04  0.50400001928E-02 0.  1.
       -1    1    3    3    0  502 -0.27780220731E+03  0.97831942530E+03  0.83381670483E+03  0.13151172045E+04  0.50400001928E-02 0. -1.
</event>
<event>
 5   0  0.3770467E-07  0.2903113E+04  0.7818609E-02  0.8271952E-01
       -1   -1    0    0    0  501  0.00000000000E+00  0.00000000000E+00  0.16532852424E+04  0.16532852424E+04  0.50400001928E-02 0. -1.
        1   -1    0    0  501    0  0.00000000000E+00  0.00000000000E+00 -0.12744417343E+04  0.12744417343E+04  0.50400001928E-02 0.  1.
    10030    2    1    2    0    0  0.00000000000E+00  0.00000000000E+00  0.37884350809E+03  0.29277269767E+04  0.29031126135E+04 0.  0.
        1    1    3    3  502    0  0.11498912401E+03 -0.90060123571E+03 -0.95274900670E+03  0.13160682939E+04  0.50400001928E-02 0.  1.
       -1    1    3    3    0  502 -0.11498912401E+03  0.90060123571E+03  0.13315925148E+04  0.16116586828E+04  0.50400001928E-02 0. -1.
</event>
<event>
 5   0  0.9950999E-07  0.2901224E+04  0.7818609E-02  0.8272513E-01
        2   -1    0    0  501    0  0.00000000000E+00  0.00000000000E+00  0.20709442624E+04  0.20709442624E+04  0.25500000920E-02 0.  1.
       -2   -1    0    0    0  501  0.00000000000E+00  0.00000000000E+00 -0.10160943449E+04  0.10160943449E+04  0.25500000920E-02 0. -1.
    10030    2    1    2    0    0  0.00000000000E+00  0.00000000000E+00  0.10548499175E+04  0.30870386073E+04  0.29012237098E+04 0.  0.
        3    1    3    3  502    0 -0.17152635557E+03  0.55528760576E+03 -0.88680093861E+03  0.10602742714E+04  0.10100000352E+00 0. -1.
       -3    1    3    3    0  502  0.17152635557E+03 -0.55528760576E+03  0.19416508561E+04  0.20267643358E+04  0.10100000352E+00 0.  1.
</event>
<event>
 5   0  0.1031339E-06  0.2900480E+04  0.7818609E-02  0.8272735E-01
        2   -1    0    0  501    0  0.00000000000E+00  0.00000000000E+00  0.21118246261E+04  0.21118246261E+04  0.25500000920E-02 0.  1.
       -2   -1    0    0    0  501  0.00000000000E+00  0.00000000000E+00 -0.99591400936E+03  0.99591400937E+03  0.25500000920E-02 0. -1.
    10030    2    1    2    0    0  0.00000000000E+00  0.00000000000E+00  0.11159106168E+04  0.31077386355E+04  0.29004797744E+04 0.  0.
        5    1    3    3  502    0  0.11867004964E+04  0.83260580098E+03  0.60191315297E+03  0.15696534718E+04  0.46999998093E+01 0. -1.
       -5    1    3    3    0  502 -0.11867004964E+04 -0.83260580098E+03  0.51399746379E+03  0.15380851637E+04  0.46999998093E+01 0.  1.
</event>
<event>
 5   0  0.9994311E-07  0.2900433E+04  0.7818609E-02  0.8272749E-01
        2   -1    0    0  501    0  0.00000000000E+00  0.00000000000E+00  0.21635372276E+04  0.21635372276E+04  0.25500000920E-02 0.  1.
       -2   -1    0    0    0  501  0.00000000000E+00  0.00000000000E+00 -0.97207861159E+03  0.97207861159E+03  0.25500000920E-02 0. -1.
    10030    2    1    2    0    0  0.00000000000E+00  0.00000000000E+00  0.11914586160E+04  0.31356158392E+04  0.29004332534E+04 0.  0.
        2    1    3    3  502    0 -0.67095021266E+03  0.10989681191E+04 -0.12562535375E+03  0.12937104947E+04  0.25500000920E-02 0. -1.
       -2    1    3    3    0  502  0.67095021266E+03 -0.10989681191E+04  0.13170839698E+04  0.18419053445E+04  0.25500000920E-02 0.  1.
</event>
<event>
 5   0  0.9994311E-07  0.2893451E+04  0.7818609E-02  0.8274829E-01
        2   -1    0    0  501    0  0.00000000000E+00  0.00000000000E+00  0.17890024055E+04  0.17890024055E+04  0.25500000920E-02 0. -1.
       -2   -1    0    0    0  501  0.00000000000E+00  0.00000000000E+00 -0.11699338010E+04  0.11699338010E+04  0.25500000920E-02 0.  1.
    10030    2    1    2    0    0  0.00000000000E+00  0.00000000000E+00  0.61906860447E+03  0.29589362065E+04  0.28934508009E+04 0.  0.
        2    1    3    3  502    0  0.17659428288E+02  0.21805130936E+03 -0.11529214555E+04  0.11734931238E+04  0.25500000920E-02 0.  1.
       -2    1    3    3    0  502 -0.17659428288E+02 -0.21805130936E+03  0.17719900600E+04  0.17854430827E+04  0.25500000920E-02 0. -1.
</event>
<event>
 5   0  0.9950999E-07  0.2897398E+04  0.7818609E-02  0.8273652E-01
       -2   -1    0    0    0  501  0.00000000000E+00  0.00000000000E+00  0.15858980372E+04  0.15858980372E+04  0.25500000920E-02 0. -1.
        2   -1    0    0  501    0  0.00000000000E+00  0.00000000000E+00 -0.13233694513E+04  0.13233694513E+04  0.25500000920E-02 0.  1.
    10030    2    1    2    0    0  0.00000000000E+00  0.00000000000E+00  0.26252858595E+03  0.29092674885E+04  0.28973981537E+04 0.  0.
        3    1    3    3  502    0 -0.24750832135E+03  0.72277511972E+03 -0.11046577365E+04  0.13431057173E+04  0.10100000352E+00 0.  1.
       -3    1    3    3    0  502  0.24750832135E+03 -0.72277511972E+03  0.13671863225E+04  0.15661617711E+04  0.10100000352E+00 0. -1.
</event>
<event>
 5   0  0.3885904E-07  0.2898994E+04  0.7818609E-02  0.8273177E-01
        1   -1    0    0  501    0  0.00000000000E+00  0.00000000000E+00  0.13621152836E+04  0.13621152837E+04  0.50400001928E-02 0. -1.
       -1   -1    0    0    0  501  0.00000000000E+00  0.00000000000E+00 -0.15424845808E+04  0.15424845808E+04  0.50400001928E-02 0.  1.
    10030    2    1    2    0    0  0.00000000000E+00  0.00000000000E+00 -0.18036929711E+03  0.29045998644E+04  0.28989941858E+04 0.  0.
        2    1    3    3  502    0 -0.13831473171E+04 -0.19648266928E+02  0.34373391678E+03  0.14253545386E+04  0.25500000920E-02 0.  1.
       -2    1    3    3    0  502  0.13831473171E+04  0.19648266928E+02 -0.52410321389E+03  0.14792453258E+04  0.25500000920E-02 0. -1.
</event>
<event>
 5   0  0.1063979E-06  0.2899369E+04  0.7818609E-02  0.8273065E-01
        2   -1    0    0  501    0  0.00000000000E+00  0.00000000000E+00  0.16016157700E+04  0.16016157700E+04  0.25500000920E-02 0. -1.
       -2   -1    0    0    0  501  0.00000000000E+00  0.00000000000E+00 -0.13121659600E+04  0.13121659600E+04  0.25500000920E-02 0.  1.
    10030    2    1    2    0    0  0.00000000000E+00  0.00000000000E+00  0.28944980995E+03  0.29137817300E+04  0.28993693758E+04 0.  0.
        1    1    3    3  502    0 -0.28991544645E+03  0.10080218115E+04 -0.86096262168E+03  0.13569876840E+04  0.50400001928E-02 0.  1.
       -1    1    3    3    0  502  0.28991544645E+03 -0.10080218115E+04  0.11504124316E+04  0.15567940459E+04  0.50400001928E-02 0. -1.
</event>
<event>
 5   0  0.3769563E-07  0.2902335E+04  0.7818609E-02  0.8272183E-01
        1   -1    0    0  501    0  0.00000000000E+00  0.00000000000E+00  0.14057234642E+04  0.14057234642E+04  0.50400001928E-02 0.  1.
       -1   -1    0    0    0  501  0.00000000000E+00  0.00000000000E+00 -0.14980809542E+04  0.14980809542E+04  0.50400001928E-02 0. -1.
    10030    2    1    2    0    0  0.00000000000E+00  0.00000000000E+00 -0.92357489986E+02  0.29038044184E+04  0.29023353001E+04 0.  0.
        3    1    3    3  502    0  0.85457002630E+03  0.23016337490E+01 -0.12196289022E+04  0.14892245958E+04  0.10100000352E+00 0. -1.
       -3    1    3    3    0  502 -0.85457002630E+03 -0.23016337490E+01  0.11272714122E+04  0.14145798226E+04  0.10100000352E+00 0.  1.
</event>
<event>
 5   0  0.3769563E-07  0.2899067E+04  0.7818609E-02  0.8273155E-01
       -1   -1    0    0    0  501  0.00000000000E+00  0.00000000000E+00  0.11726487684E+04  0.11726487684E+04  0.50400001928E-02 0.  1.
        1   -1    0    0  501    0  0.00000000000E+00  0.00000000000E+00 -0.17917962098E+04  0.17917962099E+04  0.50400001928E-02 0. -1.
    10030    2    1    2    0    0  0.00000000000E+00  0.00000000000E+00 -0.61914744143E+03  0.29644449783E+04  0.28990671733E+04 0.  0.
        3    1    3    3  502    0  0.10853077891E+04  0.57730347957E+03  0.47584641674E+03  0.13181813711E+04  0.10100000352E+00 0.  1.
       -3    1    3    3    0  502 -0.10853077891E+04 -0.57730347957E+03 -0.10949938582E+04  0.16462636072E+04  0.10100000352E+00 0. -1.
</event>
<event>
 5   0  0.3638028E-07  0.2898645E+04  0.7818609E-02  0.8273281E-01
        1   -1    0    0  501    0  0.00000000000E+00  0.00000000000E+00  0.24304872680E+04  0.24304872680E+04  0.50400001928E-02 0. -1.
       -1   -1    0    0    0  501  0.00000000000E+00  0.00000000000E+00 -0.86424469915E+03  0.86424469916E+03  0.50400001928E-02 0.  1.
    10030    2    1    2    0    0  0.00000000000E+00  0.00000000000E+00  0.15662425688E+04  0.32947319671E+04  0.28986450198E+04 0.  0.
        4    1    3    3  502    0 -0.88191950966E+03 -0.62366655630E+03  0.18814950750E+04  0.21695085446E+04  0.12699999809E+01 0. -1.
       -4    1    3    3    0  502  0.88191950966E+03  0.62366655630E+03 -0.31525250622E+03  0.11252234225E+04  0.12699999809E+01 0.  1.
</event>
<event>
 5   0  0.1006893E-06  0.2898168E+04  0.7818609E-02  0.8273423E-01
       -2   -1    0    0    0  501  0.00000000000E+00  0.00000000000E+00  0.10722981341E+04  0.10722981341E+04  0.25500000920E-02 0. -1.
        2   -1    0    0  501    0  0.00000000000E+00  0.00000000000E+00 -0.19582651865E+04  0.19582651865E+04  0.25500000920E-02 0.  1.
    10030    2    1    2    0    0  0.00000000000E+00  0.00000000000E+00 -0.88596705239E+03  0.30305633206E+04  0.28981677698E+04 0.  0.
        4    1    3    3  502    0 -0.12973679571E+03  0.12119503400E+03  0.10608819206E+04  0.10756355958E+04  0.12699999809E+01 0. -1.
       -4    1    3    3    0  502  0.12973679571E+03 -0.12119503400E+03 -0.19468489730E+04  0.19549277248E+04  0.12699999809E+01 0.  1.
</event>
<event>
 5   0  0.3769563E-07  0.2904631E+04  0.7818609E-02  0.8271501E-01
       -1   -1    0    0    0  501  0.00000000000E+00  0.00000000000E+00  0.16347943437E+04  0.16347943437E+04  0.50400001928E-02 0.  1.
        1   -1    0    0  501    0  0.00000000000E+00  0.00000000000E+00 -0.12902051288E+04  0.12902051288E+04  0.50400001928E-02 0. -1.
    10030    2    1    2    0    0  0.00000000000E+00  0.00000000000E+00  0.34458921489E+03  0.29249994725E+04  0.29046308177E+04 0.  0.
        3    1    3    3  502    0  0.86971685907E+03  0.26011802497E+02  0.13432626438E+04  0.16004494898E+04  0.10100000352E+00 0.  1.
       -3    1    3    3    0  502 -0.86971685907E+03 -0.26011802497E+02 -0.99867342895E+03  0.13245499827E+04  0.10100000352E+00 0. -1.
</event>
<event>
 5   0  0.1031339E-06  0.2893412E+04  0.7818609E-02  0.8274840E-01
        2   -1    0    0  501    0  0.00000000000E+00  0.00000000000E+00  0.17021704255E+04  0.17021704255E+04  0.25500000920E-02 0. -1.
       -2   -1    0    0    0  501  0.00000000000E+00  0.00000000000E+00 -0.12295823201E+04  0.12295823201E+04  0.25500000920E-02 0.  1.
    10030    2    1    2    0    0  0.00000000000E+00  0.00000000000E+00  0.47258810547E+03  0.29317527456E+04  0.28934122838E+04 0.  0.
        5    1    3    3  502    0 -0.65711391054E+03  0.10379802868E+04  0.10104435098E+04  0.15906665093E+04  0.46999998093E+01 0. -1.
       -5    1    3    3    0  502  0.65711391054E+03 -0.10379802868E+04 -0.53785540437E+03  0.13410862363E+04  0.46999998093E+01 0.  1.
</event>
<event>
 5   0  0.3769563E-07  0.2892158E+04  0.7818609E-02  0.8275214E-01
       -1   -1    0    0    0  501  0.00000000000E+00  0.00000000000E+00  0.18966174893E+04  0.18966174893E+04  0.50400001928E-02 0. -1.
        1   -1    0    0  501    0  0.00000000000E+00  0.00000000000E+00 -0.11025652813E+04  0.11025652813E+04  0.50400001928E-02 0.  1.
    10030    2    1    2    0    0  0.00000000000E+00  0.00000000000E+00  0.79405220794E+03  0.29991827706E+04  0.28921580839E+04 0.  0.
        3    1    3    3  502    0 -0.52246447519E+02 -0.52617991080E+03 -0.99871869805E+03  0.11300593072E+04  0.10100000352E+00 0.  1.
       -3    1    3    3    0  502  0.52246447519E+02  0.52617991080E+03  0.17927709060E+04  0.18691234634E+04  0.10100000352E+00 0. -1.
</event>
<event>
 5   0  0.1063979E-06  0.2896923E+04  0.7818609E-02  0.8273794E-01
       -2   -1    0    0    0  501  0.00000000000E+00  0.00000000000E+00  0.15090699194E+04  0.15090699194E+04  0.25500000920E-02 0. -1.
        2   -1    0    0  501    0  0.00000000000E+00  0.00000000000E+00 -0.13902871473E+04  0.13902871473E+04  0.25500000920E-02 0.  1.
    10030    2    1    2    0    0  0.00000000000E+00  0.00000000000E+00  0.11878277206E+03  0.28993570667E+04  0.28969228594E+04 0.  0.
        1    1    3    3  502    0 -0.10091448561E+04 -0.85910438474E-01 -0.98055205423E+03  0.14070734448E+04  0.50400001928E-02 0.  1.
       -1    1    3    3    0  502  0.10091448561E+04  0.85910438474E-01  0.10993348263E+04  0.14922836219E+04  0.50400001928E-02 0. -1.
</event>
<event>
 5   0  0.3769563E-07  0.2931388E+04  0.7818609E-02  0.8263599E-01
        1   -1    0    0  501    0  0.00000000000E+00  0.00000000000E+00  0.23477051670E+04  0.23477051670E+04  0.50400001928E-02 0. -1.
       -1   -1    0    0    0  501  0.00000000000E+00  0.00000000000E+00 -0.91504636796E+03  0.91504636797E+03  0.50400001928E-02 0.  1.
    10030    2    1    2    0    0  0.00000000000E+00  0.00000000000E+00  0.14326587991E+04  0.32627515350E+04  0.29313881259E+04 0.  0.
        3    1    3    3  502    0  0.21509232971E+03  0.13413955935E+04  0.13286552798E+04  0.19002451714E+04  0.10100000352E+00 0.  1.
       -3    1    3    3    0  502 -0.21509232971E+03 -0.13413955935E+04  0.10400351927E+03  0.13625063636E+04  0.10100000352E+00 0. -1.
</event>
<event>
 5   0  0.1031339E-06  0.2901966E+04  0.7818609E-02  0.8272293E-01
        2   -1    0    0  501    0  0.00000000000E+00  0.00000000000E+00  0.14964956952E+04  0.14964956952E+04  0.25500000920E-02 0. -1.
       -2   -1    0    0    0  501  0.00000000000E+00  0.00000000000E+00 -0.14068541008E+04  0.14068541008E+04  0.25500000920E-02 0.  1.
    10030    2    1    2    0    0  0.00000000000E+00  0.00000000000E+00  0.89641594317E+02  0.29033497960E+04  0.29019656136E+04 0.  0.
        5    1    3    3  502    0  0.68674126055E+03 -0.54180963577E+03  0.12030248119E+04  0.14874347140E+04  0.46999998093E+01 0. -1.
       -5    1    3    3    0  502 -0.68674126055E+03  0.54180963577E+03 -0.11133832176E+04  0.14159150820E+04  0.46999998093E+01 0.  1.
</event>
<event>
 5   0  0.9950999E-07  0.2914702E+04  0.7818609E-02  0.8268517E-01
       -2   -1    0    0    0  501  0.00000000000E+00  0.00000000000E+00  0.14131944379E+04  0.14131944379E+04  0.25500000920E-02 0.  1.
        2   -1    0    0  501    0  0.00000000000E+00  0.00000000000E+00 -0.15028869899E+04  0.15028869899E+04  0.25500000920E-02 0. -1.
    10030    2    1    2    0    0  0.00000000000E+00  0.00000000000E+00 -0.89692552037E+02  0.29160814278E+04  0.29147017240E+04 0.  0.
        3    1    3    3  502    0 -0.63650683515E+03  0.69979872066E+03  0.10642867776E+04  0.14239261061E+04  0.10100000352E+00 0.  1.
       -3    1    3    3    0  502  0.63650683515E+03 -0.69979872066E+03 -0.11539793296E+04  0.14921553217E+04  0.10100000352E+00 0. -1.
</event>
<event>
 5   0  0.9950999E-07  0.2894560E+04  0.7818609E-02  0.8274498E-01
       -2   -1    0    0    0  501  0.00000000000E+00  0.00000000000E+00  0.69289103654E+03  0.69289103654E+03  0.25500000920E-02 0. -1.
        2   -1    0    0  501    0  0.00000000000E+00  0.00000000000E+00 -0.30230148640E+04  0.30230148640E+04  0.25500000920E-02 0.  1.
    10030    2    1    2    0    0  0.00000000000E+00  0.00000000000E+00 -0.23301238274E+04  0.37159059005E+04  0.28945603483E+04 0.  0.
        3    1    3    3  502    0  0.62992836878E+02  0.96794124844E+03 -0.25439733159E+04  0.27226234775E+04  0.10100000352E+00 0.  1.
       -3    1    3    3    0  502 -0.62992836878E+02 -0.96794124844E+03  0.21384948848E+03  0.99328242301E+03  0.10100000352E+00 0. -1.
</event>
<event>
 5   0  0.3770467E-07  0.2893232E+04  0.7818609E-02  0.8274894E-01
       -1   -1    0    0    0  501  0.00000000000E+00  0.00000000000E+00  0.11790455684E+04  0.11790455684E+04  0.50400001928E-02 0. -1.
        1   -1    0    0  501    0  0.00000000000E+00  0.00000000000E+00 -0.17749086371E+04  0.17749086371E+04  0.50400001928E-02 0.  1.
    10030    2    1    2    0    0  0.00000000000E+00  0.00000000000E+00 -0.59586306875E+03  0.29539542055E+04  0.28932322153E+04 0.  0.
        1    1    3    3  502    0 -0.32455561890E+03 -0.62288710819E+03  0.99327408983E+03  0.12165188518E+04  0.50400001928E-02 0. -1.
       -1    1    3    3    0  502  0.32455561890E+03  0.62288710819E+03 -0.15891371586E+04  0.17374353537E+04  0.50400001928E-02 0.  1.
</event>
<event>
 5   0  0.3638028E-07  0.2888505E+04  0.7818609E-02  0.8276306E-01
       -1   -1    0    0    0  501  0.00000000000E+00  0.00000000000E+00  0.14572480915E+04  0.14572480915E+04  0.50400001928E-02 0.  1.
        1   -1    0    0  501    0  0.00000000000E+00  0.00000000000E+00 -0.14313728554E+04  0.14313728554E+04  0.50400001928E-02 0. -1.
    10030    2    1    2    0    0  0.00000000000E+00  0.00000000000E+00  0.25875236177E+02  0.28886209469E+04  0.28885050540E+04 0.  0.
        4    1    3    3  502    0  0.20525185008E+03  0.43411562375E+03  0.13750785544E+04  0.14565120461E+04  0.12699999809E+01 0.  1.
       -4    1    3    3    0  502 -0.20525185008E+03 -0.43411562375E+03 -0.13492033183E+04  0.14321089008E+04  0.12699999809E+01 0. -1.
</event>
<event>
 5   0  0.3770467E-07  0.2902039E+04  0.7818609E-02  0.8272271E-01
       -1   -1    0    0    0  501  0.00000000000E+00  0.00000000000E+00  0.12485728914E+04  0.12485728914E+04  0.50400001928E-02 0.  1.
        1   -1    0    0  501    0  0.00000000000E+00  0.00000000000E+00 -0.16862914237E+04  0.16862914237E+04  0.50400001928E-02 0. -1.
    10030    2    1    2    0    0  0.00000000000E+00  0.00000000000E+00 -0.43771853237E+03  0.29348643151E+04  0.29020391166E+04 0.  0.
        1    1    3    3  502    0  0.33457544950E+03 -0.11445002820E+04  0.61731590886E+03  0.13427213256E+04  0.50400001928E-02 0.  1.
       -1    1    3    3    0  502 -0.33457544950E+03  0.11445002820E+04 -0.10550344412E+04  0.15921429895E+04  0.50400001928E-02 0. -1.
</event>
<event>
 5   0  0.3378750E-07  0.2892852E+04  0.7818609E-02  0.8275007E-01
       -3   -1    0    0    0  501  0.00000000000E+00  0.00000000000E+00  0.18626166029E+04  0.18626166056E+04  0.10100000352E+00 0. -1.
        3   -1    0    0  501    0  0.00000000000E+00  0.00000000000E+00 -0.11232309696E+04  0.11232309742E+04  0.10100000352E+00 0.  1.
    10030    2    1    2    0    0  0.00000000000E+00  0.00000000000E+00  0.73938563321E+03  0.29858475798E+04  0.28928523390E+04 0.  0.
        2    1    3    3  502    0 -0.11966384418E+04  0.68463496402E+03 -0.81958370519E+02  0.13810813766E+04  0.25500000920E-02 0.  1.
       -2    1    3    3    0  502  0.11966384418E+04 -0.68463496402E+03  0.82134400373E+03  0.16047662032E+04  0.25500000920E-02 0. -1.
</event>
<event>
 5   0  0.3769563E-07  0.2898454E+04  0.7818609E-02  0.8273337E-01
       -1   -1    0    0    0  501  0.00000000000E+00  0.00000000000E+00  0.15977706354E+04  0.15977706354E+04  0.50400001928E-02 0.  1.
        1   -1    0    0  501    0  0.00000000000E+00  0.00000000000E+00 -0.13144936820E+04  0.13144936820E+04  0.50400001928E-02 0. -1.
    10030    2    1    2    0    0  0.00000000000E+00  0.00000000000E+00  0.28327695340E+03  0.29122643175E+04  0.28984543506E+04 0.  0.
        3    1    3    3  502    0 -0.14379035717E+04  0.16857610987E+03  0.20733202042E+03  0.14625221924E+04  0.10100000352E+00 0. -1.
       -3    1    3    3    0  502  0.14379035717E+04 -0.16857610987E+03  0.75944932983E+02  0.14497421251E+04  0.10100000352E+00 0.  1.
</event>
<event>
 5   0  0.3638028E-07  0.2899279E+04  0.7818609E-02  0.8273092E-01
       -1   -1    0    0    0  501  0.00000000000E+00  0.00000000000E+00  0.11096011174E+04  0.11096011174E+04  0.50400001928E-02 0. -1.
        1   -1    0    0  501    0  0.00000000000E+00  0.00000000000E+00 -0.18938832486E+04  0.18938832486E+04  0.50400001928E-02 0.  1.
    10030    2    1    2    0    0  0.00000000000E+00  0.00000000000E+00 -0.78428213119E+03  0.30034843660E+04  0.28992791993E+04 0.  0.
        4    1    3    3  502    0 -0.94620585282E+03 -0.52533242483E+03  0.60697826140E+03  0.12408480548E+04  0.12699999809E+01 0. -1.
       -4    1    3    3    0  502  0.94620585282E+03  0.52533242483E+03 -0.13912603926E+04  0.17626363111E+04  0.12699999809E+01 0.  1.
</event>
<event>
 5   0  0.3885904E-07  0.2898114E+04  0.7818609E-02  0.8273439E-01
       -1   -1    0    0    0  501  0.00000000000E+00  0.00000000000E+00  0.15509508539E+04  0.15509508539E+04  0.50400001928E-02 0. -1.
        1   -1    0    0  501    0  0.00000000000E+00  0.00000000000E+00 -0.13538575384E+04  0.13538575384E+04  0.50400001928E-02 0.  1.
    10030    2    1    2    0    0  0.00000000000E+00  0.00000000000E+00  0.19709331553E+03  0.29048083923E+04  0.28981142181E+04 0.  0.
        2    1    3    3  502    0 -0.43811678695E+02  0.96751566109E+02  0.15470443100E+04  0.15506857921E+04  0.25500000920E-02 0. -1.
       -2    1    3    3    0  502  0.43811678695E+02 -0.96751566109E+02 -0.13499509945E+04  0.13541226002E+04  0.25500000920E-02 0.  1.
</event>
<event>
 5   0  0.9994311E-07  0.2906787E+04  0.7818609E-02  0.8270861E-01
        2   -1    0    0  501    0  0.00000000000E+00  0.00000000000E+00  0.16566985029E+04  0.16566985029E+04  0.25500000920E-02 0.  1.
       -2   -1    0    0    0  501  0.00000000000E+00  0.00000000000E+00 -0.12750378534E+04  0.12750378534E+04  0.25500000920E-02 0. -1.
    10030    2    1    2    0    0  0.00000000000E+00  0.00000000000E+00  0.38166064950E+03  0.29317363563E+04  0.29067874383E+04 0.  0.
        2    1    3    3  502    0  0.92206174418E+03  0.66238345071E+02 -0.94029804641E+03  0.13186151048E+04  0.25500000920E-02 0. -1.
       -2    1    3    3    0  502 -0.92206174418E+03 -0.66238345071E+02  0.13219586959E+04  0.16131212515E+04  0.25500000920E-02 0.  1.
</event>
<event>
 5   0  0.3786210E-07  0.2896900E+04  0.7818609E-02  0.8273800E-01
        1   -1    0    0  501    0  0.00000000000E+00  0.00000000000E+00  0.15316131132E+04  0.15316131133E+04  0.50400001928E-02 0. -1.
       -1   -1    0    0    0  501  0.00000000000E+00  0.00000000000E+00 -0.13698027946E+04  0.13698027946E+04  0.50400001928E-02 0.  1.
    10030    2    1    2    0    0  0.00000000000E+00  0.00000000000E+00  0.16181031869E+03  0.29014159078E+04  0.28969003592E+04 0.  0.
        5    1    3    3  502    0  0.76163525565E+03  0.11828845781E+04  0.42594417710E+03  0.14699505841E+04  0.46999998093E+01 0. -1.
       -5    1    3    3    0  502 -0.76163525565E+03 -0.11828845781E+04 -0.26413385841E+03  0.14314653237E+04  0.46999998093E+01 0.  1.
</event>
<event>
 5   0  0.3769563E-07  0.2898762E+04  0.7818609E-02  0.8273246E-01
        1   -1    0    0  501    0  0.00000000000E+00  0.00000000000E+00  0.18675247857E+04  0.18675247857E+04  0.50400001928E-02 0.  1.
       -1   -1    0    0    0  501  0.00000000000E+00  0.00000000000E+00 -0.11248607969E+04  0.11248607970E+04  0.50400001928E-02 0. -1.
    10030    2    1    2    0    0  0.00000000000E+00  0.00000000000E+00  0.74266398871E+03  0.29923855826E+04  0.28987620935E+04 0.  0.
        3    1    3    3  502    0  0.10956200473E+04  0.25916728449E+03 -0.57092145598E+03  0.12623400051E+04  0.10100000352E+00 0.  1.
       -3    1    3    3    0  502 -0.10956200473E+04 -0.25916728449E+03  0.13135854447E+04  0.17300455775E+04  0.10100000352E+00 0. -1.
</event>
<event>
 5   0  0.9994311E-07  0.2900427E+04  0.7818609E-02  0.8272750E-01
        2   -1    0    0  501    0  0.00000000000E+00  0.00000000000E+00  0.25853142083E+04  0.25853142083E+04  0.25500000920E-02 0. -1.
       -2   -1    0    0    0  501  0.00000000000E+00  0.00000000000E+00 -0.81348680279E+03  0.81348680279E+03  0.25500000920E-02 0.  1.
    10030    2    1    2    0    0  0.00000000000E+00  0.00000000000E+00  0.17718274055E+04  0.33988010111E+04  0.29004268579E+04 0.  0.
        2    1    3    3  502    0  0.13730342528E+04 -0.46539415748E+03  0.84359451469E+03  0.16773391089E+04  0.25500000920E-02 0.  1.
       -2    1    3    3    0  502 -0.13730342528E+04  0.46539415748E+03  0.92823289082E+03  0.17214619022E+04  0.25500000920E-02 0. -1.
</event>
<event>
 5   0  0.3885904E-07  0.2902744E+04  0.7818609E-02  0.8272062E-01
       -1   -1    0    0    0  501  0.00000000000E+00  0.00000000000E+00  0.15503105244E+04  0.15503105244E+04  0.50400001928E-02 0.  1.
        1   -1    0    0  501    0  0.00000000000E+00  0.00000000000E+00 -0.13587473879E+04  0.13587473879E+04  0.50400001928E-02 0. -1.
    10030    2    1    2    0    0  0.00000000000E+00  0.00000000000E+00  0.19156313653E+03  0.29090579123E+04  0.29027437885E+04 0.  0.
        2    1    3    3  502    0 -0.39995924225E+03 -0.90028244987E+03  0.11639351146E+04  0.15248674815E+04  0.25500000920E-02 0.  1.
       -2    1    3    3    0  502  0.39995924225E+03  0.90028244987E+03 -0.97237197809E+03  0.13841904308E+04  0.25500000920E-02 0. -1.
</event>
<event>
 5   0  0.3786210E-07  0.2899454E+04  0.7818609E-02  0.8273040E-01
       -1   -1    0    0    0  501  0.00000000000E+00  0.00000000000E+00  0.98637237331E+03  0.98637237332E+03  0.50400001928E-02 0. -1.
        1   -1    0    0  501    0  0.00000000000E+00  0.00000000000E+00 -0.21307456752E+04  0.21307456752E+04  0.50400001928E-02 0.  1.
    10030    2    1    2    0    0  0.00000000000E+00  0.00000000000E+00 -0.11443733019E+04  0.31171180486E+04  0.28994542029E+04 0.  0.
        5    1    3    3  502    0 -0.22251462177E+03 -0.73758806650E+03  0.74806734212E+03  0.10738602102E+04  0.46999998093E+01 0. -1.
       -5    1    3    3    0  502  0.22251462177E+03  0.73758806650E+03 -0.18924406440E+04  0.20432578383E+04  0.46999998093E+01 0.  1.
</event>
<event>
 5   0  0.1063979E-06  0.2898134E+04  0.7818609E-02  0.8273433E-01
        2   -1    0    0  501    0  0.00000000000E+00  0.00000000000E+00  0.14912549638E+04  0.14912549638E+04  0.25500000920E-02 0.  1.
       -2   -1    0    0    0  501  0.00000000000E+00  0.00000000000E+00 -0.14080729701E+04  0.14080729701E+04  0.25500000920E-02 0. -1.
    10030    2    1    2    0    0  0.00000000000E+00  0.00000000000E+00  0.83181993662E+02  0.28993279339E+04  0.28981344386E+04 0.  0.
        1    1    3    3  502    0  0.11063786347E+03  0.20629675617E+03  0.14722137232E+04  0.14907086688E+04  0.50400001928E-02 0.  1.
       -1    1    3    3    0  502 -0.11063786347E+03 -0.20629675617E+03 -0.13890317295E+04  0.14086192651E+04  0.50400001928E-02 0. -1.
</event>
<event>
 5   0  0.9994311E-07  0.2900624E+04  0.7818609E-02  0.8272692E-01
        2   -1    0    0  501    0  0.00000000000E+00  0.00000000000E+00  0.11820959925E+04  0.11820959925E+04  0.25500000920E-02 0. -1.
       -2   -1    0    0    0  501  0.00000000000E+00  0.00000000000E+00 -0.17793859395E+04  0.17793859395E+04  0.25500000920E-02 0.  1.
    10030    2    1    2    0    0  0.00000000000E+00  0.00000000000E+00 -0.59728994697E+03  0.29614819320E+04  0.29006240626E+04 0.  0.
        2    1    3    3  502    0 -0.45611620918E+03  0.50581632552E+03  0.10086543987E+04  0.12170767632E+04  0.25500000920E-02 0. -1.
       -2    1    3    3    0  502  0.45611620918E+03 -0.50581632552E+03 -0.16059443457E+04  0.17444051688E+04  0.25500000920E-02 0.  1.
</event>
<event>
 5   0  0.1006893E-06  0.2901547E+04  0.7818609E-02  0.8272417E-01
       -2   -1    0    0    0  501  0.00000000000E+00  0.00000000000E+00  0.22128551887E+04  0.22128551887E+04  0.25500000920E-02 0. -1.
        2   -1    0    0  501    0  0.00000000000E+00  0.00000000000E+00 -0.95114364557E+03  0.95114364557E+03  0.25500000920E-02 0.  1.
    10030    2    1    2    0    0  0.00000000000E+00  0.00000000000E+00  0.12617115431E+04  0.31639988343E+04  0.29015465885E+04 0.  0.
        4    1    3    3  502    0  0.51091457896E+03  0.12740831723E+04  0.11428112192E+04  0.17861524942E+04  0.12699999809E+01 0. -1.
       -4    1    3    3    0  502 -0.51091457896E+03 -0.12740831723E+04  0.11890032398E+03  0.13778463401E+04  0.12699999809E+01 0.  1.
</event>
<event>
 5   0  0.1031339E-06  0.2900067E+04  0.7818609E-02  0.8272857E-01
        2   -1    0    0  501    0  0.00000000000E+00  0.00000000000E+00  0.15300213396E+04  0.15300213396E+04  0.25500000920E-02 0. -1.
       -2   -1    0    0    0  501  0.00000000000E+00  0.00000000000E+00 -0.13742277127E+04  0.13742277127E+04  0.25500000920E-02 0.  1.
    10030    2    1    2    0    0  0.00000000000E+00  0.00000000000E+00  0.15579362686E+03  0.29042490524E+04  0.29000673964E+04 0.  0.
        5    1    3    3  502    0  0.59262683320E+03 -0.91483211465E+03 -0.87975150466E+03  0.14007530694E+04  0.46999998093E+01 0.  1.
       -5    1    3    3    0  502 -0.59262683320E+03  0.91483211465E+03  0.10355451315E+04  0.15034959830E+04  0.46999998093E+01 0. -1.
</event>
<event>
 5   0  0.1006893E-06  0.2903179E+04  0.7818609E-02  0.8271932E-01
        2   -1    0    0  501    0  0.00000000000E+00  0.00000000000E+00  0.15678708803E+04  0.15678708803E+04  0.25500000920E-02 0. -1.
       -2   -1    0    0    0  501  0.00000000000E+00  0.00000000000E+00 -0.13439325052E+04  0.13439325052E+04  0.25500000920E-02 0.  1.
    10030    2    1    2    0    0  0.00000000000E+00  0.00000000000E+00  0.22393837514E+03  0.29118033855E+04  0.29031793882E+04 0.  0.
        4    1    3    3  502    0 -0.11238502481E+04  0.43281954578E+03 -0.70083239657E+03  0.13933914742E+04  0.12699999809E+01 0.  1.
       -4    1    3    3    0  502  0.11238502481E+04 -0.43281954578E+03  0.92477077171E+03  0.15184119113E+04  0.12699999809E+01 0. -1.
</event>
<event>
 5   0  0.1063979E-06  0.2896665E+04  0.7818609E-02  0.8273871E-01
       -2   -1    0    0    0  501  0.00000000000E+00  0.00000000000E+00  0.13925113722E+04  0.13925113722E+04  0.25500000920E-02 0. -1.
        2   -1    0    0  501    0  0.00000000000E+00  0.00000000000E+00 -0.15063908691E+04  0.15063908691E+04  0.25500000920E-02 0.  1.
    10030    2    1    2    0    0  0.00000000000E+00  0.00000000000E+00 -0.11387949691E+03  0.28989022413E+04  0.28966645758E+04 0.  0.
        1    1    3    3  502    0  0.51814649179E+03 -0.13244526949E+04 -0.33104124723E+03  0.14602188314E+04  0.50400001928E-02 0.  1.
       -1    1    3    3    0  502 -0.51814649179E+03  0.13244526949E+04  0.21716175032E+03  0.14386834099E+04  0.50400001928E-02 0. -1.
</event>
<event>
 5   0  0.3638028E-07  0.2896268E+04  0.7818609E-02  0.8273989E-01
        1   -1    0    0  501    0  0.00000000000E+00  0.00000000000E+00  0.22332981564E+04  0.22332981564E+04  0.50400001928E-02 0. -1.
       -1   -1    0    0    0  501  0.00000000000E+00  0.00000000000E+00 -0.93901155545E+03  0.93901155546E+03  0.50400001928E-02 0.  1.
    10030    2    1    2    0    0  0.00000000000E+00  0.00000000000E+00  0.12942866010E+04  0.31723097119E+04  0.28962684790E+04 0.  0.
        4    1    3    3  502    0  0.17135147565E+03 -0.11724470280E+04  0.15590156011E+04  0.19581942240E+04  0.12699999809E+01 0. -1.
       -4    1    3    3    0  502 -0.17135147565E+03  0.11724470280E+04 -0.26472900009E+03  0.12141154879E+04  0.12699999809E+01 0.  1.
</event>
<event>
 5   0  0.9994311E-07  0.2881353E+04  0.7818609E-02  0.8278447E-01
       -2   -1    0    0    0  501  0.00000000000E+00  0.00000000000E+00  0.11718706316E+04  0.11718706316E+04  0.25500000920E-02 0.  1.
        2   -1    0    0  501    0  0.00000000000E+00  0.00000000000E+00 -0.17711421549E+04  0.17711421549E+04  0.25500000920E-02 0. -1.
    10030    2    1    2    0    0  0.00000000000E+00  0.00000000000E+00 -0.59927152334E+03  0.29430127865E+04  0.28813534846E+04 0.  0.
        2    1    3    3  502    0  0.71184884057E+03  0.29131998827E+03 -0.15438802773E+04  0.17248659130E+04  0.25500000920E-02 0. -1.
       -2    1    3    3    0  502 -0.71184884057E+03 -0.29131998827E+03  0.94460875394E+03  0.12181468735E+04  0.25500000920E-02 0.  1.
</event>
<event>
 5   0  0.9950999E-07  0.2900858E+04  0.7818609E-02  0.8272622E-01
        2   -1    0    0  501    0  0.00000000000E+00  0.00000000000E+00  0.24813960428E+04  0.24813960428E+04  0.25500000920E-02 0.  1.
       -2   -1    0    0    0  501  0.00000000000E+00  0.00000000000E+00 -0.84780667243E+03  0.84780667243E+03  0.25500000920E-02 0. -1.
    10030    2    1    2    0    0  0.00000000000E+00  0.00000000000E+00  0.16335893704E+04  0.33292027153E+04  0.29008578883E+04 0.  0.
        3    1    3    3  502    0 -0.11841693459E+04  0.79722298387E+03  0.11114612800E+04  0.18091897946E+04  0.10100000352E+00 0. -1.
       -3    1    3    3    0  502  0.11841693459E+04 -0.79722298387E+03  0.52212809036E+03  0.15200129206E+04  0.10100000352E+00 0.  1.
</event>
<event>
 5   0  0.1031339E-06  0.2897045E+04  0.7818609E-02  0.8273757E-01
        2   -1    0    0  501    0  0.00000000000E+00  0.00000000000E+00  0.17688159929E+04  0.17688159929E+04  0.25500000920E-02 0.  1.
       -2   -1    0    0    0  501  0.00000000000E+00  0.00000000000E+00 -0.11862272457E+04  0.11862272457E+04  0.25500000920E-02 0. -1.
    10030    2    1    2    0    0  0.00000000000E+00  0.00000000000E+00  0.58258874721E+03  0.29550432386E+04  0.28970452004E+04 0.  0.
        5    1    3    3  502    0  0.69397939722E+03 -0.79066471965E+03  0.13069377631E+04  0.16777563915E+04  0.46999998093E+01 0.  1.
       -5    1    3    3    0  502 -0.69397939722E+03  0.79066471965E+03 -0.72434901593E+03  0.12772868470E+04  0.46999998093E+01 0. -1.
</event>
<event>
 5   0  0.1063979E-06  0.2900857E+04  0.7818609E-02  0.8272623E-01
        2   -1    0    0  501    0  0.00000000000E+00  0.00000000000E+00  0.18167171538E+04  0.18167171538E+04  0.25500000920E-02 0. -1.
       -2   -1    0    0    0  501  0.00000000000E+00  0.00000000000E+00 -0.11579911088E+04  0.11579911088E+04  0.25500000920E-02 0.  1.
    10030    2    1    2    0    0  0.00000000000E+00  0.00000000000E+00  0.65872604508E+03  0.29747082626E+04  0.29008566399E+04 0.  0.
        1    1    3    3  502    0  0.12657302381E+03 -0.37577447299E+03  0.17600578424E+04  0.18041703893E+04  0.50400001928E-02 0. -1.
       -1    1    3    3    0  502 -0.12657302381E+03  0.37577447299E+03 -0.11013317974E+04  0.11705378733E+04  0.50400001928E-02 0.  1.
</event>
<event>
 5   0  0.3770467E-07  0.2906904E+04  0.7818609E-02  0.8270826E-01
       -1   -1    0    0    0  501  0.00000000000E+00  0.00000000000E+00  0.12807553472E+04  0.12807553472E+04  0.50400001928E-02 0.  1.
        1   -1    0    0  501    0  0.00000000000E+00  0.00000000000E+00 -0.16494353501E+04  0.16494353501E+04  0.50400001928E-02 0. -1.
    10030    2    1    2    0    0  0.00000000000E+00  0.00000000000E+00 -0.36868000293E+03  0.29301906973E+04  0.29069042946E+04 0.  0.
        1    1    3    3  502    0  0.12177973373E+04  0.78138233879E+03 -0.45635270219E+02  0.14476433580E+04  0.50400001928E-02 0. -1.
       -1    1    3    3    0  502 -0.12177973373E+04 -0.78138233879E+03 -0.32304473271E+03  0.14825473393E+04  0.50400001928E-02 0.  1.
</event>
<event>
 5   0  0.9994311E-07  0.2898120E+04  0.7818609E-02  0.8273437E-01
        2   -1    0    0  501    0  0.00000000000E+00  0.00000000000E+00  0.12402358483E+04  0.12402358483E+04  0.25500000920E-02 0. -1.
       -2   -1    0    0    0  501  0.00000000000E+00  0.00000000000E+00 -0.16930446847E+04  0.16930446847E+04  0.25500000920E-02 0.  1.
    10030    2    1    2    0    0  0.00000000000E+00  0.00000000000E+00 -0.45280883647E+03  0.29332805330E+04  0.28981198807E+04 0.  0.
        2    1    3    3  502    0  0.61282519520E+03 -0.62130611098E+03  0.94443559763E+03  0.12858983636E+04  0.25500000920E-02 0. -1.
       -2    1    3    3    0  502 -0.61282519520E+03  0.62130611098E+03 -0.13972444341E+04  0.16473821694E+04  0.25500000920E-02 0.  1.
</event>
<event>
 5   0  0.3786210E-07  0.2909188E+04  0.7818609E-02  0.8270149E-01
       -1   -1    0    0    0  501  0.00000000000E+00  0.00000000000E+00  0.11854404079E+04  0.11854404079E+04  0.50400001928E-02 0.  1.
        1   -1    0    0  501    0  0.00000000000E+00  0.00000000000E+00 -0.17848584562E+04  0.17848584562E+04  0.50400001928E-02 0. -1.
    10030    2    1    2    0    0  0.00000000000E+00  0.00000000000E+00 -0.59941804828E+03  0.29702988641E+04  0.29091877467E+04 0.  0.
        5    1    3    3  502    0 -0.92754595114E+03 -0.97788417583E+03 -0.85821184787E+03  0.15978575089E+04  0.46999998093E+01 0. -1.
       -5    1    3    3    0  502  0.92754595114E+03  0.97788417583E+03  0.25879379959E+03  0.13724413552E+04  0.46999998093E+01 0.  1.
</event>
<event>
 5   0  0.1031339E-06  0.2899402E+04  0.7818609E-02  0.8273055E-01
        2   -1    0    0  501    0  0.00000000000E+00  0.00000000000E+00  0.15062573720E+04  0.15062573720E+04  0.25500000920E-02 0. -1.
       -2   -1    0    0    0  501  0.00000000000E+00  0.00000000000E+00 -0.13952679487E+04  0.13952679487E+04  0.25500000920E-02 0.  1.
    10030    2    1    2    0    0  0.00000000000E+00  0.00000000000E+00  0.11098942330E+03  0.29015253207E+04  0.28994017546E+04 0.  0.
        5    1    3    3  502    0 -0.54206655880E+03 -0.11065843630E+04 -0.70876970964E+03  0.14215279448E+04  0.46999998093E+01 0.  1.
       -5    1    3    3    0  502  0.54206655880E+03  0.11065843630E+04  0.81975913295E+03  0.14799973759E+04  0.46999998093E+01 0. -1.
</event>
<event>
 5   0  0.3638028E-07  0.2901628E+04  0.7818609E-02  0.8272393E-01
        1   -1    0    0  501    0  0.00000000000E+00  0.00000000000E+00  0.12252241197E+04  0.12252241197E+04  0.50400001928E-02 0. -1.
       -1   -1    0    0    0  501  0.00000000000E+00  0.00000000000E+00 -0.17179399918E+04  0.17179399918E+04  0.50400001928E-02 0.  1.
    10030    2    1    2    0    0  0.00000000000E+00  0.00000000000E+00 -0.49271587208E+03  0.29431641115E+04  0.29016281733E+04 0.  0.
        4    1    3    3  502    0  0.58371473322E+03 -0.11143455380E+04  0.48674044926E+03  0.13488538637E+04  0.12699999809E+01 0. -1.
       -4    1    3    3    0  502 -0.58371473322E+03  0.11143455380E+04 -0.97945632134E+03  0.15943102478E+04  0.12699999809E+01 0.  1.
</event>
<event>
 5   0  0.1006893E-06  0.2901475E+04  0.7818609E-02  0.8272439E-01
       -2   -1    0    0    0  501  0.00000000000E+00  0.00000000000E+00  0.20448854516E+04  0.20448854516E+04  0.25500000920E-02 0.  1.
        2   -1    0    0  501    0  0.00000000000E+00  0.00000000000E+00 -0.10292211561E+04  0.10292211561E+04  0.25500000920E-02 0. -1.
    10030    2    1    2    0    0  0.00000000000E+00  0.00000000000E+00  0.10156642955E+04  0.30741066076E+04  0.29014750514E+04 0.  0.
        4    1    3    3  502    0  0.92156213652E+03 -0.10982979630E+04  0.27305696396E+03  0.14594851508E+04  0.12699999809E+01 0. -1.
       -4    1    3    3    0  502 -0.92156213652E+03  0.10982979630E+04  0.74260733152E+03  0.16146214568E+04  0.12699999809E+01 0.  1.
</event>
<event>
 5   0  0.3770467E-07  0.2904165E+04  0.7818609E-02  0.8271639E-01
       -1   -1    0    0    0  501  0.00000000000E+00  0.00000000000E+00  0.11357642474E+04  0.11357642474E+04  0.50400001928E-02 0.  1.
        1   -1    0    0  501    0  0.00000000000E+00  0.00000000000E+00 -0.18564972703E+04  0.18564972703E+04  0.50400001928E-02 0. -1.
    10030    2    1    2    0    0  0.00000000000E+00  0.00000000000E+00 -0.72073302287E+03  0.29922615177E+04  0.29041647509E+04 0.  0.
        1    1    3    3  502    0 -0.77355808716E+03  0.10380890093E+04 -0.10379808062E+04  0.16593447681E+04  0.50400001928E-02 0. -1.
       -1    1    3    3    0  502  0.77355808716E+03 -0.10380890093E+04  0.31724778331E+03  0.13329167496E+04  0.50400001928E-02 0.  1.
</event>
<event>
 5   0  0.1063979E-06  0.2895312E+04  0.7818609E-02  0.8274274E-01
        2   -1    0    0  501    0  0.00000000000E+00  0.00000000000E+00  0.11149905977E+04  0.11149905977E+04  0.25500000920E-02 0. -1.
       -2   -1    0    0    0  501  0.00000000000E+00  0.00000000000E+00 -0.18795745274E+04  0.18795745274E+04  0.25500000920E-02 0.  1.
    10030    2    1    2    0    0  0.00000000000E+00  0.00000000000E+00 -0.76458392964E+03  0.29945651251E+04  0.28953120217E+04 0.  0.
        1    1    3    3  502    0  0.46430792122E+03 -0.53608069745E+03 -0.16875949119E+04  0.18305575507E+04  0.50400001928E-02 0.  1.
       -1    1    3    3    0  502 -0.46430792122E+03  0.53608069745E+03  0.92301098224E+03  0.11640075744E+04  0.50400001928E-02 0. -1.
</event>
<event>
 5   0  0.3638028E-07  0.2897316E+04  0.7818609E-02  0.8273676E-01
       -1   -1    0    0    0  501  0.00000000000E+00  0.00000000000E+00  0.13102668493E+04  0.13102668493E+04  0.50400001928E-02 0.  1.
        1   -1    0    0  501    0  0.00000000000E+00  0.00000000000E+00 -0.16016664571E+04  0.16016664571E+04  0.50400001928E-02 0. -1.
    10030    2    1    2    0    0  0.00000000000E+00  0.00000000000E+00 -0.29139960781E+03  0.29119333064E+04  0.28973163185E+04 0.  0.
        4    1    3    3  502    0 -0.43079180986E+03 -0.12996109876E+04  0.33001523932E+03  0.14083614499E+04  0.12699999809E+01 0.  1.
       -4    1    3    3    0  502  0.43079180986E+03  0.12996109876E+04 -0.62141484712E+03  0.15035718565E+04  0.12699999809E+01 0. -1.
</event>
<event>
 5   0  0.9950999E-07  0.2902490E+04  0.7818609E-02  0.8272137E-01
        2   -1    0    0  501    0  0.00000000000E+00  0.00000000000E+00  0.20160240887E+04  0.20160240887E+04  0.25500000920E-02 0.  1.
       -2   -1    0    0    0  501  0.00000000000E+00  0.00000000000E+00 -0.10446860214E+04  0.10446860214E+04  0.25500000920E-02 0. -1.
    10030    2    1    2    0    0  0.00000000000E+00  0.00000000000E+00  0.97133806734E+03  0.30607101102E+04  0.29024900926E+04 0.  0.
        3    1    3    3  502    0  0.13638388321E+04 -0.44549007967E+03  0.71572282489E+03  0.16033642578E+04  0.10100000352E+00 0.  1.
       -3    1    3    3    0  502 -0.13638388321E+04  0.44549007967E+03  0.25561524245E+03  0.14573458523E+04  0.10100000352E+00 0. -1.
</event>
<event>
 5   0  0.3769563E-07  0.2900257E+04  0.7818609E-02  0.8272801E-01
       -1   -1    0    0    0  501  0.00000000000E+00  0.00000000000E+00  0.14852202552E+04  0.14852202552E+04  0.50400001928E-02 0. -1.
        1   -1    0    0  501    0  0.00000000000E+00  0.00000000000E+00 -0.14158657079E+04  0.14158657079E+04  0.50400001928E-02 0.  1.
    10030    2    1    2    0    0  0.00000000000E+00  0.00000000000E+00  0.69354547334E+02  0.29010859632E+04  0.29002568356E+04 0.  0.
        3    1    3    3  502    0 -0.51908070996E+03  0.10505939358E+04 -0.81978002720E+03  0.14301159759E+04  0.10100000352E+00 0.  1.
       -3    1    3    3    0  502  0.51908070996E+03 -0.10505939358E+04  0.88913457454E+03  0.14709699872E+04  0.10100000352E+00 0. -1.
</event>
<event>
 5   0  0.1063979E-06  0.2904114E+04  0.7818609E-02  0.8271655E-01
       -2   -1    0    0    0  501  0.00000000000E+00  0.00000000000E+00  0.90756864447E+03  0.90756864448E+03  0.25500000920E-02 0. -1.
        2   -1    0    0  501    0  0.00000000000E+00  0.00000000000E+00 -0.23232061600E+04  0.23232061600E+04  0.25500000920E-02 0.  1.
    10030    2    1    2    0    0  0.00000000000E+00  0.00000000000E+00 -0.14156375155E+04  0.32307748044E+04  0.29041136792E+04 0.  0.
        1    1    3    3  502    0 -0.14072822192E+04 -0.74571920592E+02 -0.31850585130E+03  0.14448010912E+04  0.50400001928E-02 0. -1.
       -1    1    3    3    0  502  0.14072822192E+04  0.74571920592E+02 -0.10971316642E+04  0.17859737132E+04  0.50400001928E-02 0.  1.
</event>
<event>
 5   0  0.3638028E-07  0.2899965E+04  0.7818609E-02  0.8272888E-01
       -1   -1    0    0    0  501  0.00000000000E+00  0.00000000000E+00  0.13440744636E+04  0.13440744636E+04  0.50400001928E-02 0. -1.
        1   -1    0    0  501    0  0.00000000000E+00  0.00000000000E+00 -0.15642359115E+04  0.15642359115E+04  0.50400001928E-02 0.  1.
    10030    2    1    2    0    0  0.00000000000E+00  0.00000000000E+00 -0.22016144793E+03  0.29083103752E+04  0.28999652024E+04 0.  0.
        4    1    3    3  502    0 -0.12825453234E+04 -0.63491056022E+03 -0.34402009139E+03  0.14718645869E+04  0.12699999809E+01 0. -1.
       -4    1    3    3    0  502  0.12825453234E+04  0.63491056022E+03  0.12385864346E+03  0.14364457882E+04  0.12699999809E+01 0.  1.
</event>
<event>
 5   0  0.9950999E-07  0.2898385E+04  0.7818609E-02  0.8273358E-01
        2   -1    0    0  501    0  0.00000000000E+00  0.00000000000E+00  0.12814169668E+04  0.12814169668E+04  0.25500000920E-02 0.  1.
       -2   -1    0    0    0  501  0.00000000000E+00  0.00000000000E+00 -0.16389345051E+04  0.16389345051E+04  0.25500000920E-02 0. -1.
    10030    2    1    2    0    0  0.00000000000E+00  0.00000000000E+00 -0.35751753835E+03  0.29203514719E+04  0.28983847103E+04 0.  0.
        3    1    3    3  502    0 -0.92852246712E+03  0.90675788947E+02  0.93860151338E+03  0.13233853867E+04  0.10100000352E+00 0.  1.
       -3    1    3    3    0  502  0.92852246712E+03 -0.90675788947E+02 -0.12961190517E+04  0.15969660851E+04  0.10100000352E+00 0. -1.
</event>
<event>
 5   0  0.3638028E-07  0.2895046E+04  0.7818609E-02  0.8274353E-01
       -1   -1    0    0    0  501  0.00000000000E+00  0.00000000000E+00  0.20576771837E+04  0.20576771837E+04  0.50400001928E-02 0.  1.
        1   -1    0    0  501    0  0.00000000000E+00  0.00000000000E+00 -0.10182949706E+04  0.10182949706E+04  0.50400001928E-02 0. -1.
    10030    2    1    2    0    0  0.00000000000E+00  0.00000000000E+00  0.10393822131E+04  0.30759721542E+04  0.28950456488E+04 0.  0.
        4    1    3    3  502    0 -0.67625208442E+03  0.21111533831E+03 -0.82151043342E+03  0.10847891836E+04  0.12699999809E+01 0. -1.
       -4    1    3    3    0  502  0.67625208442E+03 -0.21111533831E+03  0.18608926465E+04  0.19911829706E+04  0.12699999809E+01 0.  1.
</event>
<event>
 5   0  0.3378750E-07  0.2894962E+04  0.7818609E-02  0.8274378E-01
       -3   -1    0    0    0  501  0.00000000000E+00  0.00000000000E+00  0.16216814109E+04  0.16216814140E+04  0.10100000352E+00 0. -1.
        3   -1    0    0  501    0  0.00000000000E+00  0.00000000000E+00 -0.12919933306E+04  0.12919933345E+04  0.10100000352E+00 0.  1.
    10030    2    1    2    0    0  0.00000000000E+00  0.00000000000E+00  0.32968808028E+03  0.29136747485E+04  0.28949622295E+04 0.  0.
        4    1    3    3  502    0  0.27571758726E+03  0.13380684812E+04 -0.31652827383E+03  0.14023691416E+04  0.12699999809E+01 0.  1.
       -4    1    3    3    0  502 -0.27571758726E+03 -0.13380684812E+04  0.64621635411E+03  0.15113056069E+04  0.12699999809E+01 0. -1.
</event>
<event>
 5   0  0.3638028E-07  0.2899623E+04  0.7818609E-02  0.8272990E-01
       -1   -1    0    0    0  501  0.00000000000E+00  0.00000000000E+00  0.13126170614E+04  0.13126170615E+04  0.50400001928E-02 0.  1.
        1   -1    0    0  501    0  0.00000000000E+00  0.00000000000E+00 -0.16013454260E+04  0.16013454260E+04  0.50400001928E-02 0. -1.
    10030    2    1    2    0    0  0.00000000000E+00  0.00000000000E+00 -0.28872836459E+03  0.29139624875E+04  0.28996229600E+04 0.  0.
        4    1    3    3  502    0 -0.28231080345E+03  0.12310076145E+04  0.57110647098E+03  0.13860892290E+04  0.12699999809E+01 0.  1.
       -4    1    3    3    0  502  0.28231080345E+03 -0.12310076145E+04 -0.85983483557E+03  0.15278732585E+04  0.12699999809E+01 0. -1.
</event>
<event>
 5   0  0.3786210E-07  0.2933653E+04  0.7818609E-02  0.8262935E-01
       -1   -1    0    0    0  501  0.00000000000E+00  0.00000000000E+00  0.10426145054E+04  0.10426145054E+04  0.50400001928E-02 0.  1.
        1   -1    0    0  501    0  0.00000000000E+00  0.00000000000E+00 -0.20636391306E+04  0.20636391306E+04  0.50400001928E-02 0. -1.
    10030    2    1    2    0    0  0.00000000000E+00  0.00000000000E+00 -0.10210246252E+04  0.31062536359E+04  0.29336530752E+04 0.  0.
        5    1    3    3  502    0 -0.45463029491E+03 -0.52118591730E+03 -0.18801527516E+04  0.20033272136E+04  0.46999998093E+01 0. -1.
       -5    1    3    3    0  502  0.45463029491E+03  0.52118591730E+03  0.85912812642E+03  0.11029264223E+04  0.46999998093E+01 0.  1.
</event>
<event>
 5   0  0.9994311E-07  0.2908460E+04  0.7818609E-02  0.8270365E-01
        2   -1    0    0  501    0  0.00000000000E+00  0.00000000000E+00  0.14909411065E+04  0.14909411065E+04  0.25500000920E-02 0.  1.
       -2   -1    0    0    0  501  0.00000000000E+00  0.00000000000E+00 -0.14184223631E+04  0.14184223631E+04  0.25500000920E-02 0. -1.
    10030    2    1    2    0    0  0.00000000000E+00  0.00000000000E+00  0.72518743335E+02  0.29093634696E+04  0.29084595287E+04 0.  0.
        2    1    3    3  502    0  0.35707736642E+02  0.29819791300E+03  0.14595814846E+04  0.14901594371E+04  0.25500000920E-02 0.  1.
       -2    1    3    3    0  502 -0.35707736642E+02 -0.29819791300E+03 -0.13870627413E+04  0.14192040325E+04  0.25500000920E-02 0. -1.
</event>
<event>
 5   0  0.1006893E-06  0.2904816E+04  0.7818609E-02  0.8271446E-01
        2   -1    0    0  501    0  0.00000000000E+00  0.00000000000E+00  0.95299504414E+03  0.95299504414E+03  0.25500000920E-02 0.  1.
       -2   -1    0    0    0  501  0.00000000000E+00  0.00000000000E+00 -0.22135359328E+04  0.22135359328E+04  0.25500000920E-02 0. -1.
    10030    2    1    2    0    0  0.00000000000E+00  0.00000000000E+00 -0.12605408887E+04  0.31665309770E+04  0.29048158455E+04 0.  0.
        4    1    3    3  502    0 -0.10242822121E+04 -0.36915270336E+03 -0.16781589555E+04  0.20004116730E+04  0.12699999809E+01 0. -1.
       -4    1    3    3    0  502  0.10242822121E+04  0.36915270336E+03  0.41761806682E+03  0.11661193040E+04  0.12699999809E+01 0.  1.
</event>
<event>
 5   0  0.1031339E-06  0.2910443E+04  0.7818609E-02  0.8269777E-01
       -2   -1    0    0    0  501  0.00000000000E+00  0.00000000000E+00  0.89634983157E+03  0.89634983157E+03  0.25500000920E-02 0. -1.
        2   -1    0    0  501    0  0.00000000000E+00  0.00000000000E+00 -0.23625477778E+04  0.23625477778E+04  0.25500000920E-02 0.  1.
    10030    2    1    2    0    0  0.00000000000E+00  0.00000000000E+00 -0.14661979462E+04  0.32588976094E+04  0.29104427860E+04 0.  0.
        5    1    3    3  502    0 -0.69634078806E+03  0.66672482899E+02 -0.21619284277E+04  0.22722879064E+04  0.46999998093E+01 0.  1.
       -5    1    3    3    0  502  0.69634078806E+03 -0.66672482899E+02  0.69573048149E+03  0.98660970295E+03  0.46999998093E+01 0. -1.
</event>
<event>
 5   0  0.1031339E-06  0.2900510E+04  0.7818609E-02  0.8272726E-01
        2   -1    0    0  501    0  0.00000000000E+00  0.00000000000E+00  0.20603820106E+04  0.20603820106E+04  0.25500000920E-02 0. -1.
       -2   -1    0    0    0  501  0.00000000000E+00  0.00000000000E+00 -0.10208005158E+04  0.10208005158E+04  0.25500000920E-02 0.  1.
    10030    2    1    2    0    0  0.00000000000E+00  0.00000000000E+00  0.10395814948E+04  0.30811825265E+04  0.29005096237E+04 0.  0.
        5    1    3    3  502    0 -0.13167050014E+04 -0.18603862121E+03 -0.94957250572E+02  0.13331771821E+04  0.46999998093E+01 0. -1.
       -5    1    3    3    0  502  0.13167050014E+04  0.18603862121E+03  0.11345387453E+04  0.17480053444E+04  0.46999998093E+01 0.  1.
</event>
<event>
 5   0  0.3638028E-07  0.2901990E+04  0.7818609E-02  0.8272286E-01
        1   -1    0    0  501    0  0.00000000000E+00  0.00000000000E+00  0.18820244576E+04  0.18820244576E+04  0.50400001928E-02 0. -1.
       -1   -1    0    0    0  501  0.00000000000E+00  0.00000000000E+00 -0.11186819581E+04  0.11186819581E+04  0.50400001928E-02 0.  1.
    10030    2    1    2    0    0  0.00000000000E+00  0.00000000000E+00  0.76334249955E+03  0.30007064157E+04  0.29019902173E+04 0.  0.
        4    1    3    3  502    0  0.77387369981E+03  0.10958461197E+04  0.95331135553E+03  0.16457713617E+04  0.12699999809E+01 0. -1.
       -4    1    3    3    0  502 -0.77387369981E+03 -0.10958461197E+04 -0.18996885598E+03  0.13549350540E+04  0.12699999809E+01 0.  1.
</event>
<event>
 5   0  0.3770467E-07  0.2900458E+04  0.7818609E-02  0.8272741E-01
       -1   -1    0    0    0  501  0.00000000000E+00  0.00000000000E+00  0.11976315304E+04  0.11976315304E+04  0.50400001928E-02 0.  1.
        1   -1    0    0  501    0  0.00000000000E+00  0.00000000000E+00 -0.17561031095E+04  0.17561031095E+04  0.50400001928E-02 0. -1.
    10030    2    1    2    0    0  0.00000000000E+00  0.00000000000E+00 -0.55847157914E+03  0.29537346399E+04  0.29004582084E+04 0.  0.
        1    1    3    3  502    0 -0.76026626626E+02  0.10521588114E+04  0.73420503020E+03  0.12852529863E+04  0.50400001928E-02 0.  1.
       -1    1    3    3    0  502  0.76026626626E+02 -0.10521588114E+04 -0.12926766093E+04  0.16684816537E+04  0.50400001928E-02 0. -1.
</event>
<event>
 5   0  0.9950999E-07  0.2897312E+04  0.7818609E-02  0.8273678E-01
       -2   -1    0    0    0  501  0.00000000000E+00  0.00000000000E+00  0.14059225816E+04  0.14059225816E+04  0.25500000920E-02 0. -1.
        2   -1    0    0  501    0  0.00000000000E+00  0.00000000000E+00 -0.14926886129E+04  0.14926886129E+04  0.25500000920E-02 0.  1.
    10030    2    1    2    0    0  0.00000000000E+00  0.00000000000E+00 -0.86766031242E+02  0.28986111945E+04  0.28973122912E+04 0.  0.
        3    1    3    3  502    0  0.13777006677E+04  0.33828037404E+03 -0.33696282433E+03  0.14580935143E+04  0.10100000352E+00 0.  1.
       -3    1    3    3    0  502 -0.13777006677E+04 -0.33828037404E+03  0.25019679309E+03  0.14405176802E+04  0.10100000352E+00 0. -1.
</event>
<event>
 5   0  0.1063979E-06  0.2906048E+04  0.7818609E-02  0.8271080E-01
       -2   -1    0    0    0  501  0.00000000000E+00  0.00000000000E+00  0.62269706354E+03  0.62269706354E+03  0.25500000920E-02 0.  1.
        2   -1    0    0  501    0  0.00000000000E+00  0.00000000000E+00 -0.33905394358E+04  0.33905394358E+04  0.25500000920E-02 0. -1.
    10030    2    1    2    0    0  0.00000000000E+00  0.00000000000E+00 -0.27678423723E+04  0.40132364993E+04  0.29060481417E+04 0.  0.
        1    1    3    3  502    0 -0.58561105129E+03 -0.11567427326E+04 -0.47804258559E+03  0.13818533809E+04  0.50400001928E-02 0.  1.
       -1    1    3    3    0  502  0.58561105129E+03  0.11567427326E+04 -0.22897997867E+04  0.26313831184E+04  0.50400001928E-02 0. -1.
</event>
<event>
 5   0  0.1031339E-06  0.2901774E+04  0.7818609E-02  0.8272350E-01
       -2   -1    0    0    0  501  0.00000000000E+00  0.00000000000E+00  0.19970418658E+04  0.19970418658E+04  0.25500000920E-02 0.  1.
        2   -1    0    0  501    0  0.00000000000E+00  0.00000000000E+00 -0.10540958646E+04  0.10540958646E+04  0.25500000920E-02 0. -1.
    10030    2    1    2    0    0  0.00000000000E+00  0.00000000000E+00  0.94294600121E+03  0.30511377303E+04  0.29017743345E+04 0.  0.
        5    1    3    3  502    0  0.12695358856E+04  0.60513162292E+03  0.84640218592E+03  0.16414397328E+04  0.46999998093E+01 0.  1.
       -5    1    3    3    0  502 -0.12695358856E+04 -0.60513162292E+03  0.96543815289E+02  0.14096979975E+04  0.46999998093E+01 0. -1.
</event>
<event>
 5   0  0.3769563E-07  0.2901780E+04  0.7818609E-02  0.8272348E-01
        1   -1    0    0  501    0  0.00000000000E+00  0.00000000000E+00  0.19369804572E+04  0.19369804572E+04  0.50400001928E-02 0.  1.
       -1   -1    0    0    0  501  0.00000000000E+00  0.00000000000E+00 -0.10867852325E+04  0.10867852325E+04  0.50400001928E-02 0. -1.
    10030    2    1    2    0    0  0.00000000000E+00  0.00000000000E+00  0.85019522467E+03  0.30237656897E+04  0.29017799755E+04 0.  0.
        3    1    3    3  502    0 -0.13565961225E+03 -0.33764380455E+03  0.18886605807E+04  0.19233943092E+04  0.10100000352E+00 0.  1.
       -3    1    3    3    0  502  0.13565961225E+03  0.33764380455E+03 -0.10384653561E+04  0.11003713805E+04  0.10100000352E+00 0. -1.
</event>
<event>
 5   0  0.9994311E-07  0.2891208E+04  0.7818609E-02  0.8275498E-01
        2   -1    0    0  501    0  0.00000000000E+00  0.00000000000E+00  0.21496515562E+04  0.21496515562E+04  0.25500000920E-02 0. -1.
       -2   -1    0    0    0  501  0.00000000000E+00  0.00000000000E+00 -0.97214407840E+03  0.97214407840E+03  0.25500000920E-02 0.  1.
    10030    2    1    2    0    0  0.00000000000E+00  0.00000000000E+00  0.11775074778E+04  0.31217956346E+04  0.28912080734E+04 0.  0.
        2    1    3    3  502    0  0.45263719395E+03 -0.11142316249E+03  0.20662731349E+04  0.21182021194E+04  0.25500000920E-02 0. -1.
       -2    1    3    3    0  502 -0.45263719395E+03  0.11142316249E+03 -0.88876565712E+03  0.10035935152E+04  0.25500000920E-02 0.  1.
</event>
<event>
 5   0  0.3770467E-07  0.2899800E+04  0.7818609E-02  0.8272937E-01
       -1   -1    0    0    0  501  0.00000000000E+00  0.00000000000E+00  0.13995303467E+04  0.13995303467E+04  0.50400001928E-02 0.  1.
        1   -1    0    0  501    0  0.00000000000E+00  0.00000000000E+00 -0.15020826246E+04  0.15020826246E+04  0.50400001928E-02 0. -1.
    10030    2    1    2    0    0  0.00000000000E+00  0.00000000000E+00 -0.10255227785E+03  0.29016129713E+04  0.28998001423E+04 0.  0.
        1    1    3    3  502    0  0.11157059250E+04 -0.88247476202E+03 -0.33189539331E+03  0.14607244671E+04  0.50400001928E-02 0. -1.
       -1    1    3    3    0  502 -0.11157059250E+04  0.88247476202E+03  0.22934311546E+03  0.14408885042E+04  0.50400001928E-02 0.  1.
</event>
<event>
 5   0  0.9950999E-07  0.2895787E+04  0.7818609E-02  0.8274132E-01
       -2   -1    0    0    0  501  0.00000000000E+00  0.00000000000E+00  0.17395813295E+04  0.17395813295E+04  0.25500000920E-02 0.  1.
        2   -1    0    0  501    0  0.00000000000E+00  0.00000000000E+00 -0.12051146538E+04  0.12051146538E+04  0.25500000920E-02 0. -1.
    10030    2    1    2    0    0  0.00000000000E+00  0.00000000000E+00  0.53446667574E+03  0.29446959833E+04  0.28957865609E+04 0.  0.
        3    1    3    3  502    0 -0.16665674176E+03  0.60330257548E+03 -0.10604395233E+04  0.12313734039E+04  0.10100000352E+00 0. -1.
       -3    1    3    3    0  502  0.16665674176E+03 -0.60330257548E+03  0.15949061990E+04  0.17133225794E+04  0.10100000352E+00 0.  1.
</event>
<event>
 5   0  0.9994311E-07  0.2904248E+04  0.7818609E-02  0.8271615E-01
       -2   -1    0    0    0  501  0.00000000000E+00  0.00000000000E+00  0.13428850508E+04  0.13428850508E+04  0.25500000920E-02 0. -1.
        2   -1    0    0  501    0  0.00000000000E+00  0.00000000000E+00 -0.15702493764E+04  0.15702493764E+04  0.25500000920E-02 0.  1.
    10030    2    1    2    0    0  0.00000000000E+00  0.00000000000E+00 -0.22736432560E+03  0.29131344271E+04  0.29042482081E+04 0.  0.
        2    1    3    3  502    0  0.51350042509E+03  0.13052102317E+04  0.26351094798E+03  0.14271280444E+04  0.25500000920E-02 0. -1.
       -2    1    3    3    0  502 -0.51350042509E+03 -0.13052102317E+04 -0.49087527358E+03  0.14860063828E+04  0.25500000920E-02 0.  1.
</event>
<event>
 5   0  0.3770467E-07  0.2899127E+04  0.7818609E-02  0.8273137E-01
        1   -1    0    0  501    0  0.00000000000E+00  0.00000000000E+00  0.18557483311E+04  0.18557483311E+04  0.50400001928E-02 0.  1.
       -1   -1    0    0    0  501  0.00000000000E+00  0.00000000000E+00 -0.11322843885E+04  0.11322843885E+04  0.50400001928E-02 0. -1.
    10030    2    1    2    0    0  0.00000000000E+00  0.00000000000E+00  0.72346394265E+03  0.29880327196E+04  0.28991273613E+04 0.  0.
        1    1    3    3  502    0  0.22216454070E+03  0.47852510260E+03 -0.10298169047E+04  0.11570938657E+04  0.50400001928E-02 0. -1.
       -1    1    3    3    0  502 -0.22216454070E+03 -0.47852510260E+03  0.17532808473E+04  0.18309388539E+04  0.50400001928E-02 0.  1.
</event>
<event>
 5   0  0.1031339E-06  0.2903701E+04  0.7818609E-02  0.8271777E-01
       -2   -1    0    0    0  501  0.00000000000E+00  0.00000000000E+00  0.12043219320E+04  0.12043219320E+04  0.25500000920E-02 0.  1.
        2   -1    0    0  501    0  0.00000000000E+00  0.00000000000E+00 -0.17502543546E+04  0.17502543546E+04  0.25500000920E-02 0. -1.
    10030    2    1    2    0    0  0.00000000000E+00  0.00000000000E+00 -0.54593242261E+03  0.29545762865E+04  0.29037008838E+04 0.  0.
        5    1    3    3  502    0 -0.42389482169E+03 -0.34457610009E+03 -0.16416842696E+04  0.17301932955E+04  0.46999998093E+01 0. -1.
       -5    1    3    3    0  502  0.42389482169E+03  0.34457610009E+03  0.10957518470E+04  0.12243829911E+04  0.46999998093E+01 0.  1.
</event>
<event>
 5   0  0.9994311E-07  0.2903218E+04  0.7818609E-02  0.8271921E-01
        2   -1    0    0  501    0  0.00000000000E+00  0.00000000000E+00  0.21908788767E+04  0.21908788767E+04  0.25500000920E-02 0.  1.
       -2   -1    0    0    0  501  0.00000000000E+00  0.00000000000E+00 -0.96179182261E+03  0.96179182261E+03  0.25500000920E-02 0. -1.
    10030    2    1    2    0    0  0.00000000000E+00  0.00000000000E+00  0.12290870541E+04  0.31526706993E+04  0.29032184816E+04 0.  0.
        2    1    3    3  502    0  0.33742317150E+03  0.55657492839E+03  0.20235420092E+04  0.21256416232E+04  0.25500000920E-02 0.  1.
       -2    1    3    3    0  502 -0.33742317150E+03 -0.55657492839E+03 -0.79445495504E+03  0.10270290761E+04  0.25500000920E-02 0. -1.
</event>
<event>
 5   0  0.1031339E-06  0.2896399E+04  0.7818609E-02  0.8273950E-01
       -2   -1    0    0    0  501  0.00000000000E+00  0.00000000000E+00  0.18423732736E+04  0.18423732736E+04  0.25500000920E-02 0.  1.
        2   -1    0    0  501    0  0.00000000000E+00  0.00000000000E+00 -0.11383591590E+04  0.11383591590E+04  0.25500000920E-02 0. -1.
    10030    2    1    2    0    0  0.00000000000E+00  0.00000000000E+00  0.70401411453E+03  0.29807324326E+04  0.28963994823E+04 0.  0.
        5    1    3    3  502    0 -0.78360988776E+03  0.80445553339E+03 -0.58898321732E+03  0.12681153266E+04  0.46999998093E+01 0. -1.
       -5    1    3    3    0  502  0.78360988776E+03 -0.80445553339E+03  0.12929973318E+04  0.17126171059E+04  0.46999998093E+01 0.  1.
</event>
<event>
 5   0  0.3770467E-07  0.2901505E+04  0.7818609E-02  0.8272430E-01
       -1   -1    0    0    0  501  0.00000000000E+00  0.00000000000E+00  0.13472485423E+04  0.13472485423E+04  0.50400001928E-02 0.  1.
        1   -1    0    0  501    0  0.00000000000E+00  0.00000000000E+00 -0.15622081401E+04  0.15622081401E+04  0.50400001928E-02 0. -1.
    10030    2    1    2    0    0  0.00000000000E+00  0.00000000000E+00 -0.21495959776E+03  0.29094566824E+04  0.29015048782E+04 0.  0.
        1    1    3    3  502    0 -0.77705560606E+03 -0.80589186154E+03 -0.10327249640E+04  0.15230882964E+04  0.50400001928E-02 0. -1.
       -1    1    3    3    0  502  0.77705560606E+03  0.80589186154E+03  0.81776536626E+03  0.13863683860E+04  0.50400001928E-02 0.  1.
</event>
<event>
 5   0  0.1006893E-06  0.2900754E+04  0.7818609E-02  0.8272653E-01
       -2   -1    0    0    0  501  0.00000000000E+00  0.00000000000E+00  0.33852114400E+04  0.33852114400E+04  0.25500000920E-02 0. -1.
        2   -1    0    0  501    0  0.00000000000E+00  0.00000000000E+00 -0.62140690666E+03  0.62140690667E+03  0.25500000920E-02 0.  1.
    10030    2    1    2    0    0  0.00000000000E+00  0.00000000000E+00  0.27638045334E+04  0.40066183467E+04  0.29007542256E+04 0.  0.
        4    1    3    3  502    0 -0.12320458817E+04 -0.72951706184E+03  0.10625416563E+04  0.17830110999E+04  0.12699999809E+01 0. -1.
       -4    1    3    3    0  502  0.12320458817E+04  0.72951706184E+03  0.17012628771E+04  0.22236072468E+04  0.12699999809E+01 0.  1.
</event>
<event>
 5   0  0.9950999E-07  0.2898304E+04  0.7818609E-02  0.8273382E-01
       -2   -1    0    0    0  501  0.00000000000E+00  0.00000000000E+00  0.11348171084E+04  0.11348171085E+04  0.25500000920E-02 0.  1.
        2   -1    0    0  501    0  0.00000000000E+00  0.00000000000E+00 -0.18505546626E+04  0.18505546626E+04  0.25500000920E-02 0. -1.
    10030    2    1    2    0    0  0.00000000000E+00  0.00000000000E+00 -0.71573755412E+03  0.29853717710E+04  0.28983037047E+04 0.  0.
        3    1    3    3  502    0 -0.77976458927E+02 -0.14440854817E+04 -0.26246965661E+03  0.14698141166E+04  0.10100000352E+00 0. -1.
       -3    1    3    3    0  502  0.77976458927E+02  0.14440854817E+04 -0.45326789751E+03  0.15155576544E+04  0.10100000352E+00 0.  1.
</event>
<event>
 5   0  0.1031339E-06  0.2899753E+04  0.7818609E-02  0.8272951E-01
        2   -1    0    0  501    0  0.00000000000E+00  0.00000000000E+00  0.18420959515E+04  0.18420959515E+04  0.25500000920E-02 0. -1.
       -2   -1    0    0    0  501  0.00000000000E+00  0.00000000000E+00 -0.11411682563E+04  0.11411682563E+04  0.25500000920E-02 0.  1.
    10030    2    1    2    0    0  0.00000000000E+00  0.00000000000E+00  0.70092769523E+03  0.29832642078E+04  0.28997526963E+04 0.  0.
        5    1    3    3  502    0  0.40437965199E+03  0.32760413121E+03 -0.10417539462E+04  0.11645259740E+04  0.46999998093E+01 0.  1.
       -5    1    3    3    0  502 -0.40437965199E+03 -0.32760413121E+03  0.17426816414E+04  0.18187382338E+04  0.46999998093E+01 0. -1.
</event>
<event>
 5   0  0.9950999E-07  0.2892506E+04  0.7818609E-02  0.8275111E-01
        2   -1    0    0  501    0  0.00000000000E+00  0.00000000000E+00  0.25999000457E+04  0.25999000457E+04  0.25500000920E-02 0. -1.
       -2   -1    0    0    0  501  0.00000000000E+00  0.00000000000E+00 -0.80451096749E+03  0.80451096749E+03  0.25500000920E-02 0.  1.
    10030    2    1    2    0    0  0.00000000000E+00  0.00000000000E+00  0.17953890782E+04  0.34044110132E+04  0.28925062497E+04 0.  0.
        3    1    3    3  502    0 -0.64499401463E+03 -0.11170641319E+04  0.16675112395E+04  0.21081848348E+04  0.10100000352E+00 0. -1.
       -3    1    3    3    0  502  0.64499401463E+03  0.11170641319E+04  0.12787783871E+03  0.12962261784E+04  0.10100000352E+00 0.  1.
</event>
<event>
 5   0  0.3769563E-07  0.2903226E+04  0.7818609E-02  0.8271918E-01
        1   -1    0    0  501    0  0.00000000000E+00  0.00000000000E+00  0.21717844665E+04  0.21717844665E+04  0.50400001928E-02 0.  1.
       -1   -1    0    0    0  501  0.00000000000E+00  0.00000000000E+00 -0.97025286647E+03  0.97025286648E+03  0.50400001928E-02 0. -1.
    10030    2    1    2    0    0  0.00000000000E+00  0.00000000000E+00  0.12015316000E+04  0.31420373330E+04  0.29032258638E+04 0.  0.
        3    1    3    3  502    0  0.36739231315E+03 -0.12084975442E+04  0.13749669020E+04  0.18670772394E+04  0.10100000352E+00 0.  1.
       -3    1    3    3    0  502 -0.36739231315E+03  0.12084975442E+04 -0.17343530192E+03  0.12749600936E+04  0.10100000352E+00 0. -1.
</event>
<event>
 5   0  0.3769563E-07  0.2898251E+04  0.7818609E-02  0.8273398E-01
       -1   -1    0    0    0  501  0.00000000000E+00  0.00000000000E+00  0.10277567448E+04  0.10277567448E+04  0.50400001928E-02 0.  1.
        1   -1    0    0  501    0  0.00000000000E+00  0.00000000000E+00 -0.20432510371E+04  0.20432510371E+04  0.50400001928E-02 0. -1.
    10030    2    1    2    0    0  0.00000000000E+00  0.00000000000E+00 -0.10154942923E+04  0.30710077820E+04  0.28982512209E+04 0.  0.
        3    1    3    3  502    0  0.22200479796E+03  0.13907267343E+04 -0.86950337366E+03  0.16551263115E+04  0.10100000352E+00 0. -1.
       -3    1    3    3    0  502 -0.22200479796E+03 -0.13907267343E+04 -0.14599091863E+03  0.14158814705E+04  0.10100000352E+00 0.  1.
</event>
<event>
 5   0  0.1006893E-06  0.2901801E+04  0.7818609E-02  0.8272342E-01
        2   -1    0    0  501    0  0.00000000000E+00  0.00000000000E+00  0.15107783904E+04  0.15107783904E+04  0.25500000920E-02 0. -1.
       -2   -1    0    0    0  501  0.00000000000E+00  0.00000000000E+00 -0.13933961979E+04  0.13933961979E+04  0.25500000920E-02 0.  1.
    10030    2    1    2    0    0  0.00000000000E+00  0.00000000000E+00  0.11738219251E+03  0.29041745884E+04  0.29018014165E+04 0.  0.
        4    1    3    3  502    0 -0.57649818211E+02 -0.47549782902E+03  0.14293693223E+04  0.15074879633E+04  0.12699999809E+01 0. -1.
       -4    1    3    3    0  502  0.57649818211E+02  0.47549782902E+03 -0.13119871298E+04  0.13966866251E+04  0.12699999809E+01 0.  1.
</event>
<event>
 5   0  0.3786210E-07  0.2894067E+04  0.7818609E-02  0.8274645E-01
       -1   -1    0    0    0  501  0.00000000000E+00  0.00000000000E+00  0.10935216823E+04  0.10935216823E+04  0.50400001928E-02 0. -1.
        1   -1    0    0  501    0  0.00000000000E+00  0.00000000000E+00 -0.19148273717E+04  0.19148273717E+04  0.50400001928E-02 0.  1.
    10030    2    1    2    0    0  0.00000000000E+00  0.00000000000E+00 -0.82130568942E+03  0.30083490540E+04  0.28940665153E+04 0.  0.
        5    1    3    3  502    0  0.10702108257E+04 -0.53270746757E+03 -0.12581737619E+04  0.17355551742E+04  0.46999998093E+01 0.  1.
       -5    1    3    3    0  502 -0.10702108257E+04  0.53270746757E+03  0.43686807252E+03  0.12727938797E+04  0.46999998093E+01 0. -1.
</event>
<event>
 5   0  0.3769563E-07  0.2898373E+04  0.7818609E-02  0.8273362E-01
        1   -1    0    0  501    0  0.00000000000E+00  0.00000000000E+00  0.17123981085E+04  0.17123981085E+04  0.50400001928E-02 0.  1.
       -1   -1    0    0    0  501  0.00000000000E+00  0.00000000000E+00 -0.12264332848E+04  0.12264332848E+04  0.50400001928E-02 0. -1.
    10030    2    1    2    0    0  0.00000000000E+00  0.00000000000E+00  0.48596482368E+03  0.29388313933E+04  0.28983733625E+04 0.  0.
        3    1    3    3  502    0  0.13194690788E+04 -0.41411817978E+03  0.68221449816E+03  0.15420470643E+04  0.10100000352E+00 0.  1.
       -3    1    3    3    0  502 -0.13194690788E+04  0.41411817978E+03 -0.19624967448E+03  0.13967843290E+04  0.10100000352E+00 0. -1.
</event>
<event>
 5   0  0.3378750E-07  0.2899467E+04  0.7818609E-02  0.8273036E-01
       -3   -1    0    0    0  501  0.00000000000E+00  0.00000000000E+00  0.12445844571E+04  0.12445844612E+04  0.10100000352E+00 0. -1.
        3   -1    0    0  501    0  0.00000000000E+00  0.00000000000E+00 -0.16886977420E+04  0.16886977450E+04  0.10100000352E+00 0.  1.
    10030    2    1    2    0    0  0.00000000000E+00  0.00000000000E+00 -0.44411328483E+03  0.29332822062E+04  0.28994668288E+04 0.  0.
        1    1    3    3  502    0  0.13141821592E+04  0.35185583776E+03 -0.72874682735E+03  0.15433564774E+04  0.50400001928E-02 0.  1.
       -1    1    3    3    0  502 -0.13141821592E+04 -0.35185583776E+03  0.28463354252E+03  0.13899257288E+04  0.50400001928E-02 0. -1.
</event>
<event>
 5   0  0.3769563E-07  0.2901629E+04  0.7818609E-02  0.8272393E-01
        1   -1    0    0  501    0  0.00000000000E+00  0.00000000000E+00  0.17505526319E+04  0.17505526320E+04  0.50400001928E-02 0. -1.
       -1   -1    0    0    0  501  0.00000000000E+00  0.00000000000E+00 -0.12023988665E+04  0.12023988665E+04  0.50400001928E-02 0.  1.
    10030    2    1    2    0    0  0.00000000000E+00  0.00000000000E+00  0.54815376540E+03  0.29529514985E+04  0.29016288532E+04 0.  0.
        3    1    3    3  502    0 -0.81761275143E+03  0.18385116401E+03  0.14793260017E+04  0.17002050733E+04  0.10100000352E+00 0. -1.
       -3    1    3    3    0  502  0.81761275143E+03 -0.18385116401E+03 -0.93117223634E+03  0.12527464252E+04  0.10100000352E+00 0.  1.
</event>
<event>
 5   0  0.1063979E-06  0.2894147E+04  0.7818609E-02  0.8274621E-01
       -2   -1    0    0    0  501  0.00000000000E+00  0.00000000000E+00  0.80203124858E+03  0.80203124858E+03  0.25500000920E-02 0.  1.
        2   -1    0    0  501    0  0.00000000000E+00  0.00000000000E+00 -0.26108983533E+04  0.26108983533E+04  0.25500000920E-02 0. -1.
    10030    2    1    2    0    0  0.00000000000E+00  0.00000000000E+00 -0.18088671047E+04  0.34129296019E+04  0.28941472431E+04 0.  0.
        1    1    3    3  502    0 -0.12463130114E+03 -0.50450473389E+03  0.68819628616E+03  0.86236425949E+03  0.50400001928E-02 0.  1.
       -1    1    3    3    0  502  0.12463130114E+03  0.50450473389E+03 -0.24970633909E+04  0.25505653424E+04  0.50400001928E-02 0. -1.
</event>
<event>
 5   0  0.3885904E-07  0.2900919E+04  0.7818609E-02  0.8272604E-01
       -1   -1    0    0    0  501  0.00000000000E+00  0.00000000000E+00  0.17263251573E+04  0.17263251573E+04  0.50400001928E-02 0.  1.
        1   -1    0    0  501    0  0.00000000000E+00  0.00000000000E+00 -0.12186769832E+04  0.12186769832E+04  0.50400001928E-02 0. -1.
    10030    2    1    2    0    0  0.00000000000E+00  0.00000000000E+00  0.50764817414E+03  0.29450021405E+04  0.29009189818E+04 0.  0.
        2    1    3    3  502    0  0.10833281177E+03 -0.14302614487E+04  0.35028857626E+02  0.14347859877E+04  0.25500000920E-02 0. -1.
       -2    1    3    3    0  502 -0.10833281177E+03  0.14302614487E+04  0.47261931651E+03  0.15102161528E+04  0.25500000920E-02 0.  1.
</event>
<event>
 5   0  0.3769563E-07  0.2893265E+04  0.7818609E-02  0.8274884E-01
        1   -1    0    0  501    0  0.00000000000E+00  0.00000000000E+00  0.18302180030E+04  0.18302180030E+04  0.50400001928E-02 0. -1.
       -1   -1    0    0    0  501  0.00000000000E+00  0.00000000000E+00 -0.11434406209E+04  0.11434406209E+04  0.50400001928E-02 0.  1.
    10030    2    1    2    0    0  0.00000000000E+00  0.00000000000E+00  0.68677738213E+03  0.29736586239E+04  0.28932650136E+04 0.  0.
        3    1    3    3  502    0  0.22665617716E+03  0.71320668313E+03  0.16158152360E+04  0.17807008964E+04  0.10100000352E+00 0. -1.
       -3    1    3    3    0  502 -0.22665617716E+03 -0.71320668313E+03 -0.92903785386E+03  0.11929577275E+04  0.10100000352E+00 0.  1.
</event>
<event>
 5   0  0.3885904E-07  0.2902878E+04  0.7818609E-02  0.8272022E-01
       -1   -1    0    0    0  501  0.00000000000E+00  0.00000000000E+00  0.32314732266E+04  0.32314732266E+04  0.50400001928E-02 0. -1.
        1   -1    0    0  501    0  0.00000000000E+00  0.00000000000E+00 -0.65192408065E+03  0.65192408067E+03  0.50400001928E-02 0.  1.
    10030    2    1    2    0    0  0.00000000000E+00  0.00000000000E+00  0.25795491459E+04  0.38833973073E+04  0.29028780287E+04 0.  0.
        2    1    3    3  502    0 -0.15754418875E+03 -0.42348280756E+03 -0.55544201503E+03  0.71601235449E+03  0.25500000920E-02 0.  1.
       -2    1    3    3    0  502  0.15754418875E+03  0.42348280756E+03  0.31349911610E+04  0.31673849528E+04  0.25500000920E-02 0. -1.
</event>
<event>
 5   0  0.3769563E-07  0.2894612E+04  0.7818609E-02  0.8274482E-01
        1   -1    0    0  501    0  0.00000000000E+00  0.00000000000E+00  0.12021727852E+04  0.12021727852E+04  0.50400001928E-02 0. -1.
       -1   -1    0    0    0  501  0.00000000000E+00  0.00000000000E+00 -0.17424235787E+04  0.17424235787E+04  0.50400001928E-02 0.  1.
    10030    2    1    2    0    0  0.00000000000E+00  0.00000000000E+00 -0.54025079357E+03  0.29445963639E+04  0.28946116884E+04 0.  0.
        3    1    3    3  502    0 -0.10519251856E+04  0.10543906102E+03 -0.12756424838E+04  0.16567823479E+04  0.10100000352E+00 0.  1.
       -3    1    3    3    0  502  0.10519251856E+04 -0.10543906102E+03  0.73539169019E+03  0.12878140160E+04  0.10100000352E+00 0. -1.
</event>
<event>
 5   0  0.1031339E-06  0.2903009E+04  0.7818609E-02  0.8271983E-01
        2   -1    0    0  501    0  0.00000000000E+00  0.00000000000E+00  0.19295880514E+04  0.19295880514E+04  0.25500000920E-02 0. -1.
       -2   -1    0    0    0  501  0.00000000000E+00  0.00000000000E+00 -0.10918731584E+04  0.10918731584E+04  0.25500000920E-02 0.  1.
    10030    2    1    2    0    0  0.00000000000E+00  0.00000000000E+00  0.83771489303E+03  0.30214612098E+04  0.29030090597E+04 0.  0.
        5    1    3    3  502    0  0.38189711790E+03  0.81757161872E+03  0.16021617178E+04  0.18388074996E+04  0.46999998093E+01 0. -1.
       -5    1    3    3    0  502 -0.38189711790E+03 -0.81757161872E+03 -0.76444682480E+03  0.11826537102E+04  0.46999998093E+01 0.  1.
</event>
<event>
 5   0  0.1063979E-06  0.2897464E+04  0.7818609E-02  0.8273632E-01
       -2   -1    0    0    0  501  0.00000000000E+00  0.00000000000E+00  0.16569982365E+04  0.16569982365E+04  0.25500000920E-02 0. -1.
        2   -1    0    0  501    0  0.00000000000E+00  0.00000000000E+00 -0.12666423245E+04  0.12666423245E+04  0.25500000920E-02 0.  1.
    10030    2    1    2    0    0  0.00000000000E+00  0.00000000000E+00  0.39035591198E+03  0.29236405609E+04  0.28974637861E+04 0.  0.
        1    1    3    3  502    0 -0.62471006827E+03  0.60049357473E+03  0.13666876784E+04  0.16182368223E+04  0.50400001928E-02 0. -1.
       -1    1    3    3    0  502  0.62471006827E+03 -0.60049357473E+03 -0.97633176643E+03  0.13054037386E+04  0.50400001928E-02 0.  1.
</event>
<event>
 5   0  0.3770467E-07  0.2899469E+04  0.7818609E-02  0.8273036E-01
       -1   -1    0    0    0  501  0.00000000000E+00  0.00000000000E+00  0.11934128762E+04  0.11934128762E+04  0.50400001928E-02 0.  1.
        1   -1    0    0  501    0  0.00000000000E+00  0.00000000000E+00 -0.17611086364E+04  0.17611086364E+04  0.50400001928E-02 0. -1.
    10030    2    1    2    0    0  0.00000000000E+00  0.00000000000E+00 -0.56769576026E+03  0.29545215126E+04  0.28994687259E+04 0.  0.
        1    1    3    3  502    0  0.88411721613E+03 -0.14801589325E+03  0.87715277759E+03  0.12541805898E+04  0.50400001928E-02 0.  1.
       -1    1    3    3    0  502 -0.88411721613E+03  0.14801589325E+03 -0.14448485379E+04  0.17003409228E+04  0.50400001928E-02 0. -1.
</event>
<event>
 5   0  0.9994311E-07  0.2903282E+04  0.7818609E-02  0.8271902E-01
        2   -1    0    0  501    0  0.00000000000E+00  0.00000000000E+00  0.24884737792E+04  0.24884737792E+04  0.25500000920E-02 0. -1.
       -2   -1    0    0    0  501  0.00000000000E+00  0.00000000000E+00 -0.84680868634E+03  0.84680868635E+03  0.25500000920E-02 0.  1.
    10030    2    1    2    0    0  0.00000000000E+00  0.00000000000E+00  0.16416650928E+04  0.33352824655E+04  0.29032817376E+04 0.  0.
        2    1    3    3  502    0  0.33473037678E+03 -0.97315004572E+03 -0.35532267380E+03  0.10887238581E+04  0.25500000920E-02 0.  1.
       -2    1    3    3    0  502 -0.33473037678E+03  0.97315004572E+03  0.19969877666E+04  0.22465586074E+04  0.25500000920E-02 0. -1.
</event>
<event>
 5   0  0.1031339E-06  0.2903858E+04  0.7818609E-02  0.8271731E-01
       -2   -1    0    0    0  501  0.00000000000E+00  0.00000000000E+00  0.95563805123E+03  0.95563805124E+03  0.25500000920E-02 0. -1.
        2   -1    0    0  501    0  0.00000000000E+00  0.00000000000E+00 -0.22059580272E+04  0.22059580272E+04  0.25500000920E-02 0.  1.
    10030    2    1    2    0    0  0.00000000000E+00  0.00000000000E+00 -0.12503199760E+04  0.31615960784E+04  0.29038577308E+04 0.  0.
        5    1    3    3  502    0 -0.62292351277E+03  0.13067342791E+04 -0.74682421765E+03  0.16289127297E+04  0.46999998093E+01 0.  1.
       -5    1    3    3    0  502  0.62292351277E+03 -0.13067342791E+04 -0.50349575831E+03  0.15326833487E+04  0.46999998093E+01 0. -1.
</event>
<event>
 5   0  0.3885904E-07  0.2901340E+04  0.7818609E-02  0.8272479E-01
       -1   -1    0    0    0  501  0.00000000000E+00  0.00000000000E+00  0.21781984004E+04  0.21781984004E+04  0.50400001928E-02 0. -1.
        1   -1    0    0  501    0  0.00000000000E+00  0.00000000000E+00 -0.96613952715E+03  0.96613952716E+03  0.50400001928E-02 0.  1.
    10030    2    1    2    0    0  0.00000000000E+00  0.00000000000E+00  0.12120588733E+04  0.31443379276E+04  0.29013400853E+04 0.  0.
        2    1    3    3  502    0  0.90485595612E+03 -0.91843745014E+03  0.13266660679E+04  0.18499552716E+04  0.25500000920E-02 0. -1.
       -2    1    3    3    0  502 -0.90485595612E+03  0.91843745014E+03 -0.11460719461E+03  0.12943826560E+04  0.25500000920E-02 0.  1.
</event>
<event>
 5   0  0.9994311E-07  0.2926731E+04  0.7818609E-02  0.8264968E-01
        2   -1    0    0  501    0  0.00000000000E+00  0.00000000000E+00  0.18011295291E+04  0.18011295291E+04  0.25500000920E-02 0. -1.
       -2   -1    0    0    0  501  0.00000000000E+00  0.00000000000E+00 -0.11889419728E+04  0.11889419728E+04  0.25500000920E-02 0.  1.
    10030    2    1    2    0    0  0.00000000000E+00  0.00000000000E+00  0.61218755633E+03  0.29900715019E+04  0.29267309378E+04 0.  0.
        2    1    3    3  502    0  0.10633563139E+04 -0.76011261667E+02  0.13302532224E+04  0.17047222641E+04  0.25500000920E-02 0. -1.
       -2    1    3    3    0  502 -0.10633563139E+04  0.76011261667E+02 -0.71806566604E+03  0.12853492377E+04  0.25500000920E-02 0.  1.
</event>
<event>
 5   0  0.9950999E-07  0.2899942E+04  0.7818609E-02  0.8272895E-01
       -2   -1    0    0    0  501  0.00000000000E+00  0.00000000000E+00  0.12006017077E+04  0.12006017077E+04  0.25500000920E-02 0. -1.
        2   -1    0    0  501    0  0.00000000000E+00  0.00000000000E+00 -0.17511353596E+04  0.17511353596E+04  0.25500000920E-02 0.  1.
    10030    2    1    2    0    0  0.00000000000E+00  0.00000000000E+00 -0.55053365189E+03  0.29517370674E+04  0.28999421396E+04 0.  0.
        3    1    3    3  502    0  0.69851567658E+03  0.23722359647E+03 -0.15458476382E+04  0.17128467870E+04  0.10100000352E+00 0.  1.
       -3    1    3    3    0  502 -0.69851567658E+03 -0.23722359647E+03  0.99531398632E+03  0.12388902803E+04  0.10100000352E+00 0. -1.
</event>
<event>
 5   0  0.3378750E-07  0.2898625E+04  0.7818609E-02  0.8273287E-01
       -3   -1    0    0    0  501  0.00000000000E+00  0.00000000000E+00  0.17959767773E+04  0.17959767802E+04  0.10100000352E+00 0. -1.
        3   -1    0    0  501    0  0.00000000000E+00  0.00000000000E+00 -0.11695619100E+04  0.11695619143E+04  0.10100000352E+00 0.  1.
    10030    2    1    2    0    0  0.00000000000E+00  0.00000000000E+00  0.62641486735E+03  0.29655386945E+04  0.28986245294E+04 0.  0.
        2    1    3    3  502    0 -0.41268708036E+03  0.46095933214E+03  0.16540778076E+04  0.17660032632E+04  0.25500000920E-02 0. -1.
       -2    1    3    3    0  502  0.41268708036E+03 -0.46095933214E+03 -0.10276629402E+04  0.11995354313E+04  0.25500000920E-02 0.  1.
</event>
<event>
 5   0  0.3786210E-07  0.2896060E+04  0.7818609E-02  0.8274051E-01
       -1   -1    0    0    0  501  0.00000000000E+00  0.00000000000E+00  0.23833617887E+04  0.23833617887E+04  0.50400001928E-02 0.  1.
        1   -1    0    0  501    0  0.00000000000E+00  0.00000000000E+00 -0.87976185380E+03  0.87976185382E+03  0.50400001928E-02 0. -1.
    10030    2    1    2    0    0  0.00000000000E+00  0.00000000000E+00  0.15035999349E+04  0.32631236425E+04  0.28960599341E+04 0.  0.
        5    1    3    3  502    0 -0.32183846846E+03 -0.29948441452E+03 -0.80274100110E+03  0.91525194300E+03  0.46999998093E+01 0. -1.
       -5    1    3    3    0  502  0.32183846846E+03  0.29948441452E+03  0.23063409360E+04  0.23478716995E+04  0.46999998093E+01 0.  1.
</event>
<event>
 5   0  0.1063979E-06  0.2899388E+04  0.7818609E-02  0.8273060E-01
       -2   -1    0    0    0  501  0.00000000000E+00  0.00000000000E+00  0.13387246812E+04  0.13387246812E+04  0.25500000920E-02 0.  1.
        2   -1    0    0  501    0  0.00000000000E+00  0.00000000000E+00 -0.15698619310E+04  0.15698619310E+04  0.25500000920E-02 0. -1.
    10030    2    1    2    0    0  0.00000000000E+00  0.00000000000E+00 -0.23113724974E+03  0.29085866122E+04  0.28993881514E+04 0.  0.
        1    1    3    3  502    0  0.10815548477E+04 -0.10632316774E+03 -0.10780641540E+04  0.15307801360E+04  0.50400001928E-02 0. -1.
       -1    1    3    3    0  502 -0.10815548477E+04  0.10632316774E+03  0.84692690426E+03  0.13778064762E+04  0.50400001928E-02 0.  1.
</event>
<event>
 5   0  0.3638028E-07  0.2908235E+04  0.7818609E-02  0.8270431E-01
       -1   -1    0    0    0  501  0.00000000000E+00  0.00000000000E+00  0.12511437154E+04  0.12511437155E+04  0.50400001928E-02 0.  1.
        1   -1    0    0  501    0  0.00000000000E+00  0.00000000000E+00 -0.16900200771E+04  0.16900200771E+04  0.50400001928E-02 0. -1.
    10030    2    1    2    0    0  0.00000000000E+00  0.00000000000E+00 -0.43887636165E+03  0.29411637926E+04  0.29082352026E+04 0.  0.
        4    1    3    3  502    0  0.77801492412E+03  0.10829538649E+04 -0.80597045438E+03  0.15581034246E+04  0.12699999809E+01 0. -1.
       -4    1    3    3    0  502 -0.77801492412E+03 -0.10829538649E+04  0.36709409273E+03  0.13830603679E+04  0.12699999809E+01 0.  1.
</event>
<event>
 5   0  0.3885904E-07  0.2895347E+04  0.7818609E-02  0.8274263E-01
       -1   -1    0    0    0  501  0.00000000000E+00  0.00000000000E+00  0.25506744950E+04  0.25506744950E+04  0.50400001928E-02 0.  1.
        1   -1    0    0  501    0  0.00000000000E+00  0.00000000000E+00 -0.82164898811E+03  0.82164898813E+03  0.50400001928E-02 0. -1.
    10030    2    1    2    0    0  0.00000000000E+00  0.00000000000E+00  0.17290255069E+04  0.33723234831E+04  0.28953473835E+04 0.  0.
        2    1    3    3  502    0  0.42140062740E+03 -0.18809389098E+02 -0.74848307654E+03  0.85916191592E+03  0.25500000920E-02 0. -1.
       -2    1    3    3    0  502 -0.42140062740E+03  0.18809389098E+02  0.24775085834E+04  0.25131615672E+04  0.25500000920E-02 0.  1.
</event>
<event>
 5   0  0.1006893E-06  0.2881639E+04  0.7818609E-02  0.8278361E-01
       -2   -1    0    0    0  501  0.00000000000E+00  0.00000000000E+00  0.89161376944E+03  0.89161376945E+03  0.25500000920E-02 0. -1.
        2   -1    0    0  501    0  0.00000000000E+00  0.00000000000E+00 -0.23283190001E+04  0.23283190001E+04  0.25500000920E-02 0.  1.
    10030    2    1    2    0    0  0.00000000000E+00  0.00000000000E+00 -0.14367052306E+04  0.32199327695E+04  0.28816393113E+04 0.  0.
        4    1    3    3  502    0  0.84795940235E+03 -0.80767190909E+03  0.21958857422E+03  0.11914654068E+04  0.12699999809E+01 0. -1.
       -4    1    3    3    0  502 -0.84795940235E+03  0.80767190909E+03 -0.16562938048E+04  0.20284673627E+04  0.12699999809E+01 0.  1.
</event>
<event>
 5   0  0.9994311E-07  0.2907611E+04  0.7818609E-02  0.8270617E-01
        2   -1    0    0  501    0  0.00000000000E+00  0.00000000000E+00  0.20162682540E+04  0.20162682540E+04  0.25500000920E-02 0.  1.
       -2   -1    0    0    0  501  0.00000000000E+00  0.00000000000E+00 -0.10482486958E+04  0.10482486958E+04  0.25500000920E-02 0. -1.
    10030    2    1    2    0    0  0.00000000000E+00  0.00000000000E+00  0.96801955825E+03  0.30645169498E+04  0.29076110934E+04 0.  0.
        2    1    3    3  502    0 -0.11897584708E+04  0.79137311984E+03  0.76633427965E+03  0.16214391330E+04  0.25500000920E-02 0.  1.
       -2    1    3    3    0  502  0.11897584708E+04 -0.79137311984E+03  0.20168527860E+03  0.14430778168E+04  0.25500000920E-02 0. -1.
</event>
<event>
 5   0  0.9950999E-07  0.2901426E+04  0.7818609E-02  0.8272453E-01
        2   -1    0    0  501    0  0.00000000000E+00  0.00000000000E+00  0.18064678571E+04  0.18064678571E+04  0.25500000920E-02 0.  1.
       -2   -1    0    0    0  501  0.00000000000E+00  0.00000000000E+00 -0.11650184745E+04  0.11650184745E+04  0.25500000920E-02 0. -1.
    10030    2    1    2    0    0  0.00000000000E+00  0.00000000000E+00  0.64144938264E+03  0.29714863316E+04  0.29014261507E+04 0.  0.
        3    1    3    3  502    0  0.59919654214E+02 -0.81557380067E+02 -0.11613988458E+04  0.11657998372E+04  0.10100000352E+00 0. -1.
       -3    1    3    3    0  502 -0.59919654214E+02  0.81557380067E+02  0.18028482284E+04  0.18056864944E+04  0.10100000352E+00 0.  1.
</event>
<event>
 5   0  0.3885904E-07  0.2897775E+04  0.7818609E-02  0.8273540E-01
       -1   -1    0    0    0  501  0.00000000000E+00  0.00000000000E+00  0.20194024714E+04  0.20194024714E+04  0.50400001928E-02 0.  1.
        1   -1    0    0  501    0  0.00000000000E+00  0.00000000000E+00 -0.10395528164E+04  0.10395528164E+04  0.50400001928E-02 0. -1.
    10030    2    1    2    0    0  0.00000000000E+00  0.00000000000E+00  0.97984965496E+03  0.30589552878E+04  0.28977753720E+04 0.  0.
        2    1    3    3  502    0 -0.10527377839E+04  0.78207918123E+02  0.15375476890E+04  0.18650539446E+04  0.25500000920E-02 0.  1.
       -2    1    3    3    0  502  0.10527377839E+04 -0.78207918123E+02 -0.55769803406E+03  0.11939013432E+04  0.25500000920E-02 0. -1.
</event>
<event>
 5   0  0.1006893E-06  0.2910386E+04  0.7818609E-02  0.8269794E-01
        2   -1    0    0  501    0  0.00000000000E+00  0.00000000000E+00  0.13655037189E+04  0.13655037189E+04  0.25500000920E-02 0.  1.
       -2   -1    0    0    0  501  0.00000000000E+00  0.00000000000E+00 -0.15507736812E+04  0.15507736812E+04  0.25500000920E-02 0. -1.
    10030    2    1    2    0    0  0.00000000000E+00  0.00000000000E+00 -0.18526996232E+03  0.29162774000E+04  0.29103863859E+04 0.  0.
        4    1    3    3  502    0 -0.53270022317E+03  0.13113023017E+03  0.12579140053E+04  0.13723388513E+04  0.12699999809E+01 0.  1.
       -4    1    3    3    0  502  0.53270022317E+03 -0.13113023017E+03 -0.14431839676E+04  0.15439385488E+04  0.12699999809E+01 0. -1.
</event>
<event>
 5   0  0.9950999E-07  0.2888864E+04  0.7818609E-02  0.8276199E-01
        2   -1    0    0  501    0  0.00000000000E+00  0.00000000000E+00  0.20774253316E+04  0.20774253316E+04  0.25500000920E-02 0. -1.
       -2   -1    0    0    0  501  0.00000000000E+00  0.00000000000E+00 -0.10043122309E+04  0.10043122309E+04  0.25500000920E-02 0.  1.
    10030    2    1    2    0    0  0.00000000000E+00  0.00000000000E+00  0.10731131007E+04  0.30817375625E+04  0.28888639077E+04 0.  0.
        3    1    3    3  502    0 -0.24496998017E+03  0.12162190801E+04 -0.25254967403E+03  0.12660886580E+04  0.10100000352E+00 0. -1.
       -3    1    3    3    0  502  0.24496998017E+03 -0.12162190801E+04  0.13256627747E+04  0.18156489045E+04  0.10100000352E+00 0.  1.
</event>
<event>
 5   0  0.3769563E-07  0.2902863E+04  0.7818609E-02  0.8272026E-01
       -1   -1    0    0    0  501  0.00000000000E+00  0.00000000000E+00  0.10172867068E+04  0.10172867068E+04  0.50400001928E-02 0.  1.
        1   -1    0    0  501    0  0.00000000000E+00  0.00000000000E+00 -0.20708546396E+04  0.20708546396E+04  0.50400001928E-02 0. -1.
    10030    2    1    2    0    0  0.00000000000E+00  0.00000000000E+00 -0.10535679328E+04  0.30881413464E+04  0.29028626538E+04 0.  0.
        3    1    3    3  502    0  0.18294877641E+03  0.75556609055E+03  0.77713132688E+03  0.10992194874E+04  0.10100000352E+00 0.  1.
       -3    1    3    3    0  502 -0.18294877641E+03 -0.75556609055E+03 -0.18306992596E+04  0.19889218591E+04  0.10100000352E+00 0. -1.
</event>
<event>
 5   0  0.9950999E-07  0.2888758E+04  0.7818609E-02  0.8276230E-01
        2   -1    0    0  501    0  0.00000000000E+00  0.00000000000E+00  0.18944934482E+04  0.18944934482E+04  0.25500000920E-02 0.  1.
       -2   -1    0    0    0  501  0.00000000000E+00  0.00000000000E+00 -0.11012079741E+04  0.11012079741E+04  0.25500000920E-02 0. -1.
    10030    2    1    2    0    0  0.00000000000E+00  0.00000000000E+00  0.79328547408E+03  0.29957014223E+04  0.28887584129E+04 0.  0.
        3    1    3    3  502    0  0.82556847199E+03  0.75784373755E+03  0.13416072607E+04  0.17480848048E+04  0.10100000352E+00 0.  1.
       -3    1    3    3    0  502 -0.82556847199E+03 -0.75784373755E+03 -0.54832178664E+03  0.12476166176E+04  0.10100000352E+00 0. -1.
</event>
<event>
 5   0  0.3885904E-07  0.2902469E+04  0.7818609E-02  0.8272143E-01
       -1   -1    0    0    0  501  0.00000000000E+00  0.00000000000E+00  0.11960217225E+04  0.11960217225E+04  0.50400001928E-02 0. -1.
        1   -1    0    0  501    0  0.00000000000E+00  0.00000000000E+00 -0.17609060953E+04  0.17609060953E+04  0.50400001928E-02 0.  1.
    10030    2    1    2    0    0  0.00000000000E+00  0.00000000000E+00 -0.56488437283E+03  0.29569278178E+04  0.29024692530E+04 0.  0.
        2    1    3    3  502    0  0.82081930946E+03 -0.95071521203E+03 -0.10230471678E+04  0.16199473019E+04  0.25500000920E-02 0. -1.
       -2    1    3    3    0  502 -0.82081930946E+03  0.95071521203E+03  0.45816279502E+03  0.13369805159E+04  0.25500000920E-02 0.  1.
</event>
<event>
 5   0  0.3770467E-07  0.2894110E+04  0.7818609E-02  0.8274632E-01
       -1   -1    0    0    0  501  0.00000000000E+00  0.00000000000E+00  0.90856313077E+03  0.90856313079E+03  0.50400001928E-02 0. -1.
        1   -1    0    0  501    0  0.00000000000E+00  0.00000000000E+00 -0.23047025205E+04  0.23047025205E+04  0.50400001928E-02 0.  1.
    10030    2    1    2    0    0  0.00000000000E+00  0.00000000000E+00 -0.13961393898E+04  0.32132656513E+04  0.28941096991E+04 0.  0.
        1    1    3    3  502    0 -0.26918630764E+03 -0.13818501209E+04 -0.10696342518E+04  0.17680747885E+04  0.50400001928E-02 0.  1.
       -1    1    3    3    0  502  0.26918630764E+03  0.13818501209E+04 -0.32650513795E+03  0.14451908629E+04  0.50400001928E-02 0. -1.
</event>
<event>
 5   0  0.1006893E-06  0.2905845E+04  0.7818609E-02  0.8271141E-01
       -2   -1    0    0    0  501  0.00000000000E+00  0.00000000000E+00  0.13976326934E+04  0.13976326934E+04  0.25500000920E-02 0.  1.
        2   -1    0    0  501    0  0.00000000000E+00  0.00000000000E+00 -0.15103993832E+04  0.15103993832E+04  0.25500000920E-02 0. -1.
    10030    2    1    2    0    0  0.00000000000E+00  0.00000000000E+00 -0.11276668980E+03  0.29080320766E+04  0.29058448397E+04 0.  0.
        4    1    3    3  502    0 -0.42365432420E+03  0.36972070315E+03 -0.13970952777E+04  0.15060057147E+04  0.12699999809E+01 0. -1.
       -4    1    3    3    0  502  0.42365432420E+03 -0.36972070315E+03  0.12843285879E+04  0.14020263619E+04  0.12699999809E+01 0.  1.
</event>
<event>
 5   0  0.1006893E-06  0.2906077E+04  0.7818609E-02  0.8271072E-01
       -2   -1    0    0    0  501  0.00000000000E+00  0.00000000000E+00  0.11142381629E+04  0.11142381629E+04  0.25500000920E-02 0. -1.
        2   -1    0    0  501    0  0.00000000000E+00  0.00000000000E+00 -0.18948560587E+04  0.18948560587E+04  0.25500000920E-02 0.  1.
    10030    2    1    2    0    0  0.00000000000E+00  0.00000000000E+00 -0.78061789579E+03  0.30090942216E+04  0.29060770354E+04 0.  0.
        4    1    3    3  502    0 -0.10927256965E+04 -0.75037511991E+03  0.22594152589E+03  0.13446796847E+04  0.12699999809E+01 0.  1.
       -4    1    3    3    0  502  0.10927256965E+04  0.75037511991E+03 -0.10065594217E+04  0.16644145369E+04  0.12699999809E+01 0. -1.
</event>
<event>
 5   0  0.1006893E-06  0.2900593E+04  0.7818609E-02  0.8272701E-01
       -2   -1    0    0    0  501  0.00000000000E+00  0.00000000000E+00  0.73806539496E+03  0.73806539496E+03  0.25500000920E-02 0.  1.
        2   -1    0    0  501    0  0.00000000000E+00  0.00000000000E+00 -0.28498282691E+04  0.28498282691E+04  0.25500000920E-02 0. -1.
    10030    2    1    2    0    0  0.00000000000E+00  0.00000000000E+00 -0.21117628741E+04  0.35878936640E+04  0.29005927856E+04 0.  0.
        4    1    3    3  502    0 -0.13659266808E+04 -0.27304554387E+02 -0.16578803533E+04  0.21482714249E+04  0.12699999809E+01 0. -1.
       -4    1    3    3    0  502  0.13659266808E+04  0.27304554387E+02 -0.45388252076E+03  0.14396222392E+04  0.12699999809E+01 0.  1.
</event>
<event>
 5   0  0.3770467E-07  0.2898754E+04  0.7818609E-02  0.8273248E-01
       -1   -1    0    0    0  501  0.00000000000E+00  0.00000000000E+00  0.17587540891E+04  0.17587540891E+04  0.50400001928E-02 0.  1.
        1   -1    0    0  501    0  0.00000000000E+00  0.00000000000E+00 -0.11944215832E+04  0.11944215832E+04  0.50400001928E-02 0. -1.
    10030    2    1    2    0    0  0.00000000000E+00  0.00000000000E+00  0.56433250593E+03  0.29531756723E+04  0.28987541073E+04 0.  0.
        1    1    3    3  502    0  0.87099088139E+03 -0.85105585806E+03  0.10829075836E+04  0.16296042537E+04  0.50400001928E-02 0. -1.
       -1    1    3    3    0  502 -0.87099088139E+03  0.85105585806E+03 -0.51857507768E+03  0.13235714186E+04  0.50400001928E-02 0.  1.
</event>
<event>
 5   0  0.9950999E-07  0.2900087E+04  0.7818609E-02  0.8272852E-01
        2   -1    0    0  501    0  0.00000000000E+00  0.00000000000E+00  0.19874428375E+04  0.19874428375E+04  0.25500000920E-02 0. -1.
       -2   -1    0    0    0  501  0.00000000000E+00  0.00000000000E+00 -0.10579553285E+04  0.10579553285E+04  0.25500000920E-02 0.  1.
    10030    2    1    2    0    0  0.00000000000E+00  0.00000000000E+00  0.92948750903E+03  0.30453981660E+04  0.29000867160E+04 0.  0.
        3    1    3    3  502    0 -0.48393967156E+03  0.12331878001E+04 -0.15444126113E+03  0.13337173124E+04  0.10100000352E+00 0.  1.
       -3    1    3    3    0  502  0.48393967156E+03 -0.12331878001E+04  0.10839287702E+04  0.17116808537E+04  0.10100000352E+00 0. -1.
</event>
<event>
 5   0  0.1063979E-06  0.2899257E+04  0.7818609E-02  0.8273099E-01
        2   -1    0    0  501    0  0.00000000000E+00  0.00000000000E+00  0.18238161921E+04  0.18238161921E+04  0.25500000920E-02 0.  1.
       -2   -1    0    0    0  501  0.00000000000E+00  0.00000000000E+00 -0.11522119286E+04  0.11522119286E+04  0.25500000920E-02 0. -1.
    10030    2    1    2    0    0  0.00000000000E+00  0.00000000000E+00  0.67160426342E+03  0.29760281207E+04  0.28992569890E+04 0.  0.
        1    1    3    3  502    0  0.51280403898E+03 -0.11224381264E+04 -0.44498890566E+03  0.13118118982E+04  0.50400001928E-02 0. -1.
       -1    1    3    3    0  502 -0.51280403898E+03  0.11224381264E+04  0.11165931691E+04  0.16642162225E+04  0.50400001928E-02 0.  1.
</event>
<event>
 5   0  0.3885904E-07  0.2889067E+04  0.7818609E-02  0.8276138E-01
       -1   -1    0    0    0  501  0.00000000000E+00  0.00000000000E+00  0.97486648597E+03  0.97486648599E+03  0.50400001928E-02 0. -1.
        1   -1    0    0  501    0  0.00000000000E+00  0.00000000000E+00 -0.21404747326E+04  0.21404747326E+04  0.50400001928E-02 0.  1.
    10030    2    1    2    0    0  0.00000000000E+00  0.00000000000E+00 -0.11656082467E+04  0.31153412186E+04  0.28890670335E+04 0.  0.
        2    1    3    3  502    0 -0.11612540192E+04 -0.61499578366E+02 -0.15068841886E+04  0.19034161534E+04  0.25500000920E-02 0.  1.
       -2    1    3    3    0  502  0.11612540192E+04  0.61499578366E+02  0.34127594190E+03  0.12119250652E+04  0.25500000920E-02 0. -1.
</event>
<event>
 5   0  0.3770467E-07  0.2892299E+04  0.7818609E-02  0.8275172E-01
       -1   -1    0    0    0  501  0.00000000000E+00  0.00000000000E+00  0.10140883839E+04  0.10140883839E+04  0.50400001928E-02 0.  1.
        1   -1    0    0  501    0  0.00000000000E+00  0.00000000000E+00 -0.20622946906E+04  0.20622946906E+04  0.50400001928E-02 0. -1.
    10030    2    1    2    0    0  0.00000000000E+00  0.00000000000E+00 -0.10482063067E+04  0.30763830745E+04  0.28922994935E+04 0.  0.
        1    1    3    3  502    0  0.10231688091E+04  0.99878265348E+03 -0.75447006307E+03  0.16166837282E+04  0.50400001928E-02 0. -1.
       -1    1    3    3    0  502 -0.10231688091E+04 -0.99878265348E+03 -0.29373624359E+03  0.14596993463E+04  0.50400001928E-02 0.  1.
</event>
<event>
 5   0  0.3885904E-07  0.2901967E+04  0.7818609E-02  0.8272292E-01
        1   -1    0    0  501    0  0.00000000000E+00  0.00000000000E+00  0.11637952293E+04  0.11637952293E+04  0.50400001928E-02 0.  1.
       -1   -1    0    0    0  501  0.00000000000E+00  0.00000000000E+00 -0.18090411586E+04  0.18090411586E+04  0.50400001928E-02 0. -1.
    10030    2    1    2    0    0  0.00000000000E+00  0.00000000000E+00 -0.64524592925E+03  0.29728363879E+04  0.29019672431E+04 0.  0.
        2    1    3    3  502    0  0.12064109855E+04  0.19333031591E+03  0.47914566384E+03  0.13123965270E+04  0.25500000920E-02 0.  1.
       -2    1    3    3    0  502 -0.12064109855E+04 -0.19333031591E+03 -0.11243915931E+04  0.16604398609E+04  0.25500000920E-02 0. -1.
</event>
<event>
 5   0  0.9950999E-07  0.2903809E+04  0.7818609E-02  0.8271745E-01
       -2   -1    0    0    0  501  0.00000000000E+00  0.00000000000E+00  0.11642147976E+04  0.11642147976E+04  0.25500000920E-02 0. -1.
        2   -1    0    0  501    0  0.00000000000E+00  0.00000000000E+00 -0.18106855205E+04  0.18106855205E+04  0.25500000920E-02 0.  1.
    10030    2    1    2    0    0  0.00000000000E+00  0.00000000000E+00 -0.64647072287E+03  0.29749003181E+04  0.29038091375E+04 0.  0.
        3    1    3    3  502    0  0.98006102723E+02 -0.57139335372E+02  0.11596671905E+04  0.11652030307E+04  0.10100000352E+00 0. -1.
       -3    1    3    3    0  502 -0.98006102723E+02  0.57139335372E+02 -0.18061379133E+04  0.18096972874E+04  0.10100000352E+00 0.  1.
</event>
<event>
 5   0  0.3885904E-07  0.2901595E+04  0.7818609E-02  0.8272403E-01
        1   -1    0    0  501    0  0.00000000000E+00  0.00000000000E+00  0.15679969325E+04  0.15679969325E+04  0.50400001928E-02 0.  1.
       -1   -1    0    0    0  501  0.00000000000E+00  0.00000000000E+00 -0.13423578526E+04  0.13423578526E+04  0.50400001928E-02 0. -1.
    10030    2    1    2    0    0  0.00000000000E+00  0.00000000000E+00  0.22563907987E+03  0.29103547851E+04  0.29015947306E+04 0.  0.
        2    1    3    3  502    0 -0.54492423866E+03 -0.90389508263E+03  0.11112363333E+04  0.15325843972E+04  0.25500000920E-02 0.  1.
       -2    1    3    3    0  502  0.54492423866E+03  0.90389508263E+03 -0.88559725340E+03  0.13777703878E+04  0.25500000920E-02 0. -1.
</event>
<event>
 5   0  0.9994311E-07  0.2899506E+04  0.7818609E-02  0.8273024E-01
       -2   -1    0    0    0  501  0.00000000000E+00  0.00000000000E+00  0.14006345855E+04  0.14006345855E+04  0.25500000920E-02 0. -1.
        2   -1    0    0  501    0  0.00000000000E+00  0.00000000000E+00 -0.15005939571E+04  0.15005939571E+04  0.25500000920E-02 0.  1.
    10030    2    1    2    0    0  0.00000000000E+00  0.00000000000E+00 -0.99959371650E+02  0.29012285426E+04  0.28995060235E+04 0.  0.
        2    1    3    3  502    0  0.51095245404E+03 -0.69109655196E+03 -0.12181907030E+04  0.14908639922E+04  0.25500000920E-02 0.  1.
       -2    1    3    3    0  502 -0.51095245404E+03  0.69109655196E+03  0.11182313314E+04  0.14103645504E+04  0.25500000920E-02 0. -1.
</event>
<event>
 5   0  0.3769563E-07  0.2904439E+04  0.7818609E-02  0.8271558E-01
       -1   -1    0    0    0  501  0.00000000000E+00  0.00000000000E+00  0.96986719970E+03  0.96986719971E+03  0.50400001928E-02 0. -1.
        1   -1    0    0  501    0  0.00000000000E+00  0.00000000000E+00 -0.21744635327E+04  0.21744635327E+04  0.50400001928E-02 0.  1.
    10030    2    1    2    0    0  0.00000000000E+00  0.00000000000E+00 -0.12045963330E+04  0.31443307324E+04  0.29044385739E+04 0.  0.
        3    1    3    3  502    0  0.47592090469E+03 -0.81534035022E+03  0.59231993043E+03  0.11145059463E+04  0.10100000352E+00 0. -1.
       -3    1    3    3    0  502 -0.47592090469E+03  0.81534035022E+03 -0.17969162634E+04  0.20298247861E+04  0.10100000352E+00 0.  1.
</event>
<event>
 5   0  0.3770467E-07  0.2896639E+04  0.7818609E-02  0.8273878E-01
        1   -1    0    0  501    0  0.00000000000E+00  0.00000000000E+00  0.12684013794E+04  0.12684013794E+04  0.50400001928E-02 0.  1.
       -1   -1    0    0    0  501  0.00000000000E+00  0.00000000000E+00 -0.16537587001E+04  0.16537587001E+04  0.50400001928E-02 0. -1.
    10030    2    1    2    0    0  0.00000000000E+00  0.00000000000E+00 -0.38535732069E+03  0.29221600795E+04  0.28966393054E+04 0.  0.
        1    1    3    3  502    0  0.91898228221E+02 -0.12302964883E+04  0.57265890559E+03  0.13601518134E+04  0.50400001928E-02 0.  1.
       -1    1    3    3    0  502 -0.91898228221E+02  0.12302964883E+04 -0.95801622629E+03  0.15620082661E+04  0.50400001928E-02 0. -1.
</event>
<event>
 5   0  0.1006893E-06  0.2881266E+04  0.7818609E-02  0.8278473E-01
        2   -1    0    0  501    0  0.00000000000E+00  0.00000000000E+00  0.66560366664E+03  0.66560366664E+03  0.25500000920E-02 0. -1.
       -2   -1    0    0    0  501  0.00000000000E+00  0.00000000000E+00 -0.31181070685E+04  0.31181070685E+04  0.25500000920E-02 0.  1.
    10030    2    1    2    0    0  0.00000000000E+00  0.00000000000E+00 -0.24525034019E+04  0.37837107352E+04  0.28812660396E+04 0.  0.
        4    1    3    3  502    0 -0.63752990691E+03  0.61773496771E+03  0.26375463949E+03  0.92607180893E+03  0.12699999809E+01 0. -1.
       -4    1    3    3    0  502  0.63752990691E+03 -0.61773496771E+03 -0.27162580414E+04  0.28576389262E+04  0.12699999809E+01 0.  1.
</event>
<event>
 5   0  0.1031339E-06  0.2910633E+04  0.7818609E-02  0.8269721E-01
        2   -1    0    0  501    0  0.00000000000E+00  0.00000000000E+00  0.16706181001E+04  0.16706181001E+04  0.25500000920E-02 0. -1.
       -2   -1    0    0    0  501  0.00000000000E+00  0.00000000000E+00 -0.12677622098E+04  0.12677622098E+04  0.25500000920E-02 0.  1.
    10030    2    1    2    0    0  0.00000000000E+00  0.00000000000E+00  0.40285589028E+03  0.29383803099E+04  0.29106332606E+04 0.  0.
        5    1    3    3  502    0 -0.85751608789E+03 -0.98570108514E+03 -0.44576375619E+03  0.13804593028E+04  0.46999998093E+01 0.  1.
       -5    1    3    3    0  502  0.85751608789E+03  0.98570108514E+03  0.84861964647E+03  0.15579210072E+04  0.46999998093E+01 0. -1.
</event>
<event>
 5   0  0.3885904E-07  0.2896462E+04  0.7818609E-02  0.8273931E-01
       -1   -1    0    0    0  501  0.00000000000E+00  0.00000000000E+00  0.13437739399E+04  0.13437739399E+04  0.50400001928E-02 0. -1.
        1   -1    0    0  501    0  0.00000000000E+00  0.00000000000E+00 -0.15608084255E+04  0.15608084255E+04  0.50400001928E-02 0.  1.
    10030    2    1    2    0    0  0.00000000000E+00  0.00000000000E+00 -0.21703448562E+03  0.29045823655E+04  0.28964624544E+04 0.  0.
        2    1    3    3  502    0 -0.42175626188E+03 -0.13803470630E+04 -0.22775106585E+03  0.14612005019E+04  0.25500000920E-02 0.  1.
       -2    1    3    3    0  502  0.42175626188E+03  0.13803470630E+04  0.10716580231E+02  0.14433818635E+04  0.25500000920E-02 0. -1.
</event>
<event>
 5   0  0.3885904E-07  0.2898264E+04  0.7818609E-02  0.8273394E-01
       -1   -1    0    0    0  501  0.00000000000E+00  0.00000000000E+00  0.16222447519E+04  0.16222447519E+04  0.50400001928E-02 0.  1.
        1   -1    0    0  501    0  0.00000000000E+00  0.00000000000E+00 -0.12944927411E+04  0.12944927411E+04  0.50400001928E-02 0. -1.
    10030    2    1    2    0    0  0.00000000000E+00  0.00000000000E+00  0.32775201088E+03  0.29167374930E+04  0.28982643465E+04 0.  0.
        2    1    3    3  502    0  0.10796914358E+04 -0.15717749239E+03 -0.79590380776E+03  0.13505188750E+04  0.25500000920E-02 0. -1.
       -2    1    3    3    0  502 -0.10796914358E+04  0.15717749239E+03  0.11236558186E+04  0.15662186180E+04  0.25500000920E-02 0.  1.
</event>
<event>
 5   0  0.3770467E-07  0.2898057E+04  0.7818609E-02  0.8273456E-01
       -1   -1    0    0    0  501  0.00000000000E+00  0.00000000000E+00  0.32381290122E+04  0.32381290122E+04  0.50400001928E-02 0. -1.
        1   -1    0    0  501    0  0.00000000000E+00  0.00000000000E+00 -0.64842482385E+03  0.64842482387E+03  0.50400001928E-02 0.  1.
    10030    2    1    2    0    0  0.00000000000E+00  0.00000000000E+00  0.25897041883E+04  0.38865538361E+04  0.28980567520E+04 0.  0.
        1    1    3    3  502    0  0.93933336861E+02 -0.13756145685E+04  0.18924189994E+04  0.23414501024E+04  0.50400001928E-02 0.  1.
       -1    1    3    3    0  502 -0.93933336861E+02  0.13756145685E+04  0.69728518893E+03  0.15451037336E+04  0.50400001928E-02 0. -1.
</event>
<event>
 5   0  0.3786210E-07  0.2975074E+04  0.7818609E-02  0.8250885E-01
        1   -1    0    0  501    0  0.00000000000E+00  0.00000000000E+00  0.18288997026E+04  0.18288997026E+04  0.50400001928E-02 0.  1.
       -1   -1    0    0    0  501  0.00000000000E+00  0.00000000000E+00 -0.12098891458E+04  0.12098891458E+04  0.50400001928E-02 0. -1.
    10030    2    1    2    0    0  0.00000000000E+00  0.00000000000E+00  0.61901055682E+03  0.30387888485E+04  0.29750737127E+04 0.  0.
        5    1    3    3  502    0  0.14307229069E+04  0.11036143999E+03 -0.90801480897E+02  0.14378507164E+04  0.46999998093E+01 0. -1.
       -5    1    3    3    0  502 -0.14307229069E+04 -0.11036143999E+03  0.70981203772E+03  0.16009381320E+04  0.46999998093E+01 0.  1.
</event>
<event>
 5   0  0.3769563E-07  0.2895714E+04  0.7818609E-02  0.8274154E-01
       -1   -1    0    0    0  501  0.00000000000E+00  0.00000000000E+00  0.83712760987E+03  0.83712760989E+03  0.50400001928E-02 0.  1.
        1   -1    0    0  501    0  0.00000000000E+00  0.00000000000E+00 -0.25041469286E+04  0.25041469286E+04  0.50400001928E-02 0. -1.
    10030    2    1    2    0    0  0.00000000000E+00  0.00000000000E+00 -0.16670193187E+04  0.33412745384E+04  0.28957144425E+04 0.  0.
        3    1    3    3  502    0  0.43639737278E+03 -0.68530845251E+03  0.54930481759E+03  0.98072734992E+03  0.10100000352E+00 0.  1.
       -3    1    3    3    0  502 -0.43639737278E+03  0.68530845251E+03 -0.22163241363E+04  0.23605471885E+04  0.10100000352E+00 0. -1.
</event>
<event>
 5   0  0.1063979E-06  0.2893383E+04  0.7818609E-02  0.8274849E-01
        2   -1    0    0  501    0  0.00000000000E+00  0.00000000000E+00  0.20866680783E+04  0.20866680783E+04  0.25500000920E-02 0.  1.
       -2   -1    0    0    0  501  0.00000000000E+00  0.00000000000E+00 -0.10029944136E+04  0.10029944136E+04  0.25500000920E-02 0. -1.
    10030    2    1    2    0    0  0.00000000000E+00  0.00000000000E+00  0.10836736647E+04  0.30896624919E+04  0.28933830895E+04 0.  0.
        1    1    3    3  502    0  0.93568987702E+03 -0.28355469855E+03 -0.59679908231E+03  0.11454640796E+04  0.50400001928E-02 0. -1.
       -1    1    3    3    0  502 -0.93568987702E+03  0.28355469855E+03  0.16804727470E+04  0.19441984123E+04  0.50400001928E-02 0.  1.
</event>
<event>
 5   0  0.3786210E-07  0.2900970E+04  0.7818609E-02  0.8272589E-01
       -1   -1    0    0    0  501  0.00000000000E+00  0.00000000000E+00  0.11784715469E+04  0.11784715469E+04  0.50400001928E-02 0.  1.
        1   -1    0    0  501    0  0.00000000000E+00  0.00000000000E+00 -0.17852841200E+04  0.17852841200E+04  0.50400001928E-02 0. -1.
    10030    2    1    2    0    0  0.00000000000E+00  0.00000000000E+00 -0.60681257309E+03  0.29637556669E+04  0.29009698645E+04 0.  0.
        5    1    3    3  502    0 -0.57336484662E+02 -0.47649570285E+03  0.10949945894E+04  0.11955629921E+04  0.46999998093E+01 0.  1.
       -5    1    3    3    0  502  0.57336484662E+02  0.47649570285E+03 -0.17018071624E+04  0.17681926749E+04  0.46999998093E+01 0. -1.
</event>
<event>
 5   0  0.3770467E-07  0.2877086E+04  0.7818609E-02  0.8279728E-01
        1   -1    0    0  501    0  0.00000000000E+00  0.00000000000E+00  0.18761588508E+04  0.18761588508E+04  0.50400001928E-02 0.  1.
       -1   -1    0    0    0  501  0.00000000000E+00  0.00000000000E+00 -0.11030013619E+04  0.11030013619E+04  0.50400001928E-02 0. -1.
    10030    2    1    2    0    0  0.00000000000E+00  0.00000000000E+00  0.77315748892E+03  0.29791602127E+04  0.28770858643E+04 0.  0.
        1    1    3    3  502    0  0.12745480777E+02  0.11896236903E+04  0.12239977076E+04  0.17069087146E+04  0.50400001928E-02 0.  1.
       -1    1    3    3    0  502 -0.12745480777E+02 -0.11896236903E+04 -0.45084021868E+03  0.12722514981E+04  0.50400001928E-02 0. -1.
</event>
<event>
 5   0  0.3770467E-07  0.2899558E+04  0.7818609E-02  0.8273009E-01
        1   -1    0    0  501    0  0.00000000000E+00  0.00000000000E+00  0.13807951685E+04  0.13807951685E+04  0.50400001928E-02 0. -1.
       -1   -1    0    0    0  501  0.00000000000E+00  0.00000000000E+00 -0.15222087528E+04  0.15222087528E+04  0.50400001928E-02 0.  1.
    10030    2    1    2    0    0  0.00000000000E+00  0.00000000000E+00 -0.14141358431E+03  0.29030039213E+04  0.28995575465E+04 0.  0.
        1    1    3    3  502    0  0.42894067691E+02  0.11098824524E+04  0.86216220804E+03  0.14060592563E+04  0.50400001928E-02 0. -1.
       -1    1    3    3    0  502 -0.42894067691E+02 -0.11098824524E+04 -0.10035757924E+04  0.14969446650E+04  0.50400001928E-02 0.  1.
</event>
<event>
 5   0  0.3638028E-07  0.2896203E+04  0.7818609E-02  0.8274008E-01
       -1   -1    0    0    0  501  0.00000000000E+00  0.00000000000E+00  0.17137652462E+04  0.17137652462E+04  0.50400001928E-02 0.  1.
        1   -1    0    0  501    0  0.00000000000E+00  0.00000000000E+00 -0.12236206302E+04  0.12236206302E+04  0.50400001928E-02 0. -1.
    10030    2    1    2    0    0  0.00000000000E+00  0.00000000000E+00  0.49014461598E+03  0.29373858765E+04  0.28962033842E+04 0.  0.
        4    1    3    3  502    0  0.61360425720E+03  0.90327414391E+03 -0.71954720913E+03  0.13077324507E+04  0.12699999809E+01 0. -1.
       -4    1    3    3    0  502 -0.61360425720E+03 -0.90327414391E+03  0.12096918251E+04  0.16296534258E+04  0.12699999809E+01 0.  1.
</event>
<event>
 5   0  0.3769563E-07  0.2900839E+04  0.7818609E-02  0.8272628E-01
        1   -1    0    0  501    0  0.00000000000E+00  0.00000000000E+00  0.23560479186E+04  0.23560479186E+04  0.50400001928E-02 0. -1.
       -1   -1    0    0    0  501  0.00000000000E+00  0.00000000000E+00 -0.89290054532E+03  0.89290054533E+03  0.50400001928E-02 0.  1.
    10030    2    1    2    0    0  0.00000000000E+00  0.00000000000E+00  0.14631473733E+04  0.32489484640E+04  0.29008388245E+04 0.  0.
        3    1    3    3  502    0 -0.72892422307E+03 -0.39115863493E+03  0.20659204161E+04  0.22253904773E+04  0.10100000352E+00 0. -1.
       -3    1    3    3    0  502  0.72892422307E+03  0.39115863493E+03 -0.60277304281E+03  0.10235579866E+04  0.10100000352E+00 0.  1.
</event>
<event>
 5   0  0.1063979E-06  0.2894883E+04  0.7818609E-02  0.8274401E-01
        2   -1    0    0  501    0  0.00000000000E+00  0.00000000000E+00  0.17515991842E+04  0.17515991842E+04  0.25500000920E-02 0.  1.
       -2   -1    0    0    0  501  0.00000000000E+00  0.00000000000E+00 -0.11960996743E+04  0.11960996743E+04  0.25500000920E-02 0. -1.
    10030    2    1    2    0    0  0.00000000000E+00  0.00000000000E+00  0.55549950985E+03  0.29476988585E+04  0.28948832196E+04 0.  0.
        1    1    3    3  502    0  0.13716085408E+04 -0.36032853532E+03  0.57276062882E+03  0.15294447949E+04  0.50400001928E-02 0.  1.
       -1    1    3    3    0  502 -0.13716085408E+04  0.36032853532E+03 -0.17261118973E+02  0.14182540636E+04  0.50400001928E-02 0. -1.
</event>
<event>
 5   0  0.9950999E-07  0.2900772E+04  0.7818609E-02  0.8272648E-01
        2   -1    0    0  501    0  0.00000000000E+00  0.00000000000E+00  0.93045939050E+03  0.93045939051E+03  0.25500000920E-02 0. -1.
       -2   -1    0    0    0  501  0.00000000000E+00  0.00000000000E+00 -0.22608390947E+04  0.22608390947E+04  0.25500000920E-02 0.  1.
    10030    2    1    2    0    0  0.00000000000E+00  0.00000000000E+00 -0.13303797042E+04  0.31912984852E+04  0.29007715981E+04 0.  0.
        3    1    3    3  502    0 -0.40814638785E+03  0.13477827517E+04 -0.10471150333E+04  0.17548651580E+04  0.10100000352E+00 0.  1.
       -3    1    3    3    0  502  0.40814638785E+03 -0.13477827517E+04 -0.28326467094E+03  0.14364333272E+04  0.10100000352E+00 0. -1.
</event>
<event>
 5   0  0.3769563E-07  0.2890009E+04  0.7818609E-02  0.8275856E-01
        1   -1    0    0  501    0  0.00000000000E+00  0.00000000000E+00  0.18412609399E+04  0.18412609399E+04  0.50400001928E-02 0.  1.
       -1   -1    0    0    0  501  0.00000000000E+00  0.00000000000E+00 -0.11340258292E+04  0.11340258292E+04  0.50400001928E-02 0. -1.
    10030    2    1    2    0    0  0.00000000000E+00  0.00000000000E+00  0.70723511076E+03  0.29752867691E+04  0.28900086257E+04 0.  0.
        3    1    3    3  502    0  0.91148910488E+03  0.69797009046E+03  0.12570439384E+04  0.17023907039E+04  0.10100000352E+00 0.  1.
       -3    1    3    3    0  502 -0.91148910488E+03 -0.69797009046E+03 -0.54980882768E+03  0.12728960652E+04  0.10100000352E+00 0. -1.
</event>
<event>
 5   0  0.1031339E-06  0.2903193E+04  0.7818609E-02  0.8271928E-01
       -2   -1    0    0    0  501  0.00000000000E+00  0.00000000000E+00  0.17394567014E+04  0.17394567014E+04  0.25500000920E-02 0. -1.
        2   -1    0    0  501    0  0.00000000000E+00  0.00000000000E+00 -0.12113735191E+04  0.12113735191E+04  0.25500000920E-02 0.  1.
    10030    2    1    2    0    0  0.00000000000E+00  0.00000000000E+00  0.52808318231E+03  0.29508302205E+04  0.29031925776E+04 0.  0.
        5    1    3    3  502    0  0.29641064214E+03 -0.13262204309E+04 -0.25461554542E+03  0.13825957710E+04  0.46999998093E+01 0.  1.
       -5    1    3    3    0  502 -0.29641064214E+03  0.13262204309E+04  0.78269872773E+03  0.15682344495E+04  0.46999998093E+01 0. -1.
</event>
<event>
 5   0  0.3638028E-07  0.2903608E+04  0.7818609E-02  0.8271805E-01
       -1   -1    0    0    0  501  0.00000000000E+00  0.00000000000E+00  0.22632339676E+04  0.22632339676E+04  0.50400001928E-02 0.  1.
        1   -1    0    0  501    0  0.00000000000E+00  0.00000000000E+00 -0.93129331041E+03  0.93129331043E+03  0.50400001928E-02 0. -1.
    10030    2    1    2    0    0  0.00000000000E+00  0.00000000000E+00  0.13319406572E+04  0.31945272780E+04  0.29036078619E+04 0.  0.
        4    1    3    3  502    0 -0.22131180204E+03  0.23793733085E+03 -0.89076884269E+03  0.94818976536E+03  0.12699999809E+01 0. -1.
       -4    1    3    3    0  502  0.22131180204E+03 -0.23793733085E+03  0.22227094999E+04  0.22463375127E+04  0.12699999809E+01 0.  1.
</event>
<event>
 5   0  0.3885904E-07  0.2903211E+04  0.7818609E-02  0.8271923E-01
       -1   -1    0    0    0  501  0.00000000000E+00  0.00000000000E+00  0.73782130721E+03  0.73782130723E+03  0.50400001928E-02 0.  1.
        1   -1    0    0  501    0  0.00000000000E+00  0.00000000000E+00 -0.28559200282E+04  0.28559200282E+04  0.50400001928E-02 0. -1.
    10030    2    1    2    0    0  0.00000000000E+00  0.00000000000E+00 -0.21180987210E+04  0.35937413354E+04  0.29032110833E+04 0.  0.
        2    1    3    3  502    0  0.86131960916E+03 -0.63921091146E+03  0.15170297318E+03  0.10832709036E+04  0.25500000920E-02 0.  1.
       -2    1    3    3    0  502 -0.86131960916E+03  0.63921091146E+03 -0.22698016942E+04  0.25104704319E+04  0.25500000920E-02 0. -1.
</event>
<event>
 5   0  0.3770467E-07  0.2900148E+04  0.7818609E-02  0.8272834E-01
        1   -1    0    0  501    0  0.00000000000E+00  0.00000000000E+00  0.15431801259E+04  0.15431801259E+04  0.50400001928E-02 0.  1.
       -1   -1    0    0    0  501  0.00000000000E+00  0.00000000000E+00 -0.13625849120E+04  0.13625849120E+04  0.50400001928E-02 0. -1.
    10030    2    1    2    0    0  0.00000000000E+00  0.00000000000E+00  0.18059521390E+03  0.29057650379E+04  0.29001475521E+04 0.  0.
        1    1    3    3  502    0 -0.71367839571E+03 -0.11577749259E+04 -0.41360230731E+03  0.14215648069E+04  0.50400001928E-02 0. -1.
       -1    1    3    3    0  502  0.71367839571E+03  0.11577749259E+04  0.59419752121E+03  0.14842002310E+04  0.50400001928E-02 0.  1.
</event>
<event>
 5   0  0.3786210E-07  0.2894067E+04  0.7818609E-02  0.8274645E-01
       -1   -1    0    0    0  501  0.00000000000E+00  0.00000000000E+00  0.97081848293E+03  0.97081848294E+03  0.50400001928E-02 0.  1.
        1   -1    0    0  501    0  0.00000000000E+00  0.00000000000E+00 -0.21568464784E+04  0.21568464784E+04  0.50400001928E-02 0. -1.
    10030    2    1    2    0    0  0.00000000000E+00  0.00000000000E+00 -0.11860279954E+04  0.31276649613E+04  0.28940673289E+04 0.  0.
        5    1    3    3  502    0 -0.11859466072E+04 -0.82908791097E+03 -0.58727328077E+03  0.15616555688E+04  0.46999998093E+01 0.  1.
       -5    1    3    3    0  502  0.11859466072E+04  0.82908791097E+03 -0.59875471465E+03  0.15660093925E+04  0.46999998093E+01 0. -1.
</event>
<event>
 5   0  0.1031339E-06  0.2900767E+04  0.7818609E-02  0.8272649E-01
        2   -1    0    0  501    0  0.00000000000E+00  0.00000000000E+00  0.10796266431E+04  0.10796266431E+04  0.25500000920E-02 0.  1.
       -2   -1    0    0    0  501  0.00000000000E+00  0.00000000000E+00 -0.19484628301E+04  0.19484628301E+04  0.25500000920E-02 0. -1.
    10030    2    1    2    0    0  0.00000000000E+00  0.00000000000E+00 -0.86883618696E+03  0.30280894732E+04  0.29007670602E+04 0.  0.
        5    1    3    3  502    0 -0.90646456120E+03  0.11099061935E+04 -0.66788751975E+03  0.15810330762E+04  0.46999998093E+01 0. -1.
       -5    1    3    3    0  502  0.90646456120E+03 -0.11099061935E+04 -0.20094866721E+03  0.14470563969E+04  0.46999998093E+01 0.  1.
</event>
<event>
 5   0  0.1006893E-06  0.2899804E+04  0.7818609E-02  0.8272936E-01
        2   -1    0    0  501    0  0.00000000000E+00  0.00000000000E+00  0.21100353371E+04  0.21100353371E+04  0.25500000920E-02 0. -1.
       -2   -1    0    0    0  501  0.00000000000E+00  0.00000000000E+00 -0.99629396409E+03  0.99629396409E+03  0.25500000920E-02 0.  1.
    10030    2    1    2    0    0  0.00000000000E+00  0.00000000000E+00  0.11137413730E+04  0.31063293011E+04  0.28998037660E+04 0.  0.
        4    1    3    3  502    0  0.12123460606E+04 -0.61640890612E+03  0.10951213680E+04  0.17461487147E+04  0.12699999809E+01 0. -1.
       -4    1    3    3    0  502 -0.12123460606E+04  0.61640890612E+03  0.18620004964E+02  0.13601805865E+04  0.12699999809E+01 0.  1.
</event>
<event>
 5   0  0.3786210E-07  0.2897238E+04  0.7818609E-02  0.8273700E-01
       -1   -1    0    0    0  501  0.00000000000E+00  0.00000000000E+00  0.13089884200E+04  0.13089884200E+04  0.50400001928E-02 0.  1.
        1   -1    0    0  501    0  0.00000000000E+00  0.00000000000E+00 -0.16031442702E+04  0.16031442702E+04  0.50400001928E-02 0. -1.
    10030    2    1    2    0    0  0.00000000000E+00  0.00000000000E+00 -0.29415585019E+03  0.29121326902E+04  0.28972381920E+04 0.  0.
        5    1    3    3  502    0 -0.84921828608E+03  0.10012237159E+04  0.46832330802E+03  0.13939043861E+04  0.46999998093E+01 0.  1.
       -5    1    3    3    0  502  0.84921828608E+03 -0.10012237159E+04 -0.76247915822E+03  0.15182283041E+04  0.46999998093E+01 0. -1.
</event>
<event>
 5   0  0.3378750E-07  0.2903682E+04  0.7818609E-02  0.8271783E-01
        3   -1    0    0  501    0  0.00000000000E+00  0.00000000000E+00  0.20054915435E+04  0.20054915460E+04  0.10100000352E+00 0.  1.
       -3   -1    0    0    0  501  0.00000000000E+00  0.00000000000E+00 -0.10510351110E+04  0.10510351158E+04  0.10100000352E+00 0. -1.
    10030    2    1    2    0    0  0.00000000000E+00  0.00000000000E+00  0.95445643250E+03  0.30565266619E+04  0.29036818271E+04 0.  0.
        4    1    3    3  502    0 -0.13456397623E+04 -0.48685783506E+03  0.21924913375E+03  0.14477046374E+04  0.12699999809E+01 0. -1.
       -4    1    3    3    0  502  0.13456397623E+04  0.48685783506E+03  0.73520729874E+03  0.16088220245E+04  0.12699999809E+01 0.  1.
</event>
<event>
 5   0  0.1063979E-06  0.2885347E+04  0.7818609E-02  0.8277251E-01
        2   -1    0    0  501    0  0.00000000000E+00  0.00000000000E+00  0.14540172395E+04  0.14540172395E+04  0.25500000920E-02 0. -1.
       -2   -1    0    0    0  501  0.00000000000E+00  0.00000000000E+00 -0.14314181018E+04  0.14314181018E+04  0.25500000920E-02 0.  1.
    10030    2    1    2    0    0  0.00000000000E+00  0.00000000000E+00  0.22599137709E+02  0.28854353413E+04  0.28853468401E+04 0.  0.
        1    1    3    3  502    0 -0.81589856218E+03  0.11690020559E+04  0.23277944503E+03  0.14444523324E+04  0.50400001928E-02 0.  1.
       -1    1    3    3    0  502  0.81589856218E+03 -0.11690020559E+04 -0.21018030732E+03  0.14409830089E+04  0.50400001928E-02 0. -1.
</event>
<event>
 5   0  0.1006893E-06  0.2894480E+04  0.7818609E-02  0.8274522E-01
       -2   -1    0    0    0  501  0.00000000000E+00  0.00000000000E+00  0.18734016016E+04  0.18734016016E+04  0.25500000920E-02 0.  1.
        2   -1    0    0  501    0  0.00000000000E+00  0.00000000000E+00 -0.11180220417E+04  0.11180220417E+04  0.25500000920E-02 0. -1.
    10030    2    1    2    0    0  0.00000000000E+00  0.00000000000E+00  0.75537955994E+03  0.29914236433E+04  0.28944804601E+04 0.  0.
        4    1    3    3  502    0  0.22088534936E+03 -0.43202633357E+03 -0.10314518807E+04  0.11398823122E+04  0.12699999809E+01 0. -1.
       -4    1    3    3    0  502 -0.22088534936E+03  0.43202633357E+03  0.17868314407E+04  0.18515413311E+04  0.12699999809E+01 0.  1.
</event>
<event>
 5   0  0.1006893E-06  0.2901211E+04  0.7818609E-02  0.8272517E-01
        2   -1    0    0  501    0  0.00000000000E+00  0.00000000000E+00  0.28556313791E+04  0.28556313791E+04  0.25500000920E-02 0.  1.
       -2   -1    0    0    0  501  0.00000000000E+00  0.00000000000E+00 -0.73687964873E+03  0.73687964873E+03  0.25500000920E-02 0. -1.
    10030    2    1    2    0    0  0.00000000000E+00  0.00000000000E+00  0.21187517303E+04  0.35925110278E+04  0.29012112281E+04 0.  0.
        4    1    3    3  502    0  0.58395151748E+03  0.56096223630E+03 -0.43097854630E+03  0.91729064401E+03  0.12699999809E+01 0. -1.
       -4    1    3    3    0  502 -0.58395151748E+03 -0.56096223630E+03  0.25497302766E+04  0.26752203838E+04  0.12699999809E+01 0.  1.
</event>
<event>
 5   0  0.3638028E-07  0.2905972E+04  0.7818609E-02  0.8271103E-01
       -1   -1    0    0    0  501  0.00000000000E+00  0.00000000000E+00  0.12830396634E+04  0.12830396634E+04  0.50400001928E-02 0.  1.
        1   -1    0    0  501    0  0.00000000000E+00  0.00000000000E+00 -0.16454422188E+04  0.16454422188E+04  0.50400001928E-02 0. -1.
    10030    2    1    2    0    0  0.00000000000E+00  0.00000000000E+00 -0.36240255536E+03  0.29284818822E+04  0.29059715282E+04 0.  0.
        4    1    3    3  502    0  0.13170586398E+04 -0.48231348715E+03  0.20107375612E+03  0.14169340242E+04  0.12699999809E+01 0.  1.
       -4    1    3    3    0  502 -0.13170586398E+04  0.48231348715E+03 -0.56347631148E+03  0.15115478580E+04  0.12699999809E+01 0. -1.
</event>
<event>
 5   0  0.3769563E-07  0.2900708E+04  0.7818609E-02  0.8272667E-01
        1   -1    0    0  501    0  0.00000000000E+00  0.00000000000E+00  0.13386279128E+04  0.13386279128E+04  0.50400001928E-02 0. -1.
       -1   -1    0    0    0  501  0.00000000000E+00  0.00000000000E+00 -0.15714050379E+04  0.15714050379E+04  0.50400001928E-02 0.  1.
    10030    2    1    2    0    0  0.00000000000E+00  0.00000000000E+00 -0.23277712509E+03  0.29100329507E+04  0.29007079454E+04 0.  0.
        3    1    3    3  502    0 -0.76192033132E+03 -0.11503001318E+04 -0.56483076825E+03  0.14908879205E+04  0.10100000352E+00 0.  1.
       -3    1    3    3    0  502  0.76192033132E+03  0.11503001318E+04  0.33205364316E+03  0.14191450302E+04  0.10100000352E+00 0. -1.
</event>
<event>
 5   0  0.3769563E-07  0.2901949E+04  0.7818609E-02  0.8272298E-01
       -1   -1    0    0    0  501  0.00000000000E+00  0.00000000000E+00  0.29237167943E+04  0.29237167943E+04  0.50400001928E-02 0. -1.
        1   -1    0    0  501    0  0.00000000000E+00  0.00000000000E+00 -0.72008581055E+03  0.72008581057E+03  0.50400001928E-02 0.  1.
    10030    2    1    2    0    0  0.00000000000E+00  0.00000000000E+00  0.22036309837E+04  0.36438026049E+04  0.29019489849E+04 0.  0.
        3    1    3    3  502    0 -0.59729036379E+03  0.12862801555E+04  0.14868990486E+04  0.20547849542E+04  0.10100000352E+00 0. -1.
       -3    1    3    3    0  502  0.59729036379E+03 -0.12862801555E+04  0.71673193512E+03  0.15890176507E+04  0.10100000352E+00 0.  1.
</event>
<event>
 5   0  0.1006893E-06  0.2900994E+04  0.7818609E-02  0.8272582E-01
       -2   -1    0    0    0  501  0.00000000000E+00  0.00000000000E+00  0.97327051641E+03  0.97327051641E+03  0.25500000920E-02 0. -1.
        2   -1    0    0  501    0  0.00000000000E+00  0.00000000000E+00 -0.21617236546E+04  0.21617236546E+04  0.25500000920E-02 0.  1.
    10030    2    1    2    0    0  0.00000000000E+00  0.00000000000E+00 -0.11884531381E+04  0.31349941710E+04  0.29009942417E+04 0.  0.
        4    1    3    3  502    0 -0.12447190659E+04 -0.33409364579E+02  0.20975873999E+03  0.12627121923E+04  0.12699999809E+01 0. -1.
       -4    1    3    3    0  502  0.12447190659E+04  0.33409364579E+02 -0.13982118781E+04  0.18722819787E+04  0.12699999809E+01 0.  1.
</event>
<event>
 5   0  0.3638028E-07  0.2899637E+04  0.7818609E-02  0.8272986E-01
        1   -1    0    0  501    0  0.00000000000E+00  0.00000000000E+00  0.14869327384E+04  0.14869327384E+04  0.50400001928E-02 0.  1.
       -1   -1    0    0    0  501  0.00000000000E+00  0.00000000000E+00 -0.14136302976E+04  0.14136302976E+04  0.50400001928E-02 0. -1.
    10030    2    1    2    0    0  0.00000000000E+00  0.00000000000E+00  0.73302440784E+02  0.29005630361E+04  0.28996366459E+04 0.  0.
        4    1    3    3  502    0 -0.13939960300E+04  0.46109118164E+02 -0.35922839015E+03  0.14402769288E+04  0.12699999809E+01 0. -1.
       -4    1    3    3    0  502  0.13939960300E+04 -0.46109118164E+02  0.43253083094E+03  0.14602861073E+04  0.12699999809E+01 0.  1.
</event>
<event>
 5   0  0.1063979E-06  0.2902492E+04  0.7818609E-02  0.8272136E-01
        2   -1    0    0  501    0  0.00000000000E+00  0.00000000000E+00  0.17176774109E+04  0.17176774109E+04  0.25500000920E-02 0. -1.
       -2   -1    0    0    0  501  0.00000000000E+00  0.00000000000E+00 -0.12261415027E+04  0.12261415027E+04  0.25500000920E-02 0.  1.
    10030    2    1    2    0    0  0.00000000000E+00  0.00000000000E+00  0.49153590821E+03  0.29438189137E+04  0.29024924199E+04 0.  0.
        1    1    3    3  502    0 -0.19937730753E+03  0.45217333696E+03  0.16297121673E+04  0.17029896610E+04  0.50400001928E-02 0. -1.
       -1    1    3    3    0  502  0.19937730753E+03 -0.45217333696E+03 -0.11381762591E+04  0.12408292526E+04  0.50400001928E-02 0.  1.
</event>
<event>
 5   0  0.3786210E-07  0.2902365E+04  0.7818609E-02  0.8272174E-01
       -1   -1    0    0    0  501  0.00000000000E+00  0.00000000000E+00  0.78873013177E+03  0.78873013179E+03  0.50400001928E-02 0. -1.
        1   -1    0    0  501    0  0.00000000000E+00  0.00000000000E+00 -0.26700269722E+04  0.26700269722E+04  0.50400001928E-02 0.  1.
    10030    2    1    2    0    0  0.00000000000E+00  0.00000000000E+00 -0.18812968404E+04  0.34587571040E+04  0.29023650533E+04 0.  0.
        5    1    3    3  502    0  0.60476864207E+03 -0.31881478898E+03 -0.24660844091E+04  0.25590979627E+04  0.46999998093E+01 0.  1.
       -5    1    3    3    0  502 -0.60476864207E+03  0.31881478898E+03  0.58478756862E+03  0.89965914130E+03  0.46999998093E+01 0. -1.
</event>
<event>
 5   0  0.9950999E-07  0.2899949E+04  0.7818609E-02  0.8272893E-01
        2   -1    0    0  501    0  0.00000000000E+00  0.00000000000E+00  0.12746087486E+04  0.12746087486E+04  0.25500000920E-02 0.  1.
       -2   -1    0    0    0  501  0.00000000000E+00  0.00000000000E+00 -0.16494678617E+04  0.16494678617E+04  0.25500000920E-02 0. -1.
    10030    2    1    2    0    0  0.00000000000E+00  0.00000000000E+00 -0.37485911309E+03  0.29240766104E+04  0.28999490803E+04 0.  0.
        3    1    3    3  502    0 -0.13450849668E+04  0.53709510033E+03 -0.25656709782E+03  0.14709015604E+04  0.10100000352E+00 0.  1.
       -3    1    3    3    0  502  0.13450849668E+04 -0.53709510033E+03 -0.11829201526E+03  0.14531750499E+04  0.10100000352E+00 0. -1.
</event>
<event>
 5   0  0.1063979E-06  0.2901760E+04  0.7818609E-02  0.8272354E-01
       -2   -1    0    0    0  501  0.00000000000E+00  0.00000000000E+00  0.91038428440E+03  0.91038428440E+03  0.25500000920E-02 0.  1.
        2   -1    0    0  501    0  0.00000000000E+00  0.00000000000E+00 -0.23122687630E+04  0.23122687630E+04  0.25500000920E-02 0. -1.
    10030    2    1    2    0    0  0.00000000000E+00  0.00000000000E+00 -0.14018844786E+04  0.32226530474E+04  0.29017602542E+04 0.  0.
        1    1    3    3  502    0 -0.40280055875E+03 -0.13463137099E+04 -0.11017455492E+04  0.17856797448E+04  0.50400001928E-02 0.  1.
       -1    1    3    3    0  502  0.40280055875E+03  0.13463137099E+04 -0.30013892945E+03  0.14369733027E+04  0.50400001928E-02 0. -1.
</event>
<event>
 5   0  0.3786210E-07  0.2898729E+04  0.7818609E-02  0.8273256E-01
       -1   -1    0    0    0  501  0.00000000000E+00  0.00000000000E+00  0.16835030906E+04  0.16835030907E+04  0.50400001928E-02 0. -1.
        1   -1    0    0  501    0  0.00000000000E+00  0.00000000000E+00 -0.12477898718E+04  0.12477898718E+04  0.50400001928E-02 0.  1.
    10030    2    1    2    0    0  0.00000000000E+00  0.00000000000E+00  0.43571321888E+03  0.29312929624E+04  0.28987294497E+04 0.  0.
        5    1    3    3  502    0  0.11143465904E+04  0.23324978292E+03 -0.68913730273E+03  0.13308291013E+04  0.46999998093E+01 0.  1.
       -5    1    3    3    0  502 -0.11143465904E+04 -0.23324978292E+03  0.11248505216E+04  0.16004638611E+04  0.46999998093E+01 0. -1.
</event>
<event>
 5   0  0.3885904E-07  0.2905543E+04  0.7818609E-02  0.8271230E-01
       -1   -1    0    0    0  501  0.00000000000E+00  0.00000000000E+00  0.14429925153E+04  0.14429925154E+04  0.50400001928E-02 0.  1.
        1   -1    0    0  501    0  0.00000000000E+00  0.00000000000E+00 -0.14626169845E+04  0.14626169845E+04  0.50400001928E-02 0. -1.
    10030    2    1    2    0    0  0.00000000000E+00  0.00000000000E+00 -0.19624469160E+02  0.29056094999E+04  0.29055432273E+04 0.  0.
        2    1    3    3  502    0 -0.61696382659E+03  0.11532232491E+04 -0.64226411594E+03  0.14570763262E+04  0.25500000920E-02 0. -1.
       -2    1    3    3    0  502  0.61696382659E+03 -0.11532232491E+04  0.62263964678E+03  0.14485331737E+04  0.25500000920E-02 0.  1.
</event>
<event>
 5   0  0.9994311E-07  0.2904374E+04  0.7818609E-02  0.8271577E-01
        2   -1    0    0  501    0  0.00000000000E+00  0.00000000000E+00  0.16648226941E+04  0.16648226941E+04  0.25500000920E-02 0. -1.
       -2   -1    0    0    0  501  0.00000000000E+00  0.00000000000E+00 -0.12667099266E+04  0.12667099266E+04  0.25500000920E-02 0.  1.
    10030    2    1    2    0    0  0.00000000000E+00  0.00000000000E+00  0.39811276741E+03  0.29315326207E+04  0.29043742408E+04 0.  0.
        2    1    3    3  502    0  0.14503524547E+04  0.31276340753E+02  0.26560453475E+03  0.14748037907E+04  0.25500000920E-02 0. -1.
       -2    1    3    3    0  502 -0.14503524547E+04 -0.31276340753E+02  0.13250823266E+03  0.14567288300E+04  0.25500000920E-02 0.  1.
</event>
<event>
 5   0  0.9994311E-07  0.2881407E+04  0.7818609E-02  0.8278431E-01
        2   -1    0    0  501    0  0.00000000000E+00  0.00000000000E+00  0.25134299880E+04  0.25134299880E+04  0.25500000920E-02 0.  1.
       -2   -1    0    0    0  501  0.00000000000E+00  0.00000000000E+00 -0.82581442677E+03  0.82581442677E+03  0.25500000920E-02 0. -1.
    10030    2    1    2    0    0  0.00000000000E+00  0.00000000000E+00  0.16876155613E+04  0.33392444148E+04  0.28814071179E+04 0.  0.
        2    1    3    3  502    0  0.10013399546E+04 -0.58074241799E+02  0.20423371535E+04  0.22753451103E+04  0.25500000920E-02 0.  1.
       -2    1    3    3    0  502 -0.10013399546E+04  0.58074241799E+02 -0.35472159226E+03  0.10638993045E+04  0.25500000920E-02 0. -1.
</event>
<event>
 5   0  0.3769563E-07  0.2899040E+04  0.7818609E-02  0.8273163E-01
        1   -1    0    0  501    0  0.00000000000E+00  0.00000000000E+00  0.11079806326E+04  0.11079806326E+04  0.50400001928E-02 0.  1.
       -1   -1    0    0    0  501  0.00000000000E+00  0.00000000000E+00 -0.18963408353E+04  0.18963408353E+04  0.50400001928E-02 0. -1.
    10030    2    1    2    0    0  0.00000000000E+00  0.00000000000E+00 -0.78836020267E+03  0.30043214679E+04  0.28990404746E+04 0.  0.
        3    1    3    3  502    0  0.87463088529E+03  0.74655606849E+03 -0.13087155952E+04  0.17421428381E+04  0.10100000352E+00 0. -1.
       -3    1    3    3    0  502 -0.87463088529E+03 -0.74655606849E+03  0.52035539251E+03  0.12621786298E+04  0.10100000352E+00 0.  1.
</event>
<event>
 5   0  0.3885904E-07  0.2902832E+04  0.7818609E-02  0.8272035E-01
       -1   -1    0    0    0  501  0.00000000000E+00  0.00000000000E+00  0.16391037362E+04  0.16391037362E+04  0.50400001928E-02 0.  1.
        1   -1    0    0  501    0  0.00000000000E+00  0.00000000000E+00 -0.12852195553E+04  0.12852195553E+04  0.50400001928E-02 0. -1.
    10030    2    1    2    0    0  0.00000000000E+00  0.00000000000E+00  0.35388418087E+03  0.29243232915E+04  0.29028318414E+04 0.  0.
        2    1    3    3  502    0  0.85964701841E+03 -0.22308714547E+03 -0.97953238346E+03  0.13222119955E+04  0.25500000920E-02 0. -1.
       -2    1    3    3    0  502 -0.85964701841E+03  0.22308714547E+03  0.13334165643E+04  0.16021112960E+04  0.25500000920E-02 0.  1.
</event>
<event>
 5   0  0.1063979E-06  0.2898028E+04  0.7818609E-02  0.8273465E-01
       -2   -1    0    0    0  501  0.00000000000E+00  0.00000000000E+00  0.12993199117E+04  0.12993199117E+04  0.25500000920E-02 0. -1.
        2   -1    0    0  501    0  0.00000000000E+00  0.00000000000E+00 -0.16159539133E+04  0.16159539133E+04  0.25500000920E-02 0.  1.
    10030    2    1    2    0    0  0.00000000000E+00  0.00000000000E+00 -0.31663400158E+03  0.29152738250E+04  0.28980276714E+04 0.  0.
        1    1    3    3  502    0  0.12874383609E+04 -0.14731175405E+03 -0.81059133527E+03  0.15284817954E+04  0.50400001928E-02 0. -1.
       -1    1    3    3    0  502 -0.12874383609E+04  0.14731175405E+03  0.49395733369E+03  0.13867920297E+04  0.50400001928E-02 0.  1.
</event>
<event>
 5   0  0.3638028E-07  0.2905288E+04  0.7818609E-02  0.8271306E-01
       -1   -1    0    0    0  501  0.00000000000E+00  0.00000000000E+00  0.17015149404E+04  0.17015149404E+04  0.50400001928E-02 0.  1.
        1   -1    0    0  501    0  0.00000000000E+00  0.00000000000E+00 -0.12401742576E+04  0.12401742576E+04  0.50400001928E-02 0. -1.
    10030    2    1    2    0    0  0.00000000000E+00  0.00000000000E+00  0.46134068284E+03  0.29416891981E+04  0.29052883011E+04 0.  0.
        4    1    3    3  502    0  0.58963431810E+03 -0.10762026506E+04  0.10177726808E+04  0.15942846725E+04  0.12699999809E+01 0.  1.
       -4    1    3    3    0  502 -0.58963431810E+03  0.10762026506E+04 -0.55643199797E+03  0.13474045256E+04  0.12699999809E+01 0. -1.
</event>
<event>
 5   0  0.1063979E-06  0.2885941E+04  0.7818609E-02  0.8277073E-01
       -2   -1    0    0    0  501  0.00000000000E+00  0.00000000000E+00  0.12020447277E+04  0.12020447277E+04  0.25500000920E-02 0.  1.
        2   -1    0    0  501    0  0.00000000000E+00  0.00000000000E+00 -0.17321854258E+04  0.17321854258E+04  0.25500000920E-02 0. -1.
    10030    2    1    2    0    0  0.00000000000E+00  0.00000000000E+00 -0.53014069814E+03  0.29342301534E+04  0.28859413427E+04 0.  0.
        1    1    3    3  502    0  0.17593861234E+03 -0.11491940876E+04  0.60396108654E+03  0.13101032174E+04  0.50400001928E-02 0.  1.
       -1    1    3    3    0  502 -0.17593861234E+03  0.11491940876E+04 -0.11341017847E+04  0.16241269360E+04  0.50400001928E-02 0. -1.
</event>
<event>
 5   0  0.3770467E-07  0.2899901E+04  0.7818609E-02  0.8272907E-01
       -1   -1    0    0    0  501  0.00000000000E+00  0.00000000000E+00  0.11277557088E+04  0.11277557088E+04  0.50400001928E-02 0.  1.
        1   -1    0    0  501    0  0.00000000000E+00  0.00000000000E+00 -0.18641954029E+04  0.18641954029E+04  0.50400001928E-02 0. -1.
    10030    2    1    2    0    0  0.00000000000E+00  0.00000000000E+00 -0.73643969417E+03  0.29919511117E+04  0.28999013831E+04 0.  0.
        1    1    3    3  502    0  0.12174013174E+04  0.52407139989E+03  0.23835359686E+03  0.13466733965E+04  0.50400001928E-02 0.  1.
       -1    1    3    3    0  502 -0.12174013174E+04 -0.52407139989E+03 -0.97479329103E+03  0.16452777152E+04  0.50400001928E-02 0. -1.
</event>
<event>
 5   0  0.1006893E-06  0.2911191E+04  0.7818609E-02  0.8269555E-01
        2   -1    0    0  501    0  0.00000000000E+00  0.00000000000E+00  0.14981740739E+04  0.14981740739E+04  0.25500000920E-02 0.  1.
       -2   -1    0    0    0  501  0.00000000000E+00  0.00000000000E+00 -0.14142274457E+04  0.14142274457E+04  0.25500000920E-02 0. -1.
    10030    2    1    2    0    0  0.00000000000E+00  0.00000000000E+00  0.83946628187E+02  0.29124015196E+04  0.29111914357E+04 0.  0.
        4    1    3    3  502    0 -0.11437288992E+04  0.71142904522E+03 -0.51008048890E+03  0.14402884431E+04  0.12699999809E+01 0. -1.
       -4    1    3    3    0  502  0.11437288992E+04 -0.71142904522E+03  0.59402711709E+03  0.14721130765E+04  0.12699999809E+01 0.  1.
</event>
<event>
 5   0  0.3378750E-07  0.2920063E+04  0.7818609E-02  0.8266933E-01
        3   -1    0    0  501    0  0.00000000000E+00  0.00000000000E+00  0.10113259094E+04  0.10113259144E+04  0.10100000352E+00 0.  1.
       -3   -1    0    0    0  501  0.00000000000E+00  0.00000000000E+00 -0.21078183769E+04  0.21078183794E+04  0.10100000352E+00 0. -1.
    10030    2    1    2    0    0  0.00000000000E+00  0.00000000000E+00 -0.10964924676E+04  0.31191442938E+04  0.29200625668E+04 0.  0.
        4    1    3    3  502    0 -0.65108537379E+01  0.13911269157E+04 -0.74845748732E+02  0.13931546884E+04  0.12699999809E+01 0.  1.
       -4    1    3    3    0  502  0.65108537379E+01 -0.13911269157E+04 -0.10216467188E+04  0.17259896054E+04  0.12699999809E+01 0. -1.
</event>
<event>
 5   0  0.9950999E-07  0.2890122E+04  0.7818609E-02  0.8275822E-01
        2   -1    0    0  501    0  0.00000000000E+00  0.00000000000E+00  0.18092939687E+04  0.18092939687E+04  0.25500000920E-02 0.  1.
       -2   -1    0    0    0  501  0.00000000000E+00  0.00000000000E+00 -0.11541527194E+04  0.11541527194E+04  0.25500000920E-02 0. -1.
    10030    2    1    2    0    0  0.00000000000E+00  0.00000000000E+00  0.65514124924E+03  0.29634466881E+04  0.28901221802E+04 0.  0.
        3    1    3    3  502    0  0.72525643836E+03 -0.11889129291E+04 -0.67816755445E+02  0.13943134429E+04  0.10100000352E+00 0. -1.
       -3    1    3    3    0  502 -0.72525643836E+03  0.11889129291E+04  0.72295800468E+03  0.15691332452E+04  0.10100000352E+00 0.  1.
</event>
<event>
 5   0  0.9994311E-07  0.2900463E+04  0.7818609E-02  0.8272740E-01
        2   -1    0    0  501    0  0.00000000000E+00  0.00000000000E+00  0.22947949356E+04  0.22947949356E+04  0.25500000920E-02 0.  1.
       -2   -1    0    0    0  501  0.00000000000E+00  0.00000000000E+00 -0.91649649082E+03  0.91649649083E+03  0.25500000920E-02 0. -1.
    10030    2    1    2    0    0  0.00000000000E+00  0.00000000000E+00  0.13782984447E+04  0.32112914264E+04  0.29004630703E+04 0.  0.
        2    1    3    3  502    0  0.97877662979E+03  0.94477596461E+03  0.12455657057E+04  0.18444617756E+04  0.25500000920E-02 0.  1.
       -2    1    3    3    0  502 -0.97877662979E+03 -0.94477596461E+03  0.13273273903E+03  0.13668296508E+04  0.25500000920E-02 0. -1.
</event>
<event>
 5   0  0.1063979E-06  0.2897850E+04  0.7818609E-02  0.8273518E-01
       -2   -1    0    0    0  501  0.00000000000E+00  0.00000000000E+00  0.88820980453E+03  0.88820980453E+03  0.25500000920E-02 0.  1.
        2   -1    0    0  501    0  0.00000000000E+00  0.00000000000E+00 -0.23636118976E+04  0.23636118976E+04  0.25500000920E-02 0. -1.
    10030    2    1    2    0    0  0.00000000000E+00  0.00000000000E+00 -0.14754020931E+04  0.32518217021E+04  0.28978497280E+04 0.  0.
        1    1    3    3  502    0 -0.93628628140E+03 -0.58667274115E+03  0.31411101905E+03  0.11486873544E+04  0.50400001928E-02 0. -1.
       -1    1    3    3    0  502  0.93628628140E+03  0.58667274115E+03 -0.17895131121E+04  0.21031343477E+04  0.50400001928E-02 0.  1.
</event>
<event>
 5   0  0.3638028E-07  0.2902723E+04  0.7818609E-02  0.8272068E-01
        1   -1    0    0  501    0  0.00000000000E+00  0.00000000000E+00  0.18432636790E+04  0.18432636790E+04  0.50400001928E-02 0.  1.
       -1   -1    0    0    0  501  0.00000000000E+00  0.00000000000E+00 -0.11427828182E+04  0.11427828182E+04  0.50400001928E-02 0. -1.
    10030    2    1    2    0    0  0.00000000000E+00  0.00000000000E+00  0.70048086077E+03  0.29860464972E+04  0.29027229022E+04 0.  0.
        4    1    3    3  502    0 -0.11679673521E+04 -0.68183419578E+03 -0.19156885068E+03  0.13659230738E+04  0.12699999809E+01 0. -1.
       -4    1    3    3    0  502  0.11679673521E+04  0.68183419578E+03  0.89204971145E+03  0.16201234233E+04  0.12699999809E+01 0.  1.
</event>
<event>
 5   0  0.9994311E-07  0.2906456E+04  0.7818609E-02  0.8270959E-01
       -2   -1    0    0    0  501  0.00000000000E+00  0.00000000000E+00  0.10870441304E+04  0.10870441304E+04  0.25500000920E-02 0. -1.
        2   -1    0    0  501    0  0.00000000000E+00  0.00000000000E+00 -0.19427656969E+04  0.19427656969E+04  0.25500000920E-02 0.  1.
    10030    2    1    2    0    0  0.00000000000E+00  0.00000000000E+00 -0.85572156656E+03  0.30298098273E+04  0.29064562942E+04 0.  0.
        2    1    3    3  502    0  0.74732378521E+03  0.11117619142E+04  0.15939979870E+03  0.13490425085E+04  0.25500000920E-02 0. -1.
       -2    1    3    3    0  502 -0.74732378521E+03 -0.11117619142E+04 -0.10151213653E+04  0.16807673188E+04  0.25500000920E-02 0.  1.
</event>
<event>
 5   0  0.3769563E-07  0.2896352E+04  0.7818609E-02  0.8273964E-01
        1   -1    0    0  501    0  0.00000000000E+00  0.00000000000E+00  0.16268855987E+04  0.16268855987E+04  0.50400001928E-02 0.  1.
       -1   -1    0    0    0  501  0.00000000000E+00  0.00000000000E+00 -0.12890970998E+04  0.12890970998E+04  0.50400001928E-02 0. -1.
    10030    2    1    2    0    0  0.00000000000E+00  0.00000000000E+00  0.33778849891E+03  0.29159826985E+04  0.28963518481E+04 0.  0.
        3    1    3    3  502    0  0.20198002932E+03 -0.32840888278E+03 -0.12364770880E+04  0.12951926211E+04  0.10100000352E+00 0. -1.
       -3    1    3    3    0  502 -0.20198002932E+03  0.32840888278E+03  0.15742655869E+04  0.16207900773E+04  0.10100000352E+00 0.  1.
</event>
<event>
 5   0  0.3638028E-07  0.2899094E+04  0.7818609E-02  0.8273147E-01
       -1   -1    0    0    0  501  0.00000000000E+00  0.00000000000E+00  0.17221624089E+04  0.17221624089E+04  0.50400001928E-02 0. -1.
        1   -1    0    0  501    0  0.00000000000E+00  0.00000000000E+00 -0.12200864078E+04  0.12200864078E+04  0.50400001928E-02 0.  1.
    10030    2    1    2    0    0  0.00000000000E+00  0.00000000000E+00  0.50207600106E+03  0.29422488167E+04  0.28990943049E+04 0.  0.
        4    1    3    3  502    0  0.12527603579E+04 -0.63658177984E+03 -0.10998240882E+03  0.14095185773E+04  0.12699999809E+01 0.  1.
       -4    1    3    3    0  502 -0.12527603579E+04  0.63658177984E+03  0.61205840987E+03  0.15327302394E+04  0.12699999809E+01 0. -1.
</event>
<event>
 5   0  0.3885904E-07  0.2909009E+04  0.7818609E-02  0.8270202E-01
       -1   -1    0    0    0  501  0.00000000000E+00  0.00000000000E+00  0.10648957018E+04  0.10648957018E+04  0.50400001928E-02 0.  1.
        1   -1    0    0  501    0  0.00000000000E+00  0.00000000000E+00 -0.19866577556E+04  0.19866577556E+04  0.50400001928E-02 0. -1.
    10030    2    1    2    0    0  0.00000000000E+00  0.00000000000E+00 -0.92176205380E+03  0.30515534574E+04  0.29090089755E+04 0.  0.
        2    1    3    3  502    0  0.12456039484E+04 -0.65257412486E+03 -0.85085147965E+03  0.16435724581E+04  0.25500000920E-02 0. -1.
       -2    1    3    3    0  502 -0.12456039484E+04  0.65257412486E+03 -0.70910574156E+02  0.14079809992E+04  0.25500000920E-02 0.  1.
</event>
<event>
 5   0  0.3786210E-07  0.2902545E+04  0.7818609E-02  0.8272121E-01
       -1   -1    0    0    0  501  0.00000000000E+00  0.00000000000E+00  0.10306886785E+04  0.10306886785E+04  0.50400001928E-02 0. -1.
        1   -1    0    0  501    0  0.00000000000E+00  0.00000000000E+00 -0.20434801463E+04  0.20434801463E+04  0.50400001928E-02 0.  1.
    10030    2    1    2    0    0  0.00000000000E+00  0.00000000000E+00 -0.10127914678E+04  0.30741688248E+04  0.29025449878E+04 0.  0.
        5    1    3    3  502    0 -0.33492845848E+03  0.13673121219E+04 -0.13276151635E+03  0.14139898236E+04  0.46999998093E+01 0. -1.
       -5    1    3    3    0  502  0.33492845848E+03 -0.13673121219E+04 -0.88002995141E+03  0.16601790013E+04  0.46999998093E+01 0.  1.
</event>
<event>
 5   0  0.1063979E-06  0.2897535E+04  0.7818609E-02  0.8273611E-01
        2   -1    0    0  501    0  0.00000000000E+00  0.00000000000E+00  0.19740894227E+04  0.19740894227E+04  0.25500000920E-02 0. -1.
       -2   -1    0    0    0  501  0.00000000000E+00  0.00000000000E+00 -0.10632380654E+04  0.10632380654E+04  0.25500000920E-02 0.  1.
    10030    2    1    2    0    0  0.00000000000E+00  0.00000000000E+00  0.91085135735E+03  0.30373274881E+04  0.28975348272E+04 0.  0.
        1    1    3    3  502    0  0.64732142580E+03 -0.11766567460E+04 -0.11428473131E+03  0.13478156869E+04  0.50400001928E-02 0.  1.
       -1    1    3    3    0  502 -0.64732142580E+03  0.11766567460E+04  0.10251360887E+04  0.16895118012E+04  0.50400001928E-02 0. -1.
</event>
<event>
 5   0  0.1006893E-06  0.2903574E+04  0.7818609E-02  0.8271815E-01
       -2   -1    0    0    0  501  0.00000000000E+00  0.00000000000E+00  0.93947712156E+03  0.93947712156E+03  0.25500000920E-02 0.  1.
        2   -1    0    0  501    0  0.00000000000E+00  0.00000000000E+00 -0.22434663868E+04  0.22434663868E+04  0.25500000920E-02 0. -1.
    10030    2    1    2    0    0  0.00000000000E+00  0.00000000000E+00 -0.13039892653E+04  0.31829435084E+04  0.29035738967E+04 0.  0.
        4    1    3    3  502    0  0.87990048120E+03  0.88526623098E+03  0.16080525127E+03  0.12584836504E+04  0.12699999809E+01 0.  1.
       -4    1    3    3    0  502 -0.87990048120E+03 -0.88526623098E+03 -0.14647945165E+04  0.19244598580E+04  0.12699999809E+01 0. -1.
</event>
<event>
 5   0  0.9950999E-07  0.2902678E+04  0.7818609E-02  0.8272081E-01
        2   -1    0    0  501    0  0.00000000000E+00  0.00000000000E+00  0.18290686230E+04  0.18290686230E+04  0.25500000920E-02 0.  1.
       -2   -1    0    0    0  501  0.00000000000E+00  0.00000000000E+00 -0.11516157465E+04  0.11516157465E+04  0.25500000920E-02 0. -1.
    10030    2    1    2    0    0  0.00000000000E+00  0.00000000000E+00  0.67745287648E+03  0.29806843695E+04  0.29026775417E+04 0.  0.
        3    1    3    3  502    0  0.42582903808E+02  0.50494158927E+03 -0.10578241809E+04  0.11729327858E+04  0.10100000352E+00 0. -1.
       -3    1    3    3    0  502 -0.42582903808E+02 -0.50494158927E+03  0.17352770574E+04  0.18077515837E+04  0.10100000352E+00 0.  1.
</event>
<event>
 5   0  0.3885904E-07  0.2894409E+04  0.7818609E-02  0.8274543E-01
       -1   -1    0    0    0  501  0.00000000000E+00  0.00000000000E+00  0.16481422349E+04  0.16481422349E+04  0.50400001928E-02 0.  1.
        1   -1    0    0  501    0  0.00000000000E+00  0.00000000000E+00 -0.12707647606E+04  0.12707647607E+04  0.50400001928E-02 0. -1.
    10030    2    1    2    0    0  0.00000000000E+00  0.00000000000E+00  0.37737747429E+03  0.29189069956E+04  0.28944091437E+04 0.  0.
        2    1    3    3  502    0  0.40198316756E+03 -0.83723277536E+03  0.13079708985E+04  0.16041624165E+04  0.25500000920E-02 0.  1.
       -2    1    3    3    0  502 -0.40198316756E+03  0.83723277536E+03 -0.93059342421E+03  0.13147445791E+04  0.25500000920E-02 0. -1.
</event>
<event>
 5   0  0.3885904E-07  0.2904855E+04  0.7818609E-02  0.8271434E-01
       -1   -1    0    0    0  501  0.00000000000E+00  0.00000000000E+00  0.14118469668E+04  0.14118469668E+04  0.50400001928E-02 0.  1.
        1   -1    0    0  501    0  0.00000000000E+00  0.00000000000E+00 -0.14941748481E+04  0.14941748481E+04  0.50400001928E-02 0. -1.
    10030    2    1    2    0    0  0.00000000000E+00  0.00000000000E+00 -0.82327881313E+02  0.29060218149E+04  0.29048554023E+04 0.  0.
        2    1    3    3  502    0 -0.12484630840E+04  0.25632154332E+02 -0.78323611578E+03  0.14740338845E+04  0.25500000920E-02 0. -1.
       -2    1    3    3    0  502  0.12484630840E+04 -0.25632154332E+02  0.70090823447E+03  0.14319879304E+04  0.25500000920E-02 0.  1.
</event>
<event>
 5   0  0.3378750E-07  0.2897879E+04  0.7818609E-02  0.8273509E-01
        3   -1    0    0  501    0  0.00000000000E+00  0.00000000000E+00  0.13452951378E+04  0.13452951416E+04  0.10100000352E+00 0. -1.
       -3   -1    0    0    0  501  0.00000000000E+00  0.00000000000E+00 -0.15605684548E+04  0.15605684581E+04  0.10100000352E+00 0.  1.
    10030    2    1    2    0    0  0.00000000000E+00  0.00000000000E+00 -0.21527331702E+03  0.29058635996E+04  0.28978786480E+04 0.  0.
        3    1    3    3  502    0 -0.72329047914E+03 -0.38138328720E+03 -0.13071027074E+04  0.15417911100E+04  0.10100000352E+00 0.  1.
       -3    1    3    3    0  502  0.72329047914E+03  0.38138328720E+03  0.10918293904E+04  0.13640724896E+04  0.10100000352E+00 0. -1.
</event>
<event>
 5   0  0.3378750E-07  0.2895419E+04  0.7818609E-02  0.8274242E-01
       -3   -1    0    0    0  501  0.00000000000E+00  0.00000000000E+00  0.22463872772E+04  0.22463872794E+04  0.10100000352E+00 0. -1.
        3   -1    0    0  501    0  0.00000000000E+00  0.00000000000E+00 -0.93299260002E+03  0.93299260548E+03  0.10100000352E+00 0.  1.
    10030    2    1    2    0    0  0.00000000000E+00  0.00000000000E+00  0.13133946771E+04  0.31793798849E+04  0.28954189463E+04 0.  0.
        4    1    3    3  502    0 -0.87649761496E+03 -0.74512920003E+02 -0.60587634997E+03  0.10681235924E+04  0.12699999809E+01 0.  1.
       -4    1    3    3    0  502  0.87649761496E+03  0.74512920003E+02  0.19192710271E+04  0.21112562925E+04  0.12699999809E+01 0. -1.
</event>
<event>
 5   0  0.3638028E-07  0.2900739E+04  0.7818609E-02  0.8272658E-01
       -1   -1    0    0    0  501  0.00000000000E+00  0.00000000000E+00  0.17498940336E+04  0.17498940336E+04  0.50400001928E-02 0. -1.
        1   -1    0    0  501    0  0.00000000000E+00  0.00000000000E+00 -0.12021136694E+04  0.12021136694E+04  0.50400001928E-02 0.  1.
    10030    2    1    2    0    0  0.00000000000E+00  0.00000000000E+00  0.54778036421E+03  0.29520077031E+04  0.29007388975E+04 0.  0.
        4    1    3    3  502    0 -0.87998168219E+03 -0.38937344270E+02 -0.89872778260E+03  0.12584105522E+04  0.12699999809E+01 0.  1.
       -4    1    3    3    0  502  0.87998168219E+03  0.38937344270E+02  0.14465081468E+04  0.16935971509E+04  0.12699999809E+01 0. -1.
</event>
<event>
 5   0  0.3770467E-07  0.2899178E+04  0.7818609E-02  0.8273122E-01
        1   -1    0    0  501    0  0.00000000000E+00  0.00000000000E+00  0.19371559539E+04  0.19371559540E+04  0.50400001928E-02 0. -1.
       -1   -1    0    0    0  501  0.00000000000E+00  0.00000000000E+00 -0.10847391876E+04  0.10847391876E+04  0.50400001928E-02 0.  1.
    10030    2    1    2    0    0  0.00000000000E+00  0.00000000000E+00  0.85241676631E+03  0.30218951416E+04  0.28991784877E+04 0.  0.
        1    1    3    3  502    0  0.15570339781E+03 -0.12300527090E+04  0.12090208921E+04  0.17317634748E+04  0.50400001928E-02 0. -1.
       -1    1    3    3    0  502 -0.15570339781E+03  0.12300527090E+04 -0.35660412581E+03  0.12901316668E+04  0.50400001928E-02 0.  1.
</event>
<event>
 5   0  0.1006893E-06  0.2900045E+04  0.7818609E-02  0.8272864E-01
       -2   -1    0    0    0  501  0.00000000000E+00  0.00000000000E+00  0.15663210511E+04  0.15663210511E+04  0.25500000920E-02 0. -1.
        2   -1    0    0  501    0  0.00000000000E+00  0.00000000000E+00 -0.13423593898E+04  0.13423593898E+04  0.25500000920E-02 0.  1.
    10030    2    1    2    0    0  0.00000000000E+00  0.00000000000E+00  0.22396166129E+03  0.29086804409E+04  0.29000453585E+04 0.  0.
        4    1    3    3  502    0  0.70477563028E+03  0.49767934958E+01 -0.11590061392E+04  0.13564771657E+04  0.12699999809E+01 0.  1.
       -4    1    3    3    0  502 -0.70477563028E+03 -0.49767934958E+01  0.13829678005E+04  0.15522032752E+04  0.12699999809E+01 0. -1.
</event>
<event>
 5   0  0.1031339E-06  0.2900530E+04  0.7818609E-02  0.8272720E-01
       -2   -1    0    0    0  501  0.00000000000E+00  0.00000000000E+00  0.12090363773E+04  0.12090363773E+04  0.25500000920E-02 0. -1.
        2   -1    0    0  501    0  0.00000000000E+00  0.00000000000E+00 -0.17396242795E+04  0.17396242795E+04  0.25500000920E-02 0.  1.
    10030    2    1    2    0    0  0.00000000000E+00  0.00000000000E+00 -0.53058790213E+03  0.29486606568E+04  0.29005303217E+04 0.  0.
        5    1    3    3  502    0 -0.13936881999E+03 -0.68744581453E+03 -0.15557039188E+04  0.17065292815E+04  0.46999998093E+01 0.  1.
       -5    1    3    3    0  502  0.13936881999E+03  0.68744581453E+03  0.10251160166E+04  0.12421313753E+04  0.46999998093E+01 0. -1.
</event>
<event>
 5   0  0.3786210E-07  0.2905083E+04  0.7818609E-02  0.8271367E-01
       -1   -1    0    0    0  501  0.00000000000E+00  0.00000000000E+00  0.12344754319E+04  0.12344754319E+04  0.50400001928E-02 0.  1.
        1   -1    0    0  501    0  0.00000000000E+00  0.00000000000E+00 -0.17091287755E+04  0.17091287755E+04  0.50400001928E-02 0. -1.
    10030    2    1    2    0    0  0.00000000000E+00  0.00000000000E+00 -0.47465334358E+03  0.29436042074E+04  0.29050834640E+04 0.  0.
        5    1    3    3  502    0 -0.32093827302E+03 -0.23902984261E+03 -0.16521648978E+04  0.16999434051E+04  0.46999998093E+01 0. -1.
       -5    1    3    3    0  502  0.32093827302E+03  0.23902984261E+03  0.11775115543E+04  0.12436608023E+04  0.46999998093E+01 0.  1.
</event>
<event>
 5   0  0.1063979E-06  0.2891725E+04  0.7818609E-02  0.8275344E-01
       -2   -1    0    0    0  501  0.00000000000E+00  0.00000000000E+00  0.16264788085E+04  0.16264788086E+04  0.25500000920E-02 0.  1.
        2   -1    0    0  501    0  0.00000000000E+00  0.00000000000E+00 -0.12853035552E+04  0.12853035552E+04  0.25500000920E-02 0. -1.
    10030    2    1    2    0    0  0.00000000000E+00  0.00000000000E+00  0.34117525335E+03  0.29117823638E+04  0.28917254331E+04 0.  0.
        1    1    3    3  502    0  0.11005271876E+03  0.27674260046E+03 -0.12540829962E+04  0.12889616865E+04  0.50400001928E-02 0. -1.
       -1    1    3    3    0  502 -0.11005271876E+03 -0.27674260046E+03  0.15952582495E+04  0.16228206773E+04  0.50400001928E-02 0.  1.
</event>
<event>
 5   0  0.9994311E-07  0.2901755E+04  0.7818609E-02  0.8272356E-01
       -2   -1    0    0    0  501  0.00000000000E+00  0.00000000000E+00  0.13084351581E+04  0.13084351581E+04  0.25500000920E-02 0.  1.
        2   -1    0    0  501    0  0.00000000000E+00  0.00000000000E+00 -0.16088263639E+04  0.16088263639E+04  0.25500000920E-02 0. -1.
    10030    2    1    2    0    0  0.00000000000E+00  0.00000000000E+00 -0.30039120580E+03  0.29172615221E+04  0.29017546264E+04 0.  0.
        2    1    3    3  502    0  0.98076906073E+03  0.10143061625E+04  0.18972372139E+03  0.14236291765E+04  0.25500000920E-02 0. -1.
       -2    1    3    3    0  502 -0.98076906073E+03 -0.10143061625E+04 -0.49011492719E+03  0.14936323455E+04  0.25500000920E-02 0.  1.
</event>
<event>
 5   0  0.9994311E-07  0.2891322E+04  0.7818609E-02  0.8275464E-01
        2   -1    0    0  501    0  0.00000000000E+00  0.00000000000E+00  0.18919793896E+04  0.18919793896E+04  0.25500000920E-02 0.  1.
       -2   -1    0    0    0  501  0.00000000000E+00  0.00000000000E+00 -0.11046291882E+04  0.11046291882E+04  0.25500000920E-02 0. -1.
    10030    2    1    2    0    0  0.00000000000E+00  0.00000000000E+00  0.78735020147E+03  0.29966085778E+04  0.28913219518E+04 0.  0.
        2    1    3    3  502    0  0.29381801051E+03 -0.13203502141E+04  0.92243144029E+03  0.16372334816E+04  0.25500000920E-02 0. -1.
       -2    1    3    3    0  502 -0.29381801051E+03  0.13203502141E+04 -0.13508123882E+03  0.13593750962E+04  0.25500000920E-02 0.  1.
</event>
<event>
 5   0  0.3638028E-07  0.2903368E+04  0.7818609E-02  0.8271876E-01
        1   -1    0    0  501    0  0.00000000000E+00  0.00000000000E+00  0.21880425205E+04  0.21880425205E+04  0.50400001928E-02 0.  1.
       -1   -1    0    0    0  501  0.00000000000E+00  0.00000000000E+00 -0.96313781228E+03  0.96313781230E+03  0.50400001928E-02 0. -1.
    10030    2    1    2    0    0  0.00000000000E+00  0.00000000000E+00  0.12249047082E+04  0.31511803328E+04  0.29033680348E+04 0.  0.
        4    1    3    3  502    0  0.13543351582E+02 -0.11132004686E+04 -0.39872554386E+03  0.11825321890E+04  0.12699999809E+01 0. -1.
       -4    1    3    3    0  502 -0.13543351582E+02  0.11132004686E+04  0.16236302521E+04  0.19686481438E+04  0.12699999809E+01 0.  1.
</event>
<event>
 5   0  0.3770467E-07  0.2898359E+04  0.7818609E-02  0.8273366E-01
        1   -1    0    0  501    0  0.00000000000E+00  0.00000000000E+00  0.11506581348E+04  0.11506581348E+04  0.50400001928E-02 0. -1.
       -1   -1    0    0    0  501  0.00000000000E+00  0.00000000000E+00 -0.18251478480E+04  0.18251478480E+04  0.50400001928E-02 0.  1.
    10030    2    1    2    0    0  0.00000000000E+00  0.00000000000E+00 -0.67448971318E+03  0.29758059828E+04  0.28983589968E+04 0.  0.
        1    1    3    3  502    0  0.71315923008E+03 -0.84215110779E+03  0.62716626492E+03  0.12693116637E+04  0.50400001928E-02 0. -1.
       -1    1    3    3    0  502 -0.71315923008E+03  0.84215110779E+03 -0.13016559781E+04  0.17064943191E+04  0.50400001928E-02 0.  1.
</event>
<event>
 5   0  0.1031339E-06  0.2894143E+04  0.7818609E-02  0.8274622E-01
        2   -1    0    0  501    0  0.00000000000E+00  0.00000000000E+00  0.19119479251E+04  0.19119479251E+04  0.25500000920E-02 0. -1.
       -2   -1    0    0    0  501  0.00000000000E+00  0.00000000000E+00 -0.10952268120E+04  0.10952268120E+04  0.25500000920E-02 0.  1.
    10030    2    1    2    0    0  0.00000000000E+00  0.00000000000E+00  0.81672111311E+03  0.30071747372E+04  0.28941434870E+04 0.  0.
        5    1    3    3  502    0 -0.10357899607E+04 -0.61478866143E+03  0.12416598664E+04  0.17299038282E+04  0.46999998093E+01 0. -1.
       -5    1    3    3    0  502  0.10357899607E+04  0.61478866143E+03 -0.42493875328E+03  0.12772709090E+04  0.46999998093E+01 0.  1.
</event>
<event>
 5   0  0.3786210E-07  0.2906576E+04  0.7818609E-02  0.8270923E-01
       -1   -1    0    0    0  501  0.00000000000E+00  0.00000000000E+00  0.14620669396E+04  0.14620669396E+04  0.50400001928E-02 0. -1.
        1   -1    0    0  501    0  0.00000000000E+00  0.00000000000E+00 -0.14445622342E+04  0.14445622342E+04  0.50400001928E-02 0.  1.
    10030    2    1    2    0    0  0.00000000000E+00  0.00000000000E+00  0.17504705340E+02  0.29066291738E+04  0.29065764637E+04 0.  0.
        5    1    3    3  502    0  0.13685239698E+04  0.60002211180E+02  0.49411306127E+03  0.14562375935E+04  0.46999998093E+01 0. -1.
       -5    1    3    3    0  502 -0.13685239698E+04 -0.60002211180E+02 -0.47660835593E+03  0.14503915803E+04  0.46999998093E+01 0.  1.
</event>
<event>
 5   0  0.9994311E-07  0.2903098E+04  0.7818609E-02  0.8271956E-01
        2   -1    0    0  501    0  0.00000000000E+00  0.00000000000E+00  0.18723650766E+04  0.18723650766E+04  0.25500000920E-02 0. -1.
       -2   -1    0    0    0  501  0.00000000000E+00  0.00000000000E+00 -0.11253121489E+04  0.11253121489E+04  0.25500000920E-02 0.  1.
    10030    2    1    2    0    0  0.00000000000E+00  0.00000000000E+00  0.74705292774E+03  0.29976772254E+04  0.29030984605E+04 0.  0.
        2    1    3    3  502    0 -0.69187533297E+03  0.79049803870E+03 -0.66081451537E+03  0.12410698809E+04  0.25500000920E-02 0.  1.
       -2    1    3    3    0  502  0.69187533297E+03 -0.79049803870E+03  0.14078674431E+04  0.17566073445E+04  0.25500000920E-02 0. -1.
</event>
<event>
 5   0  0.1006893E-06  0.2898893E+04  0.7818609E-02  0.8273207E-01
        2   -1    0    0  501    0  0.00000000000E+00  0.00000000000E+00  0.17152756134E+04  0.17152756134E+04  0.25500000920E-02 0. -1.
       -2   -1    0    0    0  501  0.00000000000E+00  0.00000000000E+00 -0.12248146029E+04  0.12248146029E+04  0.25500000920E-02 0.  1.
    10030    2    1    2    0    0  0.00000000000E+00  0.00000000000E+00  0.49046101055E+03  0.29400902163E+04  0.28988926295E+04 0.  0.
        4    1    3    3  502    0 -0.28653696749E+03 -0.37523593132E+03  0.16351027535E+04  0.17019013089E+04  0.12699999809E+01 0. -1.
       -4    1    3    3    0  502  0.28653696749E+03  0.37523593132E+03 -0.11446417429E+04  0.12381889074E+04  0.12699999809E+01 0.  1.
</event>
<event>
 5   0  0.3638028E-07  0.2899074E+04  0.7818609E-02  0.8273153E-01
       -1   -1    0    0    0  501  0.00000000000E+00  0.00000000000E+00  0.18635373725E+04  0.18635373725E+04  0.50400001928E-02 0.  1.
        1   -1    0    0  501    0  0.00000000000E+00  0.00000000000E+00 -0.11275101764E+04  0.11275101765E+04  0.50400001928E-02 0. -1.
    10030    2    1    2    0    0  0.00000000000E+00  0.00000000000E+00  0.73602719605E+03  0.29910475490E+04  0.28990738878E+04 0.  0.
        4    1    3    3  502    0  0.10815624959E+04 -0.96502857468E+03  0.37823530397E+03  0.14980390984E+04  0.12699999809E+01 0. -1.
       -4    1    3    3    0  502 -0.10815624959E+04  0.96502857468E+03  0.35779189207E+03  0.14930084505E+04  0.12699999809E+01 0.  1.
</event>
<event>
 5   0  0.1031339E-06  0.2900862E+04  0.7818609E-02  0.8272621E-01
       -2   -1    0    0    0  501  0.00000000000E+00  0.00000000000E+00  0.15333505430E+04  0.15333505430E+04  0.25500000920E-02 0.  1.
        2   -1    0    0  501    0  0.00000000000E+00  0.00000000000E+00 -0.13719953084E+04  0.13719953084E+04  0.25500000920E-02 0. -1.
    10030    2    1    2    0    0  0.00000000000E+00  0.00000000000E+00  0.16135523462E+03  0.29053458514E+04  0.29008617693E+04 0.  0.
        5    1    3    3  502    0 -0.21131203302E+03  0.92134625033E+03  0.11824671834E+04  0.15138634080E+04  0.46999998093E+01 0.  1.
       -5    1    3    3    0  502  0.21131203302E+03 -0.92134625033E+03 -0.10211119488E+04  0.13914824434E+04  0.46999998093E+01 0. -1.
</event>
<event>
 5   0  0.9950999E-07  0.2902080E+04  0.7818609E-02  0.8272259E-01
        2   -1    0    0  501    0  0.00000000000E+00  0.00000000000E+00  0.14148967568E+04  0.14148967568E+04  0.25500000920E-02 0. -1.
       -2   -1    0    0    0  501  0.00000000000E+00  0.00000000000E+00 -0.14881063984E+04  0.14881063984E+04  0.25500000920E-02 0.  1.
    10030    2    1    2    0    0  0.00000000000E+00  0.00000000000E+00 -0.73209641608E+02  0.29030031553E+04  0.29020798865E+04 0.  0.
        3    1    3    3  502    0  0.52563518730E+03 -0.98277264072E+03 -0.96608420965E+03  0.14749417357E+04  0.10100000352E+00 0.  1.
       -3    1    3    3    0  502 -0.52563518730E+03  0.98277264072E+03  0.89287456805E+03  0.14280614195E+04  0.10100000352E+00 0. -1.
</event>
<event>
 5   0  0.1006893E-06  0.2899708E+04  0.7818609E-02  0.8272965E-01
       -2   -1    0    0    0  501  0.00000000000E+00  0.00000000000E+00  0.17257527076E+04  0.17257527076E+04  0.25500000920E-02 0.  1.
        2   -1    0    0  501    0  0.00000000000E+00  0.00000000000E+00 -0.12180632250E+04  0.12180632250E+04  0.25500000920E-02 0. -1.
    10030    2    1    2    0    0  0.00000000000E+00  0.00000000000E+00  0.50768948261E+03  0.29438159326E+04  0.28997075084E+04 0.  0.
        4    1    3    3  502    0  0.25375246524E+03 -0.68059199920E+03 -0.10200244299E+04  0.12522169275E+04  0.12699999809E+01 0. -1.
       -4    1    3    3    0  502 -0.25375246524E+03  0.68059199920E+03  0.15277139125E+04  0.16915990052E+04  0.12699999809E+01 0.  1.
</event>
<event>
 5   0  0.3885904E-07  0.2912241E+04  0.7818609E-02  0.8269245E-01
       -1   -1    0    0    0  501  0.00000000000E+00  0.00000000000E+00  0.18626316927E+04  0.18626316927E+04  0.50400001928E-02 0. -1.
        1   -1    0    0  501    0  0.00000000000E+00  0.00000000000E+00 -0.11383282529E+04  0.11383282530E+04  0.50400001928E-02 0.  1.
    10030    2    1    2    0    0  0.00000000000E+00  0.00000000000E+00  0.72430343980E+03  0.30009599457E+04  0.29122405675E+04 0.  0.
        2    1    3    3  502    0 -0.42538517062E+03 -0.13641180995E+04  0.73409172105E+02  0.14307898656E+04  0.25500000920E-02 0.  1.
       -2    1    3    3    0  502  0.42538517062E+03  0.13641180995E+04  0.65089426769E+03  0.15701700801E+04  0.25500000920E-02 0. -1.
</event>
<event>
 5   0  0.9950999E-07  0.2902739E+04  0.7818609E-02  0.8272063E-01
        2   -1    0    0  501    0  0.00000000000E+00  0.00000000000E+00  0.29638889212E+04  0.29638889212E+04  0.25500000920E-02 0.  1.
       -2   -1    0    0    0  501  0.00000000000E+00  0.00000000000E+00 -0.71071245028E+03  0.71071245029E+03  0.25500000920E-02 0. -1.
    10030    2    1    2    0    0  0.00000000000E+00  0.00000000000E+00  0.22531764709E+04  0.36746013715E+04  0.29027385398E+04 0.  0.
        3    1    3    3  502    0  0.94573951818E+03 -0.10301759291E+04  0.63501937975E+03  0.15358825814E+04  0.10100000352E+00 0. -1.
       -3    1    3    3    0  502 -0.94573951818E+03  0.10301759291E+04  0.16181570912E+04  0.21387187901E+04  0.10100000352E+00 0.  1.
</event>
<event>
 5   0  0.3786210E-07  0.2902489E+04  0.7818609E-02  0.8272137E-01
       -1   -1    0    0    0  501  0.00000000000E+00  0.00000000000E+00  0.11988875737E+04  0.11988875737E+04  0.50400001928E-02 0. -1.
        1   -1    0    0  501    0  0.00000000000E+00  0.00000000000E+00 -0.17567209743E+04  0.17567209743E+04  0.50400001928E-02 0.  1.
    10030    2    1    2    0    0  0.00000000000E+00  0.00000000000E+00 -0.55783340061E+03  0.29556085480E+04  0.29024892396E+04 0.  0.
        5    1    3    3  502    0  0.79642564003E+03  0.95638106873E+03  0.48115521899E+03  0.13343503976E+04  0.46999998093E+01 0.  1.
       -5    1    3    3    0  502 -0.79642564003E+03 -0.95638106873E+03 -0.10389886196E+04  0.16212581504E+04  0.46999998093E+01 0. -1.
</event>
<event>
 5   0  0.1006893E-06  0.2899023E+04  0.7818609E-02  0.8273168E-01
       -2   -1    0    0    0  501  0.00000000000E+00  0.00000000000E+00  0.12247034200E+04  0.12247034200E+04  0.25500000920E-02 0. -1.
        2   -1    0    0  501    0  0.00000000000E+00  0.00000000000E+00 -0.17155860416E+04  0.17155860416E+04  0.25500000920E-02 0.  1.
    10030    2    1    2    0    0  0.00000000000E+00  0.00000000000E+00 -0.49088262161E+03  0.29402894616E+04  0.28990233475E+04 0.  0.
        4    1    3    3  502    0 -0.25880149435E+03  0.26338018850E+02 -0.16917164243E+04  0.17116009985E+04  0.12699999809E+01 0.  1.
       -4    1    3    3    0  502  0.25880149435E+03 -0.26338018850E+02  0.12008338027E+04  0.12286884631E+04  0.12699999809E+01 0. -1.
</event>
<event>
 5   0  0.3770467E-07  0.2886077E+04  0.7818609E-02  0.8277032E-01
        1   -1    0    0  501    0  0.00000000000E+00  0.00000000000E+00  0.24721637588E+04  0.24721637588E+04  0.50400001928E-02 0.  1.
       -1   -1    0    0    0  501  0.00000000000E+00  0.00000000000E+00 -0.84232308986E+03  0.84232308988E+03  0.50400001928E-02 0. -1.
    10030    2    1    2    0    0  0.00000000000E+00  0.00000000000E+00  0.16298406689E+04  0.33144868487E+04  0.28860773489E+04 0.  0.
        1    1    3    3  502    0 -0.10906099682E+04 -0.82390977023E+03  0.13463183359E+04  0.19185490544E+04  0.50400001928E-02 0.  1.
       -1    1    3    3    0  502  0.10906099682E+04  0.82390977023E+03  0.28352233299E+03  0.13959377943E+04  0.50400001928E-02 0. -1.
</event>
<event>
 5   0  0.1031339E-06  0.2899885E+04  0.7818609E-02  0.8272912E-01
       -2   -1    0    0    0  501  0.00000000000E+00  0.00000000000E+00  0.15842872211E+04  0.15842872211E+04  0.25500000920E-02 0. -1.
        2   -1    0    0  501    0  0.00000000000E+00  0.00000000000E+00 -0.13269896588E+04  0.13269896588E+04  0.25500000920E-02 0.  1.
    10030    2    1    2    0    0  0.00000000000E+00  0.00000000000E+00  0.25729756235E+03  0.29112768799E+04  0.28998846591E+04 0.  0.
        5    1    3    3  502    0 -0.85961510210E+03 -0.66052715034E+03  0.10952794198E+04  0.15410688944E+04  0.46999998093E+01 0. -1.
       -5    1    3    3    0  502  0.85961510210E+03  0.66052715034E+03 -0.83798185740E+03  0.13702079855E+04  0.46999998093E+01 0.  1.
</event>
<event>
 5   0  0.3786210E-07  0.2902656E+04  0.7818609E-02  0.8272088E-01
        1   -1    0    0  501    0  0.00000000000E+00  0.00000000000E+00  0.13308964799E+04  0.13308964799E+04  0.50400001928E-02 0.  1.
       -1   -1    0    0    0  501  0.00000000000E+00  0.00000000000E+00 -0.15826569621E+04  0.15826569621E+04  0.50400001928E-02 0. -1.
    10030    2    1    2    0    0  0.00000000000E+00  0.00000000000E+00 -0.25176048223E+03  0.29135534419E+04  0.29026557355E+04 0.  0.
        5    1    3    3  502    0  0.44790165152E+03 -0.13740820512E+04  0.73324391272E+01  0.14452657982E+04  0.46999998093E+01 0.  1.
       -5    1    3    3    0  502 -0.44790165152E+03  0.13740820512E+04 -0.25909292136E+03  0.14682876437E+04  0.46999998093E+01 0. -1.
</event>
<event>
 5   0  0.3786210E-07  0.2898123E+04  0.7818609E-02  0.8273436E-01
       -1   -1    0    0    0  501  0.00000000000E+00  0.00000000000E+00  0.83829842351E+03  0.83829842352E+03  0.50400001928E-02 0.  1.
        1   -1    0    0  501    0  0.00000000000E+00  0.00000000000E+00 -0.25048118927E+04  0.25048118927E+04  0.50400001928E-02 0. -1.
    10030    2    1    2    0    0  0.00000000000E+00  0.00000000000E+00 -0.16665134692E+04  0.33431103162E+04  0.28981234348E+04 0.  0.
        5    1    3    3  502    0 -0.23406053377E+03  0.58872150107E+03 -0.23365763274E+04  0.24209478233E+04  0.46999998093E+01 0. -1.
       -5    1    3    3    0  502  0.23406053377E+03 -0.58872150107E+03  0.67006285826E+03  0.92216249290E+03  0.46999998093E+01 0.  1.
</event>
<event>
 5   0  0.1031339E-06  0.2897730E+04  0.7818609E-02  0.8273553E-01
        2   -1    0    0  501    0  0.00000000000E+00  0.00000000000E+00  0.82027452766E+03  0.82027452767E+03  0.25500000920E-02 0.  1.
       -2   -1    0    0    0  501  0.00000000000E+00  0.00000000000E+00 -0.25591551726E+04  0.25591551726E+04  0.25500000920E-02 0. -1.
    10030    2    1    2    0    0  0.00000000000E+00  0.00000000000E+00 -0.17388806449E+04  0.33794297003E+04  0.28977300084E+04 0.  0.
        5    1    3    3  502    0 -0.77646467539E+03 -0.86376050449E+03  0.14068759799E+03  0.11699549955E+04  0.46999998093E+01 0.  1.
       -5    1    3    3    0  502  0.77646467539E+03  0.86376050449E+03 -0.18795682429E+04  0.22094747048E+04  0.46999998093E+01 0. -1.
</event>
<event>
 5   0  0.3638028E-07  0.2898713E+04  0.7818609E-02  0.8273260E-01
        1   -1    0    0  501    0  0.00000000000E+00  0.00000000000E+00  0.70121153789E+03  0.70121153791E+03  0.50400001928E-02 0.  1.
       -1   -1    0    0    0  501  0.00000000000E+00  0.00000000000E+00 -0.29957221786E+04  0.29957221786E+04  0.50400001928E-02 0. -1.
    10030    2    1    2    0    0  0.00000000000E+00  0.00000000000E+00 -0.22945106407E+04  0.36969337165E+04  0.28987134774E+04 0.  0.
        4    1    3    3  502    0  0.49735289617E+03 -0.13610783544E+04 -0.11819292865E+04  0.18699873372E+04  0.12699999809E+01 0. -1.
       -4    1    3    3    0  502 -0.49735289617E+03  0.13610783544E+04 -0.11125813541E+04  0.18269463792E+04  0.12699999809E+01 0.  1.
</event>
<event>
 5   0  0.3638028E-07  0.2899720E+04  0.7818609E-02  0.8272961E-01
        1   -1    0    0  501    0  0.00000000000E+00  0.00000000000E+00  0.13957948705E+04  0.13957948705E+04  0.50400001928E-02 0. -1.
       -1   -1    0    0    0  501  0.00000000000E+00  0.00000000000E+00 -0.15060198155E+04  0.15060198155E+04  0.50400001928E-02 0.  1.
    10030    2    1    2    0    0  0.00000000000E+00  0.00000000000E+00 -0.11022494501E+03  0.29018146860E+04  0.28997204923E+04 0.  0.
        4    1    3    3  502    0 -0.36719134055E+03 -0.14005950533E+04  0.19755571238E+02  0.14480634929E+04  0.12699999809E+01 0. -1.
       -4    1    3    3    0  502  0.36719134055E+03  0.14005950533E+04 -0.12998051624E+03  0.14537511931E+04  0.12699999809E+01 0.  1.
</event>
<event>
 5   0  0.3786210E-07  0.2900272E+04  0.7818609E-02  0.8272797E-01
       -1   -1    0    0    0  501  0.00000000000E+00  0.00000000000E+00  0.14472231196E+04  0.14472231196E+04  0.50400001928E-02 0.  1.
        1   -1    0    0  501    0  0.00000000000E+00  0.00000000000E+00 -0.14530544502E+04  0.14530544502E+04  0.50400001928E-02 0. -1.
    10030    2    1    2    0    0  0.00000000000E+00  0.00000000000E+00 -0.58313305613E+01  0.29002775698E+04  0.29002717076E+04 0.  0.
        5    1    3    3  502    0  0.20259804631E+03 -0.10527855338E+04 -0.97937478390E+03  0.14521020646E+04  0.46999998093E+01 0. -1.
       -5    1    3    3    0  502 -0.20259804631E+03  0.10527855338E+04  0.97354345334E+03  0.14481755053E+04  0.46999998093E+01 0.  1.
</event>
<event>
 5   0  0.3638028E-07  0.2897089E+04  0.7818609E-02  0.8273744E-01
       -1   -1    0    0    0  501  0.00000000000E+00  0.00000000000E+00  0.91851818204E+03  0.91851818205E+03  0.50400001928E-02 0. -1.
        1   -1    0    0  501    0  0.00000000000E+00  0.00000000000E+00 -0.22844200442E+04  0.22844200442E+04  0.50400001928E-02 0.  1.
    10030    2    1    2    0    0  0.00000000000E+00  0.00000000000E+00 -0.13659018622E+04  0.32029382263E+04  0.28970891226E+04 0.  0.
        4    1    3    3  502    0 -0.15173913298E+03 -0.12181243631E+04 -0.15331833289E+04  0.19640530699E+04  0.12699999809E+01 0.  1.
       -4    1    3    3    0  502  0.15173913298E+03  0.12181243631E+04  0.16728146678E+03  0.12388851563E+04  0.12699999809E+01 0. -1.
</event>
<event>
 5   0  0.3638028E-07  0.2918503E+04  0.7818609E-02  0.8267393E-01
        1   -1    0    0  501    0  0.00000000000E+00  0.00000000000E+00  0.19956272489E+04  0.19956272489E+04  0.50400001928E-02 0. -1.
       -1   -1    0    0    0  501  0.00000000000E+00  0.00000000000E+00 -0.10670405062E+04  0.10670405062E+04  0.50400001928E-02 0.  1.
    10030    2    1    2    0    0  0.00000000000E+00  0.00000000000E+00  0.92858674276E+03  0.30626677551E+04  0.29185031162E+04 0.  0.
        4    1    3    3  502    0 -0.52399712216E+02 -0.25744179658E+03 -0.10420174578E+04  0.10746273790E+04  0.12699999809E+01 0.  1.
       -4    1    3    3    0  502  0.52399712216E+02  0.25744179658E+03  0.19706042006E+04  0.19880403760E+04  0.12699999809E+01 0. -1.
</event>
<event>
 5   0  0.3638028E-07  0.2896519E+04  0.7818609E-02  0.8273914E-01
        1   -1    0    0  501    0  0.00000000000E+00  0.00000000000E+00  0.14848565640E+04  0.14848565640E+04  0.50400001928E-02 0.  1.
       -1   -1    0    0    0  501  0.00000000000E+00  0.00000000000E+00 -0.14125642607E+04  0.14125642607E+04  0.50400001928E-02 0. -1.
    10030    2    1    2    0    0  0.00000000000E+00  0.00000000000E+00  0.72292303313E+02  0.28974208247E+04  0.28965188172E+04 0.  0.
        4    1    3    3  502    0 -0.95040114472E+03  0.22876049996E+03  0.11050574134E+04  0.14753803584E+04  0.12699999809E+01 0.  1.
       -4    1    3    3    0  502  0.95040114472E+03 -0.22876049996E+03 -0.10327651101E+04  0.14220404663E+04  0.12699999809E+01 0. -1.
</event>
<event>
 5   0  0.3770467E-07  0.2895399E+04  0.7818609E-02  0.8274248E-01
       -1   -1    0    0    0  501  0.00000000000E+00  0.00000000000E+00  0.27381344659E+04  0.27381344660E+04  0.50400001928E-02 0. -1.
        1   -1    0    0  501    0  0.00000000000E+00  0.00000000000E+00 -0.76542385292E+03  0.76542385294E+03  0.50400001928E-02 0.  1.
    10030    2    1    2    0    0  0.00000000000E+00  0.00000000000E+00  0.19727106130E+04  0.35035583189E+04  0.28953987171E+04 0.  0.
        1    1    3    3  502    0  0.14286473735E+04  0.60259018880E+02  0.12600738950E+04  0.19058989187E+04  0.50400001928E-02 0.  1.
       -1    1    3    3    0  502 -0.14286473735E+04 -0.60259018880E+02  0.71263671800E+03  0.15976594002E+04  0.50400001928E-02 0. -1.
</event>
<event>
 5   0  0.9994311E-07  0.2905268E+04  0.7818609E-02  0.8271312E-01
       -2   -1    0    0    0  501  0.00000000000E+00  0.00000000000E+00  0.13126191691E+04  0.13126191691E+04  0.25500000920E-02 0. -1.
        2   -1    0    0  501    0  0.00000000000E+00  0.00000000000E+00 -0.16075844965E+04  0.16075844966E+04  0.25500000920E-02 0.  1.
    10030    2    1    2    0    0  0.00000000000E+00  0.00000000000E+00 -0.29496532744E+03  0.29202036657E+04  0.29052684737E+04 0.  0.
        2    1    3    3  502    0  0.80749559969E+03 -0.76791565926E+03  0.78918911109E+03  0.13654900426E+04  0.25500000920E-02 0. -1.
       -2    1    3    3    0  502 -0.80749559969E+03  0.76791565926E+03 -0.10841544385E+04  0.15547136231E+04  0.25500000920E-02 0.  1.
</event>
<event>
 5   0  0.3770467E-07  0.2893959E+04  0.7818609E-02  0.8274677E-01
        1   -1    0    0  501    0  0.00000000000E+00  0.00000000000E+00  0.20376741211E+04  0.20376741211E+04  0.50400001928E-02 0. -1.
       -1   -1    0    0    0  501  0.00000000000E+00  0.00000000000E+00 -0.10275196502E+04  0.10275196502E+04  0.50400001928E-02 0.  1.
    10030    2    1    2    0    0  0.00000000000E+00  0.00000000000E+00  0.10101544709E+04  0.30651937713E+04  0.28939593640E+04 0.  0.
        1    1    3    3  502    0  0.10481258661E+04  0.97201614348E+03  0.26737214288E+03  0.14542596320E+04  0.50400001928E-02 0.  1.
       -1    1    3    3    0  502 -0.10481258661E+04 -0.97201614348E+03  0.74278232802E+03  0.16109341393E+04  0.50400001928E-02 0. -1.
</event>
<event>
 5   0  0.3770467E-07  0.2901955E+04  0.7818609E-02  0.8272296E-01
       -1   -1    0    0    0  501  0.00000000000E+00  0.00000000000E+00  0.10280405594E+04  0.10280405594E+04  0.50400001928E-02 0. -1.
        1   -1    0    0  501    0  0.00000000000E+00  0.00000000000E+00 -0.20479106483E+04  0.20479106483E+04  0.50400001928E-02 0.  1.
    10030    2    1    2    0    0  0.00000000000E+00  0.00000000000E+00 -0.10198700888E+04  0.30759512077E+04  0.29019546575E+04 0.  0.
        1    1    3    3  502    0  0.93132445109E+02 -0.70047497733E+03 -0.18531981870E+04  0.19833512968E+04  0.50400001928E-02 0.  1.
       -1    1    3    3    0  502 -0.93132445109E+02  0.70047497733E+03  0.83332809814E+03  0.10925999109E+04  0.50400001928E-02 0. -1.
</event>
<event>
 5   0  0.1031339E-06  0.2900675E+04  0.7818609E-02  0.8272677E-01
        2   -1    0    0  501    0  0.00000000000E+00  0.00000000000E+00  0.17182205177E+04  0.17182205177E+04  0.25500000920E-02 0. -1.
       -2   -1    0    0    0  501  0.00000000000E+00  0.00000000000E+00 -0.12242193313E+04  0.12242193313E+04  0.25500000920E-02 0.  1.
    10030    2    1    2    0    0  0.00000000000E+00  0.00000000000E+00  0.49400118638E+03  0.29424398490E+04  0.29006749374E+04 0.  0.
        5    1    3    3  502    0 -0.68934421631E+03 -0.67425922986E+03 -0.85194246865E+03  0.12867202561E+04  0.46999998093E+01 0.  1.
       -5    1    3    3    0  502  0.68934421631E+03  0.67425922986E+03  0.13459436550E+04  0.16557195928E+04  0.46999998093E+01 0. -1.
</event>
<event>
 5   0  0.3378750E-07  0.2903855E+04  0.7818609E-02  0.8271731E-01
       -4   -1    0    0    0  501  0.00000000000E+00  0.00000000000E+00  0.16553665638E+04  0.16553670510E+04  0.12699999809E+01 0. -1.
        4   -1    0    0  501    0  0.00000000000E+00  0.00000000000E+00 -0.12734892810E+04  0.12734899143E+04  0.12699999809E+01 0.  1.
    10030    2    1    2    0    0  0.00000000000E+00  0.00000000000E+00  0.38187728280E+03  0.29288569653E+04  0.29038548283E+04 0.  0.
        4    1    3    3  502    0  0.75417768606E+03  0.97855016531E+03  0.96022921478E+03  0.15647319790E+04  0.12699999809E+01 0.  1.
       -4    1    3    3    0  502 -0.75417768606E+03 -0.97855016531E+03 -0.57835193198E+03  0.13641249863E+04  0.12699999809E+01 0. -1.
</event>
<event>
 5   0  0.3769563E-07  0.2899174E+04  0.7818609E-02  0.8273123E-01
       -1   -1    0    0    0  501  0.00000000000E+00  0.00000000000E+00  0.95979455629E+03  0.95979455631E+03  0.50400001928E-02 0. -1.
        1   -1    0    0  501    0  0.00000000000E+00  0.00000000000E+00 -0.21893253606E+04  0.21893253606E+04  0.50400001928E-02 0.  1.
    10030    2    1    2    0    0  0.00000000000E+00  0.00000000000E+00 -0.12295308043E+04  0.31491199169E+04  0.28991740638E+04 0.  0.
        3    1    3    3  502    0 -0.96211309009E+03 -0.86216363274E+02 -0.17887838978E+04  0.20329394242E+04  0.10100000352E+00 0.  1.
       -3    1    3    3    0  502  0.96211309009E+03  0.86216363274E+02  0.55925309349E+03  0.11161804927E+04  0.10100000352E+00 0. -1.
</event>
<event>
 5   0  0.3638028E-07  0.2889737E+04  0.7818609E-02  0.8275938E-01
        1   -1    0    0  501    0  0.00000000000E+00  0.00000000000E+00  0.15339947099E+04  0.15339947099E+04  0.50400001928E-02 0.  1.
       -1   -1    0    0    0  501  0.00000000000E+00  0.00000000000E+00 -0.13609204449E+04  0.13609204449E+04  0.50400001928E-02 0. -1.
    10030    2    1    2    0    0  0.00000000000E+00  0.00000000000E+00  0.17307426503E+03  0.28949151548E+04  0.28897368482E+04 0.  0.
        4    1    3    3  502    0 -0.84981401762E+03 -0.96850152405E+03  0.74151610719E+03  0.14866158942E+04  0.12699999809E+01 0.  1.
       -4    1    3    3    0  502  0.84981401762E+03  0.96850152405E+03 -0.56844184216E+03  0.14082992606E+04  0.12699999809E+01 0. -1.
</event>
<event>
 5   0  0.3638028E-07  0.2895304E+04  0.7818609E-02  0.8274276E-01
       -1   -1    0    0    0  501  0.00000000000E+00  0.00000000000E+00  0.12948112117E+04  0.12948112117E+04  0.50400001928E-02 0.  1.
        1   -1    0    0  501    0  0.00000000000E+00  0.00000000000E+00 -0.16185347362E+04  0.16185347362E+04  0.50400001928E-02 0. -1.
    10030    2    1    2    0    0  0.00000000000E+00  0.00000000000E+00 -0.32372352450E+03  0.29133459478E+04  0.28953044212E+04 0.  0.
        4    1    3    3  502    0 -0.12562328270E+04 -0.21445221815E+03  0.52913760665E+03  0.13798908975E+04  0.12699999809E+01 0.  1.
       -4    1    3    3    0  502  0.12562328270E+04  0.21445221815E+03 -0.85286113114E+03  0.15334550503E+04  0.12699999809E+01 0. -1.
</event>
<event>
 5   0  0.1006893E-06  0.2900968E+04  0.7818609E-02  0.8272590E-01
       -2   -1    0    0    0  501  0.00000000000E+00  0.00000000000E+00  0.10877909813E+04  0.10877909813E+04  0.25500000920E-02 0.  1.
        2   -1    0    0  501    0  0.00000000000E+00  0.00000000000E+00 -0.19341067050E+04  0.19341067050E+04  0.25500000920E-02 0. -1.
    10030    2    1    2    0    0  0.00000000000E+00  0.00000000000E+00 -0.84631572364E+03  0.30218976863E+04  0.29009679975E+04 0.  0.
        4    1    3    3  502    0 -0.13735815285E+04  0.27584698372E+03 -0.31888012020E+02  0.14013694131E+04  0.12699999809E+01 0.  1.
       -4    1    3    3    0  502  0.13735815285E+04 -0.27584698372E+03 -0.81442771162E+03  0.16205282732E+04  0.12699999809E+01 0. -1.
</event>
<event>
 5   0  0.3378750E-07  0.2908160E+04  0.7818609E-02  0.8270454E-01
       -3   -1    0    0    0  501  0.00000000000E+00  0.00000000000E+00  0.16098758907E+04  0.16098758938E+04  0.10100000352E+00 0. -1.
        3   -1    0    0  501    0  0.00000000000E+00  0.00000000000E+00 -0.13133610566E+04  0.13133610604E+04  0.10100000352E+00 0.  1.
    10030    2    1    2    0    0  0.00000000000E+00  0.00000000000E+00  0.29651483411E+03  0.29232369543E+04  0.29081597694E+04 0.  0.
        3    1    3    3  502    0  0.10710668585E+04  0.40467254346E+03 -0.75271773078E+03  0.13702292054E+04  0.10100000352E+00 0.  1.
       -3    1    3    3    0  502 -0.10710668585E+04 -0.40467254346E+03  0.10492325649E+04  0.15530077489E+04  0.10100000352E+00 0. -1.
</event>
<event>
 5   0  0.3769563E-07  0.2897261E+04  0.7818609E-02  0.8273693E-01
       -1   -1    0    0    0  501  0.00000000000E+00  0.00000000000E+00  0.14052610721E+04  0.14052610721E+04  0.50400001928E-02 0. -1.
        1   -1    0    0  501    0  0.00000000000E+00  0.00000000000E+00 -0.14933381222E+04  0.14933381222E+04  0.50400001928E-02 0.  1.
    10030    2    1    2    0    0  0.00000000000E+00  0.00000000000E+00 -0.88077050132E+02  0.28985991944E+04  0.28972607274E+04 0.  0.
        3    1    3    3  502    0 -0.68565391458E+03  0.10611472853E+03 -0.13162974645E+04  0.14879585517E+04  0.10100000352E+00 0.  1.
       -3    1    3    3    0  502  0.68565391458E+03 -0.10611472853E+03  0.12282204144E+04  0.14106406427E+04  0.10100000352E+00 0. -1.
</event>
<event>
 5   0  0.9994311E-07  0.2908011E+04  0.7818609E-02  0.8270498E-01
       -2   -1    0    0    0  501  0.00000000000E+00  0.00000000000E+00  0.90538424020E+03  0.90538424021E+03  0.25500000920E-02 0.  1.
        2   -1    0    0  501    0  0.00000000000E+00  0.00000000000E+00 -0.23350665780E+04  0.23350665780E+04  0.25500000920E-02 0. -1.
    10030    2    1    2    0    0  0.00000000000E+00  0.00000000000E+00 -0.14296823378E+04  0.32404508182E+04  0.29080113339E+04 0.  0.
        2    1    3    3  502    0  0.54547159559E+03  0.11341729623E+03  0.78172206569E+03  0.95994381746E+03  0.25500000920E-02 0.  1.
       -2    1    3    3    0  502 -0.54547159559E+03 -0.11341729623E+03 -0.22114044035E+04  0.22805070008E+04  0.25500000920E-02 0. -1.
</event>
<event>
 5   0  0.1031339E-06  0.2904446E+04  0.7818609E-02  0.8271556E-01
       -2   -1    0    0    0  501  0.00000000000E+00  0.00000000000E+00  0.13442481022E+04  0.13442481022E+04  0.25500000920E-02 0.  1.
        2   -1    0    0  501    0  0.00000000000E+00  0.00000000000E+00 -0.15688709553E+04  0.15688709553E+04  0.25500000920E-02 0. -1.
    10030    2    1    2    0    0  0.00000000000E+00  0.00000000000E+00 -0.22462285302E+03  0.29131190575E+04  0.29044461119E+04 0.  0.
        5    1    3    3  502    0  0.47046721550E+03 -0.13575480633E+04  0.99633487784E+02  0.14402170208E+04  0.46999998093E+01 0.  1.
       -5    1    3    3    0  502 -0.47046721550E+03  0.13575480633E+04 -0.32425634080E+03  0.14729020367E+04  0.46999998093E+01 0. -1.
</event>
<event>
 5   0  0.9950999E-07  0.2902519E+04  0.7818609E-02  0.8272128E-01
        2   -1    0    0  501    0  0.00000000000E+00  0.00000000000E+00  0.18582717484E+04  0.18582717484E+04  0.25500000920E-02 0.  1.
       -2   -1    0    0    0  501  0.00000000000E+00  0.00000000000E+00 -0.11333939890E+04  0.11333939890E+04  0.25500000920E-02 0. -1.
    10030    2    1    2    0    0  0.00000000000E+00  0.00000000000E+00  0.72487775944E+03  0.29916657374E+04  0.29025189264E+04 0.  0.
        3    1    3    3  502    0 -0.12660987075E+04  0.70154168282E+03  0.25439890404E+03  0.14696548855E+04  0.10100000352E+00 0.  1.
       -3    1    3    3    0  502  0.12660987075E+04 -0.70154168282E+03  0.47047885541E+03  0.15220108519E+04  0.10100000352E+00 0. -1.
</event>
<event>
 5   0  0.3885904E-07  0.2897064E+04  0.7818609E-02  0.8273751E-01
        1   -1    0    0  501    0  0.00000000000E+00  0.00000000000E+00  0.31788004538E+04  0.31788004538E+04  0.50400001928E-02 0.  1.
       -1   -1    0    0    0  501  0.00000000000E+00  0.00000000000E+00 -0.66007455872E+03  0.66007455874E+03  0.50400001928E-02 0. -1.
    10030    2    1    2    0    0  0.00000000000E+00  0.00000000000E+00  0.25187258951E+04  0.38388750126E+04  0.28970642429E+04 0.  0.
        2    1    3    3  502    0 -0.95155071642E+03 -0.10408087881E+04  0.16978733388E+04  0.22071487431E+04  0.25500000920E-02 0.  1.
       -2    1    3    3    0  502  0.95155071642E+03  0.10408087881E+04  0.82085255629E+03  0.16317262695E+04  0.25500000920E-02 0. -1.
</event>
<event>
 5   0  0.9950999E-07  0.2870464E+04  0.7818609E-02  0.8281720E-01
       -2   -1    0    0    0  501  0.00000000000E+00  0.00000000000E+00  0.96783051396E+03  0.96783051396E+03  0.25500000920E-02 0. -1.
        2   -1    0    0  501    0  0.00000000000E+00  0.00000000000E+00 -0.21283585545E+04  0.21283585545E+04  0.25500000920E-02 0.  1.
    10030    2    1    2    0    0  0.00000000000E+00  0.00000000000E+00 -0.11605280405E+04  0.30961890684E+04  0.28704636236E+04 0.  0.
        3    1    3    3  502    0  0.10622596259E+04 -0.24113028517E+03 -0.15882856249E+04  0.19259258978E+04  0.10100000352E+00 0.  1.
       -3    1    3    3    0  502 -0.10622596259E+04  0.24113028517E+03  0.42775758442E+03  0.11702631706E+04  0.10100000352E+00 0. -1.
</event>
<event>
 5   0  0.3786210E-07  0.2901467E+04  0.7818609E-02  0.8272441E-01
       -1   -1    0    0    0  501  0.00000000000E+00  0.00000000000E+00  0.16875888152E+04  0.16875888152E+04  0.50400001928E-02 0.  1.
        1   -1    0    0  501    0  0.00000000000E+00  0.00000000000E+00 -0.12471213213E+04  0.12471213213E+04  0.50400001928E-02 0. -1.
    10030    2    1    2    0    0  0.00000000000E+00  0.00000000000E+00  0.44046749387E+03  0.29347101365E+04  0.29014672102E+04 0.  0.
        5    1    3    3  502    0 -0.91658422238E+03 -0.36243155287E+03  0.12969121528E+04  0.16289525743E+04  0.46999998093E+01 0.  1.
       -5    1    3    3    0  502  0.91658422238E+03  0.36243155287E+03 -0.85644465896E+03  0.13057575621E+04  0.46999998093E+01 0. -1.
</event>
<event>
 5   0  0.3769563E-07  0.2898982E+04  0.7818609E-02  0.8273180E-01
        1   -1    0    0  501    0  0.00000000000E+00  0.00000000000E+00  0.14585474573E+04  0.14585474573E+04  0.50400001928E-02 0.  1.
       -1   -1    0    0    0  501  0.00000000000E+00  0.00000000000E+00 -0.14404909240E+04  0.14404909241E+04  0.50400001928E-02 0. -1.
    10030    2    1    2    0    0  0.00000000000E+00  0.00000000000E+00  0.18056533227E+02  0.28990383813E+04  0.28989821486E+04 0.  0.
        3    1    3    3  502    0 -0.71545804093E+03 -0.28705861443E+03  0.12365460718E+04  0.14571647314E+04  0.10100000352E+00 0.  1.
       -3    1    3    3    0  502  0.71545804093E+03  0.28705861443E+03 -0.12184895386E+04  0.14418736499E+04  0.10100000352E+00 0. -1.
</event>
<event>
 5   0  0.3638028E-07  0.2898157E+04  0.7818609E-02  0.8273426E-01
        1   -1    0    0  501    0  0.00000000000E+00  0.00000000000E+00  0.18670393426E+04  0.18670393426E+04  0.50400001928E-02 0. -1.
       -1   -1    0    0    0  501  0.00000000000E+00  0.00000000000E+00 -0.11246833083E+04  0.11246833083E+04  0.50400001928E-02 0.  1.
    10030    2    1    2    0    0  0.00000000000E+00  0.00000000000E+00  0.74235603423E+03  0.29917226509E+04  0.28981566449E+04 0.  0.
        4    1    3    3  502    0 -0.43000805664E+03  0.77234566226E+03 -0.81410848410E+03  0.12017483046E+04  0.12699999809E+01 0.  1.
       -4    1    3    3    0  502  0.43000805664E+03 -0.77234566226E+03  0.15564645183E+04  0.17899743463E+04  0.12699999809E+01 0. -1.
</event>
<event>
 5   0  0.1006893E-06  0.2897516E+04  0.7818609E-02  0.8273617E-01
        2   -1    0    0  501    0  0.00000000000E+00  0.00000000000E+00  0.19312707714E+04  0.19312707714E+04  0.25500000920E-02 0.  1.
       -2   -1    0    0    0  501  0.00000000000E+00  0.00000000000E+00 -0.10867969414E+04  0.10867969414E+04  0.25500000920E-02 0. -1.
    10030    2    1    2    0    0  0.00000000000E+00  0.00000000000E+00  0.84447382999E+03  0.30180677128E+04  0.28975156030E+04 0.  0.
        4    1    3    3  502    0  0.13882234734E+04  0.82339849867E+02 -0.80528219765E+00  0.13906640587E+04  0.12699999809E+01 0. -1.
       -4    1    3    3    0  502 -0.13882234734E+04 -0.82339849867E+02  0.84527911219E+03  0.16274036541E+04  0.12699999809E+01 0.  1.
</event>
<event>
 5   0  0.3638028E-07  0.2892204E+04  0.7818609E-02  0.8275201E-01
       -1   -1    0    0    0  501  0.00000000000E+00  0.00000000000E+00  0.18551139159E+04  0.18551139159E+04  0.50400001928E-02 0.  1.
        1   -1    0    0  501    0  0.00000000000E+00  0.00000000000E+00 -0.11272683300E+04  0.11272683300E+04  0.50400001928E-02 0. -1.
    10030    2    1    2    0    0  0.00000000000E+00  0.00000000000E+00  0.72784558590E+03  0.29823822459E+04  0.28922041186E+04 0.  0.
        4    1    3    3  502    0  0.73370726205E+03 -0.29170126791E+03 -0.88537754239E+03  0.11863013873E+04  0.12699999809E+01 0. -1.
       -4    1    3    3    0  502 -0.73370726205E+03  0.29170126791E+03  0.16132231283E+04  0.17960808586E+04  0.12699999809E+01 0.  1.
</event>
<event>
 5   0  0.1031339E-06  0.2909498E+04  0.7818609E-02  0.8270057E-01
       -2   -1    0    0    0  501  0.00000000000E+00  0.00000000000E+00  0.13898145752E+04  0.13898145752E+04  0.25500000920E-02 0. -1.
        2   -1    0    0  501    0  0.00000000000E+00  0.00000000000E+00 -0.15227175017E+04  0.15227175017E+04  0.25500000920E-02 0.  1.
    10030    2    1    2    0    0  0.00000000000E+00  0.00000000000E+00 -0.13290292649E+03  0.29125320770E+04  0.29094982233E+04 0.  0.
        5    1    3    3  502    0  0.68036858579E+03  0.12469027763E+04 -0.38079313704E+03  0.14706098903E+04  0.46999998093E+01 0. -1.
       -5    1    3    3    0  502 -0.68036858579E+03 -0.12469027763E+04  0.24789021055E+03  0.14419221867E+04  0.46999998093E+01 0.  1.
</event>
<event>
 5   0  0.3769563E-07  0.2899112E+04  0.7818609E-02  0.8273142E-01
        1   -1    0    0  501    0  0.00000000000E+00  0.00000000000E+00  0.28420008131E+04  0.28420008131E+04  0.50400001928E-02 0.  1.
       -1   -1    0    0    0  501  0.00000000000E+00  0.00000000000E+00 -0.73934268953E+03  0.73934268955E+03  0.50400001928E-02 0. -1.
    10030    2    1    2    0    0  0.00000000000E+00  0.00000000000E+00  0.21026581235E+04  0.35813435026E+04  0.28991119501E+04 0.  0.
        3    1    3    3  502    0 -0.23816895952E+03  0.81711331452E+03  0.25008303705E+04  0.26416947541E+04  0.10100000352E+00 0.  1.
       -3    1    3    3    0  502  0.23816895952E+03 -0.81711331452E+03 -0.39817224694E+03  0.93964874846E+03  0.10100000352E+00 0. -1.
</event>
<event>
 5   0  0.9994311E-07  0.2905501E+04  0.7818609E-02  0.8271243E-01
       -2   -1    0    0    0  501  0.00000000000E+00  0.00000000000E+00  0.84436398560E+03  0.84436398561E+03  0.25500000920E-02 0.  1.
        2   -1    0    0  501    0  0.00000000000E+00  0.00000000000E+00 -0.24994951774E+04  0.24994951774E+04  0.25500000920E-02 0. -1.
    10030    2    1    2    0    0  0.00000000000E+00  0.00000000000E+00 -0.16551311918E+04  0.33438591630E+04  0.29055007899E+04 0.  0.
        2    1    3    3  502    0  0.17541043220E+03  0.63803734141E+03 -0.23159874676E+04  0.24086632017E+04  0.25500000920E-02 0. -1.
       -2    1    3    3    0  502 -0.17541043220E+03 -0.63803734141E+03  0.66085627586E+03  0.93519596134E+03  0.25500000920E-02 0.  1.
</event>
<event>
 5   0  0.1006893E-06  0.2901817E+04  0.7818609E-02  0.8272337E-01
       -2   -1    0    0    0  501  0.00000000000E+00  0.00000000000E+00  0.13911314017E+04  0.13911314017E+04  0.25500000920E-02 0.  1.
        2   -1    0    0  501    0  0.00000000000E+00  0.00000000000E+00 -0.15132544627E+04  0.15132544627E+04  0.25500000920E-02 0. -1.
    10030    2    1    2    0    0  0.00000000000E+00  0.00000000000E+00 -0.12212306103E+03  0.29043858644E+04  0.29018172250E+04 0.  0.
        4    1    3    3  502    0  0.26259012166E+03 -0.10450326143E+04  0.91144017750E+03  0.14113013665E+04  0.12699999809E+01 0.  1.
       -4    1    3    3    0  502 -0.26259012166E+03  0.10450326143E+04 -0.10335632385E+04  0.14930844979E+04  0.12699999809E+01 0. -1.
</event>
<event>
 5   0  0.9994311E-07  0.2898787E+04  0.7818609E-02  0.8273239E-01
       -2   -1    0    0    0  501  0.00000000000E+00  0.00000000000E+00  0.20131191212E+04  0.20131191212E+04  0.25500000920E-02 0.  1.
        2   -1    0    0  501    0  0.00000000000E+00  0.00000000000E+00 -0.10435255078E+04  0.10435255078E+04  0.25500000920E-02 0. -1.
    10030    2    1    2    0    0  0.00000000000E+00  0.00000000000E+00  0.96959361344E+03  0.30566446290E+04  0.28987867484E+04 0.  0.
        2    1    3    3  502    0 -0.15057952619E+03 -0.45956665963E+03  0.19255354040E+04  0.19853368229E+04  0.25500000920E-02 0.  1.
       -2    1    3    3    0  502  0.15057952619E+03  0.45956665963E+03 -0.95594179056E+03  0.10713078061E+04  0.25500000920E-02 0. -1.
</event>
<event>
 5   0  0.3638028E-07  0.2895979E+04  0.7818609E-02  0.8274075E-01
        1   -1    0    0  501    0  0.00000000000E+00  0.00000000000E+00  0.19776450066E+04  0.19776450066E+04  0.50400001928E-02 0. -1.
       -1   -1    0    0    0  501  0.00000000000E+00  0.00000000000E+00 -0.10601873485E+04  0.10601873485E+04  0.50400001928E-02 0.  1.
    10030    2    1    2    0    0  0.00000000000E+00  0.00000000000E+00  0.91745765815E+03  0.30378323551E+04  0.28959794307E+04 0.  0.
        4    1    3    3  502    0 -0.98790667845E+03  0.10012246958E+04  0.97991458832E+02  0.14099696577E+04  0.12699999809E+01 0.  1.
       -4    1    3    3    0  502  0.98790667845E+03 -0.10012246958E+04  0.81946619932E+03  0.16278626974E+04  0.12699999809E+01 0. -1.
</event>
<event>
 5   0  0.1031339E-06  0.2899360E+04  0.7818609E-02  0.8273068E-01
        2   -1    0    0  501    0  0.00000000000E+00  0.00000000000E+00  0.19185467326E+04  0.19185467326E+04  0.25500000920E-02 0.  1.
       -2   -1    0    0    0  501  0.00000000000E+00  0.00000000000E+00 -0.10953982146E+04  0.10953982146E+04  0.25500000920E-02 0. -1.
    10030    2    1    2    0    0  0.00000000000E+00  0.00000000000E+00  0.82314851799E+03  0.30139449473E+04  0.28993603885E+04 0.  0.
        5    1    3    3  502    0 -0.95122669869E+03  0.39942670075E+03  0.14702415138E+04  0.17961086049E+04  0.46999998093E+01 0.  1.
       -5    1    3    3    0  502  0.95122669869E+03 -0.39942670075E+03 -0.64709299585E+03  0.12178363424E+04  0.46999998093E+01 0. -1.
</event>
<event>
 5   0  0.3885904E-07  0.2924381E+04  0.7818609E-02  0.8265660E-01
       -1   -1    0    0    0  501  0.00000000000E+00  0.00000000000E+00  0.23123001714E+04  0.23123001714E+04  0.50400001928E-02 0. -1.
        1   -1    0    0  501    0  0.00000000000E+00  0.00000000000E+00 -0.92462089987E+03  0.92462089988E+03  0.50400001928E-02 0.  1.
    10030    2    1    2    0    0  0.00000000000E+00  0.00000000000E+00  0.13876792715E+04  0.32369210713E+04  0.29243810048E+04 0.  0.
        2    1    3    3  502    0  0.88726142022E+02  0.83740890221E+03 -0.62926833143E+03  0.10512395687E+04  0.25500000920E-02 0.  1.
       -2    1    3    3    0  502 -0.88726142022E+02 -0.83740890221E+03  0.20169476029E+04  0.21856815026E+04  0.25500000920E-02 0. -1.
</event>
<event>
 5   0  0.3770467E-07  0.2907132E+04  0.7818609E-02  0.8270759E-01
        1   -1    0    0  501    0  0.00000000000E+00  0.00000000000E+00  0.27958954675E+04  0.27958954675E+04  0.50400001928E-02 0. -1.
       -1   -1    0    0    0  501  0.00000000000E+00  0.00000000000E+00 -0.75569857063E+03  0.75569857065E+03  0.50400001928E-02 0.  1.
    10030    2    1    2    0    0  0.00000000000E+00  0.00000000000E+00  0.20401968968E+04  0.35515940381E+04  0.29071320633E+04 0.  0.
        1    1    3    3  502    0  0.41663759706E+03  0.10232896605E+03 -0.67658849286E+03  0.80114299178E+03  0.50400001928E-02 0.  1.
       -1    1    3    3    0  502 -0.41663759706E+03 -0.10232896605E+03  0.27167853897E+04  0.27504510463E+04  0.50400001928E-02 0. -1.
</event>
<event>
 5   0  0.3786210E-07  0.2890448E+04  0.7818609E-02  0.8275725E-01
        1   -1    0    0  501    0  0.00000000000E+00  0.00000000000E+00  0.97328107730E+03  0.97328107731E+03  0.50400001928E-02 0.  1.
       -1   -1    0    0    0  501  0.00000000000E+00  0.00000000000E+00 -0.21460109229E+04  0.21460109229E+04  0.50400001928E-02 0. -1.
    10030    2    1    2    0    0  0.00000000000E+00  0.00000000000E+00 -0.11727298456E+04  0.31192920003E+04  0.28904475937E+04 0.  0.
        5    1    3    3  502    0 -0.14372889866E+04  0.12824133749E+03 -0.50000237358E+03  0.15271771133E+04  0.46999998093E+01 0.  1.
       -5    1    3    3    0  502  0.14372889866E+04 -0.12824133749E+03 -0.67272747206E+03  0.15921148870E+04  0.46999998093E+01 0. -1.
</event>
<event>
 5   0  0.3638028E-07  0.2866976E+04  0.7818609E-02  0.8282771E-01
       -1   -1    0    0    0  501  0.00000000000E+00  0.00000000000E+00  0.12943443303E+04  0.12943443303E+04  0.50400001928E-02 0. -1.
        1   -1    0    0  501    0  0.00000000000E+00  0.00000000000E+00 -0.15875895270E+04  0.15875895270E+04  0.50400001928E-02 0.  1.
    10030    2    1    2    0    0  0.00000000000E+00  0.00000000000E+00 -0.29324519675E+03  0.28819338574E+04  0.28669757608E+04 0.  0.
        4    1    3    3  502    0  0.28246212147E+03 -0.25305556817E+03 -0.15362475215E+04  0.15823653279E+04  0.12699999809E+01 0.  1.
       -4    1    3    3    0  502 -0.28246212147E+03  0.25305556817E+03  0.12430023247E+04  0.12995685295E+04  0.12699999809E+01 0. -1.
</event>
<event>
 5   0  0.1063979E-06  0.2900866E+04  0.7818609E-02  0.8272620E-01
        2   -1    0    0  501    0  0.00000000000E+00  0.00000000000E+00  0.22032941849E+04  0.22032941849E+04  0.25500000920E-02 0.  1.
       -2   -1    0    0    0  501  0.00000000000E+00  0.00000000000E+00 -0.95482293063E+03  0.95482293063E+03  0.25500000920E-02 0. -1.
    10030    2    1    2    0    0  0.00000000000E+00  0.00000000000E+00  0.12484712543E+04  0.31581171156E+04  0.29008659471E+04 0.  0.
        1    1    3    3  502    0 -0.10159267878E+04 -0.10350666623E+04  0.60583797681E+03  0.15717855730E+04  0.50400001928E-02 0. -1.
       -1    1    3    3    0  502  0.10159267878E+04  0.10350666623E+04  0.64263327750E+03  0.15863315425E+04  0.50400001928E-02 0.  1.
</event>
<event>
 5   0  0.3770467E-07  0.2895698E+04  0.7818609E-02  0.8274159E-01
       -1   -1    0    0    0  501  0.00000000000E+00  0.00000000000E+00  0.12939444876E+04  0.12939444876E+04  0.50400001928E-02 0. -1.
        1   -1    0    0  501    0  0.00000000000E+00  0.00000000000E+00 -0.16200592517E+04  0.16200592517E+04  0.50400001928E-02 0.  1.
    10030    2    1    2    0    0  0.00000000000E+00  0.00000000000E+00 -0.32611476415E+03  0.29140037393E+04  0.28956980080E+04 0.  0.
        1    1    3    3  502    0  0.11749512522E+04  0.84461096444E+03 -0.21223977519E+03  0.14625060165E+04  0.50400001928E-02 0. -1.
       -1    1    3    3    0  502 -0.11749512522E+04 -0.84461096444E+03 -0.11387498896E+03  0.14514977228E+04  0.50400001928E-02 0.  1.
</event>
<event>
 5   0  0.9950999E-07  0.2913864E+04  0.7818609E-02  0.8268765E-01
       -2   -1    0    0    0  501  0.00000000000E+00  0.00000000000E+00  0.14013982685E+04  0.14013982685E+04  0.25500000920E-02 0. -1.
        2   -1    0    0  501    0  0.00000000000E+00  0.00000000000E+00 -0.15146660298E+04  0.15146660298E+04  0.25500000920E-02 0.  1.
    10030    2    1    2    0    0  0.00000000000E+00  0.00000000000E+00 -0.11326776126E+03  0.29160642983E+04  0.29138636561E+04 0.  0.
        3    1    3    3  502    0 -0.37388814670E+03 -0.72704929390E+03 -0.12634705520E+04  0.15049089235E+04  0.10100000352E+00 0.  1.
       -3    1    3    3    0  502  0.37388814670E+03  0.72704929390E+03  0.11502027907E+04  0.14111553748E+04  0.10100000352E+00 0. -1.
</event>
<event>
 5   0  0.1063979E-06  0.2898786E+04  0.7818609E-02  0.8273239E-01
       -2   -1    0    0    0  501  0.00000000000E+00  0.00000000000E+00  0.13311476609E+04  0.13311476609E+04  0.25500000920E-02 0. -1.
        2   -1    0    0  501    0  0.00000000000E+00  0.00000000000E+00 -0.15781415435E+04  0.15781415435E+04  0.25500000920E-02 0.  1.
    10030    2    1    2    0    0  0.00000000000E+00  0.00000000000E+00 -0.24699388264E+03  0.29092892044E+04  0.28987855555E+04 0.  0.
        1    1    3    3  502    0 -0.39815659887E+03 -0.13181589182E+04 -0.57753847459E+03  0.14931919838E+04  0.50400001928E-02 0.  1.
       -1    1    3    3    0  502  0.39815659887E+03  0.13181589182E+04  0.33054459195E+03  0.14160972206E+04  0.50400001928E-02 0. -1.
</event>
<event>
 5   0  0.1063979E-06  0.2908110E+04  0.7818609E-02  0.8270469E-01
        2   -1    0    0  501    0  0.00000000000E+00  0.00000000000E+00  0.14007246000E+04  0.14007246000E+04  0.25500000920E-02 0. -1.
       -2   -1    0    0    0  501  0.00000000000E+00  0.00000000000E+00 -0.15094158935E+04  0.15094158935E+04  0.25500000920E-02 0.  1.
    10030    2    1    2    0    0  0.00000000000E+00  0.00000000000E+00 -0.10869129344E+03  0.29101404935E+04  0.29081100211E+04 0.  0.
        1    1    3    3  502    0  0.29183680311E+03  0.13902058681E+03 -0.14730027615E+04  0.15080558937E+04  0.50400001928E-02 0.  1.
       -1    1    3    3    0  502 -0.29183680311E+03 -0.13902058681E+03  0.13643114680E+04  0.14020845998E+04  0.50400001928E-02 0. -1.
</event>
<event>
 5   0  0.1031339E-06  0.2900614E+04  0.7818609E-02  0.8272695E-01
       -2   -1    0    0    0  501  0.00000000000E+00  0.00000000000E+00  0.78750417414E+03  0.78750417414E+03  0.25500000920E-02 0.  1.
        2   -1    0    0  501    0  0.00000000000E+00  0.00000000000E+00 -0.26709578725E+04  0.26709578725E+04  0.25500000920E-02 0. -1.
    10030    2    1    2    0    0  0.00000000000E+00  0.00000000000E+00 -0.18834536984E+04  0.34584620467E+04  0.29006140547E+04 0.  0.
        5    1    3    3  502    0 -0.23869606706E+03 -0.99502816807E+03 -0.21671584467E+04  0.23965923080E+04  0.46999998093E+01 0. -1.
       -5    1    3    3    0  502  0.23869606706E+03  0.99502816807E+03  0.28370474831E+03  0.10618697387E+04  0.46999998093E+01 0.  1.
</event>
<event>
 5   0  0.3786210E-07  0.2891575E+04  0.7818609E-02  0.8275389E-01
        1   -1    0    0  501    0  0.00000000000E+00  0.00000000000E+00  0.17313126936E+04  0.17313126936E+04  0.50400001928E-02 0. -1.
       -1   -1    0    0    0  501  0.00000000000E+00  0.00000000000E+00 -0.12073505912E+04  0.12073505912E+04  0.50400001928E-02 0.  1.
    10030    2    1    2    0    0  0.00000000000E+00  0.00000000000E+00  0.52396210237E+03  0.29386632848E+04  0.28915749371E+04 0.  0.
        5    1    3    3  502    0 -0.75236572167E+03  0.10059862189E+04 -0.46536705262E+03  0.13396458619E+04  0.46999998093E+01 0.  1.
       -5    1    3    3    0  502  0.75236572167E+03 -0.10059862189E+04  0.98932915499E+03  0.15990174229E+04  0.46999998093E+01 0. -1.
</event>
<event>
 5   0  0.9950999E-07  0.2884006E+04  0.7818609E-02  0.8277652E-01
       -2   -1    0    0    0  501  0.00000000000E+00  0.00000000000E+00  0.97635296694E+03  0.97635296695E+03  0.25500000920E-02 0. -1.
        2   -1    0    0  501    0  0.00000000000E+00  0.00000000000E+00 -0.21297343332E+04  0.21297343332E+04  0.25500000920E-02 0.  1.
    10030    2    1    2    0    0  0.00000000000E+00  0.00000000000E+00 -0.11533813663E+04  0.31060873002E+04  0.28840058495E+04 0.  0.
        3    1    3    3  502    0  0.70780524422E+02 -0.32869092612E+03  0.93354647414E+03  0.99224827393E+03  0.10100000352E+00 0. -1.
       -3    1    3    3    0  502 -0.70780524422E+02  0.32869092612E+03 -0.20869278404E+04  0.21138390262E+04  0.10100000352E+00 0.  1.
</event>
<event>
 5   0  0.3885904E-07  0.2901404E+04  0.7818609E-02  0.8272460E-01
       -1   -1    0    0    0  501  0.00000000000E+00  0.00000000000E+00  0.15463475845E+04  0.15463475845E+04  0.50400001928E-02 0. -1.
        1   -1    0    0  501    0  0.00000000000E+00  0.00000000000E+00 -0.13609726849E+04  0.13609726849E+04  0.50400001928E-02 0.  1.
    10030    2    1    2    0    0  0.00000000000E+00  0.00000000000E+00  0.18537489963E+03  0.29073202693E+04  0.29014043660E+04 0.  0.
        2    1    3    3  502    0 -0.13451191624E+04 -0.54214292414E+03  0.56945231526E+02  0.14513811597E+04  0.25500000920E-02 0. -1.
       -2    1    3    3    0  502  0.13451191624E+04  0.54214292414E+03  0.12842966810E+03  0.14559391096E+04  0.25500000920E-02 0.  1.
</event>
<event>
 5   0  0.3770467E-07  0.2900418E+04  0.7818609E-02  0.8272753E-01
       -1   -1    0    0    0  501  0.00000000000E+00  0.00000000000E+00  0.97234548391E+03  0.97234548393E+03  0.50400001928E-02 0.  1.
        1   -1    0    0  501    0  0.00000000000E+00  0.00000000000E+00 -0.21629212389E+04  0.21629212389E+04  0.50400001928E-02 0. -1.
    10030    2    1    2    0    0  0.00000000000E+00  0.00000000000E+00 -0.11905757550E+04  0.31352667228E+04  0.29004183827E+04 0.  0.
        1    1    3    3  502    0  0.11422302416E+04  0.60861494139E+03 -0.13024810773E+04  0.18361805544E+04  0.50400001928E-02 0.  1.
       -1    1    3    3    0  502 -0.11422302416E+04 -0.60861494139E+03  0.11190532237E+03  0.12990861684E+04  0.50400001928E-02 0. -1.
</event>
<event>
 5   0  0.3769563E-07  0.2914262E+04  0.7818609E-02  0.8268647E-01
        1   -1    0    0  501    0  0.00000000000E+00  0.00000000000E+00  0.20866001310E+04  0.20866001310E+04  0.50400001928E-02 0. -1.
       -1   -1    0    0    0  501  0.00000000000E+00  0.00000000000E+00 -0.10175548473E+04  0.10175548473E+04  0.50400001928E-02 0.  1.
    10030    2    1    2    0    0  0.00000000000E+00  0.00000000000E+00  0.10690452837E+04  0.31041549783E+04  0.29142615378E+04 0.  0.
        3    1    3    3  502    0 -0.11579595651E+02 -0.57716071454E+03  0.19596023009E+04  0.20428631294E+04  0.10100000352E+00 0. -1.
       -3    1    3    3    0  502  0.11579595651E+02  0.57716071454E+03 -0.89055701720E+03  0.10612918489E+04  0.10100000352E+00 0.  1.
</event>
<event>
 5   0  0.3769563E-07  0.2933594E+04  0.7818609E-02  0.8262952E-01
        1   -1    0    0  501    0  0.00000000000E+00  0.00000000000E+00  0.19169128545E+04  0.19169128545E+04  0.50400001928E-02 0.  1.
       -1   -1    0    0    0  501  0.00000000000E+00  0.00000000000E+00 -0.11223740742E+04  0.11223740742E+04  0.50400001928E-02 0. -1.
    10030    2    1    2    0    0  0.00000000000E+00  0.00000000000E+00  0.79453878036E+03  0.30392869287E+04  0.29335938985E+04 0.  0.
        3    1    3    3  502    0  0.10092770701E+04 -0.10641519830E+04  0.37569528299E+03  0.15140035017E+04  0.10100000352E+00 0.  1.
       -3    1    3    3    0  502 -0.10092770701E+04  0.10641519830E+04  0.41884349738E+03  0.15252834270E+04  0.10100000352E+00 0. -1.
</event>
<event>
 5   0  0.9994311E-07  0.2902474E+04  0.7818609E-02  0.8272142E-01
        2   -1    0    0  501    0  0.00000000000E+00  0.00000000000E+00  0.16759491263E+04  0.16759491263E+04  0.25500000920E-02 0. -1.
       -2   -1    0    0    0  501  0.00000000000E+00  0.00000000000E+00 -0.12566545568E+04  0.12566545568E+04  0.25500000920E-02 0.  1.
    10030    2    1    2    0    0  0.00000000000E+00  0.00000000000E+00  0.41929456952E+03  0.29326036831E+04  0.29024741905E+04 0.  0.
        2    1    3    3  502    0  0.32998080483E+03  0.14022223723E+04  0.31825480427E+02  0.14408774321E+04  0.25500000920E-02 0.  1.
       -2    1    3    3    0  502 -0.32998080483E+03 -0.14022223723E+04  0.38746908910E+03  0.14917262511E+04  0.25500000920E-02 0. -1.
</event>
<event>
 5   0  0.3786210E-07  0.2900768E+04  0.7818609E-02  0.8272649E-01
       -1   -1    0    0    0  501  0.00000000000E+00  0.00000000000E+00  0.12938688739E+04  0.12938688739E+04  0.50400001928E-02 0. -1.
        1   -1    0    0  501    0  0.00000000000E+00  0.00000000000E+00 -0.16258320746E+04  0.16258320746E+04  0.50400001928E-02 0.  1.
    10030    2    1    2    0    0  0.00000000000E+00  0.00000000000E+00 -0.33196320071E+03  0.29197009484E+04  0.29007678400E+04 0.  0.
        5    1    3    3  502    0  0.36195026326E+03  0.13970290402E+04 -0.20493039420E+02  0.14433087635E+04  0.46999998093E+01 0.  1.
       -5    1    3    3    0  502 -0.36195026326E+03 -0.13970290402E+04 -0.31147016129E+03  0.14763921849E+04  0.46999998093E+01 0. -1.
</event>
<event>
 5   0  0.1031339E-06  0.2903491E+04  0.7818609E-02  0.8271840E-01
        2   -1    0    0  501    0  0.00000000000E+00  0.00000000000E+00  0.15236137416E+04  0.15236137416E+04  0.25500000920E-02 0. -1.
       -2   -1    0    0    0  501  0.00000000000E+00  0.00000000000E+00 -0.13832673312E+04  0.13832673312E+04  0.25500000920E-02 0.  1.
    10030    2    1    2    0    0  0.00000000000E+00  0.00000000000E+00  0.14034641039E+03  0.29068810728E+04  0.29034910808E+04 0.  0.
        5    1    3    3  502    0  0.53141756114E+02 -0.99566559500E+03 -0.98622177896E+03  0.14024369899E+04  0.46999998093E+01 0.  1.
       -5    1    3    3    0  502 -0.53141756114E+02  0.99566559500E+03  0.11265681894E+04  0.15044440829E+04  0.46999998093E+01 0. -1.
</event>
<event>
 5   0  0.3885904E-07  0.2901182E+04  0.7818609E-02  0.8272526E-01
        1   -1    0    0  501    0  0.00000000000E+00  0.00000000000E+00  0.14407098738E+04  0.14407098739E+04  0.50400001928E-02 0.  1.
       -1   -1    0    0    0  501  0.00000000000E+00  0.00000000000E+00 -0.14605396599E+04  0.14605396599E+04  0.50400001928E-02 0. -1.
    10030    2    1    2    0    0  0.00000000000E+00  0.00000000000E+00 -0.19829786093E+02  0.29012495338E+04  0.29011817656E+04 0.  0.
        2    1    3    3  502    0  0.96925573305E+02  0.15628643002E+03  0.14290050559E+04  0.14407898753E+04  0.25500000920E-02 0.  1.
       -2    1    3    3    0  502 -0.96925573305E+02 -0.15628643002E+03 -0.14488348420E+04  0.14604596585E+04  0.25500000920E-02 0. -1.
</event>
<event>
 5   0  0.3378750E-07  0.2901170E+04  0.7818609E-02  0.8272529E-01
       -4   -1    0    0    0  501  0.00000000000E+00  0.00000000000E+00  0.14121750080E+04  0.14121755791E+04  0.12699999809E+01 0. -1.
        4   -1    0    0  501    0  0.00000000000E+00  0.00000000000E+00 -0.14900389006E+04  0.14900394418E+04  0.12699999809E+01 0.  1.
    10030    2    1    2    0    0  0.00000000000E+00  0.00000000000E+00 -0.77863892548E+02  0.29022150209E+04  0.29011703228E+04 0.  0.
        3    1    3    3  502    0  0.39817636664E+03 -0.85113143409E+03  0.10665579175E+04  0.14214481836E+04  0.10100000352E+00 0. -1.
       -3    1    3    3    0  502 -0.39817636664E+03  0.85113143409E+03 -0.11444218101E+04  0.14807668373E+04  0.10100000352E+00 0.  1.
</event>
<event>
 5   0  0.3770467E-07  0.2901669E+04  0.7818609E-02  0.8272381E-01
        1   -1    0    0  501    0  0.00000000000E+00  0.00000000000E+00  0.19519197234E+04  0.19519197234E+04  0.50400001928E-02 0. -1.
       -1   -1    0    0    0  501  0.00000000000E+00  0.00000000000E+00 -0.10783849043E+04  0.10783849043E+04  0.50400001928E-02 0.  1.
    10030    2    1    2    0    0  0.00000000000E+00  0.00000000000E+00  0.87353481909E+03  0.30303046278E+04  0.29016690123E+04 0.  0.
        1    1    3    3  502    0 -0.17153922765E+03 -0.28875266239E+03 -0.10372269900E+04  0.10902493456E+04  0.50400001928E-02 0.  1.
       -1    1    3    3    0  502  0.17153922765E+03  0.28875266239E+03  0.19107618091E+04  0.19400552822E+04  0.50400001928E-02 0. -1.
</event>
<event>
 5   0  0.3885904E-07  0.2905355E+04  0.7818609E-02  0.8271286E-01
        1   -1    0    0  501    0  0.00000000000E+00  0.00000000000E+00  0.13859716856E+04  0.13859716856E+04  0.50400001928E-02 0.  1.
       -1   -1    0    0    0  501  0.00000000000E+00  0.00000000000E+00 -0.15225937395E+04  0.15225937395E+04  0.50400001928E-02 0. -1.
    10030    2    1    2    0    0  0.00000000000E+00  0.00000000000E+00 -0.13662205393E+03  0.29085654252E+04  0.29053549261E+04 0.  0.
        2    1    3    3  502    0  0.10922557798E+04 -0.68030008086E+03 -0.74317828660E+03  0.14859827907E+04  0.25500000920E-02 0. -1.
       -2    1    3    3    0  502 -0.10922557798E+04  0.68030008086E+03  0.60655623268E+03  0.14225826345E+04  0.25500000920E-02 0.  1.
</event>
<event>
 5   0  0.1063979E-06  0.2886383E+04  0.7818609E-02  0.8276940E-01
        2   -1    0    0  501    0  0.00000000000E+00  0.00000000000E+00  0.18418381710E+04  0.18418381710E+04  0.25500000920E-02 0.  1.
       -2   -1    0    0    0  501  0.00000000000E+00  0.00000000000E+00 -0.11308278951E+04  0.11308278951E+04  0.25500000920E-02 0. -1.
    10030    2    1    2    0    0  0.00000000000E+00  0.00000000000E+00  0.71101027597E+03  0.29726660661E+04  0.28863831915E+04 0.  0.
        1    1    3    3  502    0 -0.25062400920E+03  0.46723778026E+03  0.17378957637E+04  0.18169769461E+04  0.50400001928E-02 0.  1.
       -1    1    3    3    0  502  0.25062400920E+03 -0.46723778026E+03 -0.10268854877E+04  0.11556891200E+04  0.50400001928E-02 0. -1.
</event>
<event>
 5   0  0.1063979E-06  0.2892494E+04  0.7818609E-02  0.8275114E-01
        2   -1    0    0  501    0  0.00000000000E+00  0.00000000000E+00  0.25282264738E+04  0.25282264738E+04  0.25500000920E-02 0.  1.
       -2   -1    0    0    0  501  0.00000000000E+00  0.00000000000E+00 -0.82731156857E+03  0.82731156857E+03  0.25500000920E-02 0. -1.
    10030    2    1    2    0    0  0.00000000000E+00  0.00000000000E+00  0.17009149052E+04  0.33555380424E+04  0.28924944320E+04 0.  0.
        1    1    3    3  502    0  0.16257749438E+02  0.78926226330E+03 -0.55531983382E+03  0.96518358489E+03  0.50400001928E-02 0. -1.
       -1    1    3    3    0  502 -0.16257749438E+02 -0.78926226330E+03  0.22562347391E+04  0.23903544575E+04  0.50400001928E-02 0.  1.
</event>
<event>
 5   0  0.3378750E-07  0.2890547E+04  0.7818609E-02  0.8275696E-01
        3   -1    0    0  501    0  0.00000000000E+00  0.00000000000E+00  0.12261855125E+04  0.12261855167E+04  0.10100000352E+00 0.  1.
       -3   -1    0    0    0  501  0.00000000000E+00  0.00000000000E+00 -0.17035063714E+04  0.17035063744E+04  0.10100000352E+00 0. -1.
    10030    2    1    2    0    0  0.00000000000E+00  0.00000000000E+00 -0.47732085891E+03  0.29296918911E+04  0.28905465529E+04 0.  0.
        3    1    3    3  502    0  0.83442786697E+02  0.90744285905E+03 -0.13756363453E+04  0.16500880601E+04  0.10100000352E+00 0. -1.
       -3    1    3    3    0  502 -0.83442786697E+02 -0.90744285905E+03  0.89831548643E+03  0.12796038311E+04  0.10100000352E+00 0.  1.
</event>
<event>
 5   0  0.3638028E-07  0.2885117E+04  0.7818609E-02  0.8277320E-01
        1   -1    0    0  501    0  0.00000000000E+00  0.00000000000E+00  0.12978464588E+04  0.12978464589E+04  0.50400001928E-02 0.  1.
       -1   -1    0    0    0  501  0.00000000000E+00  0.00000000000E+00 -0.16034057673E+04  0.16034057673E+04  0.50400001928E-02 0. -1.
    10030    2    1    2    0    0  0.00000000000E+00  0.00000000000E+00 -0.30555930846E+03  0.29012522262E+04  0.28851166335E+04 0.  0.
        4    1    3    3  502    0  0.10935055530E+04  0.20469857578E+02 -0.10986781617E+04  0.15502479561E+04  0.12699999809E+01 0. -1.
       -4    1    3    3    0  502 -0.10935055530E+04 -0.20469857578E+02  0.79311885327E+03  0.13510042701E+04  0.12699999809E+01 0.  1.
</event>
<event>
 5   0  0.1031339E-06  0.2898065E+04  0.7818609E-02  0.8273453E-01
       -2   -1    0    0    0  501  0.00000000000E+00  0.00000000000E+00  0.11398168143E+04  0.11398168143E+04  0.25500000920E-02 0.  1.
        2   -1    0    0  501    0  0.00000000000E+00  0.00000000000E+00 -0.18421339382E+04  0.18421339382E+04  0.25500000920E-02 0. -1.
    10030    2    1    2    0    0  0.00000000000E+00  0.00000000000E+00 -0.70231712392E+03  0.29819507525E+04  0.28980650351E+04 0.  0.
        5    1    3    3  502    0  0.10511023644E+04 -0.29870540315E+03 -0.13303514061E+04  0.17215975290E+04  0.46999998093E+01 0. -1.
       -5    1    3    3    0  502 -0.10511023644E+04  0.29870540315E+03  0.62803428214E+03  0.12603532234E+04  0.46999998093E+01 0.  1.
</event>
<event>
 5   0  0.3786210E-07  0.2890017E+04  0.7818609E-02  0.8275854E-01
       -1   -1    0    0    0  501  0.00000000000E+00  0.00000000000E+00  0.66876396605E+03  0.66876396607E+03  0.50400001928E-02 0.  1.
        1   -1    0    0  501    0  0.00000000000E+00  0.00000000000E+00 -0.31222513235E+04  0.31222513235E+04  0.50400001928E-02 0. -1.
    10030    2    1    2    0    0  0.00000000000E+00  0.00000000000E+00 -0.24534873574E+04  0.37910152896E+04  0.28900167322E+04 0.  0.
        5    1    3    3  502    0 -0.89384655309E+03 -0.81651435934E+03 -0.19188890051E+03  0.12257653934E+04  0.46999998093E+01 0.  1.
       -5    1    3    3    0  502  0.89384655309E+03  0.81651435934E+03 -0.22615984569E+04  0.25652498962E+04  0.46999998093E+01 0. -1.
</event>
<event>
 5   0  0.3885904E-07  0.2897512E+04  0.7818609E-02  0.8273618E-01
        1   -1    0    0  501    0  0.00000000000E+00  0.00000000000E+00  0.16034855548E+04  0.16034855548E+04  0.50400001928E-02 0.  1.
       -1   -1    0    0    0  501  0.00000000000E+00  0.00000000000E+00 -0.13089567712E+04  0.13089567712E+04  0.50400001928E-02 0. -1.
    10030    2    1    2    0    0  0.00000000000E+00  0.00000000000E+00  0.29452878363E+03  0.29124423261E+04  0.28975115355E+04 0.  0.
        2    1    3    3  502    0  0.14022021027E+02  0.12642252449E+03 -0.13033332890E+04  0.13095254614E+04  0.25500000920E-02 0. -1.
       -2    1    3    3    0  502 -0.14022021027E+02 -0.12642252449E+03  0.15978620727E+04  0.16029168647E+04  0.25500000920E-02 0.  1.
</event>
<event>
 5   0  0.1031339E-06  0.2910186E+04  0.7818609E-02  0.8269853E-01
       -2   -1    0    0    0  501  0.00000000000E+00  0.00000000000E+00  0.14511851941E+04  0.14511851941E+04  0.25500000920E-02 0. -1.
        2   -1    0    0  501    0  0.00000000000E+00  0.00000000000E+00 -0.14590118245E+04  0.14590118245E+04  0.25500000920E-02 0.  1.
    10030    2    1    2    0    0  0.00000000000E+00  0.00000000000E+00 -0.78266303404E+01  0.29101970186E+04  0.29101864942E+04 0.  0.
        5    1    3    3  502    0  0.95894538118E+03 -0.10117555580E+04 -0.42110628406E+03  0.14562205004E+04  0.46999998093E+01 0. -1.
       -5    1    3    3    0  502 -0.95894538118E+03  0.10117555580E+04  0.41327965372E+03  0.14539765182E+04  0.46999998093E+01 0.  1.
</event>
<event>
 5   0  0.1063979E-06  0.2901547E+04  0.7818609E-02  0.8272417E-01
       -2   -1    0    0    0  501  0.00000000000E+00  0.00000000000E+00  0.92283049314E+03  0.92283049314E+03  0.25500000920E-02 0.  1.
        2   -1    0    0  501    0  0.00000000000E+00  0.00000000000E+00 -0.22807474348E+04  0.22807474349E+04  0.25500000920E-02 0. -1.
    10030    2    1    2    0    0  0.00000000000E+00  0.00000000000E+00 -0.13579169417E+04  0.32035779280E+04  0.29015466772E+04 0.  0.
        1    1    3    3  502    0 -0.13164628364E+04  0.37792682694E+03 -0.15079071450E+03  0.13779117990E+04  0.50400001928E-02 0.  1.
       -1    1    3    3    0  502  0.13164628364E+04 -0.37792682694E+03 -0.12071262272E+04  0.18256661290E+04  0.50400001928E-02 0. -1.
</event>
<event>
 5   0  0.3885904E-07  0.2882513E+04  0.7818609E-02  0.8278099E-01
        1   -1    0    0  501    0  0.00000000000E+00  0.00000000000E+00  0.17502885189E+04  0.17502885189E+04  0.50400001928E-02 0.  1.
       -1   -1    0    0    0  501  0.00000000000E+00  0.00000000000E+00 -0.11867873981E+04  0.11867873981E+04  0.50400001928E-02 0. -1.
    10030    2    1    2    0    0  0.00000000000E+00  0.00000000000E+00  0.56350112075E+03  0.29370759170E+04  0.28825130406E+04 0.  0.
        2    1    3    3  502    0  0.14304112584E+04  0.17502343600E+03  0.25872218310E+03  0.14641197832E+04  0.25500000920E-02 0.  1.
       -2    1    3    3    0  502 -0.14304112584E+04 -0.17502343600E+03  0.30477893765E+03  0.14729561338E+04  0.25500000920E-02 0. -1.
</event>
<event>
 5   0  0.3786210E-07  0.2901346E+04  0.7818609E-02  0.8272477E-01
       -1   -1    0    0    0  501  0.00000000000E+00  0.00000000000E+00  0.12221863059E+04  0.12221863060E+04  0.50400001928E-02 0.  1.
        1   -1    0    0  501    0  0.00000000000E+00  0.00000000000E+00 -0.17218753304E+04  0.17218753305E+04  0.50400001928E-02 0. -1.
    10030    2    1    2    0    0  0.00000000000E+00  0.00000000000E+00 -0.49968902450E+03  0.29440616364E+04  0.29013462044E+04 0.  0.
        5    1    3    3  502    0 -0.12469930716E+04 -0.24495375932E+02  0.50189897425E+03  0.13444390705E+04  0.46999998093E+01 0. -1.
       -5    1    3    3    0  502  0.12469930716E+04  0.24495375932E+02 -0.10015879987E+04  0.15996225659E+04  0.46999998093E+01 0.  1.
</event>
<event>
 5   0  0.3769563E-07  0.2882493E+04  0.7818609E-02  0.8278105E-01
        1   -1    0    0  501    0  0.00000000000E+00  0.00000000000E+00  0.99449593507E+03  0.99449593509E+03  0.50400001928E-02 0.  1.
       -1   -1    0    0    0  501  0.00000000000E+00  0.00000000000E+00 -0.20886881435E+04  0.20886881435E+04  0.50400001928E-02 0. -1.
    10030    2    1    2    0    0  0.00000000000E+00  0.00000000000E+00 -0.10941922084E+04  0.30831840786E+04  0.28824932738E+04 0.  0.
        3    1    3    3  502    0 -0.43415565986E+03 -0.32481959810E+03  0.88123969498E+03  0.10346894793E+04  0.10100000352E+00 0.  1.
       -3    1    3    3    0  502  0.43415565986E+03  0.32481959810E+03 -0.19754319034E+04  0.20484945993E+04  0.10100000352E+00 0. -1.
</event>
<event>
 5   0  0.3769563E-07  0.2868066E+04  0.7818609E-02  0.8282443E-01
       -1   -1    0    0    0  501  0.00000000000E+00  0.00000000000E+00  0.33305798569E+04  0.33305798569E+04  0.50400001928E-02 0.  1.
        1   -1    0    0  501    0  0.00000000000E+00  0.00000000000E+00 -0.61744529055E+03  0.61744529057E+03  0.50400001928E-02 0. -1.
    10030    2    1    2    0    0  0.00000000000E+00  0.00000000000E+00  0.27131345663E+04  0.39480251475E+04  0.28680661411E+04 0.  0.
        3    1    3    3  502    0 -0.12039244528E+03  0.73701740296E+03  0.30417890575E+04  0.31321190389E+04  0.10100000352E+00 0.  1.
       -3    1    3    3    0  502  0.12039244528E+03 -0.73701740296E+03 -0.32865449121E+03  0.81590610853E+03  0.10100000352E+00 0. -1.
</event>
<event>
 5   0  0.3786210E-07  0.2935918E+04  0.7818609E-02  0.8262270E-01
        1   -1    0    0  501    0  0.00000000000E+00  0.00000000000E+00  0.10731034795E+04  0.10731034795E+04  0.50400001928E-02 0.  1.
       -1   -1    0    0    0  501  0.00000000000E+00  0.00000000000E+00 -0.20081038713E+04  0.20081038713E+04  0.50400001928E-02 0. -1.
    10030    2    1    2    0    0  0.00000000000E+00  0.00000000000E+00 -0.93500039176E+03  0.30812073508E+04  0.29359177451E+04 0.  0.
        5    1    3    3  502    0 -0.41380989752E+03  0.71014614617E+03  0.80896890045E+03  0.11532558051E+04  0.46999998093E+01 0.  1.
       -5    1    3    3    0  502  0.41380989752E+03 -0.71014614617E+03 -0.17439692922E+04  0.19279515457E+04  0.46999998093E+01 0. -1.
</event>
<event>
 5   0  0.3638028E-07  0.2898533E+04  0.7818609E-02  0.8273314E-01
       -1   -1    0    0    0  501  0.00000000000E+00  0.00000000000E+00  0.12964461803E+04  0.12964461803E+04  0.50400001928E-02 0. -1.
        1   -1    0    0  501    0  0.00000000000E+00  0.00000000000E+00 -0.16201007110E+04  0.16201007110E+04  0.50400001928E-02 0.  1.
    10030    2    1    2    0    0  0.00000000000E+00  0.00000000000E+00 -0.32365453067E+03  0.29165468913E+04  0.28985329935E+04 0.  0.
        4    1    3    3  502    0 -0.51808427167E+03  0.11981305677E+04 -0.79537802849E+03  0.15285797300E+04  0.12699999809E+01 0.  1.
       -4    1    3    3    0  502  0.51808427167E+03 -0.11981305677E+04  0.47172349782E+03  0.13879671614E+04  0.12699999809E+01 0. -1.
</event>
<event>
 5   0  0.3786210E-07  0.2902286E+04  0.7818609E-02  0.8272198E-01
       -1   -1    0    0    0  501  0.00000000000E+00  0.00000000000E+00  0.27531615116E+04  0.27531615116E+04  0.50400001928E-02 0.  1.
        1   -1    0    0  501    0  0.00000000000E+00  0.00000000000E+00 -0.76487170723E+03  0.76487170725E+03  0.50400001928E-02 0. -1.
    10030    2    1    2    0    0  0.00000000000E+00  0.00000000000E+00  0.19882898043E+04  0.35180332188E+04  0.29022855447E+04 0.  0.
        5    1    3    3  502    0 -0.35541658343E+03  0.65276080794E+03 -0.51662401744E+03  0.90517406367E+03  0.46999998093E+01 0. -1.
       -5    1    3    3    0  502  0.35541658343E+03 -0.65276080794E+03  0.25049138218E+04  0.26128591552E+04  0.46999998093E+01 0.  1.
</event>
<event>
 5   0  0.1006893E-06  0.2893556E+04  0.7818609E-02  0.8274797E-01
        2   -1    0    0  501    0  0.00000000000E+00  0.00000000000E+00  0.13782862336E+04  0.13782862336E+04  0.25500000920E-02 0.  1.
       -2   -1    0    0    0  501  0.00000000000E+00  0.00000000000E+00 -0.15186733436E+04  0.15186733436E+04  0.25500000920E-02 0. -1.
    10030    2    1    2    0    0  0.00000000000E+00  0.00000000000E+00 -0.14038711002E+03  0.28969595772E+04  0.28935559873E+04 0.  0.
        4    1    3    3  502    0 -0.77689805575E+03  0.29692584660E+03 -0.12554058767E+04  0.15059153614E+04  0.12699999809E+01 0. -1.
       -4    1    3    3    0  502  0.77689805575E+03 -0.29692584660E+03  0.11150187667E+04  0.13910442159E+04  0.12699999809E+01 0.  1.
</event>
<event>
 5   0  0.3786210E-07  0.2902195E+04  0.7818609E-02  0.8272225E-01
       -1   -1    0    0    0  501  0.00000000000E+00  0.00000000000E+00  0.14367854969E+04  0.14367854969E+04  0.50400001928E-02 0.  1.
        1   -1    0    0  501    0  0.00000000000E+00  0.00000000000E+00 -0.14655520937E+04  0.14655520937E+04  0.50400001928E-02 0. -1.
    10030    2    1    2    0    0  0.00000000000E+00  0.00000000000E+00 -0.28766596808E+02  0.29023375906E+04  0.29021950267E+04 0.  0.
        5    1    3    3  502    0  0.11096639883E+04  0.17827515658E+03 -0.93232037752E+03  0.14602669533E+04  0.46999998093E+01 0. -1.
       -5    1    3    3    0  502 -0.11096639883E+04 -0.17827515658E+03  0.90355378072E+03  0.14420706374E+04  0.46999998093E+01 0.  1.
</event>
<event>
 5   0  0.9950999E-07  0.2898547E+04  0.7818609E-02  0.8273310E-01
       -2   -1    0    0    0  501  0.00000000000E+00  0.00000000000E+00  0.11950046117E+04  0.11950046117E+04  0.25500000920E-02 0. -1.
        2   -1    0    0  501    0  0.00000000000E+00  0.00000000000E+00 -0.17576449506E+04  0.17576449506E+04  0.25500000920E-02 0.  1.
    10030    2    1    2    0    0  0.00000000000E+00  0.00000000000E+00 -0.56264033895E+03  0.29526495623E+04  0.28985470993E+04 0.  0.
        3    1    3    3  502    0  0.50203654960E+03  0.13304497080E+04 -0.56628566522E+03  0.15306262076E+04  0.10100000352E+00 0.  1.
       -3    1    3    3    0  502 -0.50203654960E+03 -0.13304497080E+04  0.36453262629E+01  0.14220233547E+04  0.10100000352E+00 0. -1.
</event>
<event>
 5   0  0.9950999E-07  0.2903350E+04  0.7818609E-02  0.8271882E-01
       -2   -1    0    0    0  501  0.00000000000E+00  0.00000000000E+00  0.10937550134E+04  0.10937550134E+04  0.25500000920E-02 0.  1.
        2   -1    0    0  501    0  0.00000000000E+00  0.00000000000E+00 -0.19267200050E+04  0.19267200050E+04  0.25500000920E-02 0. -1.
    10030    2    1    2    0    0  0.00000000000E+00  0.00000000000E+00 -0.83296499161E+03  0.30204750185E+04  0.29033495587E+04 0.  0.
        3    1    3    3  502    0  0.10532888632E+04 -0.82873514442E+03  0.16381947306E+03  0.13502059838E+04  0.10100000352E+00 0.  1.
       -3    1    3    3    0  502 -0.10532888632E+04  0.82873514442E+03 -0.99678446466E+03  0.16702690346E+04  0.10100000352E+00 0. -1.
</event>
<event>
 5   0  0.3885904E-07  0.2903378E+04  0.7818609E-02  0.8271873E-01
        1   -1    0    0  501    0  0.00000000000E+00  0.00000000000E+00  0.12980382604E+04  0.12980382604E+04  0.50400001928E-02 0.  1.
       -1   -1    0    0    0  501  0.00000000000E+00  0.00000000000E+00 -0.16235277598E+04  0.16235277599E+04  0.50400001928E-02 0. -1.
    10030    2    1    2    0    0  0.00000000000E+00  0.00000000000E+00 -0.32548949945E+03  0.29215660203E+04  0.29033781353E+04 0.  0.
        2    1    3    3  502    0  0.56660423542E+03 -0.73132311472E+03 -0.12884696307E+04  0.15861991827E+04  0.25500000920E-02 0. -1.
       -2    1    3    3    0  502 -0.56660423542E+03  0.73132311472E+03  0.96298013129E+03  0.13353668376E+04  0.25500000920E-02 0.  1.
</event>
<event>
 5   0  0.1031339E-06  0.2921433E+04  0.7818609E-02  0.8266529E-01
        2   -1    0    0  501    0  0.00000000000E+00  0.00000000000E+00  0.12607319089E+04  0.12607319089E+04  0.25500000920E-02 0. -1.
       -2   -1    0    0    0  501  0.00000000000E+00  0.00000000000E+00 -0.16924232524E+04  0.16924232524E+04  0.25500000920E-02 0.  1.
    10030    2    1    2    0    0  0.00000000000E+00  0.00000000000E+00 -0.43169134350E+03  0.29531551613E+04  0.29214325237E+04 0.  0.
        5    1    3    3  502    0 -0.30695940906E+02  0.44663486816E+02 -0.16913989850E+04  0.16922735253E+04  0.46999998093E+01 0.  1.
       -5    1    3    3    0  502  0.30695940906E+02 -0.44663486816E+02  0.12597076415E+04  0.12608816360E+04  0.46999998093E+01 0. -1.
</event>
<event>
 5   0  0.3786210E-07  0.2894597E+04  0.7818609E-02  0.8274487E-01
       -1   -1    0    0    0  501  0.00000000000E+00  0.00000000000E+00  0.13178574919E+04  0.13178574919E+04  0.50400001928E-02 0. -1.
        1   -1    0    0  501    0  0.00000000000E+00  0.00000000000E+00 -0.15894535504E+04  0.15894535504E+04  0.50400001928E-02 0.  1.
    10030    2    1    2    0    0  0.00000000000E+00  0.00000000000E+00 -0.27159605854E+03  0.29073110423E+04  0.28945972220E+04 0.  0.
        5    1    3    3  502    0 -0.16388014510E+03  0.12677129912E+04 -0.81752682359E+03  0.15173414670E+04  0.46999998093E+01 0.  1.
       -5    1    3    3    0  502  0.16388014510E+03 -0.12677129912E+04  0.54593076505E+03  0.13899695753E+04  0.46999998093E+01 0. -1.
</event>
<event>
 5   0  0.3885904E-07  0.2903451E+04  0.7818609E-02  0.8271852E-01
        1   -1    0    0  501    0  0.00000000000E+00  0.00000000000E+00  0.23669422904E+04  0.23669422904E+04  0.50400001928E-02 0. -1.
       -1   -1    0    0    0  501  0.00000000000E+00  0.00000000000E+00 -0.89039205469E+03  0.89039205470E+03  0.50400001928E-02 0.  1.
    10030    2    1    2    0    0  0.00000000000E+00  0.00000000000E+00  0.14765502357E+04  0.32573343451E+04  0.29034507809E+04 0.  0.
        2    1    3    3  502    0 -0.68897815598E+03  0.76346760800E+03  0.18878271856E+04  0.21497593285E+04  0.25500000920E-02 0. -1.
       -2    1    3    3    0  502  0.68897815598E+03 -0.76346760800E+03 -0.41127694988E+03  0.11075750166E+04  0.25500000920E-02 0.  1.
</event>
<event>
 5   0  0.1031339E-06  0.2898741E+04  0.7818609E-02  0.8273252E-01
       -2   -1    0    0    0  501  0.00000000000E+00  0.00000000000E+00  0.13554067853E+04  0.13554067853E+04  0.25500000920E-02 0.  1.
        2   -1    0    0  501    0  0.00000000000E+00  0.00000000000E+00 -0.15498483574E+04  0.15498483574E+04  0.25500000920E-02 0. -1.
    10030    2    1    2    0    0  0.00000000000E+00  0.00000000000E+00 -0.19444157206E+03  0.29052551428E+04  0.28987410922E+04 0.  0.
        5    1    3    3  502    0 -0.55001063870E+03 -0.11011109770E+04  0.66980666609E+03  0.14012923129E+04  0.46999998093E+01 0.  1.
       -5    1    3    3    0  502  0.55001063870E+03  0.11011109770E+04 -0.86424823815E+03  0.15039628298E+04  0.46999998093E+01 0. -1.
</event>
<event>
 5   0  0.1063979E-06  0.2890288E+04  0.7818609E-02  0.8275773E-01
        2   -1    0    0  501    0  0.00000000000E+00  0.00000000000E+00  0.10193597402E+04  0.10193597403E+04  0.25500000920E-02 0.  1.
       -2   -1    0    0    0  501  0.00000000000E+00  0.00000000000E+00 -0.20487770905E+04  0.20487770905E+04  0.25500000920E-02 0. -1.
    10030    2    1    2    0    0  0.00000000000E+00  0.00000000000E+00 -0.10294173503E+04  0.30681368308E+04  0.28902877939E+04 0.  0.
        1    1    3    3  502    0 -0.10745240611E+04  0.31442687318E+02 -0.15399818837E+04  0.18780667727E+04  0.50400001928E-02 0. -1.
       -1    1    3    3    0  502  0.10745240611E+04 -0.31442687318E+02  0.51056453342E+03  0.11900700581E+04  0.50400001928E-02 0.  1.
</event>
<event>
 5   0  0.3885904E-07  0.2901298E+04  0.7818609E-02  0.8272491E-01
        1   -1    0    0  501    0  0.00000000000E+00  0.00000000000E+00  0.19508017636E+04  0.19508017636E+04  0.50400001928E-02 0. -1.
       -1   -1    0    0    0  501  0.00000000000E+00  0.00000000000E+00 -0.10787270318E+04  0.10787270318E+04  0.50400001928E-02 0.  1.
    10030    2    1    2    0    0  0.00000000000E+00  0.00000000000E+00  0.87207473178E+03  0.30295287955E+04  0.29012980517E+04 0.  0.
        2    1    3    3  502    0 -0.34005574745E+03 -0.13679490990E+04  0.78165432735E+02  0.14117480242E+04  0.25500000920E-02 0.  1.
       -2    1    3    3    0  502  0.34005574745E+03  0.13679490990E+04  0.79390929904E+03  0.16177807713E+04  0.25500000920E-02 0. -1.
</event>
<event>
 5   0  0.1063979E-06  0.2921955E+04  0.7818609E-02  0.8266375E-01
       -2   -1    0    0    0  501  0.00000000000E+00  0.00000000000E+00  0.14539043153E+04  0.14539043153E+04  0.25500000920E-02 0. -1.
        2   -1    0    0  501    0  0.00000000000E+00  0.00000000000E+00 -0.14680847261E+04  0.14680847262E+04  0.25500000920E-02 0.  1.
    10030    2    1    2    0    0  0.00000000000E+00  0.00000000000E+00 -0.14180410873E+02  0.29219890414E+04  0.29219546325E+04 0.  0.
        1    1    3    3  502    0  0.42467947161E+03 -0.10899860758E+04  0.86815288148E+03  0.14567469666E+04  0.50400001928E-02 0. -1.
       -1    1    3    3    0  502 -0.42467947161E+03  0.10899860758E+04 -0.88233329235E+03  0.14652420748E+04  0.50400001928E-02 0.  1.
</event>
<event>
 5   0  0.3638028E-07  0.2899713E+04  0.7818609E-02  0.8272963E-01
       -1   -1    0    0    0  501  0.00000000000E+00  0.00000000000E+00  0.11906998834E+04  0.11906998834E+04  0.50400001928E-02 0. -1.
        1   -1    0    0  501    0  0.00000000000E+00  0.00000000000E+00 -0.17654187760E+04  0.17654187760E+04  0.50400001928E-02 0.  1.
    10030    2    1    2    0    0  0.00000000000E+00  0.00000000000E+00 -0.57471889260E+03  0.29561186594E+04  0.28997130414E+04 0.  0.
        4    1    3    3  502    0  0.25943357640E+03  0.42749646182E+03  0.11000034180E+04  0.12083327927E+04  0.12699999809E+01 0. -1.
       -4    1    3    3    0  502 -0.25943357640E+03 -0.42749646182E+03 -0.16747223106E+04  0.17477858667E+04  0.12699999809E+01 0.  1.
</event>
<event>
 5   0  0.9950999E-07  0.2884023E+04  0.7818609E-02  0.8277647E-01
        2   -1    0    0  501    0  0.00000000000E+00  0.00000000000E+00  0.15916360608E+04  0.15916360608E+04  0.25500000920E-02 0.  1.
       -2   -1    0    0    0  501  0.00000000000E+00  0.00000000000E+00 -0.13064524076E+04  0.13064524076E+04  0.25500000920E-02 0. -1.
    10030    2    1    2    0    0  0.00000000000E+00  0.00000000000E+00  0.28518365316E+03  0.28980884684E+04  0.28840227209E+04 0.  0.
        3    1    3    3  502    0  0.12972102417E+04 -0.44577530770E+03 -0.30446751301E+03  0.14050517829E+04  0.10100000352E+00 0. -1.
       -3    1    3    3    0  502 -0.12972102417E+04  0.44577530770E+03  0.58965116618E+03  0.14930366854E+04  0.10100000352E+00 0.  1.
</event>
<event>
 5   0  0.3638028E-07  0.2902788E+04  0.7818609E-02  0.8272048E-01
       -1   -1    0    0    0  501  0.00000000000E+00  0.00000000000E+00  0.82505575308E+03  0.82505575310E+03  0.50400001928E-02 0. -1.
        1   -1    0    0  501    0  0.00000000000E+00  0.00000000000E+00 -0.25532151685E+04  0.25532151685E+04  0.50400001928E-02 0.  1.
    10030    2    1    2    0    0  0.00000000000E+00  0.00000000000E+00 -0.17281594154E+04  0.33782709216E+04  0.29027882208E+04 0.  0.
        4    1    3    3  502    0  0.67902703447E+03  0.63970379081E+03  0.42991150240E+03  0.10271923706E+04  0.12699999809E+01 0. -1.
       -4    1    3    3    0  502 -0.67902703447E+03 -0.63970379081E+03 -0.21580709178E+04  0.23510785510E+04  0.12699999809E+01 0.  1.
</event>
<event>
 5   0  0.9950999E-07  0.2919200E+04  0.7818609E-02  0.8267188E-01
        2   -1    0    0  501    0  0.00000000000E+00  0.00000000000E+00  0.20840528349E+04  0.20840528349E+04  0.25500000920E-02 0. -1.
       -2   -1    0    0    0  501  0.00000000000E+00  0.00000000000E+00 -0.10222544064E+04  0.10222544064E+04  0.25500000920E-02 0.  1.
    10030    2    1    2    0    0  0.00000000000E+00  0.00000000000E+00  0.10617984285E+04  0.31063072412E+04  0.29192000230E+04 0.  0.
        3    1    3    3  502    0  0.39064692381E+03 -0.31912882606E+03  0.19883540828E+04  0.20513410724E+04  0.10100000352E+00 0. -1.
       -3    1    3    3    0  502 -0.39064692381E+03  0.31912882606E+03 -0.92655565425E+03  0.10549661688E+04  0.10100000352E+00 0.  1.
</event>
<event>
 5   0  0.1006893E-06  0.2928472E+04  0.7818609E-02  0.8264456E-01
       -2   -1    0    0    0  501  0.00000000000E+00  0.00000000000E+00  0.91697742253E+03  0.91697742253E+03  0.25500000920E-02 0. -1.
        2   -1    0    0  501    0  0.00000000000E+00  0.00000000000E+00 -0.23381029546E+04  0.23381029546E+04  0.25500000920E-02 0.  1.
    10030    2    1    2    0    0  0.00000000000E+00  0.00000000000E+00 -0.14211255321E+04  0.32550803771E+04  0.29284723806E+04 0.  0.
        4    1    3    3  502    0  0.13243325255E+04  0.30136280027E+03 -0.10245426229E+03  0.13620479669E+04  0.12699999809E+01 0. -1.
       -4    1    3    3    0  502 -0.13243325255E+04 -0.30136280027E+03 -0.13186712698E+04  0.18930324102E+04  0.12699999809E+01 0.  1.
</event>
<event>
 5   0  0.9994311E-07  0.2899163E+04  0.7818609E-02  0.8273126E-01
        2   -1    0    0  501    0  0.00000000000E+00  0.00000000000E+00  0.22089848208E+04  0.22089848208E+04  0.25500000920E-02 0. -1.
       -2   -1    0    0    0  501  0.00000000000E+00  0.00000000000E+00 -0.95124558787E+03  0.95124558787E+03  0.25500000920E-02 0.  1.
    10030    2    1    2    0    0  0.00000000000E+00  0.00000000000E+00  0.12577392329E+04  0.31602304087E+04  0.28991633721E+04 0.  0.
        2    1    3    3  502    0  0.35219112739E+03 -0.12595539027E+04 -0.52539629382E+02  0.13089213256E+04  0.25500000920E-02 0.  1.
       -2    1    3    3    0  502 -0.35219112739E+03  0.12595539027E+04  0.13102788623E+04  0.18513090831E+04  0.25500000920E-02 0. -1.
</event>
<event>
 5   0  0.9994311E-07  0.2897063E+04  0.7818609E-02  0.8273752E-01
       -2   -1    0    0    0  501  0.00000000000E+00  0.00000000000E+00  0.14815983543E+04  0.14815983543E+04  0.25500000920E-02 0. -1.
        2   -1    0    0  501    0  0.00000000000E+00  0.00000000000E+00 -0.14162022037E+04  0.14162022037E+04  0.25500000920E-02 0.  1.
    10030    2    1    2    0    0  0.00000000000E+00  0.00000000000E+00  0.65396150598E+02  0.28978005581E+04  0.28970625499E+04 0.  0.
        2    1    3    3  502    0  0.74736935550E+03 -0.10650205056E+04 -0.60418480456E+03  0.14345274166E+04  0.25500000920E-02 0.  1.
       -2    1    3    3    0  502 -0.74736935550E+03  0.10650205056E+04  0.66958095516E+03  0.14632731415E+04  0.25500000920E-02 0. -1.
</event>
<event>
 5   0  0.3638028E-07  0.2901070E+04  0.7818609E-02  0.8272559E-01
       -1   -1    0    0    0  501  0.00000000000E+00  0.00000000000E+00  0.13342813266E+04  0.13342813266E+04  0.50400001928E-02 0.  1.
        1   -1    0    0  501    0  0.00000000000E+00  0.00000000000E+00 -0.15769171336E+04  0.15769171336E+04  0.50400001928E-02 0. -1.
    10030    2    1    2    0    0  0.00000000000E+00  0.00000000000E+00 -0.24263580705E+03  0.29111984602E+04  0.29010695166E+04 0.  0.
        4    1    3    3  502    0 -0.75491807028E+02  0.72878143409E+03 -0.13775786198E+04  0.15603031302E+04  0.12699999809E+01 0. -1.
       -4    1    3    3    0  502  0.75491807028E+02 -0.72878143409E+03  0.11349428127E+04  0.13508953300E+04  0.12699999809E+01 0.  1.
</event>
<event>
 5   0  0.9994311E-07  0.2904122E+04  0.7818609E-02  0.8271652E-01
        2   -1    0    0  501    0  0.00000000000E+00  0.00000000000E+00  0.93575896772E+03  0.93575896772E+03  0.25500000920E-02 0. -1.
       -2   -1    0    0    0  501  0.00000000000E+00  0.00000000000E+00 -0.22532313064E+04  0.22532313064E+04  0.25500000920E-02 0.  1.
    10030    2    1    2    0    0  0.00000000000E+00  0.00000000000E+00 -0.13174723386E+04  0.31889902741E+04  0.29041221746E+04 0.  0.
        2    1    3    3  502    0 -0.11589938738E+04 -0.18813131903E+02  0.30161368760E+03  0.11977443592E+04  0.25500000920E-02 0. -1.
       -2    1    3    3    0  502  0.11589938738E+04  0.18813131903E+02 -0.16190860262E+04  0.19912459149E+04  0.25500000920E-02 0.  1.
</event>
<event>
 5   0  0.1031339E-06  0.2902076E+04  0.7818609E-02  0.8272260E-01
        2   -1    0    0  501    0  0.00000000000E+00  0.00000000000E+00  0.15533938465E+04  0.15533938465E+04  0.25500000920E-02 0.  1.
       -2   -1    0    0    0  501  0.00000000000E+00  0.00000000000E+00 -0.13554263958E+04  0.13554263958E+04  0.25500000920E-02 0. -1.
    10030    2    1    2    0    0  0.00000000000E+00  0.00000000000E+00  0.19796745065E+03  0.29088202423E+04  0.29020758244E+04 0.  0.
        5    1    3    3  502    0 -0.77972254198E+02 -0.41216810872E+02 -0.13527297152E+04  0.13556099256E+04  0.46999998093E+01 0. -1.
       -5    1    3    3    0  502  0.77972254198E+02  0.41216810872E+02  0.15506971658E+04  0.15532103168E+04  0.46999998093E+01 0.  1.
</event>
<event>
 5   0  0.1031339E-06  0.2899135E+04  0.7818609E-02  0.8273135E-01
        2   -1    0    0  501    0  0.00000000000E+00  0.00000000000E+00  0.21966607485E+04  0.21966607485E+04  0.25500000920E-02 0.  1.
       -2   -1    0    0    0  501  0.00000000000E+00  0.00000000000E+00 -0.95656378021E+03  0.95656378022E+03  0.25500000920E-02 0. -1.
    10030    2    1    2    0    0  0.00000000000E+00  0.00000000000E+00  0.12400969683E+04  0.31532245287E+04  0.28991351189E+04 0.  0.
        5    1    3    3  502    0  0.10828418926E+04  0.76923225372E+03  0.12514056228E+04  0.18249117643E+04  0.46999998093E+01 0.  1.
       -5    1    3    3    0  502 -0.10828418926E+04 -0.76923225372E+03 -0.11308654518E+02  0.13283127645E+04  0.46999998093E+01 0. -1.
</event>
<event>
 5   0  0.9950999E-07  0.2898190E+04  0.7818609E-02  0.8273416E-01
        2   -1    0    0  501    0  0.00000000000E+00  0.00000000000E+00  0.19509231730E+04  0.19509231730E+04  0.25500000920E-02 0.  1.
       -2   -1    0    0    0  501  0.00000000000E+00  0.00000000000E+00 -0.10763497600E+04  0.10763497600E+04  0.25500000920E-02 0. -1.
    10030    2    1    2    0    0  0.00000000000E+00  0.00000000000E+00  0.87457341301E+03  0.30272729331E+04  0.28981895653E+04 0.  0.
        3    1    3    3  502    0  0.31174032366E+03 -0.74668037554E+03  0.16929785293E+04  0.18764034543E+04  0.10100000352E+00 0.  1.
       -3    1    3    3    0  502 -0.31174032366E+03  0.74668037554E+03 -0.81840511624E+03  0.11508694787E+04  0.10100000352E+00 0. -1.
</event>
<event>
 5   0  0.3786210E-07  0.2899826E+04  0.7818609E-02  0.8272929E-01
        1   -1    0    0  501    0  0.00000000000E+00  0.00000000000E+00  0.13091422276E+04  0.13091422276E+04  0.50400001928E-02 0.  1.
       -1   -1    0    0    0  501  0.00000000000E+00  0.00000000000E+00 -0.16058202800E+04  0.16058202800E+04  0.50400001928E-02 0. -1.
    10030    2    1    2    0    0  0.00000000000E+00  0.00000000000E+00 -0.29667805242E+03  0.29149625076E+04  0.28998256075E+04 0.  0.
        5    1    3    3  502    0 -0.53682352099E+03 -0.82932796046E+03 -0.12151330045E+04  0.15660570447E+04  0.46999998093E+01 0. -1.
       -5    1    3    3    0  502  0.53682352099E+03  0.82932796046E+03  0.91845495209E+03  0.13489054629E+04  0.46999998093E+01 0.  1.
</event>
<event>
 5   0  0.3770467E-07  0.2895433E+04  0.7818609E-02  0.8274238E-01
       -1   -1    0    0    0  501  0.00000000000E+00  0.00000000000E+00  0.10385916058E+04  0.10385916058E+04  0.50400001928E-02 0. -1.
        1   -1    0    0  501    0  0.00000000000E+00  0.00000000000E+00 -0.20180052182E+04  0.20180052182E+04  0.50400001928E-02 0.  1.
    10030    2    1    2    0    0  0.00000000000E+00  0.00000000000E+00 -0.97941361240E+03  0.30565968240E+04  0.28954331490E+04 0.  0.
        1    1    3    3  502    0  0.16177668574E+03  0.14229613690E+04 -0.26603479747E+03  0.14566280470E+04  0.50400001928E-02 0.  1.
       -1    1    3    3    0  502 -0.16177668574E+03 -0.14229613690E+04 -0.71337881493E+03  0.15999687770E+04  0.50400001928E-02 0. -1.
</event>
<event>
 5   0  0.9950999E-07  0.2900772E+04  0.7818609E-02  0.8272648E-01
       -2   -1    0    0    0  501  0.00000000000E+00  0.00000000000E+00  0.26295672943E+04  0.26295672943E+04  0.25500000920E-02 0. -1.
        2   -1    0    0  501    0  0.00000000000E+00  0.00000000000E+00 -0.79998702212E+03  0.79998702213E+03  0.25500000920E-02 0.  1.
    10030    2    1    2    0    0  0.00000000000E+00  0.00000000000E+00  0.18295802722E+04  0.34295543164E+04  0.29007721105E+04 0.  0.
        3    1    3    3  502    0  0.85199553000E+03 -0.65547055475E+03 -0.23639970598E+03  0.11006465656E+04  0.10100000352E+00 0.  1.
       -3    1    3    3    0  502 -0.85199553000E+03  0.65547055475E+03  0.20659799782E+04  0.23289077508E+04  0.10100000352E+00 0. -1.
</event>
<event>
 5   0  0.3885904E-07  0.2947007E+04  0.7818609E-02  0.8259027E-01
        1   -1    0    0  501    0  0.00000000000E+00  0.00000000000E+00  0.20368146906E+04  0.20368146907E+04  0.50400001928E-02 0. -1.
       -1   -1    0    0    0  501  0.00000000000E+00  0.00000000000E+00 -0.10659842801E+04  0.10659842801E+04  0.50400001928E-02 0.  1.
    10030    2    1    2    0    0  0.00000000000E+00  0.00000000000E+00  0.97083041053E+03  0.31027989708E+04  0.29470069167E+04 0.  0.
        2    1    3    3  502    0  0.45136147021E+03  0.13952723499E+04  0.33393315801E+03  0.15040024805E+04  0.25500000920E-02 0.  1.
       -2    1    3    3    0  502 -0.45136147021E+03 -0.13952723499E+04  0.63689725252E+03  0.15987964903E+04  0.25500000920E-02 0. -1.
</event>
<event>
 5   0  0.1006893E-06  0.2921506E+04  0.7818609E-02  0.8266508E-01
        2   -1    0    0  501    0  0.00000000000E+00  0.00000000000E+00  0.17864525041E+04  0.17864525041E+04  0.25500000920E-02 0.  1.
       -2   -1    0    0    0  501  0.00000000000E+00  0.00000000000E+00 -0.11944335917E+04  0.11944335917E+04  0.25500000920E-02 0. -1.
    10030    2    1    2    0    0  0.00000000000E+00  0.00000000000E+00  0.59201891244E+03  0.29808860958E+04  0.29215056946E+04 0.  0.
        4    1    3    3  502    0  0.10893501950E+04 -0.44015343203E+03  0.11816249782E+04  0.16663307274E+04  0.12699999809E+01 0.  1.
       -4    1    3    3    0  502 -0.10893501950E+04  0.44015343203E+03 -0.58960606571E+03  0.13145553684E+04  0.12699999809E+01 0. -1.
</event>
<event>
 5   0  0.3638028E-07  0.2898892E+04  0.7818609E-02  0.8273207E-01
       -1   -1    0    0    0  501  0.00000000000E+00  0.00000000000E+00  0.10834601222E+04  0.10834601222E+04  0.50400001928E-02 0.  1.
        1   -1    0    0  501    0  0.00000000000E+00  0.00000000000E+00 -0.19390596851E+04  0.19390596851E+04  0.50400001928E-02 0. -1.
    10030    2    1    2    0    0  0.00000000000E+00  0.00000000000E+00 -0.85559956297E+03  0.30225198073E+04  0.28988920941E+04 0.  0.
        4    1    3    3  502    0  0.90399245247E+03 -0.10473190138E+04 -0.87845081735E+03  0.16388279111E+04  0.12699999809E+01 0. -1.
       -4    1    3    3    0  502 -0.90399245247E+03  0.10473190138E+04  0.22851254375E+02  0.13836918962E+04  0.12699999809E+01 0.  1.
</event>
<event>
 5   0  0.1006893E-06  0.2899699E+04  0.7818609E-02  0.8272967E-01
        2   -1    0    0  501    0  0.00000000000E+00  0.00000000000E+00  0.28020901625E+04  0.28020901625E+04  0.25500000920E-02 0. -1.
       -2   -1    0    0    0  501  0.00000000000E+00  0.00000000000E+00 -0.75017692266E+03  0.75017692267E+03  0.25500000920E-02 0.  1.
    10030    2    1    2    0    0  0.00000000000E+00  0.00000000000E+00  0.20519132398E+04  0.35522670851E+04  0.28996988638E+04 0.  0.
        4    1    3    3  502    0 -0.11226717116E+04 -0.61683436639E+03  0.19401956763E+03  0.12955777140E+04  0.12699999809E+01 0. -1.
       -4    1    3    3    0  502  0.11226717116E+04  0.61683436639E+03  0.18578936722E+04  0.22566893711E+04  0.12699999809E+01 0.  1.
</event>
<event>
 5   0  0.1063979E-06  0.2900762E+04  0.7818609E-02  0.8272651E-01
        2   -1    0    0  501    0  0.00000000000E+00  0.00000000000E+00  0.15388537803E+04  0.15388537803E+04  0.25500000920E-02 0. -1.
       -2   -1    0    0    0  501  0.00000000000E+00  0.00000000000E+00 -0.13669951871E+04  0.13669951871E+04  0.25500000920E-02 0.  1.
    10030    2    1    2    0    0  0.00000000000E+00  0.00000000000E+00  0.17185859319E+03  0.29058489674E+04  0.29007624593E+04 0.  0.
        1    1    3    3  502    0 -0.12204303254E+04 -0.18237271530E+03 -0.67757232141E+03  0.14077692415E+04  0.50400001928E-02 0.  1.
       -1    1    3    3    0  502  0.12204303254E+04  0.18237271530E+03  0.84943091460E+03  0.14980797259E+04  0.50400001928E-02 0. -1.
</event>
<event>
 5   0  0.9994311E-07  0.2909807E+04  0.7818609E-02  0.8269966E-01
       -2   -1    0    0    0  501  0.00000000000E+00  0.00000000000E+00  0.86103690092E+03  0.86103690092E+03  0.25500000920E-02 0. -1.
        2   -1    0    0  501    0  0.00000000000E+00  0.00000000000E+00 -0.24583659165E+04  0.24583659165E+04  0.25500000920E-02 0.  1.
    10030    2    1    2    0    0  0.00000000000E+00  0.00000000000E+00 -0.15973290156E+04  0.33194028174E+04  0.29098067084E+04 0.  0.
        2    1    3    3  502    0  0.41949358663E+03 -0.37037882760E+03  0.73335585308E+03  0.92247826663E+03  0.25500000920E-02 0. -1.
       -2    1    3    3    0  502 -0.41949358663E+03  0.37037882760E+03 -0.23306848687E+04  0.23969245508E+04  0.25500000920E-02 0.  1.
</event>
<event>
 5   0  0.3769563E-07  0.2902118E+04  0.7818609E-02  0.8272248E-01
        1   -1    0    0  501    0  0.00000000000E+00  0.00000000000E+00  0.16563203794E+04  0.16563203794E+04  0.50400001928E-02 0. -1.
       -1   -1    0    0    0  501  0.00000000000E+00  0.00000000000E+00 -0.12712347580E+04  0.12712347580E+04  0.50400001928E-02 0.  1.
    10030    2    1    2    0    0  0.00000000000E+00  0.00000000000E+00  0.38508562143E+03  0.29275551374E+04  0.29021178727E+04 0.  0.
        3    1    3    3  502    0  0.99184348984E+02  0.14310310455E+04 -0.28200799228E+02  0.14347413299E+04  0.10100000352E+00 0.  1.
       -3    1    3    3    0  502 -0.99184348984E+02 -0.14310310455E+04  0.41328642066E+03  0.14928138076E+04  0.10100000352E+00 0. -1.
</event>
<event>
 5   0  0.3770467E-07  0.2909212E+04  0.7818609E-02  0.8270142E-01
       -1   -1    0    0    0  501  0.00000000000E+00  0.00000000000E+00  0.72392690699E+03  0.72392690701E+03  0.50400001928E-02 0.  1.
        1   -1    0    0  501    0  0.00000000000E+00  0.00000000000E+00 -0.29227791278E+04  0.29227791278E+04  0.50400001928E-02 0. -1.
    10030    2    1    2    0    0  0.00000000000E+00  0.00000000000E+00 -0.21988522208E+04  0.36467060348E+04  0.29092118891E+04 0.  0.
        1    1    3    3  502    0  0.12673572159E+04 -0.48366833067E+03 -0.44118887871E+03  0.14264560959E+04  0.50400001928E-02 0.  1.
       -1    1    3    3    0  502 -0.12673572159E+04  0.48366833067E+03 -0.17576633421E+04  0.22202499389E+04  0.50400001928E-02 0. -1.
</event>
<event>
 5   0  0.3885904E-07  0.2899134E+04  0.7818609E-02  0.8273135E-01
        1   -1    0    0  501    0  0.00000000000E+00  0.00000000000E+00  0.15852052761E+04  0.15852052761E+04  0.50400001928E-02 0. -1.
       -1   -1    0    0    0  501  0.00000000000E+00  0.00000000000E+00 -0.13255343700E+04  0.13255343700E+04  0.50400001928E-02 0.  1.
    10030    2    1    2    0    0  0.00000000000E+00  0.00000000000E+00  0.25967090606E+03  0.29107396461E+04  0.28991337168E+04 0.  0.
        2    1    3    3  502    0  0.12320852473E+04  0.70703673689E+03  0.41962403208E+03  0.14812222427E+04  0.25500000920E-02 0. -1.
       -2    1    3    3    0  502 -0.12320852473E+04 -0.70703673689E+03 -0.15995312602E+03  0.14295174034E+04  0.25500000920E-02 0.  1.
</event>
<event>
 5   0  0.9994311E-07  0.2883793E+04  0.7818609E-02  0.8277716E-01
        2   -1    0    0  501    0  0.00000000000E+00  0.00000000000E+00  0.16159097865E+04  0.16159097865E+04  0.25500000920E-02 0.  1.
       -2   -1    0    0    0  501  0.00000000000E+00  0.00000000000E+00 -0.12866226558E+04  0.12866226558E+04  0.25500000920E-02 0. -1.
    10030    2    1    2    0    0  0.00000000000E+00  0.00000000000E+00  0.32928713077E+03  0.29025324423E+04  0.28837934330E+04 0.  0.
        2    1    3    3  502    0 -0.13959142757E+03 -0.83865403006E+03  0.13367881229E+04  0.15842439314E+04  0.25500000920E-02 0.  1.
       -2    1    3    3    0  502  0.13959142757E+03  0.83865403006E+03 -0.10075009921E+04  0.13182885109E+04  0.25500000920E-02 0. -1.
</event>
<event>
 5   0  0.1031339E-06  0.2911453E+04  0.7818609E-02  0.8269478E-01
        2   -1    0    0  501    0  0.00000000000E+00  0.00000000000E+00  0.17942674175E+04  0.17942674175E+04  0.25500000920E-02 0. -1.
       -2   -1    0    0    0  501  0.00000000000E+00  0.00000000000E+00 -0.11810615875E+04  0.11810615875E+04  0.25500000920E-02 0.  1.
    10030    2    1    2    0    0  0.00000000000E+00  0.00000000000E+00  0.61320583007E+03  0.29753290050E+04  0.29114534683E+04 0.  0.
        5    1    3    3  502    0 -0.10914928474E+04  0.22985075298E+03 -0.64929574678E+03  0.12906568333E+04  0.46999998093E+01 0.  1.
       -5    1    3    3    0  502  0.10914928474E+04 -0.22985075298E+03  0.12625015768E+04  0.16846721717E+04  0.46999998093E+01 0. -1.
</event>
<event>
 5   0  0.3770467E-07  0.2894122E+04  0.7818609E-02  0.8274629E-01
        1   -1    0    0  501    0  0.00000000000E+00  0.00000000000E+00  0.26389988621E+04  0.26389988621E+04  0.50400001928E-02 0.  1.
       -1   -1    0    0    0  501  0.00000000000E+00  0.00000000000E+00 -0.79347710593E+03  0.79347710595E+03  0.50400001928E-02 0. -1.
    10030    2    1    2    0    0  0.00000000000E+00  0.00000000000E+00  0.18455217561E+04  0.34324759680E+04  0.28941217526E+04 0.  0.
        1    1    3    3  502    0 -0.91357548728E+03  0.25051468624E+03 -0.37461718422E+03  0.10186833726E+04  0.50400001928E-02 0. -1.
       -1    1    3    3    0  502  0.91357548728E+03 -0.25051468624E+03  0.22201389403E+04  0.24137925954E+04  0.50400001928E-02 0.  1.
</event>
<event>
 5   0  0.1063979E-06  0.2887976E+04  0.7818609E-02  0.8276464E-01
        2   -1    0    0  501    0  0.00000000000E+00  0.00000000000E+00  0.15955774701E+04  0.15955774701E+04  0.25500000920E-02 0. -1.
       -2   -1    0    0    0  501  0.00000000000E+00  0.00000000000E+00 -0.13068006808E+04  0.13068006808E+04  0.25500000920E-02 0.  1.
    10030    2    1    2    0    0  0.00000000000E+00  0.00000000000E+00  0.28877678929E+03  0.29023781509E+04  0.28879762632E+04 0.  0.
        1    1    3    3  502    0 -0.33989787145E+03  0.26664149739E+03 -0.12403337682E+04  0.13134139134E+04  0.50400001928E-02 0.  1.
       -1    1    3    3    0  502  0.33989787145E+03 -0.26664149739E+03  0.15291105575E+04  0.15889642376E+04  0.50400001928E-02 0. -1.
</event>
<event>
 5   0  0.3770467E-07  0.2899248E+04  0.7818609E-02  0.8273101E-01
       -1   -1    0    0    0  501  0.00000000000E+00  0.00000000000E+00  0.16513952954E+04  0.16513952954E+04  0.50400001928E-02 0. -1.
        1   -1    0    0  501    0  0.00000000000E+00  0.00000000000E+00 -0.12725058037E+04  0.12725058037E+04  0.50400001928E-02 0.  1.
    10030    2    1    2    0    0  0.00000000000E+00  0.00000000000E+00  0.37888949167E+03  0.29239010991E+04  0.28992482458E+04 0.  0.
        1    1    3    3  502    0 -0.19038834233E+03  0.27513397982E+02  0.16384660396E+04  0.16497198765E+04  0.50400001928E-02 0. -1.
       -1    1    3    3    0  502  0.19038834233E+03 -0.27513397982E+02 -0.12595765479E+04  0.12741812226E+04  0.50400001928E-02 0.  1.
</event>
<event>
 5   0  0.1031339E-06  0.2901408E+04  0.7818609E-02  0.8272459E-01
        2   -1    0    0  501    0  0.00000000000E+00  0.00000000000E+00  0.19176773536E+04  0.19176773536E+04  0.25500000920E-02 0. -1.
       -2   -1    0    0    0  501  0.00000000000E+00  0.00000000000E+00 -0.10974435070E+04  0.10974435070E+04  0.25500000920E-02 0.  1.
    10030    2    1    2    0    0  0.00000000000E+00  0.00000000000E+00  0.82023384660E+03  0.30151208605E+04  0.29014083202E+04 0.  0.
        5    1    3    3  502    0  0.83692908868E+03  0.47914763536E+03 -0.71609497786E+03  0.12011856073E+04  0.46999998093E+01 0.  1.
       -5    1    3    3    0  502 -0.83692908868E+03 -0.47914763536E+03  0.15363288245E+04  0.18139352532E+04  0.46999998093E+01 0. -1.
</event>
<event>
 5   0  0.1006893E-06  0.2893396E+04  0.7818609E-02  0.8274845E-01
       -2   -1    0    0    0  501  0.00000000000E+00  0.00000000000E+00  0.96216278240E+03  0.96216278240E+03  0.25500000920E-02 0.  1.
        2   -1    0    0  501    0  0.00000000000E+00  0.00000000000E+00 -0.21752394461E+04  0.21752394461E+04  0.25500000920E-02 0. -1.
    10030    2    1    2    0    0  0.00000000000E+00  0.00000000000E+00 -0.12130766637E+04  0.31374022285E+04  0.28933955401E+04 0.  0.
        4    1    3    3  502    0 -0.10601375181E+04  0.31835930296E+03  0.40351508998E+03  0.11781639291E+04  0.12699999809E+01 0.  1.
       -4    1    3    3    0  502  0.10601375181E+04 -0.31835930296E+03 -0.16165917537E+04  0.19592382995E+04  0.12699999809E+01 0. -1.
</event>
<event>
 5   0  0.1031339E-06  0.2899845E+04  0.7818609E-02  0.8272924E-01
       -2   -1    0    0    0  501  0.00000000000E+00  0.00000000000E+00  0.97362983058E+03  0.97362983059E+03  0.25500000920E-02 0.  1.
        2   -1    0    0  501    0  0.00000000000E+00  0.00000000000E+00 -0.21592135838E+04  0.21592135838E+04  0.25500000920E-02 0. -1.
    10030    2    1    2    0    0  0.00000000000E+00  0.00000000000E+00 -0.11855837532E+04  0.31328434144E+04  0.28998446550E+04 0.  0.
        5    1    3    3  502    0  0.11397693406E+04 -0.43360478926E+03 -0.14401361651E+04  0.18870881080E+04  0.46999998093E+01 0. -1.
       -5    1    3    3    0  502 -0.11397693406E+04  0.43360478926E+03  0.25455241191E+03  0.12457553064E+04  0.46999998093E+01 0.  1.
</event>
<event>
 5   0  0.1031339E-06  0.2873639E+04  0.7818609E-02  0.8280764E-01
        2   -1    0    0  501    0  0.00000000000E+00  0.00000000000E+00  0.23296837457E+04  0.23296837457E+04  0.25500000920E-02 0. -1.
       -2   -1    0    0    0  501  0.00000000000E+00  0.00000000000E+00 -0.88615021530E+03  0.88615021530E+03  0.25500000920E-02 0.  1.
    10030    2    1    2    0    0  0.00000000000E+00  0.00000000000E+00  0.14435335304E+04  0.32158339610E+04  0.28736386362E+04 0.  0.
        5    1    3    3  502    0 -0.12667312993E+04 -0.55959576106E+03  0.29318354604E+03  0.14155332148E+04  0.46999998093E+01 0. -1.
       -5    1    3    3    0  502  0.12667312993E+04  0.55959576106E+03  0.11503499843E+04  0.18003007462E+04  0.46999998093E+01 0.  1.
</event>
<event>
 5   0  0.3885904E-07  0.2876798E+04  0.7818609E-02  0.8279814E-01
       -1   -1    0    0    0  501  0.00000000000E+00  0.00000000000E+00  0.11850377292E+04  0.11850377292E+04  0.50400001928E-02 0.  1.
        1   -1    0    0  501    0  0.00000000000E+00  0.00000000000E+00 -0.17459291825E+04  0.17459291825E+04  0.50400001928E-02 0. -1.
    10030    2    1    2    0    0  0.00000000000E+00  0.00000000000E+00 -0.56089145333E+03  0.29309669117E+04  0.28767981881E+04 0.  0.
        2    1    3    3  502    0 -0.28009292683E+03  0.95384564713E+03 -0.13395965044E+04  0.16681703633E+04  0.25500000920E-02 0. -1.
       -2    1    3    3    0  502  0.28009292683E+03 -0.95384564713E+03  0.77870505108E+03  0.12627965485E+04  0.25500000920E-02 0.  1.
</event>
<event>
 5   0  0.1063979E-06  0.2936663E+04  0.7818609E-02  0.8262052E-01
        2   -1    0    0  501    0  0.00000000000E+00  0.00000000000E+00  0.23538185438E+04  0.23538185438E+04  0.25500000920E-02 0.  1.
       -2   -1    0    0    0  501  0.00000000000E+00  0.00000000000E+00 -0.91595718461E+03  0.91595718461E+03  0.25500000920E-02 0. -1.
    10030    2    1    2    0    0  0.00000000000E+00  0.00000000000E+00  0.14378613592E+04  0.32697757284E+04  0.29366627362E+04 0.  0.
        1    1    3    3  502    0  0.90811046172E+03 -0.11056347738E+04  0.35149096625E+03  0.14733087806E+04  0.50400001928E-02 0.  1.
       -1    1    3    3    0  502 -0.90811046172E+03  0.11056347738E+04  0.10863703930E+04  0.17964669478E+04  0.50400001928E-02 0. -1.
</event>
<event>
 5   0  0.3885904E-07  0.2900526E+04  0.7818609E-02  0.8272721E-01
        1   -1    0    0  501    0  0.00000000000E+00  0.00000000000E+00  0.20486777961E+04  0.20486777961E+04  0.50400001928E-02 0.  1.
       -1   -1    0    0    0  501  0.00000000000E+00  0.00000000000E+00 -0.10266442061E+04  0.10266442061E+04  0.50400001928E-02 0. -1.
    10030    2    1    2    0    0  0.00000000000E+00  0.00000000000E+00  0.10220335900E+04  0.30753220022E+04  0.29005262898E+04 0.  0.
        2    1    3    3  502    0 -0.90654834365E+03  0.52473698896E+03  0.15745008747E+04  0.18910927559E+04  0.25500000920E-02 0.  1.
       -2    1    3    3    0  502  0.90654834365E+03 -0.52473698896E+03 -0.55246728471E+03  0.11842292462E+04  0.25500000920E-02 0. -1.
</event>
<event>
 5   0  0.1006893E-06  0.2898622E+04  0.7818609E-02  0.8273287E-01
        2   -1    0    0  501    0  0.00000000000E+00  0.00000000000E+00  0.21275196876E+04  0.21275196876E+04  0.25500000920E-02 0. -1.
       -2   -1    0    0    0  501  0.00000000000E+00  0.00000000000E+00 -0.98730133124E+03  0.98730133124E+03  0.25500000920E-02 0.  1.
    10030    2    1    2    0    0  0.00000000000E+00  0.00000000000E+00  0.11402183563E+04  0.31148210188E+04  0.28986224451E+04 0.  0.
        4    1    3    3  502    0 -0.73990353815E+03  0.12264042946E+04  0.80792243500E+03  0.16444649627E+04  0.12699999809E+01 0.  1.
       -4    1    3    3    0  502  0.73990353815E+03 -0.12264042946E+04  0.33229592131E+03  0.14703560561E+04  0.12699999809E+01 0. -1.
</event>
<event>
 5   0  0.3769563E-07  0.2872351E+04  0.7818609E-02  0.8281152E-01
        1   -1    0    0  501    0  0.00000000000E+00  0.00000000000E+00  0.13829018327E+04  0.13829018327E+04  0.50400001928E-02 0. -1.
       -1   -1    0    0    0  501  0.00000000000E+00  0.00000000000E+00 -0.14915014164E+04  0.14915014164E+04  0.50400001928E-02 0.  1.
    10030    2    1    2    0    0  0.00000000000E+00  0.00000000000E+00 -0.10859958363E+03  0.28744032491E+04  0.28723509829E+04 0.  0.
        3    1    3    3  502    0 -0.45167926122E+03 -0.38555353354E+03 -0.13628786717E+04  0.14866418419E+04  0.10100000352E+00 0.  1.
       -3    1    3    3    0  502  0.45167926122E+03  0.38555353354E+03  0.12542790881E+04  0.13877614072E+04  0.10100000352E+00 0. -1.
</event>
<event>
 5   0  0.9950999E-07  0.2896977E+04  0.7818609E-02  0.8273777E-01
        2   -1    0    0  501    0  0.00000000000E+00  0.00000000000E+00  0.19069540692E+04  0.19069540692E+04  0.25500000920E-02 0. -1.
       -2   -1    0    0    0  501  0.00000000000E+00  0.00000000000E+00 -0.11002465016E+04  0.11002465016E+04  0.25500000920E-02 0.  1.
    10030    2    1    2    0    0  0.00000000000E+00  0.00000000000E+00  0.80670756758E+03  0.30072005708E+04  0.28969774203E+04 0.  0.
        3    1    3    3  502    0 -0.50728133648E+03 -0.10859682510E+04 -0.44089115643E+03  0.12771242769E+04  0.10100000352E+00 0.  1.
       -3    1    3    3    0  502  0.50728133648E+03  0.10859682510E+04  0.12475987240E+04  0.17300762939E+04  0.10100000352E+00 0. -1.
</event>
<event>
 5   0  0.3638028E-07  0.2896300E+04  0.7818609E-02  0.8273979E-01
       -1   -1    0    0    0  501  0.00000000000E+00  0.00000000000E+00  0.16628835305E+04  0.16628835305E+04  0.50400001928E-02 0.  1.
        1   -1    0    0  501    0  0.00000000000E+00  0.00000000000E+00 -0.12611460726E+04  0.12611460726E+04  0.50400001928E-02 0. -1.
    10030    2    1    2    0    0  0.00000000000E+00  0.00000000000E+00  0.40173745790E+03  0.29240296031E+04  0.28963004220E+04 0.  0.
        4    1    3    3  502    0 -0.13065983487E+03  0.20564094392E+03  0.16420430334E+04  0.16600202187E+04  0.12699999809E+01 0.  1.
       -4    1    3    3    0  502  0.13065983487E+03 -0.20564094392E+03 -0.12403055755E+04  0.12640093843E+04  0.12699999809E+01 0. -1.
</event>
<event>
 5   0  0.1063979E-06  0.2901646E+04  0.7818609E-02  0.8272388E-01
       -2   -1    0    0    0  501  0.00000000000E+00  0.00000000000E+00  0.10906412327E+04  0.10906412327E+04  0.25500000920E-02 0. -1.
        2   -1    0    0  501    0  0.00000000000E+00  0.00000000000E+00 -0.19299540916E+04  0.19299540916E+04  0.25500000920E-02 0.  1.
    10030    2    1    2    0    0  0.00000000000E+00  0.00000000000E+00 -0.83931285894E+03  0.30205953243E+04  0.29016460911E+04 0.  0.
        1    1    3    3  502    0  0.93814401164E+03  0.19183707700E+03 -0.15542783798E+04  0.18255675645E+04  0.50400001928E-02 0.  1.
       -1    1    3    3    0  502 -0.93814401164E+03 -0.19183707700E+03  0.71496552085E+03  0.11950277598E+04  0.50400001928E-02 0. -1.
</event>
<event>
 5   0  0.3786210E-07  0.2905265E+04  0.7818609E-02  0.8271313E-01
        1   -1    0    0  501    0  0.00000000000E+00  0.00000000000E+00  0.10400483423E+04  0.10400483423E+04  0.50400001928E-02 0. -1.
       -1   -1    0    0    0  501  0.00000000000E+00  0.00000000000E+00 -0.20288876385E+04  0.20288876385E+04  0.50400001928E-02 0.  1.
    10030    2    1    2    0    0  0.00000000000E+00  0.00000000000E+00 -0.98883929622E+03  0.30689359808E+04  0.29052650311E+04 0.  0.
        5    1    3    3  502    0 -0.13660797096E+04 -0.46291654763E+03 -0.31251616334E+03  0.14758570207E+04  0.46999998093E+01 0.  1.
       -5    1    3    3    0  502  0.13660797096E+04  0.46291654763E+03 -0.67632313288E+03  0.15930789601E+04  0.46999998093E+01 0. -1.
</event>
<event>
 5   0  0.3638028E-07  0.2897304E+04  0.7818609E-02  0.8273680E-01
       -1   -1    0    0    0  501  0.00000000000E+00  0.00000000000E+00  0.16965490272E+04  0.16965490272E+04  0.50400001928E-02 0. -1.
        1   -1    0    0  501    0  0.00000000000E+00  0.00000000000E+00 -0.12369776126E+04  0.12369776126E+04  0.50400001928E-02 0.  1.
    10030    2    1    2    0    0  0.00000000000E+00  0.00000000000E+00  0.45957141457E+03  0.29335266398E+04  0.28973043785E+04 0.  0.
        4    1    3    3  502    0  0.12830373065E+04 -0.11831709796E+03  0.90018738573E+03  0.15717896195E+04  0.12699999809E+01 0.  1.
       -4    1    3    3    0  502 -0.12830373065E+04  0.11831709796E+03 -0.44061597116E+03  0.13617370203E+04  0.12699999809E+01 0. -1.
</event>
<event>
 5   0  0.9950999E-07  0.2898880E+04  0.7818609E-02  0.8273211E-01
        2   -1    0    0  501    0  0.00000000000E+00  0.00000000000E+00  0.27107424905E+04  0.27107424905E+04  0.25500000920E-02 0.  1.
       -2   -1    0    0    0  501  0.00000000000E+00  0.00000000000E+00 -0.77501891865E+03  0.77501891865E+03  0.25500000920E-02 0. -1.
    10030    2    1    2    0    0  0.00000000000E+00  0.00000000000E+00  0.19357235718E+04  0.34857614091E+04  0.28988802760E+04 0.  0.
        3    1    3    3  502    0 -0.13277599460E+04 -0.46847763763E+03  0.55400385223E+03  0.15130558647E+04  0.10100000352E+00 0. -1.
       -3    1    3    3    0  502  0.13277599460E+04  0.46847763763E+03  0.13817197196E+04  0.19727055444E+04  0.10100000352E+00 0.  1.
</event>
<event>
 5   0  0.3786210E-07  0.2903988E+04  0.7818609E-02  0.8271692E-01
       -1   -1    0    0    0  501  0.00000000000E+00  0.00000000000E+00  0.83707500551E+03  0.83707500552E+03  0.50400001928E-02 0. -1.
        1   -1    0    0  501    0  0.00000000000E+00  0.00000000000E+00 -0.25186357763E+04  0.25186357763E+04  0.50400001928E-02 0.  1.
    10030    2    1    2    0    0  0.00000000000E+00  0.00000000000E+00 -0.16815607708E+04  0.33557107818E+04  0.29039883308E+04 0.  0.
        5    1    3    3  502    0 -0.13301439644E+04  0.57981740536E+03 -0.77970228620E+03  0.16472488988E+04  0.46999998093E+01 0.  1.
       -5    1    3    3    0  502  0.13301439644E+04 -0.57981740536E+03 -0.90185848458E+03  0.17084618830E+04  0.46999998093E+01 0. -1.
</event>
<event>
 5   0  0.3769563E-07  0.2963488E+04  0.7818609E-02  0.8254235E-01
        1   -1    0    0  501    0  0.00000000000E+00  0.00000000000E+00  0.21093524383E+04  0.21093524383E+04  0.50400001928E-02 0.  1.
       -1   -1    0    0    0  501  0.00000000000E+00  0.00000000000E+00 -0.10408714230E+04  0.10408714230E+04  0.50400001928E-02 0. -1.
    10030    2    1    2    0    0  0.00000000000E+00  0.00000000000E+00  0.10684810152E+04  0.31502238613E+04  0.29634875900E+04 0.  0.
        3    1    3    3  502    0 -0.22124851928E+03  0.26765122110E+03  0.20654862829E+04  0.20944740816E+04  0.10100000352E+00 0.  1.
       -3    1    3    3    0  502  0.22124851928E+03 -0.26765122110E+03 -0.99700526764E+03  0.10557497797E+04  0.10100000352E+00 0. -1.
</event>
<event>
 5   0  0.3885904E-07  0.2903189E+04  0.7818609E-02  0.8271929E-01
       -1   -1    0    0    0  501  0.00000000000E+00  0.00000000000E+00  0.10542502136E+04  0.10542502136E+04  0.50400001928E-02 0.  1.
        1   -1    0    0  501    0  0.00000000000E+00  0.00000000000E+00 -0.19986963164E+04  0.19986963164E+04  0.50400001928E-02 0. -1.
    10030    2    1    2    0    0  0.00000000000E+00  0.00000000000E+00 -0.94444610282E+03  0.30529465300E+04  0.29031886046E+04 0.  0.
        2    1    3    3  502    0  0.25334428838E+03 -0.69274327463E+03  0.84248797650E+03  0.11197600473E+04  0.25500000920E-02 0.  1.
       -2    1    3    3    0  502 -0.25334428838E+03  0.69274327463E+03 -0.17869340793E+04  0.19331864827E+04  0.25500000920E-02 0. -1.
</event>
<event>
 5   0  0.9994311E-07  0.2898933E+04  0.7818609E-02  0.8273195E-01
        2   -1    0    0  501    0  0.00000000000E+00  0.00000000000E+00  0.15412388262E+04  0.15412388262E+04  0.25500000920E-02 0.  1.
       -2   -1    0    0    0  501  0.00000000000E+00  0.00000000000E+00 -0.13631590863E+04  0.13631590863E+04  0.25500000920E-02 0. -1.
    10030    2    1    2    0    0  0.00000000000E+00  0.00000000000E+00  0.17807973983E+03  0.29043979125E+04  0.28989333970E+04 0.  0.
        2    1    3    3  502    0 -0.96847303928E+03 -0.33694784913E+03 -0.93733243880E+03  0.13892681461E+04  0.25500000920E-02 0. -1.
       -2    1    3    3    0  502  0.96847303928E+03  0.33694784913E+03  0.11154121786E+04  0.15151297664E+04  0.25500000920E-02 0.  1.
</event>
<event>
 5   0  0.3885904E-07  0.2898120E+04  0.7818609E-02  0.8273437E-01
        1   -1    0    0  501    0  0.00000000000E+00  0.00000000000E+00  0.13749311387E+04  0.13749311387E+04  0.50400001928E-02 0. -1.
       -1   -1    0    0    0  501  0.00000000000E+00  0.00000000000E+00 -0.15271852995E+04  0.15271852995E+04  0.50400001928E-02 0.  1.
    10030    2    1    2    0    0  0.00000000000E+00  0.00000000000E+00 -0.15225416081E+03  0.29021164382E+04  0.28981198201E+04 0.  0.
        2    1    3    3  502    0 -0.76923765052E+03  0.97813424206E+03 -0.81964778924E+03  0.14900656552E+04  0.25500000920E-02 0.  1.
       -2    1    3    3    0  502  0.76923765052E+03 -0.97813424206E+03  0.66739362843E+03  0.14120507830E+04  0.25500000920E-02 0. -1.
</event>
<event>
 5   0  0.3885904E-07  0.2895798E+04  0.7818609E-02  0.8274129E-01
       -1   -1    0    0    0  501  0.00000000000E+00  0.00000000000E+00  0.31288788020E+04  0.31288788020E+04  0.50400001928E-02 0. -1.
        1   -1    0    0  501    0  0.00000000000E+00  0.00000000000E+00 -0.67001982126E+03  0.67001982128E+03  0.50400001928E-02 0.  1.
    10030    2    1    2    0    0  0.00000000000E+00  0.00000000000E+00  0.24588589808E+04  0.37988986233E+04  0.28957975176E+04 0.  0.
        2    1    3    3  502    0 -0.12720311811E+04  0.45252504256E+03  0.54327388186E+03  0.14553311481E+04  0.25500000920E-02 0.  1.
       -2    1    3    3    0  502  0.12720311811E+04 -0.45252504256E+03  0.19155850989E+04  0.23435674752E+04  0.25500000920E-02 0. -1.
</event>
<event>
 5   0  0.3769563E-07  0.2891400E+04  0.7818609E-02  0.8275441E-01
        1   -1    0    0  501    0  0.00000000000E+00  0.00000000000E+00  0.65736526164E+03  0.65736526165E+03  0.50400001928E-02 0. -1.
       -1   -1    0    0    0  501  0.00000000000E+00  0.00000000000E+00 -0.31794332955E+04  0.31794332955E+04  0.50400001928E-02 0.  1.
    10030    2    1    2    0    0  0.00000000000E+00  0.00000000000E+00 -0.25220680339E+04  0.38367985571E+04  0.28914003529E+04 0.  0.
        3    1    3    3  502    0 -0.10506979325E+04  0.60948503945E+02  0.54184454100E+02  0.10538580696E+04  0.10100000352E+00 0. -1.
       -3    1    3    3    0  502  0.10506979325E+04 -0.60948503945E+02 -0.25762524880E+04  0.27829404876E+04  0.10100000352E+00 0.  1.
</event>
<event>
 5   0  0.1063979E-06  0.2900265E+04  0.7818609E-02  0.8272799E-01
        2   -1    0    0  501    0  0.00000000000E+00  0.00000000000E+00  0.12403480722E+04  0.12403480722E+04  0.25500000920E-02 0.  1.
       -2   -1    0    0    0  501  0.00000000000E+00  0.00000000000E+00 -0.16953981385E+04  0.16953981385E+04  0.25500000920E-02 0. -1.
    10030    2    1    2    0    0  0.00000000000E+00  0.00000000000E+00 -0.45505006632E+03  0.29357462108E+04  0.29002646864E+04 0.  0.
        1    1    3    3  502    0 -0.11724587345E+04 -0.70406931000E+03 -0.71561780837E+03  0.15435290490E+04  0.50400001928E-02 0. -1.
       -1    1    3    3    0  502  0.11724587345E+04  0.70406931000E+03  0.26056774205E+03  0.13922171618E+04  0.50400001928E-02 0.  1.
</event>
<event>
 5   0  0.1006893E-06  0.2903810E+04  0.7818609E-02  0.8271745E-01
        2   -1    0    0  501    0  0.00000000000E+00  0.00000000000E+00  0.17060837084E+04  0.17060837084E+04  0.25500000920E-02 0.  1.
       -2   -1    0    0    0  501  0.00000000000E+00  0.00000000000E+00 -0.12355946952E+04  0.12355946952E+04  0.25500000920E-02 0. -1.
    10030    2    1    2    0    0  0.00000000000E+00  0.00000000000E+00  0.47048901328E+03  0.29416784036E+04  0.29038098971E+04 0.  0.
        4    1    3    3  502    0 -0.89581873145E+03  0.86704646305E+03 -0.51861427303E+03  0.13502678052E+04  0.12699999809E+01 0. -1.
       -4    1    3    3    0  502  0.89581873145E+03 -0.86704646305E+03  0.98910328631E+03  0.15914105984E+04  0.12699999809E+01 0.  1.
</event>
<event>
 5   0  0.3770467E-07  0.2951303E+04  0.7818609E-02  0.8257775E-01
       -1   -1    0    0    0  501  0.00000000000E+00  0.00000000000E+00  0.10036529689E+04  0.10036529689E+04  0.50400001928E-02 0. -1.
        1   -1    0    0  501    0  0.00000000000E+00  0.00000000000E+00 -0.21696221130E+04  0.21696221130E+04  0.50400001928E-02 0.  1.
    10030    2    1    2    0    0  0.00000000000E+00  0.00000000000E+00 -0.11659691441E+04  0.31732750819E+04  0.29513032207E+04 0.  0.
        1    1    3    3  502    0 -0.11973562152E+04  0.13819410904E+03  0.33239124323E+03  0.12502973472E+04  0.50400001928E-02 0.  1.
       -1    1    3    3    0  502  0.11973562152E+04 -0.13819410904E+03 -0.14983603873E+04  0.19229777347E+04  0.50400001928E-02 0. -1.
</event>
<event>
 5   0  0.1063979E-06  0.2902415E+04  0.7818609E-02  0.8272159E-01
        2   -1    0    0  501    0  0.00000000000E+00  0.00000000000E+00  0.15868745646E+04  0.15868745646E+04  0.25500000920E-02 0. -1.
       -2   -1    0    0    0  501  0.00000000000E+00  0.00000000000E+00 -0.13271393649E+04  0.13271393649E+04  0.25500000920E-02 0.  1.
    10030    2    1    2    0    0  0.00000000000E+00  0.00000000000E+00  0.25973519974E+03  0.29140139295E+04  0.29024153402E+04 0.  0.
        1    1    3    3  502    0 -0.30384073834E+03  0.57993089106E+03  0.14301743235E+04  0.15729073807E+04  0.50400001928E-02 0. -1.
       -1    1    3    3    0  502  0.30384073834E+03 -0.57993089106E+03 -0.11704391238E+04  0.13411065488E+04  0.50400001928E-02 0.  1.
</event>
<event>
 5   0  0.1006893E-06  0.2901585E+04  0.7818609E-02  0.8272406E-01
        2   -1    0    0  501    0  0.00000000000E+00  0.00000000000E+00  0.95843432242E+03  0.95843432242E+03  0.25500000920E-02 0. -1.
       -2   -1    0    0    0  501  0.00000000000E+00  0.00000000000E+00 -0.21960798726E+04  0.21960798726E+04  0.25500000920E-02 0.  1.
    10030    2    1    2    0    0  0.00000000000E+00  0.00000000000E+00 -0.12376455502E+04  0.31545141951E+04  0.29015846186E+04 0.  0.
        4    1    3    3  502    0 -0.10428136126E+04 -0.69558994700E+03 -0.14128965217E+04  0.18888048600E+04  0.12699999809E+01 0.  1.
       -4    1    3    3    0  502  0.10428136126E+04  0.69558994700E+03  0.17525097147E+03  0.12657093351E+04  0.12699999809E+01 0. -1.
</event>
<event>
 5   0  0.1031339E-06  0.2902430E+04  0.7818609E-02  0.8272155E-01
        2   -1    0    0  501    0  0.00000000000E+00  0.00000000000E+00  0.13055902838E+04  0.13055902838E+04  0.25500000920E-02 0. -1.
       -2   -1    0    0    0  501  0.00000000000E+00  0.00000000000E+00 -0.16130828060E+04  0.16130828060E+04  0.25500000920E-02 0.  1.
    10030    2    1    2    0    0  0.00000000000E+00  0.00000000000E+00 -0.30749252218E+03  0.29186730899E+04  0.29024301808E+04 0.  0.
        5    1    3    3  502    0 -0.52505179399E+01  0.85210496180E+03 -0.13350085332E+04  0.15837866989E+04  0.46999998093E+01 0.  1.
       -5    1    3    3    0  502  0.52505179399E+01 -0.85210496180E+03  0.10275160110E+04  0.13348863910E+04  0.46999998093E+01 0. -1.
</event>
<event>
 5   0  0.1063979E-06  0.2902451E+04  0.7818609E-02  0.8272149E-01
       -2   -1    0    0    0  501  0.00000000000E+00  0.00000000000E+00  0.11151421001E+04  0.11151421001E+04  0.25500000920E-02 0.  1.
        2   -1    0    0  501    0  0.00000000000E+00  0.00000000000E+00 -0.18885977545E+04  0.18885977545E+04  0.25500000920E-02 0. -1.
    10030    2    1    2    0    0  0.00000000000E+00  0.00000000000E+00 -0.77345565447E+03  0.30037398546E+04  0.29024505964E+04 0.  0.
        1    1    3    3  502    0  0.40477744709E+03 -0.10513321243E+04  0.56002602214E+03  0.12580831303E+04  0.50400001928E-02 0.  1.
       -1    1    3    3    0  502 -0.40477744709E+03  0.10513321243E+04 -0.13334816766E+04  0.17456567243E+04  0.50400001928E-02 0. -1.
</event>
<event>
 5   0  0.1031339E-06  0.2885160E+04  0.7818609E-02  0.8277307E-01
       -2   -1    0    0    0  501  0.00000000000E+00  0.00000000000E+00  0.14343692291E+04  0.14343692291E+04  0.25500000920E-02 0.  1.
        2   -1    0    0  501    0  0.00000000000E+00  0.00000000000E+00 -0.14508374993E+04  0.14508374993E+04  0.25500000920E-02 0. -1.
    10030    2    1    2    0    0  0.00000000000E+00  0.00000000000E+00 -0.16468270192E+02  0.28852067284E+04  0.28851597290E+04 0.  0.
        5    1    3    3  502    0 -0.10849207568E+04  0.25893867400E+03 -0.92307814198E+03  0.14478251385E+04  0.46999998093E+01 0. -1.
       -5    1    3    3    0  502  0.10849207568E+04 -0.25893867400E+03  0.90660987179E+03  0.14373815899E+04  0.46999998093E+01 0.  1.
</event>
<event>
 5   0  0.1063979E-06  0.2907197E+04  0.7818609E-02  0.8270739E-01
        2   -1    0    0  501    0  0.00000000000E+00  0.00000000000E+00  0.16410543329E+04  0.16410543329E+04  0.25500000920E-02 0. -1.
       -2   -1    0    0    0  501  0.00000000000E+00  0.00000000000E+00 -0.12875553907E+04  0.12875553907E+04  0.25500000920E-02 0.  1.
    10030    2    1    2    0    0  0.00000000000E+00  0.00000000000E+00  0.35349894227E+03  0.29286097236E+04  0.29071968305E+04 0.  0.
        1    1    3    3  502    0  0.57140117553E+03  0.12420579324E+04  0.67408728867E+03  0.15243362108E+04  0.50400001928E-02 0. -1.
       -1    1    3    3    0  502 -0.57140117553E+03 -0.12420579324E+04 -0.32058834640E+03  0.14042735128E+04  0.50400001928E-02 0.  1.
</event>
<event>
 5   0  0.3638028E-07  0.2902691E+04  0.7818609E-02  0.8272077E-01
        1   -1    0    0  501    0  0.00000000000E+00  0.00000000000E+00  0.12845345128E+04  0.12845345128E+04  0.50400001928E-02 0.  1.
       -1   -1    0    0    0  501  0.00000000000E+00  0.00000000000E+00 -0.16398187440E+04  0.16398187440E+04  0.50400001928E-02 0. -1.
    10030    2    1    2    0    0  0.00000000000E+00  0.00000000000E+00 -0.35528423120E+03  0.29243532567E+04  0.29026910075E+04 0.  0.
        4    1    3    3  502    0  0.13232415043E+04  0.59460242143E+03 -0.13393587357E+03  0.14568666890E+04  0.12699999809E+01 0.  1.
       -4    1    3    3    0  502 -0.13232415043E+04 -0.59460242143E+03 -0.22134835762E+03  0.14674865678E+04  0.12699999809E+01 0. -1.
</event>
<event>
 5   0  0.3769563E-07  0.2897177E+04  0.7818609E-02  0.8273718E-01
        1   -1    0    0  501    0  0.00000000000E+00  0.00000000000E+00  0.16402143002E+04  0.16402143002E+04  0.50400001928E-02 0. -1.
       -1   -1    0    0    0  501  0.00000000000E+00  0.00000000000E+00 -0.12793498547E+04  0.12793498547E+04  0.50400001928E-02 0.  1.
    10030    2    1    2    0    0  0.00000000000E+00  0.00000000000E+00  0.36086444550E+03  0.29195641550E+04  0.28971765060E+04 0.  0.
        3    1    3    3  502    0 -0.14821848789E+03  0.16292185069E+03  0.16232415690E+04  0.16381164339E+04  0.10100000352E+00 0. -1.
       -3    1    3    3    0  502  0.14821848789E+03 -0.16292185069E+03 -0.12623771235E+04  0.12814477210E+04  0.10100000352E+00 0.  1.
</event>
<event>
 5   0  0.1063979E-06  0.2908736E+04  0.7818609E-02  0.8270283E-01
        2   -1    0    0  501    0  0.00000000000E+00  0.00000000000E+00  0.22422346848E+04  0.22422346848E+04  0.25500000920E-02 0.  1.
       -2   -1    0    0    0  501  0.00000000000E+00  0.00000000000E+00 -0.94333847693E+03  0.94333847693E+03  0.25500000920E-02 0. -1.
    10030    2    1    2    0    0  0.00000000000E+00  0.00000000000E+00  0.12988962078E+04  0.31855731617E+04  0.29087359815E+04 0.  0.
        1    1    3    3  502    0 -0.12431639964E+04  0.25795482553E+03 -0.12742266414E+03  0.12760227072E+04  0.50400001928E-02 0. -1.
       -1    1    3    3    0  502  0.12431639964E+04 -0.25795482553E+03  0.14263188720E+04  0.19095504545E+04  0.50400001928E-02 0.  1.
</event>
<event>
 5   0  0.3885904E-07  0.2904266E+04  0.7818609E-02  0.8271609E-01
       -1   -1    0    0    0  501  0.00000000000E+00  0.00000000000E+00  0.13662275527E+04  0.13662275527E+04  0.50400001928E-02 0. -1.
        1   -1    0    0  501    0  0.00000000000E+00  0.00000000000E+00 -0.15434401701E+04  0.15434401701E+04  0.50400001928E-02 0.  1.
    10030    2    1    2    0    0  0.00000000000E+00  0.00000000000E+00 -0.17721261736E+03  0.29096677228E+04  0.29042661630E+04 0.  0.
        2    1    3    3  502    0  0.65396091292E+03 -0.29920878580E+03  0.11752865610E+04  0.13778567682E+04  0.25500000920E-02 0. -1.
       -2    1    3    3    0  502 -0.65396091292E+03  0.29920878580E+03 -0.13524991784E+04  0.15318109546E+04  0.25500000920E-02 0.  1.
</event>
<event>
 5   0  0.9994311E-07  0.2891984E+04  0.7818609E-02  0.8275267E-01
       -2   -1    0    0    0  501  0.00000000000E+00  0.00000000000E+00  0.12755886567E+04  0.12755886567E+04  0.25500000920E-02 0.  1.
        2   -1    0    0  501    0  0.00000000000E+00  0.00000000000E+00 -0.16391587939E+04  0.16391587939E+04  0.25500000920E-02 0. -1.
    10030    2    1    2    0    0  0.00000000000E+00  0.00000000000E+00 -0.36357013725E+03  0.29147474506E+04  0.28919836542E+04 0.  0.
        2    1    3    3  502    0  0.27405584656E+02  0.14408741327E+04 -0.30113606681E+03  0.14722609358E+04  0.25500000920E-02 0.  1.
       -2    1    3    3    0  502 -0.27405584656E+02 -0.14408741327E+04 -0.62434070435E+02  0.14424865148E+04  0.25500000920E-02 0. -1.
</event>
<event>
 5   0  0.3638028E-07  0.2902378E+04  0.7818609E-02  0.8272170E-01
        1   -1    0    0  501    0  0.00000000000E+00  0.00000000000E+00  0.23111831806E+04  0.23111831807E+04  0.50400001928E-02 0. -1.
       -1   -1    0    0    0  501  0.00000000000E+00  0.00000000000E+00 -0.91119963594E+03  0.91119963596E+03  0.50400001928E-02 0.  1.
    10030    2    1    2    0    0  0.00000000000E+00  0.00000000000E+00  0.13999835447E+04  0.32223828166E+04  0.29023778340E+04 0.  0.
        4    1    3    3  502    0  0.73868402461E+03  0.41409014845E+03 -0.60842656493E+03  0.10427412129E+04  0.12699999809E+01 0.  1.
       -4    1    3    3    0  502 -0.73868402461E+03 -0.41409014845E+03  0.20084101096E+04  0.21796416037E+04  0.12699999809E+01 0. -1.
</event>
<event>
 5   0  0.1031339E-06  0.2905880E+04  0.7818609E-02  0.8271130E-01
        2   -1    0    0  501    0  0.00000000000E+00  0.00000000000E+00  0.14280737716E+04  0.14280737716E+04  0.25500000920E-02 0.  1.
       -2   -1    0    0    0  501  0.00000000000E+00  0.00000000000E+00 -0.14782395792E+04  0.14782395792E+04  0.25500000920E-02 0. -1.
    10030    2    1    2    0    0  0.00000000000E+00  0.00000000000E+00 -0.50165807635E+02  0.29063133508E+04  0.29058803632E+04 0.  0.
        5    1    3    3  502    0  0.12323261756E+03  0.39385046567E+03 -0.14183836623E+04  0.14772064076E+04  0.46999998093E+01 0. -1.
       -5    1    3    3    0  502 -0.12323261756E+03 -0.39385046567E+03  0.13682178546E+04  0.14291069432E+04  0.46999998093E+01 0.  1.
</event>
<event>
 5   0  0.3638028E-07  0.2894417E+04  0.7818609E-02  0.8274541E-01
        1   -1    0    0  501    0  0.00000000000E+00  0.00000000000E+00  0.12872927229E+04  0.12872927229E+04  0.50400001928E-02 0.  1.
       -1   -1    0    0    0  501  0.00000000000E+00  0.00000000000E+00 -0.16269897362E+04  0.16269897362E+04  0.50400001928E-02 0. -1.
    10030    2    1    2    0    0  0.00000000000E+00  0.00000000000E+00 -0.33969701334E+03  0.29142824591E+04  0.28944167272E+04 0.  0.
        4    1    3    3  502    0  0.12760071050E+04  0.38328383496E+03  0.39910491025E+03  0.13908224086E+04  0.12699999809E+01 0.  1.
       -4    1    3    3    0  502 -0.12760071050E+04 -0.38328383496E+03 -0.73880192359E+03  0.15234600504E+04  0.12699999809E+01 0. -1.
</event>
<event>
 5   0  0.1063979E-06  0.2901459E+04  0.7818609E-02  0.8272444E-01
        2   -1    0    0  501    0  0.00000000000E+00  0.00000000000E+00  0.20543028554E+04  0.20543028554E+04  0.25500000920E-02 0.  1.
       -2   -1    0    0    0  501  0.00000000000E+00  0.00000000000E+00 -0.10244913627E+04  0.10244913627E+04  0.25500000920E-02 0. -1.
    10030    2    1    2    0    0  0.00000000000E+00  0.00000000000E+00  0.10298114927E+04  0.30787942181E+04  0.29014586206E+04 0.  0.
        1    1    3    3  502    0  0.88982486538E+03 -0.82994016890E+03  0.13531407979E+04  0.18197744349E+04  0.50400001928E-02 0.  1.
       -1    1    3    3    0  502 -0.88982486538E+03  0.82994016890E+03 -0.32332930517E+03  0.12590197832E+04  0.50400001928E-02 0. -1.
</event>
<event>
 5   0  0.3885904E-07  0.2823843E+04  0.7818609E-02  0.8295904E-01
        1   -1    0    0  501    0  0.00000000000E+00  0.00000000000E+00  0.86909907289E+03  0.86909907290E+03  0.50400001928E-02 0. -1.
       -1   -1    0    0    0  501  0.00000000000E+00  0.00000000000E+00 -0.22937796540E+04  0.22937796541E+04  0.50400001928E-02 0.  1.
    10030    2    1    2    0    0  0.00000000000E+00  0.00000000000E+00 -0.14246805812E+04  0.31628787270E+04  0.28238426095E+04 0.  0.
        2    1    3    3  502    0 -0.38547783002E+02  0.78482100386E+03  0.60157014364E+03  0.98960425292E+03  0.25500000920E-02 0. -1.
       -2    1    3    3    0  502  0.38547783002E+02 -0.78482100386E+03 -0.20262507248E+04  0.21732744740E+04  0.25500000920E-02 0.  1.
</event>
<event>
 5   0  0.3885904E-07  0.2903609E+04  0.7818609E-02  0.8271804E-01
       -1   -1    0    0    0  501  0.00000000000E+00  0.00000000000E+00  0.84475435308E+03  0.84475435310E+03  0.50400001928E-02 0. -1.
        1   -1    0    0  501    0  0.00000000000E+00  0.00000000000E+00 -0.24950881847E+04  0.24950881847E+04  0.50400001928E-02 0.  1.
    10030    2    1    2    0    0  0.00000000000E+00  0.00000000000E+00 -0.16503338316E+04  0.33398425378E+04  0.29036092061E+04 0.  0.
        2    1    3    3  502    0  0.62645824950E+03  0.12861633010E+04 -0.54091458929E+03  0.15294621826E+04  0.25500000920E-02 0. -1.
       -2    1    3    3    0  502 -0.62645824950E+03 -0.12861633010E+04 -0.11094192424E+04  0.18103803552E+04  0.25500000920E-02 0.  1.
</event>
<event>
 5   0  0.3769563E-07  0.2900534E+04  0.7818609E-02  0.8272719E-01
        1   -1    0    0  501    0  0.00000000000E+00  0.00000000000E+00  0.15467500314E+04  0.15467500314E+04  0.50400001928E-02 0.  1.
       -1   -1    0    0    0  501  0.00000000000E+00  0.00000000000E+00 -0.13598022495E+04  0.13598022495E+04  0.50400001928E-02 0. -1.
    10030    2    1    2    0    0  0.00000000000E+00  0.00000000000E+00  0.18694778191E+03  0.29065522809E+04  0.29005338627E+04 0.  0.
        3    1    3    3  502    0  0.86006233341E+03  0.68169731736E+03 -0.85657332666E+03  0.13921696463E+04  0.10100000352E+00 0. -1.
       -3    1    3    3    0  502 -0.86006233341E+03 -0.68169731736E+03  0.10435211086E+04  0.15143826346E+04  0.10100000352E+00 0.  1.
</event>
<event>
 5   0  0.3786210E-07  0.2900505E+04  0.7818609E-02  0.8272727E-01
        1   -1    0    0  501    0  0.00000000000E+00  0.00000000000E+00  0.15421191758E+04  0.15421191758E+04  0.50400001928E-02 0. -1.
       -1   -1    0    0    0  501  0.00000000000E+00  0.00000000000E+00 -0.13638587308E+04  0.13638587308E+04  0.50400001928E-02 0.  1.
    10030    2    1    2    0    0  0.00000000000E+00  0.00000000000E+00  0.17826044500E+03  0.29059779066E+04  0.29005052676E+04 0.  0.
        5    1    3    3  502    0 -0.64222467949E+03  0.10860132116E+04 -0.62729475817E+03  0.14090415318E+04  0.46999998093E+01 0.  1.
       -5    1    3    3    0  502  0.64222467949E+03 -0.10860132116E+04  0.80555520318E+03  0.14969363748E+04  0.46999998093E+01 0. -1.
</event>
<event>
 5   0  0.3638028E-07  0.2904743E+04  0.7818609E-02  0.8271468E-01
       -1   -1    0    0    0  501  0.00000000000E+00  0.00000000000E+00  0.21903411989E+04  0.21903411989E+04  0.50400001928E-02 0. -1.
        1   -1    0    0  501    0  0.00000000000E+00  0.00000000000E+00 -0.96303820379E+03  0.96303820380E+03  0.50400001928E-02 0.  1.
    10030    2    1    2    0    0  0.00000000000E+00  0.00000000000E+00  0.12273029951E+04  0.31533794027E+04  0.29047425042E+04 0.  0.
        4    1    3    3  502    0  0.31730049827E+03 -0.26441915031E+03  0.21252388509E+04  0.21650032054E+04  0.12699999809E+01 0. -1.
       -4    1    3    3    0  502 -0.31730049827E+03  0.26441915031E+03 -0.89793585581E+03  0.98837619725E+03  0.12699999809E+01 0.  1.
</event>
<event>
 5   0  0.1006893E-06  0.2846919E+04  0.7818609E-02  0.8288848E-01
       -2   -1    0    0    0  501  0.00000000000E+00  0.00000000000E+00  0.79710129899E+03  0.79710129899E+03  0.25500000920E-02 0.  1.
        2   -1    0    0  501    0  0.00000000000E+00  0.00000000000E+00 -0.25420076187E+04  0.25420076187E+04  0.25500000920E-02 0. -1.
    10030    2    1    2    0    0  0.00000000000E+00  0.00000000000E+00 -0.17449063197E+04  0.33391089177E+04  0.28469194403E+04 0.  0.
        4    1    3    3  502    0  0.58556682082E+03  0.17208745227E+03  0.63584830306E+03  0.88136670590E+03  0.12699999809E+01 0.  1.
       -4    1    3    3    0  502 -0.58556682082E+03 -0.17208745227E+03 -0.23807546228E+04  0.24577422118E+04  0.12699999809E+01 0. -1.
</event>
<event>
 5   0  0.1063979E-06  0.2902984E+04  0.7818609E-02  0.8271990E-01
       -2   -1    0    0    0  501  0.00000000000E+00  0.00000000000E+00  0.17258856695E+04  0.17258856695E+04  0.25500000920E-02 0.  1.
        2   -1    0    0  501    0  0.00000000000E+00  0.00000000000E+00 -0.12207231270E+04  0.12207231270E+04  0.25500000920E-02 0. -1.
    10030    2    1    2    0    0  0.00000000000E+00  0.00000000000E+00  0.50516254252E+03  0.29466087965E+04  0.29029836729E+04 0.  0.
        1    1    3    3  502    0  0.10928281857E+04 -0.23604049453E+02 -0.71675579610E+03  0.13071225902E+04  0.50400001928E-02 0. -1.
       -1    1    3    3    0  502 -0.10928281857E+04  0.23604049453E+02  0.12219183386E+04  0.16394862063E+04  0.50400001928E-02 0.  1.
</event>
<event>
 5   0  0.1031339E-06  0.2869965E+04  0.7818609E-02  0.8281870E-01
       -2   -1    0    0    0  501  0.00000000000E+00  0.00000000000E+00  0.14180810810E+04  0.14180810810E+04  0.25500000920E-02 0.  1.
        2   -1    0    0  501    0  0.00000000000E+00  0.00000000000E+00 -0.14520853949E+04  0.14520853949E+04  0.25500000920E-02 0. -1.
    10030    2    1    2    0    0  0.00000000000E+00  0.00000000000E+00 -0.34004313962E+02  0.28701664759E+04  0.28699650357E+04 0.  0.
        5    1    3    3  502    0  0.48015478670E+03  0.68176047393E+03 -0.11849055044E+04  0.14489199796E+04  0.46999998093E+01 0. -1.
       -5    1    3    3    0  502 -0.48015478670E+03 -0.68176047393E+03  0.11509011904E+04  0.14212464963E+04  0.46999998093E+01 0.  1.
</event>
<event>
 5   0  0.9994311E-07  0.2900422E+04  0.7818609E-02  0.8272752E-01
        2   -1    0    0  501    0  0.00000000000E+00  0.00000000000E+00  0.78088008710E+03  0.78088008711E+03  0.25500000920E-02 0. -1.
       -2   -1    0    0    0  501  0.00000000000E+00  0.00000000000E+00 -0.26932578620E+04  0.26932578620E+04  0.25500000920E-02 0.  1.
    10030    2    1    2    0    0  0.00000000000E+00  0.00000000000E+00 -0.19123777749E+04  0.34741379491E+04  0.29004216479E+04 0.  0.
        2    1    3    3  502    0 -0.59042130456E+03  0.91102067692E+03 -0.21079234535E+04  0.23710540434E+04  0.25500000920E-02 0.  1.
       -2    1    3    3    0  502  0.59042130456E+03 -0.91102067692E+03  0.19554567863E+03  0.11030839057E+04  0.25500000920E-02 0. -1.
</event>
<event>
 5   0  0.3885904E-07  0.2859272E+04  0.7818609E-02  0.8285099E-01
        1   -1    0    0  501    0  0.00000000000E+00  0.00000000000E+00  0.25947412771E+04  0.25947412771E+04  0.50400001928E-02 0.  1.
       -1   -1    0    0    0  501  0.00000000000E+00  0.00000000000E+00 -0.78769306800E+03  0.78769306801E+03  0.50400001928E-02 0. -1.
    10030    2    1    2    0    0  0.00000000000E+00  0.00000000000E+00  0.18070482091E+04  0.33824343452E+04  0.28592724370E+04 0.  0.
        2    1    3    3  502    0 -0.10033654300E+04 -0.47742115106E+03  0.19676626446E+04  0.22597277323E+04  0.25500000920E-02 0.  1.
       -2    1    3    3    0  502  0.10033654300E+04  0.47742115106E+03 -0.16061443542E+03  0.11227066128E+04  0.25500000920E-02 0. -1.
</event>
<event>
 5   0  0.3770467E-07  0.2901196E+04  0.7818609E-02  0.8272522E-01
       -1   -1    0    0    0  501  0.00000000000E+00  0.00000000000E+00  0.13054661822E+04  0.13054661822E+04  0.50400001928E-02 0.  1.
        1   -1    0    0  501    0  0.00000000000E+00  0.00000000000E+00 -0.16118648521E+04  0.16118648521E+04  0.50400001928E-02 0. -1.
    10030    2    1    2    0    0  0.00000000000E+00  0.00000000000E+00 -0.30639866997E+03  0.29173310343E+04  0.29011963427E+04 0.  0.
        1    1    3    3  502    0  0.92618893802E+03 -0.11160219300E+04 -0.12296289616E+03  0.14554898732E+04  0.50400001928E-02 0.  1.
       -1    1    3    3    0  502 -0.92618893802E+03  0.11160219300E+04 -0.18343577381E+03  0.14618411611E+04  0.50400001928E-02 0. -1.
</event>
<event>
 5   0  0.1031339E-06  0.2896310E+04  0.7818609E-02  0.8273976E-01
        2   -1    0    0  501    0  0.00000000000E+00  0.00000000000E+00  0.12630211072E+04  0.12630211072E+04  0.25500000920E-02 0.  1.
       -2   -1    0    0    0  501  0.00000000000E+00  0.00000000000E+00 -0.16604253963E+04  0.16604253963E+04  0.25500000920E-02 0. -1.
    10030    2    1    2    0    0  0.00000000000E+00  0.00000000000E+00 -0.39740428911E+03  0.29234465035E+04  0.28963095984E+04 0.  0.
        5    1    3    3  502    0 -0.25238537921E+03  0.83902451297E+03  0.96512743947E+03  0.13035158524E+04  0.46999998093E+01 0.  1.
       -5    1    3    3    0  502  0.25238537921E+03 -0.83902451297E+03 -0.13625317286E+04  0.16199306511E+04  0.46999998093E+01 0. -1.
</event>
<event>
 5   0  0.1063979E-06  0.2900331E+04  0.7818609E-02  0.8272779E-01
        2   -1    0    0  501    0  0.00000000000E+00  0.00000000000E+00  0.22123710532E+04  0.22123710532E+04  0.25500000920E-02 0.  1.
       -2   -1    0    0    0  501  0.00000000000E+00  0.00000000000E+00 -0.95055505538E+03  0.95055505538E+03  0.25500000920E-02 0. -1.
    10030    2    1    2    0    0  0.00000000000E+00  0.00000000000E+00  0.12618159978E+04  0.31629261086E+04  0.29003313528E+04 0.  0.
        1    1    3    3  502    0 -0.10650260865E+04  0.69070990265E+03 -0.13373037842E+03  0.12764186416E+04  0.50400001928E-02 0. -1.
       -1    1    3    3    0  502  0.10650260865E+04 -0.69070990265E+03  0.13955463762E+04  0.18865074669E+04  0.50400001928E-02 0.  1.
</event>
<event>
 5   0  0.3786210E-07  0.2894957E+04  0.7818609E-02  0.8274380E-01
       -1   -1    0    0    0  501  0.00000000000E+00  0.00000000000E+00  0.84991335415E+03  0.84991335416E+03  0.50400001928E-02 0.  1.
        1   -1    0    0  501    0  0.00000000000E+00  0.00000000000E+00 -0.24651851397E+04  0.24651851398E+04  0.50400001928E-02 0. -1.
    10030    2    1    2    0    0  0.00000000000E+00  0.00000000000E+00 -0.16152717856E+04  0.33150984939E+04  0.28949568361E+04 0.  0.
        5    1    3    3  502    0 -0.83686563704E+03 -0.10563595269E+04 -0.20284726014E+03  0.13628678019E+04  0.46999998093E+01 0.  1.
       -5    1    3    3    0  502  0.83686563704E+03  0.10563595269E+04 -0.14124245255E+04  0.19522306920E+04  0.46999998093E+01 0. -1.
</event>
<event>
 5   0  0.3769563E-07  0.2901274E+04  0.7818609E-02  0.8272499E-01
        1   -1    0    0  501    0  0.00000000000E+00  0.00000000000E+00  0.19480702840E+04  0.19480702841E+04  0.50400001928E-02 0. -1.
       -1   -1    0    0    0  501  0.00000000000E+00  0.00000000000E+00 -0.10802216976E+04  0.10802216976E+04  0.50400001928E-02 0.  1.
    10030    2    1    2    0    0  0.00000000000E+00  0.00000000000E+00  0.86784858644E+03  0.30282919817E+04  0.29012740576E+04 0.  0.
        3    1    3    3  502    0 -0.46072771559E+03  0.13522644946E+04  0.69686259365E+03  0.15894989072E+04  0.10100000352E+00 0. -1.
       -3    1    3    3    0  502  0.46072771559E+03 -0.13522644946E+04  0.17098599279E+03  0.14387930745E+04  0.10100000352E+00 0.  1.
</event>
<event>
 5   0  0.1031339E-06  0.2903824E+04  0.7818609E-02  0.8271741E-01
       -2   -1    0    0    0  501  0.00000000000E+00  0.00000000000E+00  0.90006008153E+03  0.90006008153E+03  0.25500000920E-02 0. -1.
        2   -1    0    0  501    0  0.00000000000E+00  0.00000000000E+00 -0.23421196550E+04  0.23421196550E+04  0.25500000920E-02 0.  1.
    10030    2    1    2    0    0  0.00000000000E+00  0.00000000000E+00 -0.14420595735E+04  0.32421797366E+04  0.29038239669E+04 0.  0.
        5    1    3    3  502    0 -0.79068170734E+03 -0.97264474412E+03 -0.15390753389E+04  0.19849408932E+04  0.46999998093E+01 0.  1.
       -5    1    3    3    0  502  0.79068170734E+03  0.97264474412E+03  0.97015765410E+02  0.12572388434E+04  0.46999998093E+01 0. -1.
</event>
<event>
 5   0  0.3769563E-07  0.2927510E+04  0.7818609E-02  0.8264739E-01
        1   -1    0    0  501    0  0.00000000000E+00  0.00000000000E+00  0.25037849068E+04  0.25037849068E+04  0.50400001928E-02 0. -1.
       -1   -1    0    0    0  501  0.00000000000E+00  0.00000000000E+00 -0.85573583194E+03  0.85573583195E+03  0.50400001928E-02 0.  1.
    10030    2    1    2    0    0  0.00000000000E+00  0.00000000000E+00  0.16480490749E+04  0.33595207388E+04  0.29275098362E+04 0.  0.
        3    1    3    3  502    0 -0.12772329737E+04 -0.59881292215E+03  0.12724253943E+04  0.18997282383E+04  0.10100000352E+00 0.  1.
       -3    1    3    3    0  502  0.12772329737E+04  0.59881292215E+03  0.37562368054E+03  0.14597925005E+04  0.10100000352E+00 0. -1.
</event>
<event>
 5   0  0.9950999E-07  0.2901433E+04  0.7818609E-02  0.8272451E-01
       -2   -1    0    0    0  501  0.00000000000E+00  0.00000000000E+00  0.11398165735E+04  0.11398165735E+04  0.25500000920E-02 0.  1.
        2   -1    0    0  501    0  0.00000000000E+00  0.00000000000E+00 -0.18464178445E+04  0.18464178445E+04  0.25500000920E-02 0. -1.
    10030    2    1    2    0    0  0.00000000000E+00  0.00000000000E+00 -0.70660127098E+03  0.29862344180E+04  0.29014325157E+04 0.  0.
        3    1    3    3  502    0 -0.38745916690E+03 -0.23532001393E+03 -0.17716485391E+04  0.18287259694E+04  0.10100000352E+00 0. -1.
       -3    1    3    3    0  502  0.38745916690E+03  0.23532001393E+03  0.10650472681E+04  0.11575084486E+04  0.10100000352E+00 0.  1.
</event>
<event>
 5   0  0.3885904E-07  0.2900144E+04  0.7818609E-02  0.8272835E-01
       -1   -1    0    0    0  501  0.00000000000E+00  0.00000000000E+00  0.14020636444E+04  0.14020636444E+04  0.50400001928E-02 0.  1.
        1   -1    0    0  501    0  0.00000000000E+00  0.00000000000E+00 -0.14997237600E+04  0.14997237600E+04  0.50400001928E-02 0. -1.
    10030    2    1    2    0    0  0.00000000000E+00  0.00000000000E+00 -0.97660115637E+02  0.29017874044E+04  0.29001435554E+04 0.  0.
        2    1    3    3  502    0  0.94489325575E+03 -0.42005562693E+03  0.96832776545E+03  0.14166610942E+04  0.25500000920E-02 0.  1.
       -2    1    3    3    0  502 -0.94489325575E+03  0.42005562693E+03 -0.10659878811E+04  0.14851263102E+04  0.25500000920E-02 0. -1.
</event>
<event>
 5   0  0.1063979E-06  0.2903010E+04  0.7818609E-02  0.8271982E-01
       -2   -1    0    0    0  501  0.00000000000E+00  0.00000000000E+00  0.13120507396E+04  0.13120507396E+04  0.25500000920E-02 0.  1.
        2   -1    0    0  501    0  0.00000000000E+00  0.00000000000E+00 -0.16057819434E+04  0.16057819434E+04  0.25500000920E-02 0. -1.
    10030    2    1    2    0    0  0.00000000000E+00  0.00000000000E+00 -0.29373120383E+03  0.29178326830E+04  0.29030104282E+04 0.  0.
        1    1    3    3  502    0 -0.14102837661E+04 -0.26782153967E+03 -0.36299539437E+03  0.14806736083E+04  0.50400001928E-02 0.  1.
       -1    1    3    3    0  502  0.14102837661E+04  0.26782153967E+03  0.69264190542E+02  0.14371590747E+04  0.50400001928E-02 0. -1.
</event>
<event>
 5   0  0.3885904E-07  0.2891228E+04  0.7818609E-02  0.8275492E-01
       -1   -1    0    0    0  501  0.00000000000E+00  0.00000000000E+00  0.77740111793E+03  0.77740111795E+03  0.50400001928E-02 0.  1.
        1   -1    0    0  501    0  0.00000000000E+00  0.00000000000E+00 -0.26881867123E+04  0.26881867123E+04  0.50400001928E-02 0. -1.
    10030    2    1    2    0    0  0.00000000000E+00  0.00000000000E+00 -0.19107855943E+04  0.34655878302E+04  0.28912276668E+04 0.  0.
        2    1    3    3  502    0 -0.40901377543E+02 -0.14359352247E+04 -0.76131240157E+03  0.16257857993E+04  0.25500000920E-02 0. -1.
       -2    1    3    3    0  502  0.40901377543E+02  0.14359352247E+04 -0.11494731927E+04  0.18398020310E+04  0.25500000920E-02 0.  1.
</event>
<event>
 5   0  0.1006893E-06  0.2891438E+04  0.7818609E-02  0.8275429E-01
       -2   -1    0    0    0  501  0.00000000000E+00  0.00000000000E+00  0.95369415325E+03  0.95369415325E+03  0.25500000920E-02 0. -1.
        2   -1    0    0  501    0  0.00000000000E+00  0.00000000000E+00 -0.21915866313E+04  0.21915866313E+04  0.25500000920E-02 0.  1.
    10030    2    1    2    0    0  0.00000000000E+00  0.00000000000E+00 -0.12378924780E+04  0.31452807845E+04  0.28914379513E+04 0.  0.
        4    1    3    3  502    0 -0.89161917622E+03 -0.28240451405E+03 -0.18181662035E+04  0.20446190407E+04  0.12699999809E+01 0.  1.
       -4    1    3    3    0  502  0.89161917622E+03  0.28240451405E+03  0.58027372551E+03  0.11006617438E+04  0.12699999809E+01 0. -1.
</event>
<event>
 5   0  0.3638028E-07  0.2897151E+04  0.7818609E-02  0.8273726E-01
        1   -1    0    0  501    0  0.00000000000E+00  0.00000000000E+00  0.11424232319E+04  0.11424232319E+04  0.50400001928E-02 0.  1.
       -1   -1    0    0    0  501  0.00000000000E+00  0.00000000000E+00 -0.18367716125E+04  0.18367716125E+04  0.50400001928E-02 0. -1.
    10030    2    1    2    0    0  0.00000000000E+00  0.00000000000E+00 -0.69434838067E+03  0.29791948444E+04  0.28971507119E+04 0.  0.
        4    1    3    3  502    0  0.81759739061E+03 -0.66833482594E+03  0.67248684902E+03  0.12519493231E+04  0.12699999809E+01 0.  1.
       -4    1    3    3    0  502 -0.81759739061E+03  0.66833482594E+03 -0.13668352297E+04  0.17272455213E+04  0.12699999809E+01 0. -1.
</event>
<event>
 5   0  0.3885904E-07  0.2898707E+04  0.7818609E-02  0.8273262E-01
        1   -1    0    0  501    0  0.00000000000E+00  0.00000000000E+00  0.23553912220E+04  0.23553912220E+04  0.50400001928E-02 0.  1.
       -1   -1    0    0    0  501  0.00000000000E+00  0.00000000000E+00 -0.89183698325E+03  0.89183698326E+03  0.50400001928E-02 0. -1.
    10030    2    1    2    0    0  0.00000000000E+00  0.00000000000E+00  0.14635542388E+04  0.32472282053E+04  0.28987066094E+04 0.  0.
        2    1    3    3  502    0  0.12253075422E+03 -0.10866811055E+04  0.17973160934E+04  0.21038618658E+04  0.25500000920E-02 0.  1.
       -2    1    3    3    0  502 -0.12253075422E+03  0.10866811055E+04 -0.33376185460E+03  0.11433663395E+04  0.25500000920E-02 0. -1.
</event>
<event>
 5   0  0.3786210E-07  0.2896379E+04  0.7818609E-02  0.8273956E-01
        1   -1    0    0  501    0  0.00000000000E+00  0.00000000000E+00  0.16162718110E+04  0.16162718110E+04  0.50400001928E-02 0. -1.
       -1   -1    0    0    0  501  0.00000000000E+00  0.00000000000E+00 -0.12975870516E+04  0.12975870516E+04  0.50400001928E-02 0.  1.
    10030    2    1    2    0    0  0.00000000000E+00  0.00000000000E+00  0.31868475933E+03  0.29138588626E+04  0.28963793770E+04 0.  0.
        5    1    3    3  502    0 -0.79072054030E+03  0.11491086206E+04 -0.23229048315E+03  0.14140970806E+04  0.46999998093E+01 0.  1.
       -5    1    3    3    0  502  0.79072054030E+03 -0.11491086206E+04  0.55097524248E+03  0.14997617820E+04  0.46999998093E+01 0. -1.
</event>
<event>
 5   0  0.3885904E-07  0.2900048E+04  0.7818609E-02  0.8272863E-01
        1   -1    0    0  501    0  0.00000000000E+00  0.00000000000E+00  0.15265152742E+04  0.15265152742E+04  0.50400001928E-02 0. -1.
       -1   -1    0    0    0  501  0.00000000000E+00  0.00000000000E+00 -0.13773657295E+04  0.13773657295E+04  0.50400001928E-02 0.  1.
    10030    2    1    2    0    0  0.00000000000E+00  0.00000000000E+00  0.14914954468E+03  0.29038810037E+04  0.29000481542E+04 0.  0.
        2    1    3    3  502    0  0.89434056898E+03  0.11053482996E+04 -0.21028303594E+03  0.14373095950E+04  0.25500000920E-02 0.  1.
       -2    1    3    3    0  502 -0.89434056898E+03 -0.11053482996E+04  0.35943258063E+03  0.14665714087E+04  0.25500000920E-02 0. -1.
</event>
<event>
 5   0  0.3769563E-07  0.2901955E+04  0.7818609E-02  0.8272296E-01
        1   -1    0    0  501    0  0.00000000000E+00  0.00000000000E+00  0.18052791511E+04  0.18052791511E+04  0.50400001928E-02 0. -1.
       -1   -1    0    0    0  501  0.00000000000E+00  0.00000000000E+00 -0.11662109499E+04  0.11662109499E+04  0.50400001928E-02 0.  1.
    10030    2    1    2    0    0  0.00000000000E+00  0.00000000000E+00  0.63906820121E+03  0.29714901011E+04  0.29019554192E+04 0.  0.
        3    1    3    3  502    0 -0.14140179219E+04  0.21337473715E+03  0.67962742324E+02  0.14316404599E+04  0.10100000352E+00 0.  1.
       -3    1    3    3    0  502  0.14140179219E+04 -0.21337473715E+03  0.57110545888E+03  0.15398496412E+04  0.10100000352E+00 0. -1.
</event>
<event>
 5   0  0.3786210E-07  0.2894364E+04  0.7818609E-02  0.8274556E-01
        1   -1    0    0  501    0  0.00000000000E+00  0.00000000000E+00  0.13172269908E+04  0.13172269908E+04  0.50400001928E-02 0.  1.
       -1   -1    0    0    0  501  0.00000000000E+00  0.00000000000E+00 -0.15899583563E+04  0.15899583563E+04  0.50400001928E-02 0. -1.
    10030    2    1    2    0    0  0.00000000000E+00  0.00000000000E+00 -0.27273136549E+03  0.29071853470E+04  0.28943642211E+04 0.  0.
        5    1    3    3  502    0 -0.13886405744E+04  0.10544126214E+02 -0.54545368874E+03  0.14919703884E+04  0.46999998093E+01 0. -1.
       -5    1    3    3    0  502  0.13886405744E+04 -0.10544126214E+02  0.27272232325E+03  0.14152149586E+04  0.46999998093E+01 0.  1.
</event>
<event>
 5   0  0.3786210E-07  0.2891630E+04  0.7818609E-02  0.8275372E-01
       -1   -1    0    0    0  501  0.00000000000E+00  0.00000000000E+00  0.76530700748E+03  0.76530700750E+03  0.50400001928E-02 0. -1.
        1   -1    0    0  501    0  0.00000000000E+00  0.00000000000E+00 -0.27314288444E+04  0.27314288444E+04  0.50400001928E-02 0.  1.
    10030    2    1    2    0    0  0.00000000000E+00  0.00000000000E+00 -0.19661218369E+04  0.34967358519E+04  0.28916304294E+04 0.  0.
        5    1    3    3  502    0 -0.43870636547E+03  0.11216235770E+03  0.67733670213E+03  0.81477037725E+03  0.46999998093E+01 0. -1.
       -5    1    3    3    0  502  0.43870636547E+03 -0.11216235770E+03 -0.26434585390E+04  0.26819654746E+04  0.46999998093E+01 0.  1.
</event>
<event>
 5   0  0.3786210E-07  0.2909182E+04  0.7818609E-02  0.8270151E-01
        1   -1    0    0  501    0  0.00000000000E+00  0.00000000000E+00  0.10374955621E+04  0.10374955621E+04  0.50400001928E-02 0. -1.
       -1   -1    0    0    0  501  0.00000000000E+00  0.00000000000E+00 -0.20393683828E+04  0.20393683828E+04  0.50400001928E-02 0.  1.
    10030    2    1    2    0    0  0.00000000000E+00  0.00000000000E+00 -0.10018728206E+04  0.30768639449E+04  0.29091824602E+04 0.  0.
        5    1    3    3  502    0 -0.28840945323E+03 -0.12877967708E+04 -0.11479252357E+04  0.17491011899E+04  0.46999998093E+01 0.  1.
       -5    1    3    3    0  502  0.28840945323E+03  0.12877967708E+04  0.14605241511E+03  0.13277627550E+04  0.46999998093E+01 0. -1.
</event>
<event>
 5   0  0.1006893E-06  0.2904896E+04  0.7818609E-02  0.8271422E-01
       -2   -1    0    0    0  501  0.00000000000E+00  0.00000000000E+00  0.87388401682E+03  0.87388401683E+03  0.25500000920E-02 0.  1.
        2   -1    0    0  501    0  0.00000000000E+00  0.00000000000E+00 -0.24140561691E+04  0.24140561691E+04  0.25500000920E-02 0. -1.
    10030    2    1    2    0    0  0.00000000000E+00  0.00000000000E+00 -0.15401721523E+04  0.32879401859E+04  0.29048959375E+04 0.  0.
        4    1    3    3  502    0  0.39526752293E+03 -0.83789199803E+03  0.49603360097E+03  0.10508807550E+04  0.12699999809E+01 0.  1.
       -4    1    3    3    0  502 -0.39526752293E+03  0.83789199803E+03 -0.20362057532E+04  0.22370594309E+04  0.12699999809E+01 0. -1.
</event>
<event>
 5   0  0.3638028E-07  0.2901893E+04  0.7818609E-02  0.8272314E-01
       -1   -1    0    0    0  501  0.00000000000E+00  0.00000000000E+00  0.14245601287E+04  0.14245601287E+04  0.50400001928E-02 0. -1.
        1   -1    0    0  501    0  0.00000000000E+00  0.00000000000E+00 -0.14778220523E+04  0.14778220523E+04  0.50400001928E-02 0.  1.
    10030    2    1    2    0    0  0.00000000000E+00  0.00000000000E+00 -0.53261923541E+02  0.29023821810E+04  0.29018934322E+04 0.  0.
        4    1    3    3  502    0  0.54146429747E+03  0.55107251443E+02  0.13185953327E+04  0.14265047000E+04  0.12699999809E+01 0. -1.
       -4    1    3    3    0  502 -0.54146429747E+03 -0.55107251443E+02 -0.13718572563E+04  0.14758774811E+04  0.12699999809E+01 0.  1.
</event>
<event>
 5   0  0.9950999E-07  0.2888779E+04  0.7818609E-02  0.8276224E-01
       -2   -1    0    0    0  501  0.00000000000E+00  0.00000000000E+00  0.10670694707E+04  0.10670694707E+04  0.25500000920E-02 0. -1.
        2   -1    0    0  501    0  0.00000000000E+00  0.00000000000E+00 -0.19551308240E+04  0.19551308240E+04  0.25500000920E-02 0.  1.
    10030    2    1    2    0    0  0.00000000000E+00  0.00000000000E+00 -0.88806135335E+03  0.30222002948E+04  0.28887785748E+04 0.  0.
        3    1    3    3  502    0 -0.11824747354E+04  0.22009264952E+02  0.42343970705E+03  0.12561974779E+04  0.10100000352E+00 0. -1.
       -3    1    3    3    0  502  0.11824747354E+04 -0.22009264952E+02 -0.13115010604E+04  0.17660028169E+04  0.10100000352E+00 0.  1.
</event>
<event>
 5   0  0.1063979E-06  0.2898030E+04  0.7818609E-02  0.8273464E-01
        2   -1    0    0  501    0  0.00000000000E+00  0.00000000000E+00  0.22439419661E+04  0.22439419661E+04  0.25500000920E-02 0. -1.
       -2   -1    0    0    0  501  0.00000000000E+00  0.00000000000E+00 -0.93569453022E+03  0.93569453023E+03  0.25500000920E-02 0.  1.
    10030    2    1    2    0    0  0.00000000000E+00  0.00000000000E+00  0.13082474359E+04  0.31796364963E+04  0.28980298299E+04 0.  0.
        1    1    3    3  502    0 -0.60125798488E+02 -0.12655934363E+04  0.14255083218E+04  0.19072010469E+04  0.50400001928E-02 0. -1.
       -1    1    3    3    0  502  0.60125798488E+02  0.12655934363E+04 -0.11726088597E+03  0.12724354494E+04  0.50400001928E-02 0.  1.
</event>
<event>
 5   0  0.3638028E-07  0.2905915E+04  0.7818609E-02  0.8271120E-01
        1   -1    0    0  501    0  0.00000000000E+00  0.00000000000E+00  0.31744259053E+04  0.31744259053E+04  0.50400001928E-02 0. -1.
       -1   -1    0    0    0  501  0.00000000000E+00  0.00000000000E+00 -0.66502920540E+03  0.66502920542E+03  0.50400001928E-02 0.  1.
    10030    2    1    2    0    0  0.00000000000E+00  0.00000000000E+00  0.25093966999E+04  0.38394551108E+04  0.29059153033E+04 0.  0.
        4    1    3    3  502    0 -0.13464628783E+04  0.42013240896E+03  0.17154561716E+04  0.22208703279E+04  0.12699999809E+01 0. -1.
       -4    1    3    3    0  502  0.13464628783E+04 -0.42013240896E+03  0.79394052831E+03  0.16185847828E+04  0.12699999809E+01 0.  1.
</event>
<event>
 5   0  0.1063979E-06  0.2901262E+04  0.7818609E-02  0.8272502E-01
        2   -1    0    0  501    0  0.00000000000E+00  0.00000000000E+00  0.16156376468E+04  0.16156376468E+04  0.25500000920E-02 0.  1.
       -2   -1    0    0    0  501  0.00000000000E+00  0.00000000000E+00 -0.13024768096E+04  0.13024768096E+04  0.25500000920E-02 0. -1.
    10030    2    1    2    0    0  0.00000000000E+00  0.00000000000E+00  0.31316083714E+03  0.29181144564E+04  0.29012621858E+04 0.  0.
        1    1    3    3  502    0  0.98714473306E+03  0.69227399990E+03 -0.65472287430E+03  0.13719912744E+04  0.50400001928E-02 0. -1.
       -1    1    3    3    0  502 -0.98714473306E+03 -0.69227399990E+03  0.96788371144E+03  0.15461231820E+04  0.50400001928E-02 0.  1.
</event>
<event>
 5   0  0.9950999E-07  0.2904885E+04  0.7818609E-02  0.8271426E-01
       -2   -1    0    0    0  501  0.00000000000E+00  0.00000000000E+00  0.24991768470E+04  0.24991768470E+04  0.25500000920E-02 0. -1.
        2   -1    0    0  501    0  0.00000000000E+00  0.00000000000E+00 -0.84411362287E+03  0.84411362287E+03  0.25500000920E-02 0.  1.
    10030    2    1    2    0    0  0.00000000000E+00  0.00000000000E+00  0.16550632241E+04  0.33432904698E+04  0.29048850046E+04 0.  0.
        3    1    3    3  502    0  0.14057343430E+04  0.26406125872E+03  0.11181744161E+04  0.18155251103E+04  0.10100000352E+00 0. -1.
       -3    1    3    3    0  502 -0.14057343430E+04 -0.26406125872E+03  0.53688880804E+03  0.15277653595E+04  0.10100000352E+00 0.  1.
</event>
<event>
 5   0  0.3885904E-07  0.2901237E+04  0.7818609E-02  0.8272509E-01
        1   -1    0    0  501    0  0.00000000000E+00  0.00000000000E+00  0.10746395321E+04  0.10746395321E+04  0.50400001928E-02 0. -1.
       -1   -1    0    0    0  501  0.00000000000E+00  0.00000000000E+00 -0.19581398929E+04  0.19581398929E+04  0.50400001928E-02 0.  1.
    10030    2    1    2    0    0  0.00000000000E+00  0.00000000000E+00 -0.88350036078E+03  0.30327794250E+04  0.29012373487E+04 0.  0.
        2    1    3    3  502    0 -0.83284658284E+01 -0.90104660445E+03 -0.16301046144E+04  0.18625776227E+04  0.25500000920E-02 0.  1.
       -2    1    3    3    0  502  0.83284658284E+01  0.90104660445E+03  0.74660425358E+03  0.11702018023E+04  0.25500000920E-02 0. -1.
</event>
<event>
 5   0  0.9950999E-07  0.2884240E+04  0.7818609E-02  0.8277582E-01
        2   -1    0    0  501    0  0.00000000000E+00  0.00000000000E+00  0.18241233698E+04  0.18241233698E+04  0.25500000920E-02 0. -1.
       -2   -1    0    0    0  501  0.00000000000E+00  0.00000000000E+00 -0.11401146515E+04  0.11401146515E+04  0.25500000920E-02 0.  1.
    10030    2    1    2    0    0  0.00000000000E+00  0.00000000000E+00  0.68400871827E+03  0.29642380212E+04  0.28842397820E+04 0.  0.
        3    1    3    3  502    0 -0.61751192708E+03 -0.85095739243E+03  0.13564276574E+04  0.17162008809E+04  0.10100000352E+00 0. -1.
       -3    1    3    3    0  502  0.61751192708E+03  0.85095739243E+03 -0.67241893908E+03  0.12480371403E+04  0.10100000352E+00 0.  1.
</event>
<event>
 5   0  0.3638028E-07  0.2890702E+04  0.7818609E-02  0.8275649E-01
       -1   -1    0    0    0  501  0.00000000000E+00  0.00000000000E+00  0.86493353371E+03  0.86493353372E+03  0.50400001928E-02 0. -1.
        1   -1    0    0  501    0  0.00000000000E+00  0.00000000000E+00 -0.24152606757E+04  0.24152606757E+04  0.50400001928E-02 0.  1.
    10030    2    1    2    0    0  0.00000000000E+00  0.00000000000E+00 -0.15503271420E+04  0.32801942094E+04  0.28907023029E+04 0.  0.
        4    1    3    3  502    0  0.23173623106E+03 -0.22225880452E+02  0.84351868851E+03  0.87505489046E+03  0.12699999809E+01 0. -1.
       -4    1    3    3    0  502 -0.23173623106E+03  0.22225880452E+02 -0.23938458305E+04  0.24051393189E+04  0.12699999809E+01 0.  1.
</event>
<event>
 5   0  0.3885904E-07  0.2899239E+04  0.7818609E-02  0.8273104E-01
       -1   -1    0    0    0  501  0.00000000000E+00  0.00000000000E+00  0.12577380474E+04  0.12577380474E+04  0.50400001928E-02 0. -1.
        1   -1    0    0  501    0  0.00000000000E+00  0.00000000000E+00 -0.16707746647E+04  0.16707746647E+04  0.50400001928E-02 0.  1.
    10030    2    1    2    0    0  0.00000000000E+00  0.00000000000E+00 -0.41303661728E+03  0.29285127121E+04  0.28992391170E+04 0.  0.
        2    1    3    3  502    0  0.11058913751E+04 -0.32108048374E+03 -0.10959248877E+04  0.15896980122E+04  0.25500000920E-02 0.  1.
       -2    1    3    3    0  502 -0.11058913751E+04  0.32108048374E+03  0.68288827045E+03  0.13388146998E+04  0.25500000920E-02 0. -1.
</event>
<event>
 5   0  0.3770467E-07  0.2904152E+04  0.7818609E-02  0.8271643E-01
       -1   -1    0    0    0  501  0.00000000000E+00  0.00000000000E+00  0.22544818936E+04  0.22544818936E+04  0.50400001928E-02 0.  1.
        1   -1    0    0  501    0  0.00000000000E+00  0.00000000000E+00 -0.93525884447E+03  0.93525884449E+03  0.50400001928E-02 0. -1.
    10030    2    1    2    0    0  0.00000000000E+00  0.00000000000E+00  0.13192230491E+04  0.31897407381E+04  0.29041516012E+04 0.  0.
        1    1    3    3  502    0 -0.39287772094E+03  0.13036394835E+04  0.10530934324E+03  0.13656203221E+04  0.50400001928E-02 0. -1.
       -1    1    3    3    0  502  0.39287772094E+03 -0.13036394835E+04  0.12139137059E+04  0.18241204159E+04  0.50400001928E-02 0.  1.
</event>
<event>
 5   0  0.1063979E-06  0.2908728E+04  0.7818609E-02  0.8270285E-01
        2   -1    0    0  501    0  0.00000000000E+00  0.00000000000E+00  0.24560939013E+04  0.24560939013E+04  0.25500000920E-02 0.  1.
       -2   -1    0    0    0  501  0.00000000000E+00  0.00000000000E+00 -0.86119465907E+03  0.86119465907E+03  0.25500000920E-02 0. -1.
    10030    2    1    2    0    0  0.00000000000E+00  0.00000000000E+00  0.15948992422E+04  0.33172885603E+04  0.29087282100E+04 0.  0.
        1    1    3    3  502    0 -0.82174222253E+03  0.37165059713E+03 -0.50377016256E+03  0.10330386359E+04  0.50400001928E-02 0. -1.
       -1    1    3    3    0  502  0.82174222253E+03 -0.37165059713E+03  0.20986694048E+04  0.22842499244E+04  0.50400001928E-02 0.  1.
</event>
<event>
 5   0  0.3770467E-07  0.2904860E+04  0.7818609E-02  0.8271433E-01
       -1   -1    0    0    0  501  0.00000000000E+00  0.00000000000E+00  0.92159910335E+03  0.92159910336E+03  0.50400001928E-02 0.  1.
        1   -1    0    0  501    0  0.00000000000E+00  0.00000000000E+00 -0.22890137860E+04  0.22890137860E+04  0.50400001928E-02 0. -1.
    10030    2    1    2    0    0  0.00000000000E+00  0.00000000000E+00 -0.13674146826E+04  0.32106128893E+04  0.29048601018E+04 0.  0.
        1    1    3    3  502    0  0.95881401696E+03  0.48223732264E+03 -0.17653205996E+04  0.20659704678E+04  0.50400001928E-02 0. -1.
       -1    1    3    3    0  502 -0.95881401696E+03 -0.48223732264E+03  0.39790591693E+03  0.11446424216E+04  0.50400001928E-02 0.  1.
</event>
<event>
 5   0  0.3638028E-07  0.2845355E+04  0.7818609E-02  0.8289324E-01
        1   -1    0    0  501    0  0.00000000000E+00  0.00000000000E+00  0.14806695368E+04  0.14806695368E+04  0.50400001928E-02 0. -1.
       -1   -1    0    0    0  501  0.00000000000E+00  0.00000000000E+00 -0.13669563528E+04  0.13669563528E+04  0.50400001928E-02 0.  1.
    10030    2    1    2    0    0  0.00000000000E+00  0.00000000000E+00  0.11371318403E+03  0.28476258896E+04  0.28453545506E+04 0.  0.
        4    1    3    3  502    0 -0.38216148640E+03 -0.60628991820E+02  0.14269950075E+04  0.14785261718E+04  0.12699999809E+01 0. -1.
       -4    1    3    3    0  502  0.38216148640E+03  0.60628991820E+02 -0.13132818235E+04  0.13690997177E+04  0.12699999809E+01 0.  1.
</event>
<event>
 5   0  0.9994311E-07  0.2897098E+04  0.7818609E-02  0.8273741E-01
        2   -1    0    0  501    0  0.00000000000E+00  0.00000000000E+00  0.11206205573E+04  0.11206205573E+04  0.25500000920E-02 0. -1.
       -2   -1    0    0    0  501  0.00000000000E+00  0.00000000000E+00 -0.18724395619E+04  0.18724395619E+04  0.25500000920E-02 0.  1.
    10030    2    1    2    0    0  0.00000000000E+00  0.00000000000E+00 -0.75181900455E+03  0.29930601192E+04  0.28970980415E+04 0.  0.
        2    1    3    3  502    0 -0.62922508705E+03 -0.37014213261E+03  0.91667825291E+03  0.11718482956E+04  0.25500000920E-02 0. -1.
       -2    1    3    3    0  502  0.62922508705E+03  0.37014213261E+03 -0.16684972575E+04  0.18212118237E+04  0.25500000920E-02 0.  1.
</event>
<event>
 5   0  0.9994311E-07  0.2904591E+04  0.7818609E-02  0.8271513E-01
       -2   -1    0    0    0  501  0.00000000000E+00  0.00000000000E+00  0.11740612764E+04  0.11740612764E+04  0.25500000920E-02 0.  1.
        2   -1    0    0  501    0  0.00000000000E+00  0.00000000000E+00 -0.17964672303E+04  0.17964672303E+04  0.25500000920E-02 0. -1.
    10030    2    1    2    0    0  0.00000000000E+00  0.00000000000E+00 -0.62240595387E+03  0.29705285067E+04  0.29045912686E+04 0.  0.
        2    1    3    3  502    0 -0.13843741443E+04  0.41993425276E+03 -0.18052890928E+03  0.14578845067E+04  0.25500000920E-02 0.  1.
       -2    1    3    3    0  502  0.13843741443E+04 -0.41993425276E+03 -0.44187704459E+03  0.15126439999E+04  0.25500000920E-02 0. -1.
</event>
<event>
 5   0  0.1031339E-06  0.2897835E+04  0.7818609E-02  0.8273522E-01
        2   -1    0    0  501    0  0.00000000000E+00  0.00000000000E+00  0.16455986071E+04  0.16455986071E+04  0.25500000920E-02 0.  1.
       -2   -1    0    0    0  501  0.00000000000E+00  0.00000000000E+00 -0.12757438135E+04  0.12757438135E+04  0.25500000920E-02 0. -1.
    10030    2    1    2    0    0  0.00000000000E+00  0.00000000000E+00  0.36985479363E+03  0.29213424207E+04  0.28978352214E+04 0.  0.
        5    1    3    3  502    0 -0.26928625559E+03  0.10968109584E+04 -0.73008670483E+03  0.13448264024E+04  0.46999998093E+01 0. -1.
       -5    1    3    3    0  502  0.26928625559E+03 -0.10968109584E+04  0.10999414985E+04  0.15765160183E+04  0.46999998093E+01 0.  1.
</event>
<event>
 5   0  0.1063979E-06  0.2894246E+04  0.7818609E-02  0.8274591E-01
       -2   -1    0    0    0  501  0.00000000000E+00  0.00000000000E+00  0.11068076772E+04  0.11068076772E+04  0.25500000920E-02 0.  1.
        2   -1    0    0  501    0  0.00000000000E+00  0.00000000000E+00 -0.18920769056E+04  0.18920769056E+04  0.25500000920E-02 0. -1.
    10030    2    1    2    0    0  0.00000000000E+00  0.00000000000E+00 -0.78526922839E+03  0.29988845828E+04  0.28942461851E+04 0.  0.
        1    1    3    3  502    0 -0.72753715260E+03  0.58579332317E+03  0.75263244069E+03  0.11995497975E+04  0.50400001928E-02 0.  1.
       -1    1    3    3    0  502  0.72753715260E+03 -0.58579332317E+03 -0.15379016691E+04  0.17993347853E+04  0.50400001928E-02 0. -1.
</event>
<event>
 5   0  0.3769563E-07  0.2899602E+04  0.7818609E-02  0.8272996E-01
       -1   -1    0    0    0  501  0.00000000000E+00  0.00000000000E+00  0.10207781465E+04  0.10207781465E+04  0.50400001928E-02 0. -1.
        1   -1    0    0  501    0  0.00000000000E+00  0.00000000000E+00 -0.20591376733E+04  0.20591376733E+04  0.50400001928E-02 0.  1.
    10030    2    1    2    0    0  0.00000000000E+00  0.00000000000E+00 -0.10383595268E+04  0.30799158198E+04  0.28996018606E+04 0.  0.
        3    1    3    3  502    0 -0.38124573826E+02  0.11202133037E+04  0.45756424316E+03  0.12106594797E+04  0.10100000352E+00 0. -1.
       -3    1    3    3    0  502  0.38124573826E+02 -0.11202133037E+04 -0.14959237700E+04  0.18692563400E+04  0.10100000352E+00 0.  1.
</event>
<event>
 5   0  0.1006893E-06  0.2897538E+04  0.7818609E-02  0.8273610E-01
        2   -1    0    0  501    0  0.00000000000E+00  0.00000000000E+00  0.12353211262E+04  0.12353211262E+04  0.25500000920E-02 0.  1.
       -2   -1    0    0    0  501  0.00000000000E+00  0.00000000000E+00 -0.16990979601E+04  0.16990979601E+04  0.25500000920E-02 0. -1.
    10030    2    1    2    0    0  0.00000000000E+00  0.00000000000E+00 -0.46377683393E+03  0.29344190864E+04  0.28975379933E+04 0.  0.
        4    1    3    3  502    0  0.12815169060E+04 -0.46714199093E+03  0.26261223274E+03  0.13890550809E+04  0.12699999809E+01 0.  1.
       -4    1    3    3    0  502 -0.12815169060E+04  0.46714199093E+03 -0.72638906667E+03  0.15453640054E+04  0.12699999809E+01 0. -1.
</event>
<event>
 5   0  0.1031339E-06  0.2898824E+04  0.7818609E-02  0.8273227E-01
       -2   -1    0    0    0  501  0.00000000000E+00  0.00000000000E+00  0.13070444495E+04  0.13070444495E+04  0.25500000920E-02 0.  1.
        2   -1    0    0  501    0  0.00000000000E+00  0.00000000000E+00 -0.16072868520E+04  0.16072868520E+04  0.25500000920E-02 0. -1.
    10030    2    1    2    0    0  0.00000000000E+00  0.00000000000E+00 -0.30024240246E+03  0.29143313015E+04  0.28988241469E+04 0.  0.
        5    1    3    3  502    0  0.10208081655E+04 -0.93894181882E+03  0.27297713003E+03  0.14135769004E+04  0.46999998093E+01 0.  1.
       -5    1    3    3    0  502 -0.10208081655E+04  0.93894181882E+03 -0.57321953249E+03  0.15007544011E+04  0.46999998093E+01 0. -1.
</event>
<event>
 5   0  0.9950999E-07  0.2900533E+04  0.7818609E-02  0.8272719E-01
        2   -1    0    0  501    0  0.00000000000E+00  0.00000000000E+00  0.14827940125E+04  0.14827940125E+04  0.25500000920E-02 0.  1.
       -2   -1    0    0    0  501  0.00000000000E+00  0.00000000000E+00 -0.14184521437E+04  0.14184521437E+04  0.25500000920E-02 0. -1.
    10030    2    1    2    0    0  0.00000000000E+00  0.00000000000E+00  0.64341868795E+02  0.29012461561E+04  0.29005326032E+04 0.  0.
        3    1    3    3  502    0 -0.18797187558E+03  0.97802283258E+03 -0.10223228523E+04  0.14272372303E+04  0.10100000352E+00 0. -1.
       -3    1    3    3    0  502  0.18797187558E+03 -0.97802283258E+03  0.10866647211E+04  0.14740089258E+04  0.10100000352E+00 0.  1.
</event>
<event>
 5   0  0.3770467E-07  0.2896616E+04  0.7818609E-02  0.8273885E-01
       -1   -1    0    0    0  501  0.00000000000E+00  0.00000000000E+00  0.94771028022E+03  0.94771028023E+03  0.50400001928E-02 0. -1.
        1   -1    0    0  501    0  0.00000000000E+00  0.00000000000E+00 -0.22133309962E+04  0.22133309962E+04  0.50400001928E-02 0.  1.
    10030    2    1    2    0    0  0.00000000000E+00  0.00000000000E+00 -0.12656207160E+04  0.31610412764E+04  0.28966163285E+04 0.  0.
        1    1    3    3  502    0 -0.24296587646E+03 -0.10245169850E+04 -0.17180402902E+04  0.20150260318E+04  0.50400001928E-02 0.  1.
       -1    1    3    3    0  502  0.24296587646E+03  0.10245169850E+04  0.45241957429E+03  0.11460152446E+04  0.50400001928E-02 0. -1.
</event>
<event>
 5   0  0.3885904E-07  0.2901618E+04  0.7818609E-02  0.8272396E-01
       -1   -1    0    0    0  501  0.00000000000E+00  0.00000000000E+00  0.10880583009E+04  0.10880583009E+04  0.50400001928E-02 0. -1.
        1   -1    0    0  501    0  0.00000000000E+00  0.00000000000E+00 -0.19344980369E+04  0.19344980369E+04  0.50400001928E-02 0.  1.
    10030    2    1    2    0    0  0.00000000000E+00  0.00000000000E+00 -0.84643973599E+03  0.30225563378E+04  0.29016179260E+04 0.  0.
        2    1    3    3  502    0  0.10817131363E+04 -0.68235099645E+03 -0.11367061402E+04  0.17110835867E+04  0.25500000920E-02 0.  1.
       -2    1    3    3    0  502 -0.10817131363E+04  0.68235099645E+03  0.29026640423E+03  0.13114727511E+04  0.25500000920E-02 0. -1.
</event>
<event>
 5   0  0.3885904E-07  0.2901253E+04  0.7818609E-02  0.8272505E-01
        1   -1    0    0  501    0  0.00000000000E+00  0.00000000000E+00  0.16141119840E+04  0.16141119841E+04  0.50400001928E-02 0.  1.
       -1   -1    0    0    0  501  0.00000000000E+00  0.00000000000E+00 -0.13036998446E+04  0.13036998446E+04  0.50400001928E-02 0. -1.
    10030    2    1    2    0    0  0.00000000000E+00  0.00000000000E+00  0.31041213944E+03  0.29178118287E+04  0.29012532070E+04 0.  0.
        2    1    3    3  502    0 -0.12661157827E+04 -0.55647078564E+03 -0.28502347182E+03  0.14120719847E+04  0.25500000920E-02 0. -1.
       -2    1    3    3    0  502  0.12661157827E+04  0.55647078564E+03  0.59543561126E+03  0.15057398440E+04  0.25500000920E-02 0.  1.
</event>
<event>
 5   0  0.9994311E-07  0.2901761E+04  0.7818609E-02  0.8272354E-01
        2   -1    0    0  501    0  0.00000000000E+00  0.00000000000E+00  0.17740744436E+04  0.17740744436E+04  0.25500000920E-02 0. -1.
       -2   -1    0    0    0  501  0.00000000000E+00  0.00000000000E+00 -0.11865650953E+04  0.11865650953E+04  0.25500000920E-02 0.  1.
    10030    2    1    2    0    0  0.00000000000E+00  0.00000000000E+00  0.58750934828E+03  0.29606395390E+04  0.29017614039E+04 0.  0.
        2    1    3    3  502    0  0.47543729300E+03 -0.57423283940E+02  0.16911119615E+04  0.17576113676E+04  0.25500000920E-02 0. -1.
       -2    1    3    3    0  502 -0.47543729300E+03  0.57423283940E+02 -0.11036026133E+04  0.12030281714E+04  0.25500000920E-02 0.  1.
</event>
<event>
 5   0  0.1006893E-06  0.2896369E+04  0.7818609E-02  0.8273959E-01
       -2   -1    0    0    0  501  0.00000000000E+00  0.00000000000E+00  0.92150081954E+03  0.92150081954E+03  0.25500000920E-02 0.  1.
        2   -1    0    0  501    0  0.00000000000E+00  0.00000000000E+00 -0.22758936137E+04  0.22758936137E+04  0.25500000920E-02 0. -1.
    10030    2    1    2    0    0  0.00000000000E+00  0.00000000000E+00 -0.13543927941E+04  0.31973944332E+04  0.28963686438E+04 0.  0.
        4    1    3    3  502    0  0.14201717881E+04 -0.13479398732E+03 -0.40192324098E+03  0.14820935298E+04  0.12699999809E+01 0.  1.
       -4    1    3    3    0  502 -0.14201717881E+04  0.13479398732E+03 -0.95246955316E+03  0.17153009034E+04  0.12699999809E+01 0. -1.
</event>
<event>
 5   0  0.1031339E-06  0.2896329E+04  0.7818609E-02  0.8273971E-01
       -2   -1    0    0    0  501  0.00000000000E+00  0.00000000000E+00  0.93663963134E+03  0.93663963134E+03  0.25500000920E-02 0.  1.
        2   -1    0    0  501    0  0.00000000000E+00  0.00000000000E+00 -0.22390468524E+04  0.22390468524E+04  0.25500000920E-02 0. -1.
    10030    2    1    2    0    0  0.00000000000E+00  0.00000000000E+00 -0.13024072211E+04  0.31756864838E+04  0.28963287233E+04 0.  0.
        5    1    3    3  502    0  0.28365940463E+03 -0.13554789373E+04 -0.18683031051E+03  0.13973952420E+04  0.46999998093E+01 0.  1.
       -5    1    3    3    0  502 -0.28365940463E+03  0.13554789373E+04 -0.11155769106E+04  0.17782912418E+04  0.46999998093E+01 0. -1.
</event>
<event>
 5   0  0.3770467E-07  0.2901149E+04  0.7818609E-02  0.8272536E-01
        1   -1    0    0  501    0  0.00000000000E+00  0.00000000000E+00  0.23452253972E+04  0.23452253972E+04  0.50400001928E-02 0. -1.
       -1   -1    0    0    0  501  0.00000000000E+00  0.00000000000E+00 -0.89721307482E+03  0.89721307484E+03  0.50400001928E-02 0.  1.
    10030    2    1    2    0    0  0.00000000000E+00  0.00000000000E+00  0.14480123224E+04  0.32424384720E+04  0.29011493514E+04 0.  0.
        1    1    3    3  502    0  0.46118846447E+03  0.10336943815E+04  0.17378892005E+04  0.20740004212E+04  0.50400001928E-02 0. -1.
       -1    1    3    3    0  502 -0.46118846447E+03 -0.10336943815E+04 -0.28987687813E+03  0.11684380508E+04  0.50400001928E-02 0.  1.
</event>
<event>
 5   0  0.3638028E-07  0.2903692E+04  0.7818609E-02  0.8271780E-01
        1   -1    0    0  501    0  0.00000000000E+00  0.00000000000E+00  0.29639815551E+04  0.29639815551E+04  0.50400001928E-02 0. -1.
       -1   -1    0    0    0  501  0.00000000000E+00  0.00000000000E+00 -0.71115719323E+03  0.71115719325E+03  0.50400001928E-02 0.  1.
    10030    2    1    2    0    0  0.00000000000E+00  0.00000000000E+00  0.22528243619E+04  0.36751387484E+04  0.29036919972E+04 0.  0.
        4    1    3    3  502    0 -0.90629223675E+02 -0.99098032195E+03  0.24644435602E+04  0.26577696155E+04  0.12699999809E+01 0. -1.
       -4    1    3    3    0  502  0.90629223675E+02  0.99098032195E+03 -0.21161919827E+03  0.10173691329E+04  0.12699999809E+01 0.  1.
</event>
<event>
 5   0  0.9994311E-07  0.2894082E+04  0.7818609E-02  0.8274641E-01
       -2   -1    0    0    0  501  0.00000000000E+00  0.00000000000E+00  0.16983315150E+04  0.16983315150E+04  0.25500000920E-02 0. -1.
        2   -1    0    0  501    0  0.00000000000E+00  0.00000000000E+00 -0.12329319267E+04  0.12329319267E+04  0.25500000920E-02 0.  1.
    10030    2    1    2    0    0  0.00000000000E+00  0.00000000000E+00  0.46539958831E+03  0.29312634416E+04  0.28940816484E+04 0.  0.
        2    1    3    3  502    0  0.97152624668E+03  0.87106979893E+03  0.86627725629E+03  0.15662254395E+04  0.25500000920E-02 0. -1.
       -2    1    3    3    0  502 -0.97152624668E+03 -0.87106979893E+03 -0.40087766798E+03  0.13650380021E+04  0.25500000920E-02 0.  1.
</event>
<event>
 5   0  0.1063979E-06  0.2864775E+04  0.7818609E-02  0.8283436E-01
        2   -1    0    0  501    0  0.00000000000E+00  0.00000000000E+00  0.28511400306E+04  0.28511400306E+04  0.25500000920E-02 0.  1.
       -2   -1    0    0    0  501  0.00000000000E+00  0.00000000000E+00 -0.71961879797E+03  0.71961879797E+03  0.25500000920E-02 0. -1.
    10030    2    1    2    0    0  0.00000000000E+00  0.00000000000E+00  0.21315212326E+04  0.35707588286E+04  0.28647750080E+04 0.  0.
        1    1    3    3  502    0  0.89705452684E+03  0.83373230585E+03  0.19917523571E+04  0.23381389681E+04  0.50400001928E-02 0.  1.
       -1    1    3    3    0  502 -0.89705452684E+03 -0.83373230585E+03  0.13976887555E+03  0.12326198605E+04  0.50400001928E-02 0. -1.
</event>
<event>
 5   0  0.1063979E-06  0.2915052E+04  0.7818609E-02  0.8268413E-01
       -2   -1    0    0    0  501  0.00000000000E+00  0.00000000000E+00  0.11027841659E+04  0.11027841659E+04  0.25500000920E-02 0.  1.
        2   -1    0    0  501    0  0.00000000000E+00  0.00000000000E+00 -0.19263800578E+04  0.19263800578E+04  0.25500000920E-02 0. -1.
    10030    2    1    2    0    0  0.00000000000E+00  0.00000000000E+00 -0.82359589195E+03  0.30291642237E+04  0.29150515778E+04 0.  0.
        1    1    3    3  502    0  0.11188489759E+04  0.92854335434E+03 -0.30600066606E+03  0.14858170141E+04  0.50400001928E-02 0.  1.
       -1    1    3    3    0  502 -0.11188489759E+04 -0.92854335434E+03 -0.51759522589E+03  0.15433472097E+04  0.50400001928E-02 0. -1.
</event>
<event>
 5   0  0.3885904E-07  0.2904678E+04  0.7818609E-02  0.8271487E-01
       -1   -1    0    0    0  501  0.00000000000E+00  0.00000000000E+00  0.11689321980E+04  0.11689321980E+04  0.50400001928E-02 0. -1.
        1   -1    0    0  501    0  0.00000000000E+00  0.00000000000E+00 -0.18044579556E+04  0.18044579556E+04  0.50400001928E-02 0.  1.
    10030    2    1    2    0    0  0.00000000000E+00  0.00000000000E+00 -0.63552575760E+03  0.29733901536E+04  0.29046782984E+04 0.  0.
        2    1    3    3  502    0  0.76166301474E+03 -0.12347389890E+04 -0.24850075570E+03  0.14718911456E+04  0.25500000920E-02 0. -1.
       -2    1    3    3    0  502 -0.76166301474E+03  0.12347389890E+04 -0.38702500190E+03  0.15014990080E+04  0.25500000920E-02 0.  1.
</event>
<event>
 5   0  0.1031339E-06  0.2898190E+04  0.7818609E-02  0.8273416E-01
        2   -1    0    0  501    0  0.00000000000E+00  0.00000000000E+00  0.19144834847E+04  0.19144834847E+04  0.25500000920E-02 0. -1.
       -2   -1    0    0    0  501  0.00000000000E+00  0.00000000000E+00 -0.10968369093E+04  0.10968369093E+04  0.25500000920E-02 0.  1.
    10030    2    1    2    0    0  0.00000000000E+00  0.00000000000E+00  0.81764657537E+03  0.30113203940E+04  0.28981898822E+04 0.  0.
        5    1    3    3  502    0 -0.13409483680E+04 -0.43761653551E+03  0.63896097792E+02  0.14120040932E+04  0.46999998093E+01 0. -1.
       -5    1    3    3    0  502  0.13409483680E+04  0.43761653551E+03  0.75375047758E+03  0.15993163009E+04  0.46999998093E+01 0.  1.
</event>
<event>
 5   0  0.3638028E-07  0.2897209E+04  0.7818609E-02  0.8273708E-01
       -1   -1    0    0    0  501  0.00000000000E+00  0.00000000000E+00  0.80539025029E+03  0.80539025030E+03  0.50400001928E-02 0. -1.
        1   -1    0    0  501    0  0.00000000000E+00  0.00000000000E+00 -0.26055128816E+04  0.26055128816E+04  0.50400001928E-02 0.  1.
    10030    2    1    2    0    0  0.00000000000E+00  0.00000000000E+00 -0.18001226313E+04  0.34109031319E+04  0.28972087753E+04 0.  0.
        4    1    3    3  502    0 -0.23765152815E+03  0.30982908040E+03  0.74226277675E+03  0.83870611691E+03  0.12699999809E+01 0. -1.
       -4    1    3    3    0  502  0.23765152815E+03 -0.30982908040E+03 -0.25423854080E+04  0.25721970150E+04  0.12699999809E+01 0.  1.
</event>
<event>
 5   0  0.3770467E-07  0.2901222E+04  0.7818609E-02  0.8272514E-01
       -1   -1    0    0    0  501  0.00000000000E+00  0.00000000000E+00  0.24798947660E+04  0.24798947660E+04  0.50400001928E-02 0. -1.
        1   -1    0    0  501    0  0.00000000000E+00  0.00000000000E+00 -0.84853272068E+03  0.84853272069E+03  0.50400001928E-02 0.  1.
    10030    2    1    2    0    0  0.00000000000E+00  0.00000000000E+00  0.16313620454E+04  0.33284274867E+04  0.29012217101E+04 0.  0.
        1    1    3    3  502    0 -0.67843891262E+03 -0.12694511145E+04  0.60890093085E+03  0.15628646243E+04  0.50400001928E-02 0. -1.
       -1    1    3    3    0  502  0.67843891262E+03  0.12694511145E+04  0.10224611145E+04  0.17655628624E+04  0.50400001928E-02 0.  1.
</event>
<event>
 5   0  0.3770467E-07  0.2911088E+04  0.7818609E-02  0.8269586E-01
       -1   -1    0    0    0  501  0.00000000000E+00  0.00000000000E+00  0.10110308046E+04  0.10110308046E+04  0.50400001928E-02 0.  1.
        1   -1    0    0  501    0  0.00000000000E+00  0.00000000000E+00 -0.20954938627E+04  0.20954938627E+04  0.50400001928E-02 0. -1.
    10030    2    1    2    0    0  0.00000000000E+00  0.00000000000E+00 -0.10844630581E+04  0.31065246673E+04  0.29110883505E+04 0.  0.
        1    1    3    3  502    0  0.65048534887E+03  0.57500684060E+03 -0.17889289278E+04  0.19884744817E+04  0.50400001928E-02 0. -1.
       -1    1    3    3    0  502 -0.65048534887E+03 -0.57500684060E+03  0.70446586973E+03  0.11180501856E+04  0.50400001928E-02 0.  1.
</event>
<event>
 5   0  0.3885904E-07  0.2902248E+04  0.7818609E-02  0.8272209E-01
       -1   -1    0    0    0  501  0.00000000000E+00  0.00000000000E+00  0.17412292625E+04  0.17412292625E+04  0.50400001928E-02 0.  1.
        1   -1    0    0  501    0  0.00000000000E+00  0.00000000000E+00 -0.12093533135E+04  0.12093533135E+04  0.50400001928E-02 0. -1.
    10030    2    1    2    0    0  0.00000000000E+00  0.00000000000E+00  0.53187594899E+03  0.29505825761E+04  0.29022483548E+04 0.  0.
        2    1    3    3  502    0 -0.97349305879E+03  0.79031383514E+03  0.10084968982E+04  0.16091459496E+04  0.25500000920E-02 0.  1.
       -2    1    3    3    0  502  0.97349305879E+03 -0.79031383514E+03 -0.47662094922E+03  0.13414366264E+04  0.25500000920E-02 0. -1.
</event>
<event>
 5   0  0.3769563E-07  0.2899265E+04  0.7818609E-02  0.8273096E-01
       -1   -1    0    0    0  501  0.00000000000E+00  0.00000000000E+00  0.11272750889E+04  0.11272750889E+04  0.50400001928E-02 0.  1.
        1   -1    0    0  501    0  0.00000000000E+00  0.00000000000E+00 -0.18641718605E+04  0.18641718605E+04  0.50400001928E-02 0. -1.
    10030    2    1    2    0    0  0.00000000000E+00  0.00000000000E+00 -0.73689677160E+03  0.29914469494E+04  0.28992650792E+04 0.  0.
        3    1    3    3  502    0 -0.57141023651E+03 -0.20133406563E+03 -0.17272832752E+04  0.18304514709E+04  0.10100000352E+00 0. -1.
       -3    1    3    3    0  502  0.57141023651E+03  0.20133406563E+03  0.99038650362E+03  0.11609954785E+04  0.10100000352E+00 0.  1.
</event>
<event>
 5   0  0.9950999E-07  0.2904661E+04  0.7818609E-02  0.8271492E-01
       -2   -1    0    0    0  501  0.00000000000E+00  0.00000000000E+00  0.14214759128E+04  0.14214759128E+04  0.25500000920E-02 0.  1.
        2   -1    0    0  501    0  0.00000000000E+00  0.00000000000E+00 -0.14838545822E+04  0.14838545822E+04  0.25500000920E-02 0. -1.
    10030    2    1    2    0    0  0.00000000000E+00  0.00000000000E+00 -0.62378669396E+02  0.29053304949E+04  0.29046607696E+04 0.  0.
        3    1    3    3  502    0  0.41801846154E+03 -0.65537435108E+03 -0.12582600985E+04  0.14790109736E+04  0.10100000352E+00 0. -1.
       -3    1    3    3    0  502 -0.41801846154E+03  0.65537435108E+03  0.11958814291E+04  0.14263195213E+04  0.10100000352E+00 0.  1.
</event>
<event>
 5   0  0.3769563E-07  0.2897554E+04  0.7818609E-02  0.8273605E-01
       -1   -1    0    0    0  501  0.00000000000E+00  0.00000000000E+00  0.18087881928E+04  0.18087881928E+04  0.50400001928E-02 0. -1.
        1   -1    0    0  501    0  0.00000000000E+00  0.00000000000E+00 -0.11604207212E+04  0.11604207212E+04  0.50400001928E-02 0.  1.
    10030    2    1    2    0    0  0.00000000000E+00  0.00000000000E+00  0.64836747162E+03  0.29692089141E+04  0.28975543476E+04 0.  0.
        3    1    3    3  502    0  0.51233953569E+03  0.12693013490E+04 -0.16225256031E+03  0.13783844232E+04  0.10100000352E+00 0.  1.
       -3    1    3    3    0  502 -0.51233953569E+03 -0.12693013490E+04  0.81062003192E+03  0.15908244909E+04  0.10100000352E+00 0. -1.
</event>
<event>
 5   0  0.1006893E-06  0.2917659E+04  0.7818609E-02  0.8267643E-01
       -2   -1    0    0    0  501  0.00000000000E+00  0.00000000000E+00  0.80219339640E+03  0.80219339640E+03  0.25500000920E-02 0. -1.
        2   -1    0    0  501    0  0.00000000000E+00  0.00000000000E+00 -0.26529551697E+04  0.26529551697E+04  0.25500000920E-02 0.  1.
    10030    2    1    2    0    0  0.00000000000E+00  0.00000000000E+00 -0.18507617733E+04  0.34551485661E+04  0.29176587313E+04 0.  0.
        4    1    3    3  502    0  0.79302718582E+03  0.71587440829E+03  0.25100474894E+03  0.10974394210E+04  0.12699999809E+01 0. -1.
       -4    1    3    3    0  502 -0.79302718582E+03 -0.71587440829E+03 -0.21017665222E+04  0.23577091450E+04  0.12699999809E+01 0.  1.
</event>
<event>
 5   0  0.9950999E-07  0.2899961E+04  0.7818609E-02  0.8272889E-01
        2   -1    0    0  501    0  0.00000000000E+00  0.00000000000E+00  0.13515380064E+04  0.13515380064E+04  0.25500000920E-02 0. -1.
       -2   -1    0    0    0  501  0.00000000000E+00  0.00000000000E+00 -0.15555928179E+04  0.15555928179E+04  0.25500000920E-02 0.  1.
    10030    2    1    2    0    0  0.00000000000E+00  0.00000000000E+00 -0.20405481154E+03  0.29071308243E+04  0.28999605624E+04 0.  0.
        3    1    3    3  502    0 -0.72411056960E+03 -0.18299830636E+03 -0.13479270829E+04  0.15410165243E+04  0.10100000352E+00 0.  1.
       -3    1    3    3    0  502  0.72411056960E+03  0.18299830636E+03  0.11438722714E+04  0.13661143000E+04  0.10100000352E+00 0. -1.
</event>
<event>
 5   0  0.9994311E-07  0.2876847E+04  0.7818609E-02  0.8279800E-01
       -2   -1    0    0    0  501  0.00000000000E+00  0.00000000000E+00  0.15687561371E+04  0.15687561371E+04  0.25500000920E-02 0.  1.
        2   -1    0    0  501    0  0.00000000000E+00  0.00000000000E+00 -0.13189185939E+04  0.13189185939E+04  0.25500000920E-02 0. -1.
    10030    2    1    2    0    0  0.00000000000E+00  0.00000000000E+00  0.24983754325E+03  0.28876747310E+04  0.28768466338E+04 0.  0.
        2    1    3    3  502    0  0.13276600974E+03  0.13428296390E+04 -0.37519683284E+03  0.14005680691E+04  0.25500000920E-02 0. -1.
       -2    1    3    3    0  502 -0.13276600974E+03 -0.13428296390E+04  0.62503437610E+03  0.14871066620E+04  0.25500000920E-02 0.  1.
</event>
<event>
 5   0  0.3786210E-07  0.2901948E+04  0.7818609E-02  0.8272298E-01
        1   -1    0    0  501    0  0.00000000000E+00  0.00000000000E+00  0.24214757473E+04  0.24214757473E+04  0.50400001928E-02 0. -1.
       -1   -1    0    0    0  501  0.00000000000E+00  0.00000000000E+00 -0.86943878471E+03  0.86943878473E+03  0.50400001928E-02 0.  1.
    10030    2    1    2    0    0  0.00000000000E+00  0.00000000000E+00  0.15520369625E+04  0.32909145320E+04  0.29019475743E+04 0.  0.
        5    1    3    3  502    0  0.35414867132E+02 -0.10381012060E+04  0.19249237001E+04  0.21872955145E+04  0.46999998093E+01 0. -1.
       -5    1    3    3    0  502 -0.35414867132E+02  0.10381012060E+04 -0.37288673751E+03  0.11036190175E+04  0.46999998093E+01 0.  1.
</event>
<event>
 5   0  0.3770467E-07  0.2898882E+04  0.7818609E-02  0.8273210E-01
       -1   -1    0    0    0  501  0.00000000000E+00  0.00000000000E+00  0.75337526065E+03  0.75337526067E+03  0.50400001928E-02 0.  1.
        1   -1    0    0  501    0  0.00000000000E+00  0.00000000000E+00 -0.27886221305E+04  0.27886221305E+04  0.50400001928E-02 0. -1.
    10030    2    1    2    0    0  0.00000000000E+00  0.00000000000E+00 -0.20352468699E+04  0.35419973912E+04  0.28988818013E+04 0.  0.
        1    1    3    3  502    0  0.11312964958E+03  0.14105462208E+04 -0.63426638325E+03  0.15507200919E+04  0.50400001928E-02 0.  1.
       -1    1    3    3    0  502 -0.11312964958E+03 -0.14105462208E+04 -0.14009804866E+04  0.19912772993E+04  0.50400001928E-02 0. -1.
</event>
<event>
 5   0  0.1006893E-06  0.2899062E+04  0.7818609E-02  0.8273157E-01
       -2   -1    0    0    0  501  0.00000000000E+00  0.00000000000E+00  0.13696771156E+04  0.13696771156E+04  0.25500000920E-02 0.  1.
        2   -1    0    0  501    0  0.00000000000E+00  0.00000000000E+00 -0.15340406629E+04  0.15340406629E+04  0.25500000920E-02 0. -1.
    10030    2    1    2    0    0  0.00000000000E+00  0.00000000000E+00 -0.16436354730E+03  0.29037177785E+04  0.28990621865E+04 0.  0.
        4    1    3    3  502    0  0.11054644332E+04 -0.40297870121E+03 -0.93011989348E+03  0.14998560184E+04  0.12699999809E+01 0. -1.
       -4    1    3    3    0  502 -0.11054644332E+04  0.40297870121E+03  0.76575634618E+03  0.14038617601E+04  0.12699999809E+01 0.  1.
</event>
<event>
 5   0  0.1006893E-06  0.2904695E+04  0.7818609E-02  0.8271482E-01
       -2   -1    0    0    0  501  0.00000000000E+00  0.00000000000E+00  0.12717222305E+04  0.12717222305E+04  0.25500000920E-02 0. -1.
        2   -1    0    0  501    0  0.00000000000E+00  0.00000000000E+00 -0.16586278500E+04  0.16586278500E+04  0.25500000920E-02 0.  1.
    10030    2    1    2    0    0  0.00000000000E+00  0.00000000000E+00 -0.38690561950E+03  0.29303500805E+04  0.29046954463E+04 0.  0.
        4    1    3    3  502    0 -0.69507514382E+03  0.18636125629E+03  0.10792169349E+04  0.12971394600E+04  0.12699999809E+01 0. -1.
       -4    1    3    3    0  502  0.69507514382E+03 -0.18636125629E+03 -0.14661225544E+04  0.16332106204E+04  0.12699999809E+01 0.  1.
</event>
<event>
 5   0  0.1031339E-06  0.2898159E+04  0.7818609E-02  0.8273425E-01
       -2   -1    0    0    0  501  0.00000000000E+00  0.00000000000E+00  0.24637905654E+04  0.24637905654E+04  0.25500000920E-02 0.  1.
        2   -1    0    0  501    0  0.00000000000E+00  0.00000000000E+00 -0.85227662855E+03  0.85227662855E+03  0.25500000920E-02 0. -1.
    10030    2    1    2    0    0  0.00000000000E+00  0.00000000000E+00  0.16115139369E+04  0.33160671940E+04  0.28981588062E+04 0.  0.
        5    1    3    3  502    0  0.53222130128E+03 -0.12865531596E+04  0.12653351016E+04  0.18813754424E+04  0.46999998093E+01 0.  1.
       -5    1    3    3    0  502 -0.53222130128E+03  0.12865531596E+04  0.34617883530E+03  0.14346917516E+04  0.46999998093E+01 0. -1.
</event>
<event>
 5   0  0.9950999E-07  0.2894276E+04  0.7818609E-02  0.8274583E-01
       -2   -1    0    0    0  501  0.00000000000E+00  0.00000000000E+00  0.15235622597E+04  0.15235622597E+04  0.25500000920E-02 0.  1.
        2   -1    0    0  501    0  0.00000000000E+00  0.00000000000E+00 -0.13745469830E+04  0.13745469830E+04  0.25500000920E-02 0. -1.
    10030    2    1    2    0    0  0.00000000000E+00  0.00000000000E+00  0.14901527669E+03  0.28981092427E+04  0.28942756659E+04 0.  0.
        3    1    3    3  502    0  0.13538291992E+04  0.48461250032E+03  0.23752721305E+03  0.14574367785E+04  0.10100000352E+00 0.  1.
       -3    1    3    3    0  502 -0.13538291992E+04 -0.48461250032E+03 -0.88511936362E+02  0.14406724642E+04  0.10100000352E+00 0. -1.
</event>
<event>
 5   0  0.1006893E-06  0.2901565E+04  0.7818609E-02  0.8272412E-01
        2   -1    0    0  501    0  0.00000000000E+00  0.00000000000E+00  0.24754300694E+04  0.24754300694E+04  0.25500000920E-02 0. -1.
       -2   -1    0    0    0  501  0.00000000000E+00  0.00000000000E+00 -0.85026441011E+03  0.85026441012E+03  0.25500000920E-02 0.  1.
    10030    2    1    2    0    0  0.00000000000E+00  0.00000000000E+00  0.16251656593E+04  0.33256944796E+04  0.29015651554E+04 0.  0.
        4    1    3    3  502    0 -0.31050422422E+03  0.37819840358E+03 -0.75282275329E+03  0.89788118172E+03  0.12699999809E+01 0.  1.
       -4    1    3    3    0  502  0.31050422422E+03 -0.37819840358E+03  0.23779884126E+04  0.24278132978E+04  0.12699999809E+01 0. -1.
</event>
<event>
 5   0  0.3786210E-07  0.2901601E+04  0.7818609E-02  0.8272401E-01
       -1   -1    0    0    0  501  0.00000000000E+00  0.00000000000E+00  0.19445103836E+04  0.19445103836E+04  0.50400001928E-02 0.  1.
        1   -1    0    0  501    0  0.00000000000E+00  0.00000000000E+00 -0.10824432563E+04  0.10824432564E+04  0.50400001928E-02 0. -1.
    10030    2    1    2    0    0  0.00000000000E+00  0.00000000000E+00  0.86206712724E+03  0.30269536400E+04  0.29016010419E+04 0.  0.
        5    1    3    3  502    0  0.40983960758E+03  0.11602854131E+04 -0.37065098091E+03  0.12851595167E+04  0.46999998093E+01 0. -1.
       -5    1    3    3    0  502 -0.40983960758E+03 -0.11602854131E+04  0.12327181081E+04  0.17417941233E+04  0.46999998093E+01 0.  1.
</event>
<event>
 5   0  0.3885904E-07  0.2901099E+04  0.7818609E-02  0.8272551E-01
        1   -1    0    0  501    0  0.00000000000E+00  0.00000000000E+00  0.12576041821E+04  0.12576041821E+04  0.50400001928E-02 0.  1.
       -1   -1    0    0    0  501  0.00000000000E+00  0.00000000000E+00 -0.16730967947E+04  0.16730967947E+04  0.50400001928E-02 0. -1.
    10030    2    1    2    0    0  0.00000000000E+00  0.00000000000E+00 -0.41549261265E+03  0.29307009768E+04  0.29010987754E+04 0.  0.
        2    1    3    3  502    0  0.10216341942E+04 -0.44414530649E+03  0.73076076777E+03  0.13322960556E+04  0.25500000920E-02 0.  1.
       -2    1    3    3    0  502 -0.10216341942E+04  0.44414530649E+03 -0.11462533804E+04  0.15984049212E+04  0.25500000920E-02 0. -1.
</event>
<event>
 5   0  0.1006893E-06  0.2905602E+04  0.7818609E-02  0.8271213E-01
        2   -1    0    0  501    0  0.00000000000E+00  0.00000000000E+00  0.13843821668E+04  0.13843821668E+04  0.25500000920E-02 0.  1.
       -2   -1    0    0    0  501  0.00000000000E+00  0.00000000000E+00 -0.15246007693E+04  0.15246007693E+04  0.25500000920E-02 0. -1.
    10030    2    1    2    0    0  0.00000000000E+00  0.00000000000E+00 -0.14021860247E+03  0.29089829361E+04  0.29056015670E+04 0.  0.
        4    1    3    3  502    0 -0.60461905067E+03  0.75423372985E+03 -0.11558970137E+04  0.15068285353E+04  0.12699999809E+01 0. -1.
       -4    1    3    3    0  502  0.60461905067E+03 -0.75423372985E+03  0.10156784113E+04  0.14021544008E+04  0.12699999809E+01 0.  1.
</event>
<event>
 5   0  0.9950999E-07  0.2899190E+04  0.7818609E-02  0.8273118E-01
       -2   -1    0    0    0  501  0.00000000000E+00  0.00000000000E+00  0.14500589090E+04  0.14500589090E+04  0.25500000920E-02 0. -1.
        2   -1    0    0  501    0  0.00000000000E+00  0.00000000000E+00 -0.14491315195E+04  0.14491315195E+04  0.25500000920E-02 0.  1.
    10030    2    1    2    0    0  0.00000000000E+00  0.00000000000E+00  0.92738951302E+00  0.28991904284E+04  0.28991902801E+04 0.  0.
        3    1    3    3  502    0 -0.79921299575E+03 -0.10266609012E+04 -0.63871709584E+03  0.14493907538E+04  0.10100000352E+00 0.  1.
       -3    1    3    3    0  502  0.79921299575E+03  0.10266609012E+04  0.63964448535E+03  0.14497996746E+04  0.10100000352E+00 0. -1.
</event>
<event>
 5   0  0.3378750E-07  0.2902190E+04  0.7818609E-02  0.8272226E-01
        3   -1    0    0  501    0  0.00000000000E+00  0.00000000000E+00  0.10824914206E+04  0.10824914253E+04  0.10100000352E+00 0.  1.
       -3   -1    0    0    0  501  0.00000000000E+00  0.00000000000E+00 -0.19452127140E+04  0.19452127166E+04  0.10100000352E+00 0. -1.
    10030    2    1    2    0    0  0.00000000000E+00  0.00000000000E+00 -0.86272129341E+03  0.30277041419E+04  0.29021895770E+04 0.  0.
        4    1    3    3  502    0  0.48661872901E+03 -0.72460181772E+03 -0.16407319070E+04  0.18584532239E+04  0.12699999809E+01 0. -1.
       -4    1    3    3    0  502 -0.48661872901E+03  0.72460181772E+03  0.77801061360E+03  0.11692509181E+04  0.12699999809E+01 0.  1.
</event>
<event>
 5   0  0.9994311E-07  0.2900689E+04  0.7818609E-02  0.8272673E-01
       -2   -1    0    0    0  501  0.00000000000E+00  0.00000000000E+00  0.21924029625E+04  0.21924029625E+04  0.25500000920E-02 0.  1.
        2   -1    0    0  501    0  0.00000000000E+00  0.00000000000E+00 -0.95944915150E+03  0.95944915150E+03  0.25500000920E-02 0. -1.
    10030    2    1    2    0    0  0.00000000000E+00  0.00000000000E+00  0.12329538110E+04  0.31518521140E+04  0.29006889955E+04 0.  0.
        2    1    3    3  502    0 -0.59874758554E+03  0.59170938984E+03 -0.66683778110E+03  0.10739140094E+04  0.25500000920E-02 0. -1.
       -2    1    3    3    0  502  0.59874758554E+03 -0.59170938984E+03  0.18997915921E+04  0.20779381047E+04  0.25500000920E-02 0.  1.
</event>
<event>
 5   0  0.1006893E-06  0.2898698E+04  0.7818609E-02  0.8273265E-01
        2   -1    0    0  501    0  0.00000000000E+00  0.00000000000E+00  0.14637971327E+04  0.14637971327E+04  0.25500000920E-02 0.  1.
       -2   -1    0    0    0  501  0.00000000000E+00  0.00000000000E+00 -0.14350429994E+04  0.14350429994E+04  0.25500000920E-02 0. -1.
    10030    2    1    2    0    0  0.00000000000E+00  0.00000000000E+00  0.28754133312E+02  0.28988401321E+04  0.28986975198E+04 0.  0.
        4    1    3    3  502    0 -0.99774673679E+03 -0.70939579430E+03 -0.76146344213E+03  0.14417243600E+04  0.12699999809E+01 0. -1.
       -4    1    3    3    0  502  0.99774673679E+03  0.70939579430E+03  0.79021757544E+03  0.14571157721E+04  0.12699999809E+01 0.  1.
</event>
<event>
 5   0  0.3770467E-07  0.2904394E+04  0.7818609E-02  0.8271571E-01
       -1   -1    0    0    0  501  0.00000000000E+00  0.00000000000E+00  0.11528306351E+04  0.11528306351E+04  0.50400001928E-02 0.  1.
        1   -1    0    0  501    0  0.00000000000E+00  0.00000000000E+00 -0.18293025604E+04  0.18293025604E+04  0.50400001928E-02 0. -1.
    10030    2    1    2    0    0  0.00000000000E+00  0.00000000000E+00 -0.67647192529E+03  0.29821331954E+04  0.29043939350E+04 0.  0.
        1    1    3    3  502    0  0.21346420798E+03  0.56288817464E+03  0.10186757132E+04  0.11832625549E+04  0.50400001928E-02 0.  1.
       -1    1    3    3    0  502 -0.21346420798E+03 -0.56288817464E+03 -0.16951476384E+04  0.17988706405E+04  0.50400001928E-02 0. -1.
</event>
<event>
 5   0  0.9994311E-07  0.2909726E+04  0.7818609E-02  0.8269990E-01
       -2   -1    0    0    0  501  0.00000000000E+00  0.00000000000E+00  0.94583777957E+03  0.94583777957E+03  0.25500000920E-02 0.  1.
        2   -1    0    0  501    0  0.00000000000E+00  0.00000000000E+00 -0.22378317895E+04  0.22378317895E+04  0.25500000920E-02 0. -1.
    10030    2    1    2    0    0  0.00000000000E+00  0.00000000000E+00 -0.12919940099E+04  0.31836695691E+04  0.29097256577E+04 0.  0.
        2    1    3    3  502    0 -0.27170844119E+03 -0.78642177979E+03 -0.19518159183E+04  0.21217610779E+04  0.25500000920E-02 0. -1.
       -2    1    3    3    0  502  0.27170844119E+03  0.78642177979E+03  0.65982190840E+03  0.10619084911E+04  0.25500000920E-02 0.  1.
</event>
<event>
 5   0  0.3786210E-07  0.2891818E+04  0.7818609E-02  0.8275316E-01
        1   -1    0    0  501    0  0.00000000000E+00  0.00000000000E+00  0.14962166539E+04  0.14962166539E+04  0.50400001928E-02 0.  1.
       -1   -1    0    0    0  501  0.00000000000E+00  0.00000000000E+00 -0.13972923925E+04  0.13972923925E+04  0.50400001928E-02 0. -1.
    10030    2    1    2    0    0  0.00000000000E+00  0.00000000000E+00  0.98924261391E+02  0.28935090464E+04  0.28918175240E+04 0.  0.
        5    1    3    3  502    0 -0.10164635078E+03 -0.11606205973E+04 -0.80734354880E+03  0.14174617622E+04  0.46999998093E+01 0.  1.
       -5    1    3    3    0  502  0.10164635078E+03  0.11606205973E+04  0.90626781020E+03  0.14760472842E+04  0.46999998093E+01 0. -1.
</event>
<event>
 5   0  0.3769563E-07  0.2896907E+04  0.7818609E-02  0.8273798E-01
        1   -1    0    0  501    0  0.00000000000E+00  0.00000000000E+00  0.20365674615E+04  0.20365674615E+04  0.50400001928E-02 0. -1.
       -1   -1    0    0    0  501  0.00000000000E+00  0.00000000000E+00 -0.10301730459E+04  0.10301730459E+04  0.50400001928E-02 0.  1.
    10030    2    1    2    0    0  0.00000000000E+00  0.00000000000E+00  0.10063944156E+04  0.30667405074E+04  0.28969065604E+04 0.  0.
        3    1    3    3  502    0  0.53137065435E+02 -0.14392484969E+04  0.34002756658E+03  0.14798238205E+04  0.10100000352E+00 0.  1.
       -3    1    3    3    0  502 -0.53137065435E+02  0.14392484969E+04  0.66636684906E+03  0.15869166869E+04  0.10100000352E+00 0. -1.
</event>
<event>
 5   0  0.1031339E-06  0.2896467E+04  0.7818609E-02  0.8273929E-01
       -2   -1    0    0    0  501  0.00000000000E+00  0.00000000000E+00  0.87447394454E+03  0.87447394454E+03  0.25500000920E-02 0.  1.
        2   -1    0    0  501    0  0.00000000000E+00  0.00000000000E+00 -0.23984482216E+04  0.23984482216E+04  0.25500000920E-02 0. -1.
    10030    2    1    2    0    0  0.00000000000E+00  0.00000000000E+00 -0.15239742771E+04  0.32729221662E+04  0.28964671427E+04 0.  0.
        5    1    3    3  502    0  0.13591678796E+04 -0.37473934028E+03 -0.38791489456E+03  0.14622814208E+04  0.46999998093E+01 0.  1.
       -5    1    3    3    0  502 -0.13591678796E+04  0.37473934028E+03 -0.11360593825E+04  0.18106407454E+04  0.46999998093E+01 0. -1.
</event>
<event>
 5   0  0.3786210E-07  0.2899412E+04  0.7818609E-02  0.8273053E-01
       -1   -1    0    0    0  501  0.00000000000E+00  0.00000000000E+00  0.13020504331E+04  0.13020504331E+04  0.50400001928E-02 0.  1.
        1   -1    0    0  501    0  0.00000000000E+00  0.00000000000E+00 -0.16141055156E+04  0.16141055156E+04  0.50400001928E-02 0. -1.
    10030    2    1    2    0    0  0.00000000000E+00  0.00000000000E+00 -0.31205508247E+03  0.29161559487E+04  0.28994115166E+04 0.  0.
        5    1    3    3  502    0  0.68760092752E+02  0.21835450520E+03  0.12837485999E+04  0.13040088949E+04  0.46999998093E+01 0.  1.
       -5    1    3    3    0  502 -0.68760092752E+02 -0.21835450520E+03 -0.15958036824E+04  0.16121470538E+04  0.46999998093E+01 0. -1.
</event>
<event>
 5   0  0.9950999E-07  0.2890652E+04  0.7818609E-02  0.8275664E-01
       -2   -1    0    0    0  501  0.00000000000E+00  0.00000000000E+00  0.81375607368E+03  0.81375607369E+03  0.25500000920E-02 0.  1.
        2   -1    0    0  501    0  0.00000000000E+00  0.00000000000E+00 -0.25670675209E+04  0.25670675209E+04  0.25500000920E-02 0. -1.
    10030    2    1    2    0    0  0.00000000000E+00  0.00000000000E+00 -0.17533114472E+04  0.33808235946E+04  0.28906516820E+04 0.  0.
        3    1    3    3  502    0 -0.96105206815E+03 -0.72254809998E+03 -0.18147000840E+04  0.21768861338E+04  0.10100000352E+00 0. -1.
       -3    1    3    3    0  502  0.96105206815E+03  0.72254809998E+03  0.61388636804E+02  0.12039374608E+04  0.10100000352E+00 0.  1.
</event>
<event>
 5   0  0.3770467E-07  0.2899321E+04  0.7818609E-02  0.8273079E-01
        1   -1    0    0  501    0  0.00000000000E+00  0.00000000000E+00  0.73867173697E+03  0.73867173699E+03  0.50400001928E-02 0.  1.
       -1   -1    0    0    0  501  0.00000000000E+00  0.00000000000E+00 -0.28449933219E+04  0.28449933219E+04  0.50400001928E-02 0. -1.
    10030    2    1    2    0    0  0.00000000000E+00  0.00000000000E+00 -0.21063215849E+04  0.35836650589E+04  0.28993214094E+04 0.  0.
        1    1    3    3  502    0  0.11624689083E+04  0.72711234912E+02 -0.21199501113E+04  0.24188446335E+04  0.50400001928E-02 0. -1.
       -1    1    3    3    0  502 -0.11624689083E+04 -0.72711234912E+02  0.13628526432E+02  0.11648204253E+04  0.50400001928E-02 0.  1.
</event>
<event>
 5   0  0.3786210E-07  0.2910902E+04  0.7818609E-02  0.8269641E-01
        1   -1    0    0  501    0  0.00000000000E+00  0.00000000000E+00  0.22185241471E+04  0.22185241471E+04  0.50400001928E-02 0. -1.
       -1   -1    0    0    0  501  0.00000000000E+00  0.00000000000E+00 -0.95484123163E+03  0.95484123164E+03  0.50400001928E-02 0.  1.
    10030    2    1    2    0    0  0.00000000000E+00  0.00000000000E+00  0.12636829154E+04  0.31733653787E+04  0.29109024917E+04 0.  0.
        5    1    3    3  502    0  0.13342137018E+04 -0.83238077172E+01 -0.20696094962E+01  0.13342495498E+04  0.46999998093E+01 0. -1.
       -5    1    3    3    0  502 -0.13342137018E+04  0.83238077172E+01  0.12657525249E+04  0.18391158289E+04  0.46999998093E+01 0.  1.
</event>
<event>
 5   0  0.9950999E-07  0.2928924E+04  0.7818609E-02  0.8264323E-01
       -2   -1    0    0    0  501  0.00000000000E+00  0.00000000000E+00  0.89029530583E+03  0.89029530583E+03  0.25500000920E-02 0.  1.
        2   -1    0    0  501    0  0.00000000000E+00  0.00000000000E+00 -0.24089192965E+04  0.24089192965E+04  0.25500000920E-02 0. -1.
    10030    2    1    2    0    0  0.00000000000E+00  0.00000000000E+00 -0.15186239907E+04  0.32992146024E+04  0.29289244045E+04 0.  0.
        3    1    3    3  502    0 -0.73271414454E+03 -0.11058277402E+04 -0.60451980272E+02  0.13279229875E+04  0.10100000352E+00 0.  1.
       -3    1    3    3    0  502  0.73271414454E+03  0.11058277402E+04 -0.14581720104E+04  0.19712916149E+04  0.10100000352E+00 0. -1.
</event>
<event>
 5   0  0.1031339E-06  0.2900504E+04  0.7818609E-02  0.8272728E-01
       -2   -1    0    0    0  501  0.00000000000E+00  0.00000000000E+00  0.97559204740E+03  0.97559204740E+03  0.25500000920E-02 0. -1.
        2   -1    0    0  501    0  0.00000000000E+00  0.00000000000E+00 -0.21558501148E+04  0.21558501148E+04  0.25500000920E-02 0.  1.
    10030    2    1    2    0    0  0.00000000000E+00  0.00000000000E+00 -0.11802580674E+04  0.31314421622E+04  0.29005035614E+04 0.  0.
        5    1    3    3  502    0  0.88720963692E+03  0.52436552069E+03  0.51145817175E+03  0.11505267014E+04  0.46999998093E+01 0. -1.
       -5    1    3    3    0  502 -0.88720963692E+03 -0.52436552069E+03 -0.16917162391E+04  0.19809154608E+04  0.46999998093E+01 0.  1.
</event>
<event>
 5   0  0.1031339E-06  0.2900484E+04  0.7818609E-02  0.8272734E-01
        2   -1    0    0  501    0  0.00000000000E+00  0.00000000000E+00  0.24487743355E+04  0.24487743355E+04  0.25500000920E-02 0. -1.
       -2   -1    0    0    0  501  0.00000000000E+00  0.00000000000E+00 -0.85887912226E+03  0.85887912226E+03  0.25500000920E-02 0.  1.
    10030    2    1    2    0    0  0.00000000000E+00  0.00000000000E+00  0.15898952132E+04  0.33076534578E+04  0.29004835127E+04 0.  0.
        5    1    3    3  502    0 -0.10289309747E+04 -0.61718570538E+03  0.17238933039E+04  0.21003445810E+04  0.46999998093E+01 0. -1.
       -5    1    3    3    0  502  0.10289309747E+04  0.61718570538E+03 -0.13399809071E+03  0.12073088768E+04  0.46999998093E+01 0.  1.
</event>
<event>
 5   0  0.3638028E-07  0.2911832E+04  0.7818609E-02  0.8269366E-01
       -1   -1    0    0    0  501  0.00000000000E+00  0.00000000000E+00  0.12838506539E+04  0.12838506539E+04  0.50400001928E-02 0.  1.
        1   -1    0    0  501    0  0.00000000000E+00  0.00000000000E+00 -0.16510421878E+04  0.16510421878E+04  0.50400001928E-02 0. -1.
    10030    2    1    2    0    0  0.00000000000E+00  0.00000000000E+00 -0.36719153390E+03  0.29348928417E+04  0.29118321328E+04 0.  0.
        4    1    3    3  502    0 -0.93786038649E+03 -0.72374829570E+03 -0.10366413967E+04  0.15741730205E+04  0.12699999809E+01 0. -1.
       -4    1    3    3    0  502  0.93786038649E+03  0.72374829570E+03  0.66944986282E+03  0.13607198212E+04  0.12699999809E+01 0.  1.
</event>
<event>
 5   0  0.3378750E-07  0.2910525E+04  0.7818609E-02  0.8269753E-01
        3   -1    0    0  501    0  0.00000000000E+00  0.00000000000E+00  0.26542527228E+04  0.26542527247E+04  0.10100000352E+00 0. -1.
       -3   -1    0    0    0  501  0.00000000000E+00  0.00000000000E+00 -0.79788533293E+03  0.79788533932E+03  0.10100000352E+00 0.  1.
    10030    2    1    2    0    0  0.00000000000E+00  0.00000000000E+00  0.18563673898E+04  0.34521380640E+04  0.29105252665E+04 0.  0.
        2    1    3    3  502    0  0.29927260064E+03 -0.36024375305E+03 -0.70605815542E+03  0.84726487591E+03  0.25500000920E-02 0.  1.
       -2    1    3    3    0  502 -0.29927260064E+03  0.36024375305E+03  0.25624255453E+04  0.26048731881E+04  0.25500000920E-02 0. -1.
</event>
<event>
 5   0  0.3638028E-07  0.2899224E+04  0.7818609E-02  0.8273108E-01
        1   -1    0    0  501    0  0.00000000000E+00  0.00000000000E+00  0.19059449519E+04  0.19059449519E+04  0.50400001928E-02 0. -1.
       -1   -1    0    0    0  501  0.00000000000E+00  0.00000000000E+00 -0.11025371345E+04  0.11025371345E+04  0.50400001928E-02 0.  1.
    10030    2    1    2    0    0  0.00000000000E+00  0.00000000000E+00  0.80340781734E+03  0.30084820864E+04  0.28992240933E+04 0.  0.
        4    1    3    3  502    0 -0.44965793810E+03  0.45777764279E+03  0.17505434030E+04  0.18644453466E+04  0.12699999809E+01 0. -1.
       -4    1    3    3    0  502  0.44965793810E+03 -0.45777764279E+03 -0.94713558569E+03  0.11440367398E+04  0.12699999809E+01 0.  1.
</event>
<event>
 5   0  0.3769563E-07  0.2893302E+04  0.7818609E-02  0.8274873E-01
        1   -1    0    0  501    0  0.00000000000E+00  0.00000000000E+00  0.17499381011E+04  0.17499381011E+04  0.50400001928E-02 0.  1.
       -1   -1    0    0    0  501  0.00000000000E+00  0.00000000000E+00 -0.11959275124E+04  0.11959275124E+04  0.50400001928E-02 0. -1.
    10030    2    1    2    0    0  0.00000000000E+00  0.00000000000E+00  0.55401058870E+03  0.29458656134E+04  0.28933020029E+04 0.  0.
        3    1    3    3  502    0 -0.10805781406E+04  0.48206166121E+03  0.11244524320E+04  0.16323069090E+04  0.10100000352E+00 0.  1.
       -3    1    3    3    0  502  0.10805781406E+04 -0.48206166121E+03 -0.57044184335E+03  0.13135587044E+04  0.10100000352E+00 0. -1.
</event>
<event>
 5   0  0.3638028E-07  0.2895886E+04  0.7818609E-02  0.8274103E-01
       -1   -1    0    0    0  501  0.00000000000E+00  0.00000000000E+00  0.23108720643E+04  0.23108720643E+04  0.50400001928E-02 0.  1.
        1   -1    0    0  501    0  0.00000000000E+00  0.00000000000E+00 -0.90724997470E+03  0.90724997471E+03  0.50400001928E-02 0. -1.
    10030    2    1    2    0    0  0.00000000000E+00  0.00000000000E+00  0.14036220896E+04  0.32181220390E+04  0.28958857863E+04 0.  0.
        4    1    3    3  502    0  0.65186681097E+03  0.78036155737E+03 -0.44374059916E+03  0.11094150854E+04  0.12699999809E+01 0. -1.
       -4    1    3    3    0  502 -0.65186681097E+03 -0.78036155737E+03  0.18473626887E+04  0.21087069536E+04  0.12699999809E+01 0.  1.
</event>
<event>
 5   0  0.9950999E-07  0.2895576E+04  0.7818609E-02  0.8274195E-01
       -2   -1    0    0    0  501  0.00000000000E+00  0.00000000000E+00  0.13196664183E+04  0.13196664183E+04  0.25500000920E-02 0. -1.
        2   -1    0    0  501    0  0.00000000000E+00  0.00000000000E+00 -0.15883485174E+04  0.15883485174E+04  0.25500000920E-02 0.  1.
    10030    2    1    2    0    0  0.00000000000E+00  0.00000000000E+00 -0.26868209908E+03  0.29080149357E+04  0.28955760732E+04 0.  0.
        3    1    3    3  502    0 -0.56721262596E+03 -0.13088062982E+04  0.11448547455E+03  0.14310174784E+04  0.10100000352E+00 0. -1.
       -3    1    3    3    0  502  0.56721262596E+03  0.13088062982E+04 -0.38316757363E+03  0.14769974573E+04  0.10100000352E+00 0.  1.
</event>
<event>
 5   0  0.1031339E-06  0.2912500E+04  0.7818609E-02  0.8269168E-01
       -2   -1    0    0    0  501  0.00000000000E+00  0.00000000000E+00  0.13146351603E+04  0.13146351603E+04  0.25500000920E-02 0.  1.
        2   -1    0    0  501    0  0.00000000000E+00  0.00000000000E+00 -0.16131194565E+04  0.16131194565E+04  0.25500000920E-02 0. -1.
    10030    2    1    2    0    0  0.00000000000E+00  0.00000000000E+00 -0.29848429626E+03  0.29277546168E+04  0.29124996517E+04 0.  0.
        5    1    3    3  502    0  0.34718181133E+02  0.10912044327E+04  0.81950094545E+03  0.13651140450E+04  0.46999998093E+01 0.  1.
       -5    1    3    3    0  502 -0.34718181133E+02 -0.10912044327E+04 -0.11179852417E+04  0.15626405719E+04  0.46999998093E+01 0. -1.
</event>
<event>
 5   0  0.1031339E-06  0.2900865E+04  0.7818609E-02  0.8272620E-01
       -2   -1    0    0    0  501  0.00000000000E+00  0.00000000000E+00  0.11634750748E+04  0.11634750748E+04  0.25500000920E-02 0. -1.
        2   -1    0    0  501    0  0.00000000000E+00  0.00000000000E+00 -0.18081646378E+04  0.18081646378E+04  0.25500000920E-02 0.  1.
    10030    2    1    2    0    0  0.00000000000E+00  0.00000000000E+00 -0.64468956300E+03  0.29716397125E+04  0.29008650345E+04 0.  0.
        5    1    3    3  502    0 -0.13875943842E+03 -0.80575727124E+03 -0.15495859113E+04  0.17520666507E+04  0.46999998093E+01 0.  1.
       -5    1    3    3    0  502  0.13875943842E+03  0.80575727124E+03  0.90489634835E+03  0.12195730618E+04  0.46999998093E+01 0. -1.
</event>
<event>
 5   0  0.3770467E-07  0.2913079E+04  0.7818609E-02  0.8268997E-01
        1   -1    0    0  501    0  0.00000000000E+00  0.00000000000E+00  0.12114215823E+04  0.12114215823E+04  0.50400001928E-02 0.  1.
       -1   -1    0    0    0  501  0.00000000000E+00  0.00000000000E+00 -0.17512549032E+04  0.17512549032E+04  0.50400001928E-02 0. -1.
    10030    2    1    2    0    0  0.00000000000E+00  0.00000000000E+00 -0.53983332094E+03  0.29626764855E+04  0.29130794605E+04 0.  0.
        1    1    3    3  502    0  0.17624307337E+03 -0.10725463972E+04  0.71617378859E+03  0.13016613578E+04  0.50400001928E-02 0.  1.
       -1    1    3    3    0  502 -0.17624307337E+03  0.10725463972E+04 -0.12560071095E+04  0.16610151276E+04  0.50400001928E-02 0. -1.
</event>
<event>
 5   0  0.1063979E-06  0.2897848E+04  0.7818609E-02  0.8273518E-01
       -2   -1    0    0    0  501  0.00000000000E+00  0.00000000000E+00  0.15225359208E+04  0.15225359208E+04  0.25500000920E-02 0. -1.
        2   -1    0    0  501    0  0.00000000000E+00  0.00000000000E+00 -0.13788713254E+04  0.13788713254E+04  0.25500000920E-02 0.  1.
    10030    2    1    2    0    0  0.00000000000E+00  0.00000000000E+00  0.14366459547E+03  0.29014072462E+04  0.28978482521E+04 0.  0.
        1    1    3    3  502    0 -0.49156394800E+03 -0.10876838253E+04 -0.75057159546E+03  0.14099818930E+04  0.50400001928E-02 0.  1.
       -1    1    3    3    0  502  0.49156394800E+03  0.10876838253E+04  0.89423619093E+03  0.14914253531E+04  0.50400001928E-02 0. -1.
</event>
<event>
 5   0  0.1063979E-06  0.2903162E+04  0.7818609E-02  0.8271937E-01
       -2   -1    0    0    0  501  0.00000000000E+00  0.00000000000E+00  0.15654476014E+04  0.15654476014E+04  0.25500000920E-02 0.  1.
        2   -1    0    0  501    0  0.00000000000E+00  0.00000000000E+00 -0.13459967641E+04  0.13459967641E+04  0.25500000920E-02 0. -1.
    10030    2    1    2    0    0  0.00000000000E+00  0.00000000000E+00  0.21945083728E+03  0.29114443656E+04  0.29031620044E+04 0.  0.
        1    1    3    3  502    0  0.84070092676E+03  0.73069940851E+02 -0.10747326214E+04  0.13664433658E+04  0.50400001928E-02 0. -1.
       -1    1    3    3    0  502 -0.84070092676E+03 -0.73069940851E+02  0.12941834587E+04  0.15450009998E+04  0.50400001928E-02 0.  1.
</event>
<event>
 5   0  0.3769563E-07  0.2908501E+04  0.7818609E-02  0.8270353E-01
        1   -1    0    0  501    0  0.00000000000E+00  0.00000000000E+00  0.26273895172E+04  0.26273895173E+04  0.50400001928E-02 0. -1.
       -1   -1    0    0    0  501  0.00000000000E+00  0.00000000000E+00 -0.80492255032E+03  0.80492255034E+03  0.50400001928E-02 0.  1.
    10030    2    1    2    0    0  0.00000000000E+00  0.00000000000E+00  0.18224669669E+04  0.34323120676E+04  0.29085013811E+04 0.  0.
        3    1    3    3  502    0  0.85590458839E+03 -0.10272430836E+04  0.23636271920E+03  0.13578174997E+04  0.10100000352E+00 0.  1.
       -3    1    3    3    0  502 -0.85590458839E+03  0.10272430836E+04  0.15861042477E+04  0.20744945679E+04  0.10100000352E+00 0. -1.
</event>
<event>
 5   0  0.1006893E-06  0.2897153E+04  0.7818609E-02  0.8273725E-01
       -2   -1    0    0    0  501  0.00000000000E+00  0.00000000000E+00  0.13139348235E+04  0.13139348235E+04  0.25500000920E-02 0.  1.
        2   -1    0    0  501    0  0.00000000000E+00  0.00000000000E+00 -0.15970152451E+04  0.15970152451E+04  0.25500000920E-02 0. -1.
    10030    2    1    2    0    0  0.00000000000E+00  0.00000000000E+00 -0.28308042154E+03  0.29109500686E+04  0.28971530469E+04 0.  0.
        4    1    3    3  502    0 -0.53176692745E+03  0.10359689445E+04 -0.10072492429E+04  0.15396624206E+04  0.12699999809E+01 0. -1.
       -4    1    3    3    0  502  0.53176692745E+03 -0.10359689445E+04  0.72416882133E+03  0.13712876481E+04  0.12699999809E+01 0.  1.
</event>
<event>
 5   0  0.3885904E-07  0.2900880E+04  0.7818609E-02  0.8272616E-01
        1   -1    0    0  501    0  0.00000000000E+00  0.00000000000E+00  0.17565442462E+04  0.17565442462E+04  0.50400001928E-02 0. -1.
       -1   -1    0    0    0  501  0.00000000000E+00  0.00000000000E+00 -0.11976786836E+04  0.11976786837E+04  0.50400001928E-02 0.  1.
    10030    2    1    2    0    0  0.00000000000E+00  0.00000000000E+00  0.55886556258E+03  0.29542229299E+04  0.29008795912E+04 0.  0.
        2    1    3    3  502    0  0.75770974773E+03 -0.75602357356E+03 -0.71738189934E+03  0.12885388993E+04  0.25500000920E-02 0.  1.
       -2    1    3    3    0  502 -0.75770974773E+03  0.75602357356E+03  0.12762474619E+04  0.16656840306E+04  0.25500000920E-02 0. -1.
</event>
<event>
 5   0  0.9994311E-07  0.2899685E+04  0.7818609E-02  0.8272971E-01
       -2   -1    0    0    0  501  0.00000000000E+00  0.00000000000E+00  0.13097929035E+04  0.13097929035E+04  0.25500000920E-02 0. -1.
        2   -1    0    0  501    0  0.00000000000E+00  0.00000000000E+00 -0.16048663508E+04  0.16048663508E+04  0.25500000920E-02 0.  1.
    10030    2    1    2    0    0  0.00000000000E+00  0.00000000000E+00 -0.29507344728E+03  0.29146592543E+04  0.28996845052E+04 0.  0.
        2    1    3    3  502    0  0.45054053979E+03 -0.27471052643E+03  0.12098407317E+04  0.13199118332E+04  0.25500000920E-02 0. -1.
       -2    1    3    3    0  502 -0.45054053979E+03  0.27471052643E+03 -0.15049141790E+04  0.15947474212E+04  0.25500000920E-02 0.  1.
</event>
<event>
 5   0  0.3770467E-07  0.2901933E+04  0.7818609E-02  0.8272303E-01
       -1   -1    0    0    0  501  0.00000000000E+00  0.00000000000E+00  0.22515343500E+04  0.22515343500E+04  0.50400001928E-02 0.  1.
        1   -1    0    0  501    0  0.00000000000E+00  0.00000000000E+00 -0.93505303870E+03  0.93505303871E+03  0.50400001928E-02 0. -1.
    10030    2    1    2    0    0  0.00000000000E+00  0.00000000000E+00  0.13164813113E+04  0.31865873887E+04  0.29019331734E+04 0.  0.
        1    1    3    3  502    0 -0.99682597108E+03  0.41582214740E+03 -0.40568110264E+03  0.11537535404E+04  0.50400001928E-02 0. -1.
       -1    1    3    3    0  502  0.99682597108E+03 -0.41582214740E+03  0.17221624140E+04  0.20328338483E+04  0.50400001928E-02 0.  1.
</event>
<event>
 5   0  0.9994311E-07  0.2862602E+04  0.7818609E-02  0.8284092E-01
        2   -1    0    0  501    0  0.00000000000E+00  0.00000000000E+00  0.13522887793E+04  0.13522887793E+04  0.25500000920E-02 0.  1.
       -2   -1    0    0    0  501  0.00000000000E+00  0.00000000000E+00 -0.15149297392E+04  0.15149297392E+04  0.25500000920E-02 0. -1.
    10030    2    1    2    0    0  0.00000000000E+00  0.00000000000E+00 -0.16264095989E+03  0.28672185185E+04  0.28626019547E+04 0.  0.
        2    1    3    3  502    0 -0.27951837283E+03 -0.77579478760E+03  0.10904527111E+04  0.13671412467E+04  0.25500000920E-02 0.  1.
       -2    1    3    3    0  502  0.27951837283E+03  0.77579478760E+03 -0.12530936710E+04  0.15000772718E+04  0.25500000920E-02 0. -1.
</event>
<event>
 5   0  0.1031339E-06  0.2897301E+04  0.7818609E-02  0.8273681E-01
        2   -1    0    0  501    0  0.00000000000E+00  0.00000000000E+00  0.11949048951E+04  0.11949048951E+04  0.25500000920E-02 0. -1.
       -2   -1    0    0    0  501  0.00000000000E+00  0.00000000000E+00 -0.17562808780E+04  0.17562808780E+04  0.25500000920E-02 0.  1.
    10030    2    1    2    0    0  0.00000000000E+00  0.00000000000E+00 -0.56137598290E+03  0.29511857732E+04  0.28973012397E+04 0.  0.
        5    1    3    3  502    0  0.18478203213E+02  0.40141945552E+03  0.11369897356E+04  0.12059215448E+04  0.46999998093E+01 0. -1.
       -5    1    3    3    0  502 -0.18478203213E+02 -0.40141945552E+03 -0.16983657185E+04  0.17452642284E+04  0.46999998093E+01 0.  1.
</event>
<event>
 5   0  0.1031339E-06  0.2896759E+04  0.7818609E-02  0.8273842E-01
       -2   -1    0    0    0  501  0.00000000000E+00  0.00000000000E+00  0.15676245612E+04  0.15676245612E+04  0.25500000920E-02 0.  1.
        2   -1    0    0  501    0  0.00000000000E+00  0.00000000000E+00 -0.13382051378E+04  0.13382051378E+04  0.25500000920E-02 0. -1.
    10030    2    1    2    0    0  0.00000000000E+00  0.00000000000E+00  0.22941942342E+03  0.29058296990E+04  0.28967590455E+04 0.  0.
        5    1    3    3  502    0  0.34470880253E+03  0.19286229732E+03 -0.12831245713E+04  0.13425538275E+04  0.46999998093E+01 0. -1.
       -5    1    3    3    0  502 -0.34470880253E+03 -0.19286229732E+03  0.15125439947E+04  0.15632758714E+04  0.46999998093E+01 0.  1.
</event>
<event>
 5   0  0.1031339E-06  0.2897595E+04  0.7818609E-02  0.8273593E-01
        2   -1    0    0  501    0  0.00000000000E+00  0.00000000000E+00  0.26993106781E+04  0.26993106781E+04  0.25500000920E-02 0. -1.
       -2   -1    0    0    0  501  0.00000000000E+00  0.00000000000E+00 -0.77761135408E+03  0.77761135408E+03  0.25500000920E-02 0.  1.
    10030    2    1    2    0    0  0.00000000000E+00  0.00000000000E+00  0.19216993240E+04  0.34769220322E+04  0.28975953006E+04 0.  0.
        5    1    3    3  502    0  0.43386553741E+02 -0.12133570461E+04  0.12313837137E+02  0.12142040335E+04  0.46999998093E+01 0.  1.
       -5    1    3    3    0  502 -0.43386553741E+02  0.12133570461E+04  0.19093854869E+04  0.22627179987E+04  0.46999998093E+01 0. -1.
</event>
<event>
 5   0  0.3770467E-07  0.2915935E+04  0.7818609E-02  0.8268152E-01
        1   -1    0    0  501    0  0.00000000000E+00  0.00000000000E+00  0.11661987758E+04  0.11661987759E+04  0.50400001928E-02 0.  1.
       -1   -1    0    0    0  501  0.00000000000E+00  0.00000000000E+00 -0.18227336830E+04  0.18227336830E+04  0.50400001928E-02 0. -1.
    10030    2    1    2    0    0  0.00000000000E+00  0.00000000000E+00 -0.65653490716E+03  0.29889324589E+04  0.29159353833E+04 0.  0.
        1    1    3    3  502    0 -0.10977358611E+04 -0.95392014393E+03 -0.22232571485E+03  0.14711955632E+04  0.50400001928E-02 0.  1.
       -1    1    3    3    0  502  0.10977358611E+04  0.95392014393E+03 -0.43420919230E+03  0.15177368957E+04  0.50400001928E-02 0. -1.
</event>
<event>
 5   0  0.3769563E-07  0.2893244E+04  0.7818609E-02  0.8274890E-01
       -1   -1    0    0    0  501  0.00000000000E+00  0.00000000000E+00  0.14441628808E+04  0.14441628808E+04  0.50400001928E-02 0.  1.
        1   -1    0    0  501    0  0.00000000000E+00  0.00000000000E+00 -0.14490852363E+04  0.14490852363E+04  0.50400001928E-02 0. -1.
    10030    2    1    2    0    0  0.00000000000E+00  0.00000000000E+00 -0.49223555148E+01  0.28932481171E+04  0.28932439299E+04 0.  0.
        3    1    3    3  502    0  0.94894370980E+03 -0.10779308976E+04 -0.17648991791E+03  0.14469201380E+04  0.10100000352E+00 0. -1.
       -3    1    3    3    0  502 -0.94894370980E+03  0.10779308976E+04  0.17156756239E+03  0.14463279791E+04  0.10100000352E+00 0.  1.
</event>
<event>
 5   0  0.3769563E-07  0.2904338E+04  0.7818609E-02  0.8271588E-01
        1   -1    0    0  501    0  0.00000000000E+00  0.00000000000E+00  0.13285191310E+04  0.13285191310E+04  0.50400001928E-02 0. -1.
       -1   -1    0    0    0  501  0.00000000000E+00  0.00000000000E+00 -0.15873275907E+04  0.15873275907E+04  0.50400001928E-02 0.  1.
    10030    2    1    2    0    0  0.00000000000E+00  0.00000000000E+00 -0.25880845970E+03  0.29158467217E+04  0.29043381837E+04 0.  0.
        3    1    3    3  502    0 -0.72036125599E+03 -0.96928123190E+03  0.68024572077E+03  0.13860594130E+04  0.10100000352E+00 0. -1.
       -3    1    3    3    0  502  0.72036125599E+03  0.96928123190E+03 -0.93905418048E+03  0.15297873087E+04  0.10100000352E+00 0.  1.
</event>
<event>
 5   0  0.1063979E-06  0.2896403E+04  0.7818609E-02  0.8273949E-01
       -2   -1    0    0    0  501  0.00000000000E+00  0.00000000000E+00  0.86966583309E+03  0.86966583309E+03  0.25500000920E-02 0. -1.
        2   -1    0    0  501    0  0.00000000000E+00  0.00000000000E+00 -0.24116009134E+04  0.24116009134E+04  0.25500000920E-02 0.  1.
    10030    2    1    2    0    0  0.00000000000E+00  0.00000000000E+00 -0.15419350803E+04  0.32812667465E+04  0.28964025393E+04 0.  0.
        1    1    3    3  502    0 -0.88527351080E+03  0.83087664463E+03 -0.16653101268E+04  0.20609034441E+04  0.50400001928E-02 0.  1.
       -1    1    3    3    0  502  0.88527351080E+03 -0.83087664463E+03  0.12337504654E+03  0.12203633023E+04  0.50400001928E-02 0. -1.
</event>
<event>
 5   0  0.3786210E-07  0.2896613E+04  0.7818609E-02  0.8273886E-01
       -1   -1    0    0    0  501  0.00000000000E+00  0.00000000000E+00  0.12033520712E+04  0.12033520712E+04  0.50400001928E-02 0. -1.
        1   -1    0    0  501    0  0.00000000000E+00  0.00000000000E+00 -0.17431239783E+04  0.17431239783E+04  0.50400001928E-02 0.  1.
    10030    2    1    2    0    0  0.00000000000E+00  0.00000000000E+00 -0.53977190711E+03  0.29464760495E+04  0.28966130910E+04 0.  0.
        5    1    3    3  502    0 -0.82088667641E+03  0.47354502537E+03  0.84417027023E+03  0.12691514337E+04  0.46999998093E+01 0. -1.
       -5    1    3    3    0  502  0.82088667641E+03 -0.47354502537E+03 -0.13839421773E+04  0.16773246158E+04  0.46999998093E+01 0.  1.
</event>
<event>
 5   0  0.1063979E-06  0.2889631E+04  0.7818609E-02  0.8275969E-01
        2   -1    0    0  501    0  0.00000000000E+00  0.00000000000E+00  0.21701069638E+04  0.21701069638E+04  0.25500000920E-02 0.  1.
       -2   -1    0    0    0  501  0.00000000000E+00  0.00000000000E+00 -0.96193041158E+03  0.96193041159E+03  0.25500000920E-02 0. -1.
    10030    2    1    2    0    0  0.00000000000E+00  0.00000000000E+00  0.12081765522E+04  0.31320373754E+04  0.28896310387E+04 0.  0.
        1    1    3    3  502    0  0.37768048944E+03 -0.13729447801E+04  0.33887436912E+03  0.14637130044E+04  0.50400001928E-02 0. -1.
       -1    1    3    3    0  502 -0.37768048944E+03  0.13729447801E+04  0.86930218312E+03  0.16683243710E+04  0.50400001928E-02 0.  1.
</event>
<event>
 5   0  0.9950999E-07  0.2900684E+04  0.7818609E-02  0.8272674E-01
        2   -1    0    0  501    0  0.00000000000E+00  0.00000000000E+00  0.16206138183E+04  0.16206138183E+04  0.25500000920E-02 0.  1.
       -2   -1    0    0    0  501  0.00000000000E+00  0.00000000000E+00 -0.12979601626E+04  0.12979601626E+04  0.25500000920E-02 0. -1.
    10030    2    1    2    0    0  0.00000000000E+00  0.00000000000E+00  0.32265365566E+03  0.29185739809E+04  0.29006841780E+04 0.  0.
        3    1    3    3  502    0 -0.49442193356E+03  0.68990043968E+03 -0.10219690769E+04  0.13284714785E+04  0.10100000352E+00 0. -1.
       -3    1    3    3    0  502  0.49442193356E+03 -0.68990043968E+03  0.13446227325E+04  0.15901025024E+04  0.10100000352E+00 0.  1.
</event>
<event>
 5   0  0.9994311E-07  0.2898268E+04  0.7818609E-02  0.8273393E-01
        2   -1    0    0  501    0  0.00000000000E+00  0.00000000000E+00  0.20934915253E+04  0.20934915253E+04  0.25500000920E-02 0.  1.
       -2   -1    0    0    0  501  0.00000000000E+00  0.00000000000E+00 -0.10031040062E+04  0.10031040062E+04  0.25500000920E-02 0. -1.
    10030    2    1    2    0    0  0.00000000000E+00  0.00000000000E+00  0.10903875191E+04  0.30965955315E+04  0.28982682664E+04 0.  0.
        2    1    3    3  502    0  0.16407884004E+02 -0.38687465628E+03  0.20371930255E+04  0.20736674376E+04  0.25500000920E-02 0.  1.
       -2    1    3    3    0  502 -0.16407884004E+02  0.38687465628E+03 -0.94680550647E+03  0.10229280940E+04  0.25500000920E-02 0. -1.
</event>
<event>
 5   0  0.3885904E-07  0.2898656E+04  0.7818609E-02  0.8273277E-01
        1   -1    0    0  501    0  0.00000000000E+00  0.00000000000E+00  0.16172262290E+04  0.16172262290E+04  0.50400001928E-02 0.  1.
       -1   -1    0    0    0  501  0.00000000000E+00  0.00000000000E+00 -0.12988609139E+04  0.12988609139E+04  0.50400001928E-02 0. -1.
    10030    2    1    2    0    0  0.00000000000E+00  0.00000000000E+00  0.31836531513E+03  0.29160871429E+04  0.28986561974E+04 0.  0.
        2    1    3    3  502    0  0.74095160134E+03 -0.39663556937E+03  0.13470553378E+04  0.15877301829E+04  0.25500000920E-02 0.  1.
       -2    1    3    3    0  502 -0.74095160134E+03  0.39663556937E+03 -0.10286900227E+04  0.13283569600E+04  0.25500000920E-02 0. -1.
</event>
<event>
 5   0  0.1031339E-06  0.2898439E+04  0.7818609E-02  0.8273342E-01
       -2   -1    0    0    0  501  0.00000000000E+00  0.00000000000E+00  0.14892385384E+04  0.14892385384E+04  0.25500000920E-02 0.  1.
        2   -1    0    0  501    0  0.00000000000E+00  0.00000000000E+00 -0.14102762024E+04  0.14102762024E+04  0.25500000920E-02 0. -1.
    10030    2    1    2    0    0  0.00000000000E+00  0.00000000000E+00  0.78962335957E+02  0.28995147408E+04  0.28984393527E+04 0.  0.
        5    1    3    3  502    0  0.61475807353E+03  0.95964801977E+03  0.93500254061E+03  0.14741450579E+04  0.46999998093E+01 0.  1.
       -5    1    3    3    0  502 -0.61475807353E+03 -0.95964801977E+03 -0.85604020466E+03  0.14253696829E+04  0.46999998093E+01 0. -1.
</event>
<event>
 5   0  0.3378750E-07  0.2905038E+04  0.7818609E-02  0.8271380E-01
        3   -1    0    0  501    0  0.00000000000E+00  0.00000000000E+00  0.14532832053E+04  0.14532832088E+04  0.10100000352E+00 0.  1.
       -3   -1    0    0    0  501  0.00000000000E+00  0.00000000000E+00 -0.14517547245E+04  0.14517547281E+04  0.10100000352E+00 0. -1.
    10030    2    1    2    0    0  0.00000000000E+00  0.00000000000E+00  0.15284807766E+01  0.29050379369E+04  0.29050375348E+04 0.  0.
        3    1    3    3  502    0 -0.31728687620E+02 -0.10434080287E+04  0.10107662295E+04  0.14530503793E+04  0.10100000352E+00 0.  1.
       -3    1    3    3    0  502  0.31728687620E+02  0.10434080287E+04 -0.10092377487E+04  0.14519875576E+04  0.10100000352E+00 0. -1.
</event>
<event>
 5   0  0.1031339E-06  0.2894001E+04  0.7818609E-02  0.8274664E-01
       -2   -1    0    0    0  501  0.00000000000E+00  0.00000000000E+00  0.12131087207E+04  0.12131087207E+04  0.25500000920E-02 0.  1.
        2   -1    0    0  501    0  0.00000000000E+00  0.00000000000E+00 -0.17259878120E+04  0.17259878120E+04  0.25500000920E-02 0. -1.
    10030    2    1    2    0    0  0.00000000000E+00  0.00000000000E+00 -0.51287909129E+03  0.29390965327E+04  0.28940012900E+04 0.  0.
        5    1    3    3  502    0  0.56651540803E+02  0.10858880017E+04  0.71312334809E+03  0.13003573159E+04  0.46999998093E+01 0.  1.
       -5    1    3    3    0  502 -0.56651540803E+02 -0.10858880017E+04 -0.12260024394E+04  0.16387392168E+04  0.46999998093E+01 0. -1.
</event>
<event>
 5   0  0.1063979E-06  0.2903292E+04  0.7818609E-02  0.8271899E-01
       -2   -1    0    0    0  501  0.00000000000E+00  0.00000000000E+00  0.22151234628E+04  0.22151234628E+04  0.25500000920E-02 0. -1.
        2   -1    0    0  501    0  0.00000000000E+00  0.00000000000E+00 -0.95131299401E+03  0.95131299401E+03  0.25500000920E-02 0.  1.
    10030    2    1    2    0    0  0.00000000000E+00  0.00000000000E+00  0.12638104688E+04  0.31664364568E+04  0.29032917411E+04 0.  0.
        1    1    3    3  502    0  0.62018709457E+03  0.81322830555E+03 -0.49166410962E+03  0.11347713012E+04  0.50400001928E-02 0.  1.
       -1    1    3    3    0  502 -0.62018709457E+03 -0.81322830555E+03  0.17554745784E+04  0.20316651556E+04  0.50400001928E-02 0. -1.
</event>
<event>
 5   0  0.1006893E-06  0.2907335E+04  0.7818609E-02  0.8270699E-01
       -2   -1    0    0    0  501  0.00000000000E+00  0.00000000000E+00  0.10334531566E+04  0.10334531566E+04  0.25500000920E-02 0.  1.
        2   -1    0    0  501    0  0.00000000000E+00  0.00000000000E+00 -0.20447455503E+04  0.20447455503E+04  0.25500000920E-02 0. -1.
    10030    2    1    2    0    0  0.00000000000E+00  0.00000000000E+00 -0.10112923938E+04  0.30781987069E+04  0.29073346855E+04 0.  0.
        4    1    3    3  502    0  0.12821337586E+04 -0.26182325222E+03 -0.11758808328E+04  0.17592941017E+04  0.12699999809E+01 0. -1.
       -4    1    3    3    0  502 -0.12821337586E+04  0.26182325222E+03  0.16458843905E+03  0.13189046052E+04  0.12699999809E+01 0.  1.
</event>
<event>
 5   0  0.3885904E-07  0.2901551E+04  0.7818609E-02  0.8272416E-01
        1   -1    0    0  501    0  0.00000000000E+00  0.00000000000E+00  0.14214514117E+04  0.14214514117E+04  0.50400001928E-02 0. -1.
       -1   -1    0    0    0  501  0.00000000000E+00  0.00000000000E+00 -0.14807046304E+04  0.14807046304E+04  0.50400001928E-02 0.  1.
    10030    2    1    2    0    0  0.00000000000E+00  0.00000000000E+00 -0.59253218644E+02  0.29021560421E+04  0.29015510936E+04 0.  0.
        2    1    3    3  502    0 -0.11190675326E+04 -0.18883016692E+03  0.87432102842E+03  0.14326221537E+04  0.25500000920E-02 0. -1.
       -2    1    3    3    0  502  0.11190675326E+04  0.18883016692E+03 -0.93357424706E+03  0.14695338884E+04  0.25500000920E-02 0.  1.
</event>
<event>
 5   0  0.3885904E-07  0.2903904E+04  0.7818609E-02  0.8271717E-01
       -1   -1    0    0    0  501  0.00000000000E+00  0.00000000000E+00  0.19711465798E+04  0.19711465798E+04  0.50400001928E-02 0. -1.
        1   -1    0    0  501    0  0.00000000000E+00  0.00000000000E+00 -0.10695119357E+04  0.10695119357E+04  0.50400001928E-02 0.  1.
    10030    2    1    2    0    0  0.00000000000E+00  0.00000000000E+00  0.90163464406E+03  0.30406585155E+04  0.29039041266E+04 0.  0.
        2    1    3    3  502    0 -0.10935497370E+04 -0.19360263394E+03 -0.52855460791E+03  0.12299199083E+04  0.25500000920E-02 0.  1.
       -2    1    3    3    0  502  0.10935497370E+04  0.19360263394E+03  0.14301892520E+04  0.18107386072E+04  0.25500000920E-02 0. -1.
</event>
<event>
 5   0  0.1031339E-06  0.2900158E+04  0.7818609E-02  0.8272830E-01
       -2   -1    0    0    0  501  0.00000000000E+00  0.00000000000E+00  0.14674156435E+04  0.14674156435E+04  0.25500000920E-02 0. -1.
        2   -1    0    0  501    0  0.00000000000E+00  0.00000000000E+00 -0.14329474265E+04  0.14329474265E+04  0.25500000920E-02 0.  1.
    10030    2    1    2    0    0  0.00000000000E+00  0.00000000000E+00  0.34468217031E+02  0.29003630700E+04  0.29001582508E+04 0.  0.
        5    1    3    3  502    0  0.57910715835E+03 -0.64830260659E+03 -0.11434709712E+04  0.14363875948E+04  0.46999998093E+01 0.  1.
       -5    1    3    3    0  502 -0.57910715835E+03  0.64830260659E+03  0.11779391883E+04  0.14639754751E+04  0.46999998093E+01 0. -1.
</event>
<event>
 5   0  0.9950999E-07  0.2899285E+04  0.7818609E-02  0.8273090E-01
        2   -1    0    0  501    0  0.00000000000E+00  0.00000000000E+00  0.16471951651E+04  0.16471951651E+04  0.25500000920E-02 0.  1.
       -2   -1    0    0    0  501  0.00000000000E+00  0.00000000000E+00 -0.12757831649E+04  0.12757831649E+04  0.25500000920E-02 0. -1.
    10030    2    1    2    0    0  0.00000000000E+00  0.00000000000E+00  0.37141200018E+03  0.29229783300E+04  0.28992853333E+04 0.  0.
        3    1    3    3  502    0  0.39489163476E+03 -0.82536551570E+01 -0.12204884508E+04  0.12828092589E+04  0.10100000352E+00 0. -1.
       -3    1    3    3    0  502 -0.39489163476E+03  0.82536551570E+01  0.15919004509E+04  0.16401690711E+04  0.10100000352E+00 0.  1.
</event>
<event>
 5   0  0.3885904E-07  0.2898355E+04  0.7818609E-02  0.8273367E-01
       -1   -1    0    0    0  501  0.00000000000E+00  0.00000000000E+00  0.13230731897E+04  0.13230731897E+04  0.50400001928E-02 0.  1.
        1   -1    0    0  501    0  0.00000000000E+00  0.00000000000E+00 -0.15873011968E+04  0.15873011968E+04  0.50400001928E-02 0. -1.
    10030    2    1    2    0    0  0.00000000000E+00  0.00000000000E+00 -0.26422800707E+03  0.29103743865E+04  0.28983551593E+04 0.  0.
        2    1    3    3  502    0 -0.63013348041E+03  0.13006528731E+04 -0.23909009559E+03  0.14648993731E+04  0.25500000920E-02 0. -1.
       -2    1    3    3    0  502  0.63013348041E+03 -0.13006528731E+04 -0.25137911476E+02  0.14454750133E+04  0.25500000920E-02 0.  1.
</event>
<event>
 5   0  0.9994311E-07  0.2900445E+04  0.7818609E-02  0.8272745E-01
       -2   -1    0    0    0  501  0.00000000000E+00  0.00000000000E+00  0.11029567158E+04  0.11029567158E+04  0.25500000920E-02 0.  1.
        2   -1    0    0  501    0  0.00000000000E+00  0.00000000000E+00 -0.19068253071E+04  0.19068253071E+04  0.25500000920E-02 0. -1.
    10030    2    1    2    0    0  0.00000000000E+00  0.00000000000E+00 -0.80386859136E+03  0.30097820229E+04  0.29004453301E+04 0.  0.
        2    1    3    3  502    0  0.14453518089E+04 -0.75587657974E+02 -0.30688201555E+03  0.14795039429E+04  0.25500000920E-02 0.  1.
       -2    1    3    3    0  502 -0.14453518089E+04  0.75587657974E+02 -0.49698657581E+03  0.15302780800E+04  0.25500000920E-02 0. -1.
</event>
<event>
 5   0  0.3638028E-07  0.2900175E+04  0.7818609E-02  0.8272826E-01
       -1   -1    0    0    0  501  0.00000000000E+00  0.00000000000E+00  0.10457721822E+04  0.10457721822E+04  0.50400001928E-02 0. -1.
        1   -1    0    0  501    0  0.00000000000E+00  0.00000000000E+00 -0.20107182008E+04  0.20107182008E+04  0.50400001928E-02 0.  1.
    10030    2    1    2    0    0  0.00000000000E+00  0.00000000000E+00 -0.96494601855E+03  0.30564903830E+04  0.29001745883E+04 0.  0.
        4    1    3    3  502    0  0.14135237807E+03 -0.14063534982E+04 -0.82387909992E+03  0.16360284352E+04  0.12699999809E+01 0.  1.
       -4    1    3    3    0  502 -0.14135237807E+03  0.14063534982E+04 -0.14106691863E+03  0.14204619478E+04  0.12699999809E+01 0. -1.
</event>
<event>
 5   0  0.3769563E-07  0.2894305E+04  0.7818609E-02  0.8274574E-01
        1   -1    0    0  501    0  0.00000000000E+00  0.00000000000E+00  0.16395828556E+04  0.16395828556E+04  0.50400001928E-02 0.  1.
       -1   -1    0    0    0  501  0.00000000000E+00  0.00000000000E+00 -0.12773063972E+04  0.12773063972E+04  0.50400001928E-02 0. -1.
    10030    2    1    2    0    0  0.00000000000E+00  0.00000000000E+00  0.36227645838E+03  0.29168892528E+04  0.28943045245E+04 0.  0.
        3    1    3    3  502    0  0.33210172486E+01 -0.17862168144E+03  0.16284267068E+04  0.16381972664E+04  0.10100000352E+00 0.  1.
       -3    1    3    3    0  502 -0.33210172486E+01  0.17862168144E+03 -0.12661502484E+04  0.12786919864E+04  0.10100000352E+00 0. -1.
</event>
<event>
 5   0  0.1063979E-06  0.2895971E+04  0.7818609E-02  0.8274077E-01
       -2   -1    0    0    0  501  0.00000000000E+00  0.00000000000E+00  0.83427810119E+03  0.83427810119E+03  0.25500000920E-02 0. -1.
        2   -1    0    0  501    0  0.00000000000E+00  0.00000000000E+00 -0.25131456366E+04  0.25131456366E+04  0.25500000920E-02 0.  1.
    10030    2    1    2    0    0  0.00000000000E+00  0.00000000000E+00 -0.16788675354E+04  0.33474237378E+04  0.28959712497E+04 0.  0.
        1    1    3    3  502    0  0.84292385030E+03  0.10564475558E+04 -0.23874870874E+03  0.13724441707E+04  0.50400001928E-02 0.  1.
       -1    1    3    3    0  502 -0.84292385030E+03 -0.10564475558E+04 -0.14401188267E+04  0.19749795671E+04  0.50400001928E-02 0. -1.
</event>
<event>
 5   0  0.3885904E-07  0.2899052E+04  0.7818609E-02  0.8273159E-01
        1   -1    0    0  501    0  0.00000000000E+00  0.00000000000E+00  0.11534370892E+04  0.11534370892E+04  0.50400001928E-02 0. -1.
       -1   -1    0    0    0  501  0.00000000000E+00  0.00000000000E+00 -0.18216218755E+04  0.18216218755E+04  0.50400001928E-02 0.  1.
    10030    2    1    2    0    0  0.00000000000E+00  0.00000000000E+00 -0.66818478634E+03  0.29750589647E+04  0.28990524201E+04 0.  0.
        2    1    3    3  502    0 -0.82117846135E+03  0.42703497398E+03 -0.14788810599E+04  0.17446438387E+04  0.25500000920E-02 0.  1.
       -2    1    3    3    0  502  0.82117846135E+03 -0.42703497398E+03  0.81069627358E+03  0.12304151260E+04  0.25500000920E-02 0. -1.
</event>
<event>
 5   0  0.1063979E-06  0.2895657E+04  0.7818609E-02  0.8274171E-01
        2   -1    0    0  501    0  0.00000000000E+00  0.00000000000E+00  0.22785576461E+04  0.22785576461E+04  0.25500000920E-02 0. -1.
       -2   -1    0    0    0  501  0.00000000000E+00  0.00000000000E+00 -0.91997088824E+03  0.91997088825E+03  0.25500000920E-02 0.  1.
    10030    2    1    2    0    0  0.00000000000E+00  0.00000000000E+00  0.13585867579E+04  0.31985285344E+04  0.28956565415E+04 0.  0.
        1    1    3    3  502    0 -0.60242424269E+03  0.38908829533E+03  0.20685835820E+04  0.21893703902E+04  0.50400001928E-02 0. -1.
       -1    1    3    3    0  502  0.60242424269E+03 -0.38908829533E+03 -0.70999682409E+03  0.10091581442E+04  0.50400001928E-02 0.  1.
</event>
<event>
 5   0  0.9950999E-07  0.2900496E+04  0.7818609E-02  0.8272730E-01
       -2   -1    0    0    0  501  0.00000000000E+00  0.00000000000E+00  0.99274478508E+03  0.99274478509E+03  0.25500000920E-02 0. -1.
        2   -1    0    0  501    0  0.00000000000E+00  0.00000000000E+00 -0.21185902520E+04  0.21185902520E+04  0.25500000920E-02 0.  1.
    10030    2    1    2    0    0  0.00000000000E+00  0.00000000000E+00 -0.11258454669E+04  0.31113350371E+04  0.29004961123E+04 0.  0.
        3    1    3    3  502    0 -0.78208028668E+02  0.14404773283E+04 -0.40335487056E+03  0.14979274317E+04  0.10100000352E+00 0.  1.
       -3    1    3    3    0  502  0.78208028668E+02 -0.14404773283E+04 -0.72249059636E+03  0.16134076053E+04  0.10100000352E+00 0. -1.
</event>
<event>
 5   0  0.3770467E-07  0.2898877E+04  0.7818609E-02  0.8273212E-01
        1   -1    0    0  501    0  0.00000000000E+00  0.00000000000E+00  0.21590941708E+04  0.21590941708E+04  0.50400001928E-02 0. -1.
       -1   -1    0    0    0  501  0.00000000000E+00  0.00000000000E+00 -0.97303417567E+03  0.97303417568E+03  0.50400001928E-02 0.  1.
    10030    2    1    2    0    0  0.00000000000E+00  0.00000000000E+00  0.11860599951E+04  0.31321283465E+04  0.28988773114E+04 0.  0.
        1    1    3    3  502    0 -0.59848555226E+02  0.14458602738E+04  0.68198714772E+03  0.15997500588E+04  0.50400001928E-02 0.  1.
       -1    1    3    3    0  502  0.59848555226E+02 -0.14458602738E+04  0.50407284739E+03  0.15323782877E+04  0.50400001928E-02 0. -1.
</event>
<event>
 5   0  0.3770467E-07  0.2898550E+04  0.7818609E-02  0.8273309E-01
        1   -1    0    0  501    0  0.00000000000E+00  0.00000000000E+00  0.23266874396E+04  0.23266874396E+04  0.50400001928E-02 0. -1.
       -1   -1    0    0    0  501  0.00000000000E+00  0.00000000000E+00 -0.90274173518E+03  0.90274173519E+03  0.50400001928E-02 0.  1.
    10030    2    1    2    0    0  0.00000000000E+00  0.00000000000E+00  0.14239457044E+04  0.32294291748E+04  0.28985498833E+04 0.  0.
        1    1    3    3  502    0 -0.92786262232E+03 -0.21581543126E+01  0.19523734616E+04  0.21616419309E+04  0.50400001928E-02 0. -1.
       -1    1    3    3    0  502  0.92786262232E+03  0.21581543126E+01 -0.52842775727E+03  0.10677872439E+04  0.50400001928E-02 0.  1.
</event>
<event>
 5   0  0.1063979E-06  0.2892153E+04  0.7818609E-02  0.8275216E-01
        2   -1    0    0  501    0  0.00000000000E+00  0.00000000000E+00  0.13933419101E+04  0.13933419101E+04  0.25500000920E-02 0. -1.
       -2   -1    0    0    0  501  0.00000000000E+00  0.00000000000E+00 -0.15008064913E+04  0.15008064913E+04  0.25500000920E-02 0.  1.
    10030    2    1    2    0    0  0.00000000000E+00  0.00000000000E+00 -0.10746458118E+03  0.28941484013E+04  0.28921525431E+04 0.  0.
        1    1    3    3  502    0  0.11631476561E+04  0.41333632486E+03 -0.80749654660E+03  0.14750627309E+04  0.50400001928E-02 0.  1.
       -1    1    3    3    0  502 -0.11631476561E+04 -0.41333632486E+03  0.70003196542E+03  0.14190856704E+04  0.50400001928E-02 0. -1.
</event>
<event>
 5   0  0.3885904E-07  0.2905456E+04  0.7818609E-02  0.8271256E-01
       -1   -1    0    0    0  501  0.00000000000E+00  0.00000000000E+00  0.94592484610E+03  0.94592484612E+03  0.50400001928E-02 0. -1.
        1   -1    0    0  501    0  0.00000000000E+00  0.00000000000E+00 -0.22310639076E+04  0.22310639076E+04  0.50400001928E-02 0.  1.
    10030    2    1    2    0    0  0.00000000000E+00  0.00000000000E+00 -0.12851390615E+04  0.31769887537E+04  0.29054560974E+04 0.  0.
        2    1    3    3  502    0  0.56753102783E+03 -0.33475836736E+03  0.77313489141E+03  0.10158209450E+04  0.25500000920E-02 0. -1.
       -2    1    3    3    0  502 -0.56753102783E+03  0.33475836736E+03 -0.20582739529E+04  0.21611678087E+04  0.25500000920E-02 0.  1.
</event>
<event>
 5   0  0.3770467E-07  0.2909460E+04  0.7818609E-02  0.8270068E-01
        1   -1    0    0  501    0  0.00000000000E+00  0.00000000000E+00  0.22231744919E+04  0.22231744919E+04  0.50400001928E-02 0. -1.
       -1   -1    0    0    0  501  0.00000000000E+00  0.00000000000E+00 -0.95189970866E+03  0.95189970867E+03  0.50400001928E-02 0.  1.
    10030    2    1    2    0    0  0.00000000000E+00  0.00000000000E+00  0.12712747832E+04  0.31750742005E+04  0.29094598476E+04 0.  0.
        1    1    3    3  502    0 -0.80304981425E+03  0.34449602068E+03 -0.63358540457E+03  0.10793502570E+04  0.50400001928E-02 0.  1.
       -1    1    3    3    0  502  0.80304981425E+03 -0.34449602068E+03  0.19048601878E+04  0.20957239435E+04  0.50400001928E-02 0. -1.
</event>
<event>
 5   0  0.9950999E-07  0.2917784E+04  0.7818609E-02  0.8267606E-01
       -2   -1    0    0    0  501  0.00000000000E+00  0.00000000000E+00  0.20009752473E+04  0.20009752473E+04  0.25500000920E-02 0. -1.
        2   -1    0    0  501    0  0.00000000000E+00  0.00000000000E+00 -0.10636641183E+04  0.10636641183E+04  0.25500000920E-02 0.  1.
    10030    2    1    2    0    0  0.00000000000E+00  0.00000000000E+00  0.93731112906E+03  0.30646393656E+04  0.29177837975E+04 0.  0.
        3    1    3    3  502    0  0.12477580870E+04 -0.15231182504E+03 -0.30906233339E+03  0.12944569022E+04  0.10100000352E+00 0.  1.
       -3    1    3    3    0  502 -0.12477580870E+04  0.15231182504E+03  0.12463734624E+04  0.17701824634E+04  0.10100000352E+00 0. -1.
</event>
<event>
 5   0  0.3638028E-07  0.2905429E+04  0.7818609E-02  0.8271264E-01
       -1   -1    0    0    0  501  0.00000000000E+00  0.00000000000E+00  0.13067605174E+04  0.13067605174E+04  0.50400001928E-02 0.  1.
        1   -1    0    0  501    0  0.00000000000E+00  0.00000000000E+00 -0.16149701308E+04  0.16149701308E+04  0.50400001928E-02 0. -1.
    10030    2    1    2    0    0  0.00000000000E+00  0.00000000000E+00 -0.30820961337E+03  0.29217306482E+04  0.29054288522E+04 0.  0.
        4    1    3    3  502    0  0.35612340076E+02  0.11406486390E+04 -0.10580532957E+04  0.15562216892E+04  0.12699999809E+01 0. -1.
       -4    1    3    3    0  502 -0.35612340076E+02 -0.11406486390E+04  0.74984368236E+03  0.13655089590E+04  0.12699999809E+01 0.  1.
</event>
<event>
 5   0  0.3770467E-07  0.2898040E+04  0.7818609E-02  0.8273461E-01
       -1   -1    0    0    0  501  0.00000000000E+00  0.00000000000E+00  0.18462552870E+04  0.18462552870E+04  0.50400001928E-02 0.  1.
        1   -1    0    0  501    0  0.00000000000E+00  0.00000000000E+00 -0.11372530253E+04  0.11372530253E+04  0.50400001928E-02 0. -1.
    10030    2    1    2    0    0  0.00000000000E+00  0.00000000000E+00  0.70900226166E+03  0.29835083123E+04  0.28980403108E+04 0.  0.
        1    1    3    3  502    0 -0.14367548803E+04  0.47543345006E+02  0.16710408266E+03  0.14472210371E+04  0.50400001928E-02 0.  1.
       -1    1    3    3    0  502  0.14367548803E+04 -0.47543345006E+02  0.54189817900E+03  0.15362872753E+04  0.50400001928E-02 0. -1.
</event>
<event>
 5   0  0.3638028E-07  0.2885255E+04  0.7818609E-02  0.8277278E-01
       -1   -1    0    0    0  501  0.00000000000E+00  0.00000000000E+00  0.12976332769E+04  0.12976332769E+04  0.50400001928E-02 0.  1.
        1   -1    0    0  501    0  0.00000000000E+00  0.00000000000E+00 -0.16038232690E+04  0.16038232690E+04  0.50400001928E-02 0. -1.
    10030    2    1    2    0    0  0.00000000000E+00  0.00000000000E+00 -0.30618999207E+03  0.29014565459E+04  0.28852552360E+04 0.  0.
        4    1    3    3  502    0  0.41420207561E+02 -0.99116390934E+03  0.90018855408E+03  0.13395755203E+04  0.12699999809E+01 0.  1.
       -4    1    3    3    0  502 -0.41420207561E+02  0.99116390934E+03 -0.12063785461E+04  0.15618810256E+04  0.12699999809E+01 0. -1.
</event>
<event>
 5   0  0.9994311E-07  0.2893994E+04  0.7818609E-02  0.8274667E-01
       -2   -1    0    0    0  501  0.00000000000E+00  0.00000000000E+00  0.86495360718E+03  0.86495360718E+03  0.25500000920E-02 0. -1.
        2   -1    0    0  501    0  0.00000000000E+00  0.00000000000E+00 -0.24207088657E+04  0.24207088657E+04  0.25500000920E-02 0.  1.
    10030    2    1    2    0    0  0.00000000000E+00  0.00000000000E+00 -0.15557552585E+04  0.32856624729E+04  0.28939943782E+04 0.  0.
        2    1    3    3  502    0  0.61894646381E+03  0.12947749693E+04 -0.56772066719E+03  0.15433222937E+04  0.25500000920E-02 0.  1.
       -2    1    3    3    0  502 -0.61894646381E+03 -0.12947749693E+04 -0.98803459131E+03  0.17423401792E+04  0.25500000920E-02 0. -1.
</event>
<event>
 5   0  0.1006893E-06  0.2884168E+04  0.7818609E-02  0.8277604E-01
        2   -1    0    0  501    0  0.00000000000E+00  0.00000000000E+00  0.77067544749E+03  0.77067544750E+03  0.25500000920E-02 0. -1.
       -2   -1    0    0    0  501  0.00000000000E+00  0.00000000000E+00 -0.26984199537E+04  0.26984199537E+04  0.25500000920E-02 0.  1.
    10030    2    1    2    0    0  0.00000000000E+00  0.00000000000E+00 -0.19277445062E+04  0.34690954012E+04  0.28841678213E+04 0.  0.
        4    1    3    3  502    0 -0.10079379761E+04  0.72135864452E+03 -0.18504532539E+04  0.22272126337E+04  0.12699999809E+01 0.  1.
       -4    1    3    3    0  502  0.10079379761E+04 -0.72135864452E+03 -0.77291252280E+02  0.12418827675E+04  0.12699999809E+01 0. -1.
</event>
<event>
 5   0  0.9950999E-07  0.2902237E+04  0.7818609E-02  0.8272212E-01
        2   -1    0    0  501    0  0.00000000000E+00  0.00000000000E+00  0.30669922450E+04  0.30669922450E+04  0.25500000920E-02 0.  1.
       -2   -1    0    0    0  501  0.00000000000E+00  0.00000000000E+00 -0.68658321736E+03  0.68658321736E+03  0.25500000920E-02 0. -1.
    10030    2    1    2    0    0  0.00000000000E+00  0.00000000000E+00  0.23804090276E+04  0.37535754623E+04  0.29022373460E+04 0.  0.
        3    1    3    3  502    0 -0.24667699477E+03 -0.11161335003E+04  0.23463810884E+04  0.26100014852E+04  0.10100000352E+00 0.  1.
       -3    1    3    3    0  502  0.24667699477E+03  0.11161335003E+04  0.34027939152E+02  0.11435739771E+04  0.10100000352E+00 0. -1.
</event>
<event>
 5   0  0.3769563E-07  0.2891011E+04  0.7818609E-02  0.8275557E-01
        1   -1    0    0  501    0  0.00000000000E+00  0.00000000000E+00  0.15246246585E+04  0.15246246586E+04  0.50400001928E-02 0. -1.
       -1   -1    0    0    0  501  0.00000000000E+00  0.00000000000E+00 -0.13704922745E+04  0.13704922746E+04  0.50400001928E-02 0.  1.
    10030    2    1    2    0    0  0.00000000000E+00  0.00000000000E+00  0.15413238401E+03  0.28951169331E+04  0.28910111146E+04 0.  0.
        3    1    3    3  502    0 -0.12665241587E+04  0.15597319063E+03 -0.60292336286E+03  0.14113566780E+04  0.10100000352E+00 0. -1.
       -3    1    3    3    0  502  0.12665241587E+04 -0.15597319063E+03  0.75705574687E+03  0.14837602552E+04  0.10100000352E+00 0.  1.
</event>
<event>
 5   0  0.9950999E-07  0.2898914E+04  0.7818609E-02  0.8273201E-01
        2   -1    0    0  501    0  0.00000000000E+00  0.00000000000E+00  0.17962083787E+04  0.17962083787E+04  0.25500000920E-02 0.  1.
       -2   -1    0    0    0  501  0.00000000000E+00  0.00000000000E+00 -0.11696443690E+04  0.11696443690E+04  0.25500000920E-02 0. -1.
    10030    2    1    2    0    0  0.00000000000E+00  0.00000000000E+00  0.62656400964E+03  0.29658527477E+04  0.28989136005E+04 0.  0.
        3    1    3    3  502    0  0.11948352478E+04 -0.81525024512E+03  0.40849421964E+03  0.15030408408E+04  0.10100000352E+00 0. -1.
       -3    1    3    3    0  502 -0.11948352478E+04  0.81525024512E+03  0.21806979000E+03  0.14628119069E+04  0.10100000352E+00 0.  1.
</event>
<event>
 5   0  0.9994311E-07  0.2894656E+04  0.7818609E-02  0.8274469E-01
        2   -1    0    0  501    0  0.00000000000E+00  0.00000000000E+00  0.26371985063E+04  0.26371985063E+04  0.25500000920E-02 0.  1.
       -2   -1    0    0    0  501  0.00000000000E+00  0.00000000000E+00 -0.79431192665E+03  0.79431192666E+03  0.25500000920E-02 0. -1.
    10030    2    1    2    0    0  0.00000000000E+00  0.00000000000E+00  0.18428865796E+04  0.34315104329E+04  0.28946559219E+04 0.  0.
        2    1    3    3  502    0 -0.99873444047E+03 -0.49245671272E+03  0.20174521385E+04  0.23043648209E+04  0.25500000920E-02 0.  1.
       -2    1    3    3    0  502  0.99873444047E+03  0.49245671272E+03 -0.17456555887E+03  0.11271456121E+04  0.25500000920E-02 0. -1.
</event>
<event>
 5   0  0.3769563E-07  0.2914207E+04  0.7818609E-02  0.8268663E-01
        1   -1    0    0  501    0  0.00000000000E+00  0.00000000000E+00  0.22699004150E+04  0.22699004150E+04  0.50400001928E-02 0.  1.
       -1   -1    0    0    0  501  0.00000000000E+00  0.00000000000E+00 -0.93534944520E+03  0.93534944522E+03  0.50400001928E-02 0. -1.
    10030    2    1    2    0    0  0.00000000000E+00  0.00000000000E+00  0.13345509698E+04  0.32052498602E+04  0.29142066460E+04 0.  0.
        3    1    3    3  502    0  0.11004906082E+04 -0.41219425236E+03  0.16148037870E+04  0.19971416978E+04  0.10100000352E+00 0.  1.
       -3    1    3    3    0  502 -0.11004906082E+04  0.41219425236E+03 -0.28025281719E+03  0.12081081624E+04  0.10100000352E+00 0. -1.
</event>
<event>
 5   0  0.1031339E-06  0.2902106E+04  0.7818609E-02  0.8272251E-01
       -2   -1    0    0    0  501  0.00000000000E+00  0.00000000000E+00  0.93630826107E+03  0.93630826107E+03  0.25500000920E-02 0. -1.
        2   -1    0    0  501    0  0.00000000000E+00  0.00000000000E+00 -0.22487841921E+04  0.22487841921E+04  0.25500000920E-02 0.  1.
    10030    2    1    2    0    0  0.00000000000E+00  0.00000000000E+00 -0.13124759310E+04  0.31850924532E+04  0.29021062809E+04 0.  0.
        5    1    3    3  502    0  0.10193246307E+04  0.10179333224E+03  0.47166368372E+03  0.11277736057E+04  0.46999998093E+01 0. -1.
       -5    1    3    3    0  502 -0.10193246307E+04 -0.10179333224E+03 -0.17841396148E+04  0.20573188475E+04  0.46999998093E+01 0.  1.
</event>
<event>
 5   0  0.3378750E-07  0.2904790E+04  0.7818609E-02  0.8271454E-01
        3   -1    0    0  501    0  0.00000000000E+00  0.00000000000E+00  0.10502207395E+04  0.10502207444E+04  0.10100000352E+00 0. -1.
       -3   -1    0    0    0  501  0.00000000000E+00  0.00000000000E+00 -0.20085783369E+04  0.20085783394E+04  0.10100000352E+00 0.  1.
    10030    2    1    2    0    0  0.00000000000E+00  0.00000000000E+00 -0.95835759734E+03  0.30587990838E+04  0.29047895880E+04 0.  0.
        2    1    3    3  502    0  0.11873022218E+04  0.69916754543E+03  0.44411747154E+01  0.13778757369E+04  0.25500000920E-02 0.  1.
       -2    1    3    3    0  502 -0.11873022218E+04 -0.69916754543E+03 -0.96279877206E+03  0.16809233468E+04  0.25500000920E-02 0. -1.
</event>
<event>
 5   0  0.1031339E-06  0.2859146E+04  0.7818609E-02  0.8285138E-01
       -2   -1    0    0    0  501  0.00000000000E+00  0.00000000000E+00  0.12800192402E+04  0.12800192402E+04  0.25500000920E-02 0. -1.
        2   -1    0    0  501    0  0.00000000000E+00  0.00000000000E+00 -0.15966001376E+04  0.15966001376E+04  0.25500000920E-02 0.  1.
    10030    2    1    2    0    0  0.00000000000E+00  0.00000000000E+00 -0.31658089744E+03  0.28766193778E+04  0.28591459529E+04 0.  0.
        5    1    3    3  502    0 -0.29022625761E+03  0.13995162290E+04 -0.13019400214E+03  0.14352175877E+04  0.46999998093E+01 0.  1.
       -5    1    3    3    0  502  0.29022625761E+03 -0.13995162290E+04 -0.18638689530E+03  0.14414017901E+04  0.46999998093E+01 0. -1.
</event>
<event>
 5   0  0.1063979E-06  0.2904260E+04  0.7818609E-02  0.8271611E-01
       -2   -1    0    0    0  501  0.00000000000E+00  0.00000000000E+00  0.92901290630E+03  0.92901290630E+03  0.25500000920E-02 0. -1.
        2   -1    0    0  501    0  0.00000000000E+00  0.00000000000E+00 -0.22698086432E+04  0.22698086432E+04  0.25500000920E-02 0.  1.
    10030    2    1    2    0    0  0.00000000000E+00  0.00000000000E+00 -0.13407957369E+04  0.31988215495E+04  0.29042599914E+04 0.  0.
        1    1    3    3  502    0 -0.45813582360E+03 -0.68364908398E+03 -0.19881617795E+04  0.21517555076E+04  0.50400001928E-02 0.  1.
       -1    1    3    3    0  502  0.45813582360E+03  0.68364908398E+03  0.64736604264E+03  0.10470660419E+04  0.50400001928E-02 0. -1.
</event>
<event>
 5   0  0.1006893E-06  0.2892735E+04  0.7818609E-02  0.8275042E-01
        2   -1    0    0  501    0  0.00000000000E+00  0.00000000000E+00  0.12938736674E+04  0.12938736674E+04  0.25500000920E-02 0.  1.
       -2   -1    0    0    0  501  0.00000000000E+00  0.00000000000E+00 -0.16168336895E+04  0.16168336895E+04  0.25500000920E-02 0. -1.
    10030    2    1    2    0    0  0.00000000000E+00  0.00000000000E+00 -0.32296002213E+03  0.29107073569E+04  0.28927347168E+04 0.  0.
        4    1    3    3  502    0 -0.12111992028E+03  0.10161977179E+04  0.86695096748E+03  0.13412432404E+04  0.12699999809E+01 0.  1.
       -4    1    3    3    0  502  0.12111992028E+03 -0.10161977179E+04 -0.11899109896E+04  0.15694641165E+04  0.12699999809E+01 0. -1.
</event>
<event>
 5   0  0.3769563E-07  0.2881749E+04  0.7818609E-02  0.8278328E-01
       -1   -1    0    0    0  501  0.00000000000E+00  0.00000000000E+00  0.94022644840E+03  0.94022644841E+03  0.50400001928E-02 0. -1.
        1   -1    0    0  501    0  0.00000000000E+00  0.00000000000E+00 -0.22081055278E+04  0.22081055278E+04  0.50400001928E-02 0.  1.
    10030    2    1    2    0    0  0.00000000000E+00  0.00000000000E+00 -0.12678790794E+04  0.31483319762E+04  0.28817489260E+04 0.  0.
        3    1    3    3  502    0 -0.25742715703E+03 -0.12061298612E+04 -0.14479134276E+04  0.19019651120E+04  0.10100000352E+00 0. -1.
       -3    1    3    3    0  502  0.25742715703E+03  0.12061298612E+04  0.18003434825E+03  0.12463668642E+04  0.10100000352E+00 0.  1.
</event>
<event>
 5   0  0.3638028E-07  0.2894475E+04  0.7818609E-02  0.8274523E-01
        1   -1    0    0  501    0  0.00000000000E+00  0.00000000000E+00  0.15846955422E+04  0.15846955422E+04  0.50400001928E-02 0. -1.
       -1   -1    0    0    0  501  0.00000000000E+00  0.00000000000E+00 -0.13217023309E+04  0.13217023309E+04  0.50400001928E-02 0.  1.
    10030    2    1    2    0    0  0.00000000000E+00  0.00000000000E+00  0.26299321126E+03  0.29063978731E+04  0.28944745927E+04 0.  0.
        4    1    3    3  502    0  0.54049662194E+03  0.97979809065E+03 -0.79008216434E+03  0.13698074084E+04  0.12699999809E+01 0.  1.
       -4    1    3    3    0  502 -0.54049662194E+03 -0.97979809065E+03  0.10530753756E+04  0.15365904647E+04  0.12699999809E+01 0. -1.
</event>
<event>
 5   0  0.1063979E-06  0.2899364E+04  0.7818609E-02  0.8273067E-01
       -2   -1    0    0    0  501  0.00000000000E+00  0.00000000000E+00  0.11330926760E+04  0.11330926760E+04  0.25500000920E-02 0.  1.
        2   -1    0    0  501    0  0.00000000000E+00  0.00000000000E+00 -0.18547273680E+04  0.18547273680E+04  0.25500000920E-02 0. -1.
    10030    2    1    2    0    0  0.00000000000E+00  0.00000000000E+00 -0.72163469202E+03  0.29878200440E+04  0.28993640658E+04 0.  0.
        1    1    3    3  502    0 -0.12854734131E+04  0.32841713048E+03  0.24119585537E+03  0.13485084902E+04  0.50400001928E-02 0.  1.
       -1    1    3    3    0  502  0.12854734131E+04 -0.32841713048E+03 -0.96283054738E+03  0.16393115538E+04  0.50400001928E-02 0. -1.
</event>
<event>
 5   0  0.3770467E-07  0.2889895E+04  0.7818609E-02  0.8275890E-01
        1   -1    0    0  501    0  0.00000000000E+00  0.00000000000E+00  0.18974106873E+04  0.18974106873E+04  0.50400001928E-02 0. -1.
       -1   -1    0    0    0  501  0.00000000000E+00  0.00000000000E+00 -0.11003802495E+04  0.11003802495E+04  0.50400001928E-02 0.  1.
    10030    2    1    2    0    0  0.00000000000E+00  0.00000000000E+00  0.79703043787E+03  0.29977909368E+04  0.28898949776E+04 0.  0.
        1    1    3    3  502    0  0.83216513814E+03 -0.44829880412E+03  0.15322061016E+04  0.18003127986E+04  0.50400001928E-02 0. -1.
       -1    1    3    3    0  502 -0.83216513814E+03  0.44829880412E+03 -0.73517566374E+03  0.11974781382E+04  0.50400001928E-02 0.  1.
</event>
<event>
 5   0  0.1006893E-06  0.2901153E+04  0.7818609E-02  0.8272534E-01
       -2   -1    0    0    0  501  0.00000000000E+00  0.00000000000E+00  0.11376405929E+04  0.11376405929E+04  0.25500000920E-02 0.  1.
        2   -1    0    0  501    0  0.00000000000E+00  0.00000000000E+00 -0.18495936834E+04  0.18495936834E+04  0.25500000920E-02 0. -1.
    10030    2    1    2    0    0  0.00000000000E+00  0.00000000000E+00 -0.71195309043E+03  0.29872342763E+04  0.29011534635E+04 0.  0.
        4    1    3    3  502    0 -0.65685075048E+03 -0.11277677719E+03 -0.16826150258E+04  0.18097973500E+04  0.12699999809E+01 0. -1.
       -4    1    3    3    0  502  0.65685075048E+03  0.11277677719E+03  0.97066193539E+03  0.11774369264E+04  0.12699999809E+01 0.  1.
</event>
<event>
 5   0  0.1031339E-06  0.2902195E+04  0.7818609E-02  0.8272225E-01
        2   -1    0    0  501    0  0.00000000000E+00  0.00000000000E+00  0.18691075681E+04  0.18691075681E+04  0.25500000920E-02 0. -1.
       -2   -1    0    0    0  501  0.00000000000E+00  0.00000000000E+00 -0.11265718408E+04  0.11265718408E+04  0.25500000920E-02 0.  1.
    10030    2    1    2    0    0  0.00000000000E+00  0.00000000000E+00  0.74253572726E+03  0.29956794089E+04  0.29021949994E+04 0.  0.
        5    1    3    3  502    0 -0.63453743158E+03  0.49132029429E+03 -0.87665356760E+03  0.11885188056E+04  0.46999998093E+01 0.  1.
       -5    1    3    3    0  502  0.63453743158E+03 -0.49132029429E+03  0.16191892949E+04  0.18071606033E+04  0.46999998093E+01 0. -1.
</event>
<event>
 5   0  0.1031339E-06  0.2895577E+04  0.7818609E-02  0.8274195E-01
        2   -1    0    0  501    0  0.00000000000E+00  0.00000000000E+00  0.23722584167E+04  0.23722584167E+04  0.25500000920E-02 0.  1.
       -2   -1    0    0    0  501  0.00000000000E+00  0.00000000000E+00 -0.88358460293E+03  0.88358460294E+03  0.25500000920E-02 0. -1.
    10030    2    1    2    0    0  0.00000000000E+00  0.00000000000E+00  0.14886738137E+04  0.32558430196E+04  0.28955766342E+04 0.  0.
        5    1    3    3  502    0 -0.25364210257E+03 -0.11549202848E+04  0.16836774024E+04  0.20574175234E+04  0.46999998093E+01 0.  1.
       -5    1    3    3    0  502  0.25364210257E+03  0.11549202848E+04 -0.19500358863E+03  0.11984254962E+04  0.46999998093E+01 0. -1.
</event>
<event>
 5   0  0.3638028E-07  0.2882184E+04  0.7818609E-02  0.8278198E-01
       -1   -1    0    0    0  501  0.00000000000E+00  0.00000000000E+00  0.95207531437E+03  0.95207531438E+03  0.50400001928E-02 0. -1.
        1   -1    0    0  501    0  0.00000000000E+00  0.00000000000E+00 -0.21812831452E+04  0.21812831452E+04  0.50400001928E-02 0.  1.
    10030    2    1    2    0    0  0.00000000000E+00  0.00000000000E+00 -0.12292078308E+04  0.31333584595E+04  0.28821837805E+04 0.  0.
        4    1    3    3  502    0 -0.74894347197E+03 -0.11977676951E+04 -0.92435592473E+03  0.16881940837E+04  0.12699999809E+01 0.  1.
       -4    1    3    3    0  502  0.74894347197E+03  0.11977676951E+04 -0.30485190607E+03  0.14451643759E+04  0.12699999809E+01 0. -1.
</event>
<event>
 5   0  0.3638028E-07  0.2898800E+04  0.7818609E-02  0.8273235E-01
       -1   -1    0    0    0  501  0.00000000000E+00  0.00000000000E+00  0.12519658638E+04  0.12519658638E+04  0.50400001928E-02 0. -1.
        1   -1    0    0  501    0  0.00000000000E+00  0.00000000000E+00 -0.16779690146E+04  0.16779690147E+04  0.50400001928E-02 0.  1.
    10030    2    1    2    0    0  0.00000000000E+00  0.00000000000E+00 -0.42600315087E+03  0.29299348784E+04  0.28987997011E+04 0.  0.
        4    1    3    3  502    0 -0.12908270536E+04 -0.46967945499E+02 -0.87757250567E+03  0.15615939248E+04  0.12699999809E+01 0. -1.
       -4    1    3    3    0  502  0.12908270536E+04  0.46967945499E+02  0.45156935480E+03  0.13683409536E+04  0.12699999809E+01 0.  1.
</event>
<event>
 5   0  0.3770467E-07  0.2896151E+04  0.7818609E-02  0.8274023E-01
       -1   -1    0    0    0  501  0.00000000000E+00  0.00000000000E+00  0.14519195431E+04  0.14519195431E+04  0.50400001928E-02 0.  1.
        1   -1    0    0  501    0  0.00000000000E+00  0.00000000000E+00 -0.14442420917E+04  0.14442420917E+04  0.50400001928E-02 0. -1.
    10030    2    1    2    0    0  0.00000000000E+00  0.00000000000E+00  0.76774514240E+01  0.28961616348E+04  0.28961514586E+04 0.  0.
        1    1    3    3  502    0 -0.37380638779E+03  0.16994380873E+03  0.13924800599E+04  0.14517619746E+04  0.50400001928E-02 0.  1.
       -1    1    3    3    0  502  0.37380638779E+03 -0.16994380873E+03 -0.13848026085E+04  0.14443996601E+04  0.50400001928E-02 0. -1.
</event>
<event>
 5   0  0.1031339E-06  0.2895833E+04  0.7818609E-02  0.8274118E-01
        2   -1    0    0  501    0  0.00000000000E+00  0.00000000000E+00  0.16731516092E+04  0.16731516092E+04  0.25500000920E-02 0. -1.
       -2   -1    0    0    0  501  0.00000000000E+00  0.00000000000E+00 -0.12530019463E+04  0.12530019463E+04  0.25500000920E-02 0.  1.
    10030    2    1    2    0    0  0.00000000000E+00  0.00000000000E+00  0.42014966290E+03  0.29261535555E+04  0.28958330219E+04 0.  0.
        5    1    3    3  502    0  0.33737602073E+02  0.45596117851E+03 -0.11781369402E+04  0.12637513846E+04  0.46999998093E+01 0.  1.
       -5    1    3    3    0  502 -0.33737602073E+02 -0.45596117851E+03  0.15982866031E+04  0.16624021709E+04  0.46999998093E+01 0. -1.
</event>
<event>
 5   0  0.1006893E-06  0.2903996E+04  0.7818609E-02  0.8271690E-01
       -2   -1    0    0    0  501  0.00000000000E+00  0.00000000000E+00  0.13002122991E+04  0.13002122991E+04  0.25500000920E-02 0.  1.
        2   -1    0    0  501    0  0.00000000000E+00  0.00000000000E+00 -0.16215026992E+04  0.16215026992E+04  0.25500000920E-02 0. -1.
    10030    2    1    2    0    0  0.00000000000E+00  0.00000000000E+00 -0.32129040011E+03  0.29217149983E+04  0.29039956973E+04 0.  0.
        4    1    3    3  502    0  0.68812020602E+03 -0.41605895242E+03  0.10557320300E+04  0.13270969075E+04  0.12699999809E+01 0.  1.
       -4    1    3    3    0  502 -0.68812020602E+03  0.41605895242E+03 -0.13770224301E+04  0.15946180909E+04  0.12699999809E+01 0. -1.
</event>
<event>
 5   0  0.1063979E-06  0.2896164E+04  0.7818609E-02  0.8274020E-01
        2   -1    0    0  501    0  0.00000000000E+00  0.00000000000E+00  0.22619517999E+04  0.22619517999E+04  0.25500000920E-02 0. -1.
       -2   -1    0    0    0  501  0.00000000000E+00  0.00000000000E+00 -0.92704959233E+03  0.92704959233E+03  0.25500000920E-02 0.  1.
    10030    2    1    2    0    0  0.00000000000E+00  0.00000000000E+00  0.13349022075E+04  0.31890013922E+04  0.28961640105E+04 0.  0.
        1    1    3    3  502    0  0.69843033357E+03 -0.54808635637E+03 -0.59222211923E+03  0.10672069262E+04  0.50400001928E-02 0.  1.
       -1    1    3    3    0  502 -0.69843033357E+03  0.54808635637E+03  0.19271243268E+04  0.21217944660E+04  0.50400001928E-02 0. -1.
</event>
<event>
 5   0  0.1063979E-06  0.2900370E+04  0.7818609E-02  0.8272767E-01
       -2   -1    0    0    0  501  0.00000000000E+00  0.00000000000E+00  0.12954912332E+04  0.12954912332E+04  0.25500000920E-02 0. -1.
        2   -1    0    0  501    0  0.00000000000E+00  0.00000000000E+00 -0.16233503612E+04  0.16233503612E+04  0.25500000920E-02 0.  1.
    10030    2    1    2    0    0  0.00000000000E+00  0.00000000000E+00 -0.32785912805E+03  0.29188415944E+04  0.29003697429E+04 0.  0.
        1    1    3    3  502    0 -0.11354992678E+04  0.87595907676E+02  0.73956574547E+03  0.13579356104E+04  0.50400001928E-02 0. -1.
       -1    1    3    3    0  502  0.11354992678E+04 -0.87595907676E+02 -0.10674248735E+04  0.15609059840E+04  0.50400001928E-02 0.  1.
</event>
<event>
 5   0  0.3885904E-07  0.2901522E+04  0.7818609E-02  0.8272425E-01
       -1   -1    0    0    0  501  0.00000000000E+00  0.00000000000E+00  0.91653875061E+03  0.91653875063E+03  0.50400001928E-02 0.  1.
        1   -1    0    0  501    0  0.00000000000E+00  0.00000000000E+00 -0.22963644146E+04  0.22963644146E+04  0.50400001928E-02 0. -1.
    10030    2    1    2    0    0  0.00000000000E+00  0.00000000000E+00 -0.13798256640E+04  0.32129031652E+04  0.29015216501E+04 0.  0.
        2    1    3    3  502    0  0.46354356524E+03  0.33969740778E+02  0.83186431069E+03  0.95290335898E+03  0.25500000920E-02 0.  1.
       -2    1    3    3    0  502 -0.46354356524E+03 -0.33969740778E+02 -0.22116899747E+04  0.22599998062E+04  0.25500000920E-02 0. -1.
</event>
<event>
 5   0  0.3786210E-07  0.2904948E+04  0.7818609E-02  0.8271407E-01
       -1   -1    0    0    0  501  0.00000000000E+00  0.00000000000E+00  0.91417023040E+03  0.91417023042E+03  0.50400001928E-02 0.  1.
        1   -1    0    0  501    0  0.00000000000E+00  0.00000000000E+00 -0.23077555107E+04  0.23077555107E+04  0.50400001928E-02 0. -1.
    10030    2    1    2    0    0  0.00000000000E+00  0.00000000000E+00 -0.13935852803E+04  0.32219257411E+04  0.29049484587E+04 0.  0.
        5    1    3    3  502    0  0.55348320480E+02 -0.14261979154E+04 -0.99554535850E+03  0.17401829160E+04  0.46999998093E+01 0.  1.
       -5    1    3    3    0  502 -0.55348320480E+02  0.14261979154E+04 -0.39803992181E+03  0.14817428251E+04  0.46999998093E+01 0. -1.
</event>
<event>
 5   0  0.1031339E-06  0.2897568E+04  0.7818609E-02  0.8273602E-01
       -2   -1    0    0    0  501  0.00000000000E+00  0.00000000000E+00  0.13223446060E+04  0.13223446060E+04  0.25500000920E-02 0. -1.
        2   -1    0    0  501    0  0.00000000000E+00  0.00000000000E+00 -0.15873126850E+04  0.15873126850E+04  0.25500000920E-02 0.  1.
    10030    2    1    2    0    0  0.00000000000E+00  0.00000000000E+00 -0.26496807902E+03  0.29096572911E+04  0.28975675089E+04 0.  0.
        5    1    3    3  502    0 -0.21592839191E+03  0.14278413284E+04 -0.15394147312E+02  0.14441658490E+04  0.46999998093E+01 0.  1.
       -5    1    3    3    0  502  0.21592839191E+03 -0.14278413284E+04 -0.24957393171E+03  0.14654914421E+04  0.46999998093E+01 0. -1.
</event>
<event>
 5   0  0.3638028E-07  0.2900481E+04  0.7818609E-02  0.8272734E-01
       -1   -1    0    0    0  501  0.00000000000E+00  0.00000000000E+00  0.11807128317E+04  0.11807128317E+04  0.50400001928E-02 0. -1.
        1   -1    0    0  501    0  0.00000000000E+00  0.00000000000E+00 -0.17812944719E+04  0.17812944719E+04  0.50400001928E-02 0.  1.
    10030    2    1    2    0    0  0.00000000000E+00  0.00000000000E+00 -0.60058164015E+03  0.29620073036E+04  0.29004808154E+04 0.  0.
        4    1    3    3  502    0 -0.74153845236E+03  0.34317158502E+03 -0.15238507084E+04  0.17290947364E+04  0.12699999809E+01 0.  1.
       -4    1    3    3    0  502  0.74153845236E+03 -0.34317158502E+03  0.92326906827E+03  0.12329125672E+04  0.12699999809E+01 0. -1.
</event>
<event>
 5   0  0.9994311E-07  0.2899080E+04  0.7818609E-02  0.8273151E-01
        2   -1    0    0  501    0  0.00000000000E+00  0.00000000000E+00  0.15487074900E+04  0.15487074900E+04  0.25500000920E-02 0. -1.
       -2   -1    0    0    0  501  0.00000000000E+00  0.00000000000E+00 -0.13567223254E+04  0.13567223254E+04  0.25500000920E-02 0.  1.
    10030    2    1    2    0    0  0.00000000000E+00  0.00000000000E+00  0.19198516453E+03  0.29054298154E+04  0.28990798728E+04 0.  0.
        2    1    3    3  502    0 -0.52911134433E+03  0.51032252005E+03 -0.11560548870E+04  0.13699820404E+04  0.25500000920E-02 0.  1.
       -2    1    3    3    0  502  0.52911134433E+03 -0.51032252005E+03  0.13480400516E+04  0.15354477750E+04  0.25500000920E-02 0. -1.
</event>
<event>
 5   0  0.3770467E-07  0.2900254E+04  0.7818609E-02  0.8272802E-01
       -1   -1    0    0    0  501  0.00000000000E+00  0.00000000000E+00  0.13769448342E+04  0.13769448342E+04  0.50400001928E-02 0. -1.
        1   -1    0    0  501    0  0.00000000000E+00  0.00000000000E+00 -0.15271981885E+04  0.15271981885E+04  0.50400001928E-02 0.  1.
    10030    2    1    2    0    0  0.00000000000E+00  0.00000000000E+00 -0.15025335436E+03  0.29041430227E+04  0.29002535451E+04 0.  0.
        1    1    3    3  502    0 -0.42001335924E+03 -0.84623987602E+03 -0.11767541092E+04  0.15090670572E+04  0.50400001928E-02 0.  1.
       -1    1    3    3    0  502  0.42001335924E+03  0.84623987602E+03  0.10265007548E+04  0.13950759655E+04  0.50400001928E-02 0. -1.
</event>
<event>
 5   0  0.9950999E-07  0.2901498E+04  0.7818609E-02  0.8272432E-01
       -2   -1    0    0    0  501  0.00000000000E+00  0.00000000000E+00  0.65410050833E+03  0.65410050833E+03  0.25500000920E-02 0. -1.
        2   -1    0    0  501    0  0.00000000000E+00  0.00000000000E+00 -0.32176596280E+04  0.32176596280E+04  0.25500000920E-02 0.  1.
    10030    2    1    2    0    0  0.00000000000E+00  0.00000000000E+00 -0.25635591197E+04  0.38717601364E+04  0.29014980947E+04 0.  0.
        3    1    3    3  502    0 -0.79711563723E+03 -0.11646540563E+04 -0.83349177510E+03  0.16390609992E+04  0.10100000352E+00 0.  1.
       -3    1    3    3    0  502  0.79711563723E+03  0.11646540563E+04 -0.17300673446E+04  0.22326991371E+04  0.10100000352E+00 0. -1.
</event>
<event>
 5   0  0.1031339E-06  0.2902390E+04  0.7818609E-02  0.8272167E-01
        2   -1    0    0  501    0  0.00000000000E+00  0.00000000000E+00  0.15704111392E+04  0.15704111392E+04  0.25500000920E-02 0. -1.
       -2   -1    0    0    0  501  0.00000000000E+00  0.00000000000E+00 -0.13410292445E+04  0.13410292445E+04  0.25500000920E-02 0.  1.
    10030    2    1    2    0    0  0.00000000000E+00  0.00000000000E+00  0.22938189468E+03  0.29114403836E+04  0.29023902312E+04 0.  0.
        5    1    3    3  502    0  0.14098487654E+04  0.26016285286E+03 -0.11092574394E+03  0.14379446659E+04  0.46999998093E+01 0.  1.
       -5    1    3    3    0  502 -0.14098487654E+04 -0.26016285286E+03  0.34030763862E+03  0.14734957178E+04  0.46999998093E+01 0. -1.
</event>
<event>
 5   0  0.3770467E-07  0.2899825E+04  0.7818609E-02  0.8272929E-01
       -1   -1    0    0    0  501  0.00000000000E+00  0.00000000000E+00  0.11226128010E+04  0.11226128010E+04  0.50400001928E-02 0. -1.
        1   -1    0    0  501    0  0.00000000000E+00  0.00000000000E+00 -0.18726371990E+04  0.18726371990E+04  0.50400001928E-02 0.  1.
    10030    2    1    2    0    0  0.00000000000E+00  0.00000000000E+00 -0.75002439802E+03  0.29952499999E+04  0.28998251610E+04 0.  0.
        1    1    3    3  502    0  0.84504828763E+03 -0.11188138351E+03  0.83645284858E+03  0.11942685713E+04  0.50400001928E-02 0. -1.
       -1    1    3    3    0  502 -0.84504828763E+03  0.11188138351E+03 -0.15864772466E+04  0.18009814287E+04  0.50400001928E-02 0.  1.
</event>
<event>
 5   0  0.3638028E-07  0.2902583E+04  0.7818609E-02  0.8272109E-01
       -1   -1    0    0    0  501  0.00000000000E+00  0.00000000000E+00  0.15906873880E+04  0.15906873880E+04  0.50400001928E-02 0. -1.
        1   -1    0    0  501    0  0.00000000000E+00  0.00000000000E+00 -0.13241112579E+04  0.13241112579E+04  0.50400001928E-02 0.  1.
    10030    2    1    2    0    0  0.00000000000E+00  0.00000000000E+00  0.26657613013E+03  0.29147986460E+04  0.29025830416E+04 0.  0.
        4    1    3    3  502    0  0.89562429389E+02  0.84296371221E+03  0.13162253449E+04  0.15655861587E+04  0.12699999809E+01 0. -1.
       -4    1    3    3    0  502 -0.89562429389E+02 -0.84296371221E+03 -0.10496492148E+04  0.13492124873E+04  0.12699999809E+01 0.  1.
</event>
<event>
 5   0  0.3378750E-07  0.2906573E+04  0.7818609E-02  0.8270924E-01
       -3   -1    0    0    0  501  0.00000000000E+00  0.00000000000E+00  0.19868147008E+04  0.19868147034E+04  0.10100000352E+00 0.  1.
        3   -1    0    0  501    0  0.00000000000E+00  0.00000000000E+00 -0.10630293368E+04  0.10630293416E+04  0.10100000352E+00 0. -1.
    10030    2    1    2    0    0  0.00000000000E+00  0.00000000000E+00  0.92378536398E+03  0.30498440450E+04  0.29065734637E+04 0.  0.
        2    1    3    3  502    0 -0.90896726555E+03  0.23470965297E+03 -0.70217467808E+03  0.11723307509E+04  0.25500000920E-02 0. -1.
       -2    1    3    3    0  502  0.90896726555E+03 -0.23470965297E+03  0.16259600421E+04  0.18775132941E+04  0.25500000920E-02 0.  1.
</event>
<event>
 5   0  0.3786210E-07  0.2901663E+04  0.7818609E-02  0.8272383E-01
       -1   -1    0    0    0  501  0.00000000000E+00  0.00000000000E+00  0.16998768426E+04  0.16998768426E+04  0.50400001928E-02 0. -1.
        1   -1    0    0  501    0  0.00000000000E+00  0.00000000000E+00 -0.12382732336E+04  0.12382732336E+04  0.50400001928E-02 0.  1.
    10030    2    1    2    0    0  0.00000000000E+00  0.00000000000E+00  0.46160360897E+03  0.29381500762E+04  0.29016629677E+04 0.  0.
        5    1    3    3  502    0  0.62724017701E+03 -0.11153508112E+04  0.92310387001E+03  0.15778404598E+04  0.46999998093E+01 0. -1.
       -5    1    3    3    0  502 -0.62724017701E+03  0.11153508112E+04 -0.46150026104E+03  0.13603096164E+04  0.46999998093E+01 0.  1.
</event>
<event>
 5   0  0.1031339E-06  0.2897740E+04  0.7818609E-02  0.8273550E-01
        2   -1    0    0  501    0  0.00000000000E+00  0.00000000000E+00  0.20052795483E+04  0.20052795483E+04  0.25500000920E-02 0. -1.
       -2   -1    0    0    0  501  0.00000000000E+00  0.00000000000E+00 -0.10468484726E+04  0.10468484726E+04  0.25500000920E-02 0.  1.
    10030    2    1    2    0    0  0.00000000000E+00  0.00000000000E+00  0.95843107562E+03  0.30521280209E+04  0.28977396932E+04 0.  0.
        5    1    3    3  502    0 -0.11965230317E+04  0.77095033820E+03  0.19430417899E+03  0.14365959743E+04  0.46999998093E+01 0.  1.
       -5    1    3    3    0  502  0.11965230317E+04 -0.77095033820E+03  0.76412689663E+03  0.16155320466E+04  0.46999998093E+01 0. -1.
</event>
<event>
 5   0  0.1031339E-06  0.2826852E+04  0.7818609E-02  0.8294980E-01
        2   -1    0    0  501    0  0.00000000000E+00  0.00000000000E+00  0.10996428039E+04  0.10996428039E+04  0.25500000920E-02 0.  1.
       -2   -1    0    0    0  501  0.00000000000E+00  0.00000000000E+00 -0.18167472206E+04  0.18167472206E+04  0.25500000920E-02 0. -1.
    10030    2    1    2    0    0  0.00000000000E+00  0.00000000000E+00 -0.71710441670E+03  0.29163900245E+04  0.28268519647E+04 0.  0.
        5    1    3    3  502    0 -0.11971889379E+04 -0.65733379742E+03  0.16843716438E+02  0.13658897741E+04  0.46999998093E+01 0.  1.
       -5    1    3    3    0  502  0.11971889379E+04  0.65733379742E+03 -0.73394813314E+03  0.15505002504E+04  0.46999998093E+01 0. -1.
</event>
<event>
 5   0  0.9950999E-07  0.2901688E+04  0.7818609E-02  0.8272375E-01
       -2   -1    0    0    0  501  0.00000000000E+00  0.00000000000E+00  0.75033185957E+03  0.75033185957E+03  0.25500000920E-02 0.  1.
        2   -1    0    0  501    0  0.00000000000E+00  0.00000000000E+00 -0.28053572044E+04  0.28053572044E+04  0.25500000920E-02 0. -1.
    10030    2    1    2    0    0  0.00000000000E+00  0.00000000000E+00 -0.20550253448E+04  0.35556890640E+04  0.29016883967E+04 0.  0.
        3    1    3    3  502    0 -0.13186950261E+04  0.47656319051E+03 -0.57085307114E+03  0.15139162082E+04  0.10100000352E+00 0.  1.
       -3    1    3    3    0  502  0.13186950261E+04 -0.47656319051E+03 -0.14841722737E+04  0.20417728558E+04  0.10100000352E+00 0. -1.
</event>
<event>
 5   0  0.1031339E-06  0.2901284E+04  0.7818609E-02  0.8272495E-01
       -2   -1    0    0    0  501  0.00000000000E+00  0.00000000000E+00  0.24446164265E+04  0.24446164265E+04  0.25500000920E-02 0. -1.
        2   -1    0    0  501    0  0.00000000000E+00  0.00000000000E+00 -0.86081502363E+03  0.86081502364E+03  0.25500000920E-02 0.  1.
    10030    2    1    2    0    0  0.00000000000E+00  0.00000000000E+00  0.15838014028E+04  0.33054314501E+04  0.29012842308E+04 0.  0.
        5    1    3    3  502    0 -0.37419662795E+03 -0.83159504928E+03  0.20772238617E+04  0.22685798430E+04  0.46999998093E+01 0. -1.
       -5    1    3    3    0  502  0.37419662795E+03  0.83159504928E+03 -0.49342245884E+03  0.10368516071E+04  0.46999998093E+01 0.  1.
</event>
<event>
 5   0  0.3885904E-07  0.2901210E+04  0.7818609E-02  0.8272518E-01
        1   -1    0    0  501    0  0.00000000000E+00  0.00000000000E+00  0.19017864951E+04  0.19017864951E+04  0.50400001928E-02 0.  1.
       -1   -1    0    0    0  501  0.00000000000E+00  0.00000000000E+00 -0.11064620327E+04  0.11064620327E+04  0.50400001928E-02 0. -1.
    10030    2    1    2    0    0  0.00000000000E+00  0.00000000000E+00  0.79532446238E+03  0.30082485278E+04  0.29012097829E+04 0.  0.
        2    1    3    3  502    0  0.12822345646E+04  0.42575432095E+03 -0.14989498377E+03  0.13593604109E+04  0.25500000920E-02 0. -1.
       -2    1    3    3    0  502 -0.12822345646E+04 -0.42575432095E+03  0.94521944615E+03  0.16488881169E+04  0.25500000920E-02 0.  1.
</event>
<event>
 5   0  0.9950999E-07  0.2904462E+04  0.7818609E-02  0.8271551E-01
        2   -1    0    0  501    0  0.00000000000E+00  0.00000000000E+00  0.21176946958E+04  0.21176946958E+04  0.25500000920E-02 0. -1.
       -2   -1    0    0    0  501  0.00000000000E+00  0.00000000000E+00 -0.99588254493E+03  0.99588254493E+03  0.25500000920E-02 0.  1.
    10030    2    1    2    0    0  0.00000000000E+00  0.00000000000E+00  0.11218121509E+04  0.31135772407E+04  0.29044622105E+04 0.  0.
        3    1    3    3  502    0  0.61994849336E+03  0.82021518178E+03  0.16603631309E+04  0.19529195620E+04  0.10100000352E+00 0. -1.
       -3    1    3    3    0  502 -0.61994849336E+03 -0.82021518178E+03 -0.53855098007E+03  0.11606576787E+04  0.10100000352E+00 0.  1.
</event>
<event>
 5   0  0.9994311E-07  0.2898090E+04  0.7818609E-02  0.8273446E-01
       -2   -1    0    0    0  501  0.00000000000E+00  0.00000000000E+00  0.65187241716E+03  0.65187241716E+03  0.25500000920E-02 0. -1.
        2   -1    0    0  501    0  0.00000000000E+00  0.00000000000E+00 -0.32210777866E+04  0.32210777866E+04  0.25500000920E-02 0.  1.
    10030    2    1    2    0    0  0.00000000000E+00  0.00000000000E+00 -0.25692053694E+04  0.38729502038E+04  0.28980902419E+04 0.  0.
        2    1    3    3  502    0  0.53830118131E+03 -0.58950860343E+03 -0.29007074593E+04  0.30085531938E+04  0.25500000920E-02 0.  1.
       -2    1    3    3    0  502 -0.53830118131E+03  0.58950860343E+03  0.33150208985E+03  0.86439701000E+03  0.25500000920E-02 0. -1.
</event>
<event>
 5   0  0.9950999E-07  0.2903146E+04  0.7818609E-02  0.8271942E-01
       -2   -1    0    0    0  501  0.00000000000E+00  0.00000000000E+00  0.86095232021E+03  0.86095232021E+03  0.25500000920E-02 0.  1.
        2   -1    0    0  501    0  0.00000000000E+00  0.00000000000E+00 -0.24473637146E+04  0.24473637146E+04  0.25500000920E-02 0. -1.
    10030    2    1    2    0    0  0.00000000000E+00  0.00000000000E+00 -0.15864113944E+04  0.33083160348E+04  0.29031455138E+04 0.  0.
        3    1    3    3  502    0 -0.71261246168E+03  0.10609782735E+04 -0.15774135965E+04  0.20302032120E+04  0.10100000352E+00 0. -1.
       -3    1    3    3    0  502  0.71261246168E+03 -0.10609782735E+04 -0.89977979132E+01  0.12781128228E+04  0.10100000352E+00 0.  1.
</event>
<event>
 5   0  0.3885904E-07  0.2902266E+04  0.7818609E-02  0.8272204E-01
       -1   -1    0    0    0  501  0.00000000000E+00  0.00000000000E+00  0.12735962131E+04  0.12735962131E+04  0.50400001928E-02 0.  1.
        1   -1    0    0  501    0  0.00000000000E+00  0.00000000000E+00 -0.16534180152E+04  0.16534180152E+04  0.50400001928E-02 0. -1.
    10030    2    1    2    0    0  0.00000000000E+00  0.00000000000E+00 -0.37982180207E+03  0.29270142283E+04  0.29022659581E+04 0.  0.
        2    1    3    3  502    0 -0.43772613175E+02  0.12623235407E+04 -0.91043295927E+03  0.15570051177E+04  0.25500000920E-02 0. -1.
       -2    1    3    3    0  502  0.43772613175E+02 -0.12623235407E+04  0.53061115720E+03  0.13700091106E+04  0.25500000920E-02 0.  1.
</event>
<event>
 5   0  0.9994311E-07  0.2901164E+04  0.7818609E-02  0.8272531E-01
       -2   -1    0    0    0  501  0.00000000000E+00  0.00000000000E+00  0.92856646325E+03  0.92856646326E+03  0.25500000920E-02 0. -1.
        2   -1    0    0  501    0  0.00000000000E+00  0.00000000000E+00 -0.22660611766E+04  0.22660611766E+04  0.25500000920E-02 0.  1.
    10030    2    1    2    0    0  0.00000000000E+00  0.00000000000E+00 -0.13374947133E+04  0.31946276398E+04  0.29011641886E+04 0.  0.
        2    1    3    3  502    0  0.13209881930E+04  0.49039014626E+03 -0.10481201490E+04  0.17561458221E+04  0.25500000920E-02 0.  1.
       -2    1    3    3    0  502 -0.13209881930E+04 -0.49039014626E+03 -0.28937456433E+03  0.14384818178E+04  0.25500000920E-02 0. -1.
</event>
<event>
 5   0  0.3638028E-07  0.2899860E+04  0.7818609E-02  0.8272919E-01
       -1   -1    0    0    0  501  0.00000000000E+00  0.00000000000E+00  0.12985842596E+04  0.12985842596E+04  0.50400001928E-02 0. -1.
        1   -1    0    0  501    0  0.00000000000E+00  0.00000000000E+00 -0.16189145487E+04  0.16189145487E+04  0.50400001928E-02 0.  1.
    10030    2    1    2    0    0  0.00000000000E+00  0.00000000000E+00 -0.32033028905E+03  0.29174988083E+04  0.28998599625E+04 0.  0.
        4    1    3    3  502    0 -0.11637218067E+04 -0.62275304987E+03 -0.76400379491E+03  0.15250485947E+04  0.12699999809E+01 0.  1.
       -4    1    3    3    0  502  0.11637218067E+04  0.62275304987E+03  0.44367350586E+03  0.13924502136E+04  0.12699999809E+01 0. -1.
</event>
<event>
 5   0  0.3638028E-07  0.2898579E+04  0.7818609E-02  0.8273300E-01
        1   -1    0    0  501    0  0.00000000000E+00  0.00000000000E+00  0.16957131424E+04  0.16957131424E+04  0.50400001928E-02 0. -1.
       -1   -1    0    0    0  501  0.00000000000E+00  0.00000000000E+00 -0.12386763650E+04  0.12386763651E+04  0.50400001928E-02 0.  1.
    10030    2    1    2    0    0  0.00000000000E+00  0.00000000000E+00  0.45703677731E+03  0.29343895074E+04  0.28985788182E+04 0.  0.
        4    1    3    3  502    0 -0.14076528697E+04  0.11408622850E+03  0.55801749908E+03  0.15185148703E+04  0.12699999809E+01 0. -1.
       -4    1    3    3    0  502  0.14076528697E+04 -0.11408622850E+03 -0.10098072177E+03  0.14158746371E+04  0.12699999809E+01 0.  1.
</event>
<event>
 5   0  0.1006893E-06  0.2903399E+04  0.7818609E-02  0.8271867E-01
       -2   -1    0    0    0  501  0.00000000000E+00  0.00000000000E+00  0.11471910319E+04  0.11471910319E+04  0.25500000920E-02 0.  1.
        2   -1    0    0  501    0  0.00000000000E+00  0.00000000000E+00 -0.18370361309E+04  0.18370361309E+04  0.25500000920E-02 0. -1.
    10030    2    1    2    0    0  0.00000000000E+00  0.00000000000E+00 -0.68984509899E+03  0.29842271629E+04  0.29033989562E+04 0.  0.
        4    1    3    3  502    0 -0.57642887330E+03  0.46456624224E+02 -0.17135324882E+04  0.18084865675E+04  0.12699999809E+01 0. -1.
       -4    1    3    3    0  502  0.57642887330E+03 -0.46456624224E+02  0.10236873892E+04  0.11757405954E+04  0.12699999809E+01 0.  1.
</event>
<event>
 5   0  0.3769563E-07  0.2895267E+04  0.7818609E-02  0.8274287E-01
        1   -1    0    0  501    0  0.00000000000E+00  0.00000000000E+00  0.21723767078E+04  0.21723767078E+04  0.50400001928E-02 0. -1.
       -1   -1    0    0    0  501  0.00000000000E+00  0.00000000000E+00 -0.96467727348E+03  0.96467727349E+03  0.50400001928E-02 0.  1.
    10030    2    1    2    0    0  0.00000000000E+00  0.00000000000E+00  0.12076994343E+04  0.31370539813E+04  0.28952667853E+04 0.  0.
        3    1    3    3  502    0  0.56500320945E+03 -0.13137386526E+04  0.36034987734E+03  0.14747847023E+04  0.10100000352E+00 0. -1.
       -3    1    3    3    0  502 -0.56500320945E+03  0.13137386526E+04  0.84734955697E+03  0.16622692790E+04  0.10100000352E+00 0.  1.
</event>
<event>
 5   0  0.3885904E-07  0.2949294E+04  0.7818609E-02  0.8258360E-01
        1   -1    0    0  501    0  0.00000000000E+00  0.00000000000E+00  0.11724322679E+04  0.11724322679E+04  0.50400001928E-02 0.  1.
       -1   -1    0    0    0  501  0.00000000000E+00  0.00000000000E+00 -0.18547628150E+04  0.18547628151E+04  0.50400001928E-02 0. -1.
    10030    2    1    2    0    0  0.00000000000E+00  0.00000000000E+00 -0.68233054713E+03  0.30271950830E+04  0.29492939994E+04 0.  0.
        2    1    3    3  502    0  0.78777970997E+02 -0.14722484924E+04 -0.31102676705E+03  0.15068043144E+04  0.25500000920E-02 0.  1.
       -2    1    3    3    0  502 -0.78777970997E+02  0.14722484924E+04 -0.37130378008E+03  0.15203907686E+04  0.25500000920E-02 0. -1.
</event>
<event>
 5   0  0.9950999E-07  0.2896750E+04  0.7818609E-02  0.8273845E-01
        2   -1    0    0  501    0  0.00000000000E+00  0.00000000000E+00  0.99274366584E+03  0.99274366585E+03  0.25500000920E-02 0.  1.
       -2   -1    0    0    0  501  0.00000000000E+00  0.00000000000E+00 -0.21131243715E+04  0.21131243715E+04  0.25500000920E-02 0. -1.
    10030    2    1    2    0    0  0.00000000000E+00  0.00000000000E+00 -0.11203807056E+04  0.31058680373E+04  0.28967504794E+04 0.  0.
        3    1    3    3  502    0 -0.55637172794E+03 -0.13229523526E+04 -0.35107639582E+03  0.14775002784E+04  0.10100000352E+00 0.  1.
       -3    1    3    3    0  502  0.55637172794E+03  0.13229523526E+04 -0.76930430981E+03  0.16283677589E+04  0.10100000352E+00 0. -1.
</event>
<event>
 5   0  0.9950999E-07  0.2891788E+04  0.7818609E-02  0.8275325E-01
        2   -1    0    0  501    0  0.00000000000E+00  0.00000000000E+00  0.20272478999E+04  0.20272478999E+04  0.25500000920E-02 0. -1.
       -2   -1    0    0    0  501  0.00000000000E+00  0.00000000000E+00 -0.10312552541E+04  0.10312552541E+04  0.25500000920E-02 0.  1.
    10030    2    1    2    0    0  0.00000000000E+00  0.00000000000E+00  0.99599264582E+03  0.30585031541E+04  0.28917884074E+04 0.  0.
        3    1    3    3  502    0 -0.13852533243E+04 -0.41061436630E+03  0.55668507405E+03  0.15483633979E+04  0.10100000352E+00 0. -1.
       -3    1    3    3    0  502  0.13852533243E+04  0.41061436630E+03  0.43930757177E+03  0.15101397561E+04  0.10100000352E+00 0.  1.
</event>
<event>
 5   0  0.9994311E-07  0.2905749E+04  0.7818609E-02  0.8271169E-01
        2   -1    0    0  501    0  0.00000000000E+00  0.00000000000E+00  0.10877213262E+04  0.10877213262E+04  0.25500000920E-02 0. -1.
       -2   -1    0    0    0  501  0.00000000000E+00  0.00000000000E+00 -0.19406109469E+04  0.19406109469E+04  0.25500000920E-02 0.  1.
    10030    2    1    2    0    0  0.00000000000E+00  0.00000000000E+00 -0.85288962065E+03  0.30283322731E+04  0.29057487247E+04 0.  0.
        2    1    3    3  502    0 -0.83227895711E+02  0.13152012134E+04  0.21104870523E+03  0.13346245428E+04  0.25500000920E-02 0. -1.
       -2    1    3    3    0  502  0.83227895711E+02 -0.13152012134E+04 -0.10639383259E+04  0.16937077303E+04  0.25500000920E-02 0.  1.
</event>
<event>
 5   0  0.3770467E-07  0.2901772E+04  0.7818609E-02  0.8272350E-01
        1   -1    0    0  501    0  0.00000000000E+00  0.00000000000E+00  0.13983196320E+04  0.13983196320E+04  0.50400001928E-02 0.  1.
       -1   -1    0    0    0  501  0.00000000000E+00  0.00000000000E+00 -0.15054286633E+04  0.15054286633E+04  0.50400001928E-02 0. -1.
    10030    2    1    2    0    0  0.00000000000E+00  0.00000000000E+00 -0.10710903132E+03  0.29037482953E+04  0.29017721857E+04 0.  0.
        1    1    3    3  502    0  0.13392945958E+04  0.42448353197E+03  0.30887187890E+03  0.14385055164E+04  0.50400001928E-02 0.  1.
       -1    1    3    3    0  502 -0.13392945958E+04 -0.42448353197E+03 -0.41598091022E+03  0.14652427788E+04  0.50400001928E-02 0. -1.
</event>
<event>
 5   0  0.1006893E-06  0.2901394E+04  0.7818609E-02  0.8272463E-01
        2   -1    0    0  501    0  0.00000000000E+00  0.00000000000E+00  0.19310377964E+04  0.19310377964E+04  0.25500000920E-02 0. -1.
       -2   -1    0    0    0  501  0.00000000000E+00  0.00000000000E+00 -0.10898395635E+04  0.10898395635E+04  0.25500000920E-02 0.  1.
    10030    2    1    2    0    0  0.00000000000E+00  0.00000000000E+00  0.84119823292E+03  0.30208773599E+04  0.29013937266E+04 0.  0.
        4    1    3    3  502    0 -0.11606755020E+03  0.73316099520E+03  0.17183319063E+04  0.18718073817E+04  0.12699999809E+01 0. -1.
       -4    1    3    3    0  502  0.11606755020E+03 -0.73316099520E+03 -0.87713367334E+03  0.11490699782E+04  0.12699999809E+01 0.  1.
</event>
<event>
 5   0  0.3769563E-07  0.2896644E+04  0.7818609E-02  0.8273877E-01
        1   -1    0    0  501    0  0.00000000000E+00  0.00000000000E+00  0.24368650274E+04  0.24368650274E+04  0.50400001928E-02 0.  1.
       -1   -1    0    0    0  501  0.00000000000E+00  0.00000000000E+00 -0.86079322522E+03  0.86079322524E+03  0.50400001928E-02 0. -1.
    10030    2    1    2    0    0  0.00000000000E+00  0.00000000000E+00  0.15760718022E+04  0.32976582527E+04  0.28966442007E+04 0.  0.
        3    1    3    3  502    0  0.90747985535E+03 -0.25760819883E+03 -0.46308694677E+03  0.10508716394E+04  0.10100000352E+00 0. -1.
       -3    1    3    3    0  502 -0.90747985535E+03  0.25760819883E+03  0.20391587490E+04  0.22467866133E+04  0.10100000352E+00 0.  1.
</event>
<event>
 5   0  0.9950999E-07  0.2891415E+04  0.7818609E-02  0.8275436E-01
       -2   -1    0    0    0  501  0.00000000000E+00  0.00000000000E+00  0.10076473951E+04  0.10076473951E+04  0.25500000920E-02 0. -1.
        2   -1    0    0  501    0  0.00000000000E+00  0.00000000000E+00 -0.20742079062E+04  0.20742079062E+04  0.25500000920E-02 0.  1.
    10030    2    1    2    0    0  0.00000000000E+00  0.00000000000E+00 -0.10665605111E+04  0.30818553013E+04  0.28914150125E+04 0.  0.
        3    1    3    3  502    0  0.12828677418E+04 -0.60629799283E+03 -0.82851359904E+03  0.16431012425E+04  0.10100000352E+00 0.  1.
       -3    1    3    3    0  502 -0.12828677418E+04  0.60629799283E+03 -0.23804691211E+03  0.14387540588E+04  0.10100000352E+00 0. -1.
</event>
<event>
 5   0  0.9950999E-07  0.2859604E+04  0.7818609E-02  0.8284999E-01
       -2   -1    0    0    0  501  0.00000000000E+00  0.00000000000E+00  0.10534683405E+04  0.10534683406E+04  0.25500000920E-02 0. -1.
        2   -1    0    0  501    0  0.00000000000E+00  0.00000000000E+00 -0.19405750268E+04  0.19405750268E+04  0.25500000920E-02 0.  1.
    10030    2    1    2    0    0  0.00000000000E+00  0.00000000000E+00 -0.88710668626E+03  0.29940433674E+04  0.28596044154E+04 0.  0.
        3    1    3    3  502    0 -0.65205684081E+03 -0.11100479139E+04  0.20774424197E+03  0.13040483792E+04  0.10100000352E+00 0. -1.
       -3    1    3    3    0  502  0.65205684081E+03  0.11100479139E+04 -0.10948509282E+04  0.16899949882E+04  0.10100000352E+00 0.  1.
</event>
<event>
 5   0  0.3638028E-07  0.2899592E+04  0.7818609E-02  0.8272999E-01
        1   -1    0    0  501    0  0.00000000000E+00  0.00000000000E+00  0.22040551636E+04  0.22040551636E+04  0.50400001928E-02 0.  1.
       -1   -1    0    0    0  501  0.00000000000E+00  0.00000000000E+00 -0.95365488207E+03  0.95365488208E+03  0.50400001928E-02 0. -1.
    10030    2    1    2    0    0  0.00000000000E+00  0.00000000000E+00  0.12504002815E+04  0.31577100457E+04  0.28995916727E+04 0.  0.
        4    1    3    3  502    0  0.10107222872E+04  0.23593305678E+03  0.17275768890E+04  0.20153777486E+04  0.12699999809E+01 0.  1.
       -4    1    3    3    0  502 -0.10107222872E+04 -0.23593305678E+03 -0.47717660753E+03  0.11423322970E+04  0.12699999809E+01 0. -1.
</event>
<event>
 5   0  0.3770467E-07  0.2910120E+04  0.7818609E-02  0.8269873E-01
       -1   -1    0    0    0  501  0.00000000000E+00  0.00000000000E+00  0.14923072460E+04  0.14923072460E+04  0.50400001928E-02 0.  1.
        1   -1    0    0  501    0  0.00000000000E+00  0.00000000000E+00 -0.14187420319E+04  0.14187420319E+04  0.50400001928E-02 0. -1.
    10030    2    1    2    0    0  0.00000000000E+00  0.00000000000E+00  0.73565214097E+02  0.29110492780E+04  0.29101195951E+04 0.  0.
        1    1    3    3  502    0 -0.89845859053E+03 -0.10750389460E+04 -0.35610544171E+03  0.14455959532E+04  0.50400001928E-02 0. -1.
       -1    1    3    3    0  502  0.89845859053E+03  0.10750389460E+04  0.42967065581E+03  0.14654533247E+04  0.50400001928E-02 0.  1.
</event>
<event>
 5   0  0.1063979E-06  0.2899465E+04  0.7818609E-02  0.8273037E-01
       -2   -1    0    0    0  501  0.00000000000E+00  0.00000000000E+00  0.13822986181E+04  0.13822986181E+04  0.25500000920E-02 0. -1.
        2   -1    0    0  501    0  0.00000000000E+00  0.00000000000E+00 -0.15204560590E+04  0.15204560590E+04  0.25500000920E-02 0.  1.
    10030    2    1    2    0    0  0.00000000000E+00  0.00000000000E+00 -0.13815744089E+03  0.29027546772E+04  0.28994649916E+04 0.  0.
        1    1    3    3  502    0 -0.14221491386E+04  0.14681711301E+03  0.17132050741E+03  0.14399354684E+04  0.50400001928E-02 0. -1.
       -1    1    3    3    0  502  0.14221491386E+04 -0.14681711301E+03 -0.30947794830E+03  0.14628192088E+04  0.50400001928E-02 0.  1.
</event>
<event>
 5   0  0.3638028E-07  0.2907072E+04  0.7818609E-02  0.8270776E-01
       -1   -1    0    0    0  501  0.00000000000E+00  0.00000000000E+00  0.83044319403E+03  0.83044319404E+03  0.50400001928E-02 0. -1.
        1   -1    0    0  501    0  0.00000000000E+00  0.00000000000E+00 -0.25441440044E+04  0.25441440044E+04  0.50400001928E-02 0.  1.
    10030    2    1    2    0    0  0.00000000000E+00  0.00000000000E+00 -0.17137008104E+04  0.33745871984E+04  0.29070721168E+04 0.  0.
        4    1    3    3  502    0 -0.99176550957E+03  0.17929714927E+03 -0.20726778900E+04  0.23047215759E+04  0.12699999809E+01 0.  1.
       -4    1    3    3    0  502  0.99176550957E+03 -0.17929714927E+03  0.35897707964E+03  0.10698656226E+04  0.12699999809E+01 0. -1.
</event>
<event>
 5   0  0.1031339E-06  0.2907094E+04  0.7818609E-02  0.8270770E-01
       -2   -1    0    0    0  501  0.00000000000E+00  0.00000000000E+00  0.13430226409E+04  0.13430226409E+04  0.25500000920E-02 0.  1.
        2   -1    0    0  501    0  0.00000000000E+00  0.00000000000E+00 -0.15731674624E+04  0.15731674624E+04  0.25500000920E-02 0. -1.
    10030    2    1    2    0    0  0.00000000000E+00  0.00000000000E+00 -0.23014482146E+03  0.29161901033E+04  0.29070944395E+04 0.  0.
        5    1    3    3  502    0 -0.12283224090E+04 -0.63585618725E+03  0.33319081149E+03  0.14227182567E+04  0.46999998093E+01 0. -1.
       -5    1    3    3    0  502  0.12283224090E+04  0.63585618725E+03 -0.56333563295E+03  0.14934718466E+04  0.46999998093E+01 0.  1.
</event>
<event>
 5   0  0.3885904E-07  0.2908359E+04  0.7818609E-02  0.8270395E-01
        1   -1    0    0  501    0  0.00000000000E+00  0.00000000000E+00  0.14945251843E+04  0.14945251843E+04  0.50400001928E-02 0. -1.
       -1   -1    0    0    0  501  0.00000000000E+00  0.00000000000E+00 -0.14149230805E+04  0.14149230805E+04  0.50400001928E-02 0.  1.
    10030    2    1    2    0    0  0.00000000000E+00  0.00000000000E+00  0.79602103829E+02  0.29094482648E+04  0.29083591096E+04 0.  0.
        2    1    3    3  502    0  0.97432443150E+03  0.14465461842E+03  0.11099703942E+04  0.14840038182E+04  0.25500000920E-02 0. -1.
       -2    1    3    3    0  502 -0.97432443150E+03 -0.14465461842E+03 -0.10303682904E+04  0.14254444466E+04  0.25500000920E-02 0.  1.
</event>
<event>
 5   0  0.3786210E-07  0.2902506E+04  0.7818609E-02  0.8272132E-01
        1   -1    0    0  501    0  0.00000000000E+00  0.00000000000E+00  0.13687330416E+04  0.13687330416E+04  0.50400001928E-02 0.  1.
       -1   -1    0    0    0  501  0.00000000000E+00  0.00000000000E+00 -0.15387477587E+04  0.15387477587E+04  0.50400001928E-02 0. -1.
    10030    2    1    2    0    0  0.00000000000E+00  0.00000000000E+00 -0.17001471712E+03  0.29074808003E+04  0.29025057450E+04 0.  0.
        5    1    3    3  502    0  0.19408659163E+03 -0.94454962833E+03  0.10014110881E+04  0.13902121647E+04  0.46999998093E+01 0.  1.
       -5    1    3    3    0  502 -0.19408659163E+03  0.94454962833E+03 -0.11714258052E+04  0.15172686356E+04  0.46999998093E+01 0. -1.
</event>
<event>
 5   0  0.3770467E-07  0.2893981E+04  0.7818609E-02  0.8274671E-01
       -1   -1    0    0    0  501  0.00000000000E+00  0.00000000000E+00  0.13425341167E+04  0.13425341167E+04  0.50400001928E-02 0.  1.
        1   -1    0    0  501    0  0.00000000000E+00  0.00000000000E+00 -0.15595740611E+04  0.15595740612E+04  0.50400001928E-02 0. -1.
    10030    2    1    2    0    0  0.00000000000E+00  0.00000000000E+00 -0.21703994442E+03  0.29021081779E+04  0.28939809154E+04 0.  0.
        1    1    3    3  502    0 -0.54339959045E+03 -0.13363270574E+04 -0.22165642123E+03  0.14595152238E+04  0.50400001928E-02 0. -1.
       -1    1    3    3    0  502  0.54339959045E+03  0.13363270574E+04  0.46164768038E+01  0.14425929541E+04  0.50400001928E-02 0.  1.
</event>
<event>
 5   0  0.1031339E-06  0.2901525E+04  0.7818609E-02  0.8272424E-01
        2   -1    0    0  501    0  0.00000000000E+00  0.00000000000E+00  0.15338716435E+04  0.15338716435E+04  0.25500000920E-02 0.  1.
       -2   -1    0    0    0  501  0.00000000000E+00  0.00000000000E+00 -0.13721560237E+04  0.13721560237E+04  0.25500000920E-02 0. -1.
    10030    2    1    2    0    0  0.00000000000E+00  0.00000000000E+00  0.16171561982E+03  0.29060276672E+04  0.29015245752E+04 0.  0.
        5    1    3    3  502    0  0.14037781302E+04 -0.29450265705E+03  0.29882891266E+03  0.14651435639E+04  0.46999998093E+01 0.  1.
       -5    1    3    3    0  502 -0.14037781302E+04  0.29450265705E+03 -0.13711329284E+03  0.14408841032E+04  0.46999998093E+01 0. -1.
</event>
<event>
 5   0  0.3885904E-07  0.2894445E+04  0.7818609E-02  0.8274532E-01
       -1   -1    0    0    0  501  0.00000000000E+00  0.00000000000E+00  0.77753829122E+03  0.77753829124E+03  0.50400001928E-02 0.  1.
        1   -1    0    0  501    0  0.00000000000E+00  0.00000000000E+00 -0.26936969099E+04  0.26936969099E+04  0.50400001928E-02 0. -1.
    10030    2    1    2    0    0  0.00000000000E+00  0.00000000000E+00 -0.19161586187E+04  0.34712352011E+04  0.28944446738E+04 0.  0.
        2    1    3    3  502    0  0.70665786550E+03 -0.38491196407E+03  0.48450943474E+03  0.93929332549E+03  0.25500000920E-02 0.  1.
       -2    1    3    3    0  502 -0.70665786550E+03  0.38491196407E+03 -0.24006680534E+04  0.25319418757E+04  0.25500000920E-02 0. -1.
</event>
<event>
 5   0  0.3769563E-07  0.2903536E+04  0.7818609E-02  0.8271826E-01
       -1   -1    0    0    0  501  0.00000000000E+00  0.00000000000E+00  0.94951842101E+03  0.94951842102E+03  0.50400001928E-02 0.  1.
        1   -1    0    0  501    0  0.00000000000E+00  0.00000000000E+00 -0.22196836127E+04  0.22196836128E+04  0.50400001928E-02 0. -1.
    10030    2    1    2    0    0  0.00000000000E+00  0.00000000000E+00 -0.12701651917E+04  0.31692020338E+04  0.29035361056E+04 0.  0.
        3    1    3    3  502    0  0.31889322456E+03 -0.10450414266E+04 -0.16784912862E+04  0.20027824345E+04  0.10100000352E+00 0. -1.
       -3    1    3    3    0  502 -0.31889322456E+03  0.10450414266E+04  0.40832609447E+03  0.11664195993E+04  0.10100000352E+00 0.  1.
</event>
<event>
 5   0  0.9950999E-07  0.2901783E+04  0.7818609E-02  0.8272347E-01
       -2   -1    0    0    0  501  0.00000000000E+00  0.00000000000E+00  0.11876871743E+04  0.11876871743E+04  0.25500000920E-02 0.  1.
        2   -1    0    0  501    0  0.00000000000E+00  0.00000000000E+00 -0.17724251934E+04  0.17724251934E+04  0.25500000920E-02 0. -1.
    10030    2    1    2    0    0  0.00000000000E+00  0.00000000000E+00 -0.58473801906E+03  0.29601123677E+04  0.29017833617E+04 0.  0.
        3    1    3    3  502    0 -0.11308487920E+04  0.61365148812E+03  0.39170709972E+03  0.13449243850E+04  0.10100000352E+00 0. -1.
       -3    1    3    3    0  502  0.11308487920E+04 -0.61365148812E+03 -0.97644511878E+03  0.16151879827E+04  0.10100000352E+00 0.  1.
</event>
<event>
 5   0  0.1031339E-06  0.2899567E+04  0.7818609E-02  0.8273006E-01
        2   -1    0    0  501    0  0.00000000000E+00  0.00000000000E+00  0.16078736919E+04  0.16078736919E+04  0.25500000920E-02 0. -1.
       -2   -1    0    0    0  501  0.00000000000E+00  0.00000000000E+00 -0.13072369162E+04  0.13072369162E+04  0.25500000920E-02 0.  1.
    10030    2    1    2    0    0  0.00000000000E+00  0.00000000000E+00  0.30063677573E+03  0.29151106081E+04  0.28995667584E+04 0.  0.
        5    1    3    3  502    0 -0.89674797717E+03  0.41768662911E+03  0.12158256364E+04  0.15674415851E+04  0.46999998093E+01 0. -1.
       -5    1    3    3    0  502  0.89674797717E+03 -0.41768662911E+03 -0.91518886066E+03  0.13476690229E+04  0.46999998093E+01 0.  1.
</event>
<event>
 5   0  0.1063979E-06  0.2899884E+04  0.7818609E-02  0.8272912E-01
        2   -1    0    0  501    0  0.00000000000E+00  0.00000000000E+00  0.24989080682E+04  0.24989080682E+04  0.25500000920E-02 0.  1.
       -2   -1    0    0    0  501  0.00000000000E+00  0.00000000000E+00 -0.84130015199E+03  0.84130015200E+03  0.25500000920E-02 0. -1.
    10030    2    1    2    0    0  0.00000000000E+00  0.00000000000E+00  0.16576079163E+04  0.33402082202E+04  0.28998839547E+04 0.  0.
        1    1    3    3  502    0  0.77314048697E+03  0.11377544661E+04  0.13567703251E+04  0.19321120964E+04  0.50400001928E-02 0.  1.
       -1    1    3    3    0  502 -0.77314048697E+03 -0.11377544661E+04  0.30083759117E+03  0.14080961239E+04  0.50400001928E-02 0. -1.
</event>
<event>
 5   0  0.3638028E-07  0.2898181E+04  0.7818609E-02  0.8273419E-01
       -1   -1    0    0    0  501  0.00000000000E+00  0.00000000000E+00  0.74460441856E+03  0.74460441857E+03  0.50400001928E-02 0.  1.
        1   -1    0    0  501    0  0.00000000000E+00  0.00000000000E+00 -0.28201050186E+04  0.28201050186E+04  0.50400001928E-02 0. -1.
    10030    2    1    2    0    0  0.00000000000E+00  0.00000000000E+00 -0.20755006001E+04  0.35647094372E+04  0.28981805725E+04 0.  0.
        4    1    3    3  502    0 -0.83039027087E+03  0.36373868568E+03 -0.24282322231E+04  0.25919427415E+04  0.12699999809E+01 0. -1.
       -4    1    3    3    0  502  0.83039027087E+03 -0.36373868568E+03  0.35273162300E+03  0.97276669566E+03  0.12699999809E+01 0.  1.
</event>
<event>
 5   0  0.3769563E-07  0.2885966E+04  0.7818609E-02  0.8277065E-01
        1   -1    0    0  501    0  0.00000000000E+00  0.00000000000E+00  0.18610187315E+04  0.18610187315E+04  0.50400001928E-02 0.  1.
       -1   -1    0    0    0  501  0.00000000000E+00  0.00000000000E+00 -0.11188498674E+04  0.11188498674E+04  0.50400001928E-02 0. -1.
    10030    2    1    2    0    0  0.00000000000E+00  0.00000000000E+00  0.74216886410E+03  0.29798685989E+04  0.28859664316E+04 0.  0.
        3    1    3    3  502    0  0.97497617918E+02 -0.13926407561E+04 -0.58221544424E+01  0.13960615920E+04  0.10100000352E+00 0. -1.
       -3    1    3    3    0  502 -0.97497617918E+02  0.13926407561E+04  0.74799101855E+03  0.15838070069E+04  0.10100000352E+00 0.  1.
</event>
<event>
 5   0  0.3770467E-07  0.2904406E+04  0.7818609E-02  0.8271568E-01
       -1   -1    0    0    0  501  0.00000000000E+00  0.00000000000E+00  0.11654110476E+04  0.11654110476E+04  0.50400001928E-02 0. -1.
        1   -1    0    0  501    0  0.00000000000E+00  0.00000000000E+00 -0.18095711585E+04  0.18095711586E+04  0.50400001928E-02 0.  1.
    10030    2    1    2    0    0  0.00000000000E+00  0.00000000000E+00 -0.64416011095E+03  0.29749822062E+04  0.29044064589E+04 0.  0.
        1    1    3    3  502    0  0.26242323660E+03 -0.84161419881E+03  0.85996064198E+03  0.12315489111E+04  0.50400001928E-02 0. -1.
       -1    1    3    3    0  502 -0.26242323660E+03  0.84161419881E+03 -0.15041207529E+04  0.17434332950E+04  0.50400001928E-02 0.  1.
</event>
<event>
 5   0  0.9994311E-07  0.2890045E+04  0.7818609E-02  0.8275846E-01
        2   -1    0    0  501    0  0.00000000000E+00  0.00000000000E+00  0.15592890917E+04  0.15592890917E+04  0.25500000920E-02 0. -1.
       -2   -1    0    0    0  501  0.00000000000E+00  0.00000000000E+00 -0.13391290918E+04  0.13391290918E+04  0.25500000920E-02 0.  1.
    10030    2    1    2    0    0  0.00000000000E+00  0.00000000000E+00  0.22015999990E+03  0.28984181835E+04  0.28900445569E+04 0.  0.
        2    1    3    3  502    0  0.26370560765E+02  0.91938874637E+02  0.15561110300E+04  0.15590476903E+04  0.25500000920E-02 0. -1.
       -2    1    3    3    0  502 -0.26370560765E+02 -0.91938874637E+02 -0.13359510301E+04  0.13393704931E+04  0.25500000920E-02 0.  1.
</event>
<event>
 5   0  0.3770467E-07  0.2909962E+04  0.7818609E-02  0.8269920E-01
       -1   -1    0    0    0  501  0.00000000000E+00  0.00000000000E+00  0.15225917670E+04  0.15225917670E+04  0.50400001928E-02 0.  1.
        1   -1    0    0  501    0  0.00000000000E+00  0.00000000000E+00 -0.13903723906E+04  0.13903723906E+04  0.50400001928E-02 0. -1.
    10030    2    1    2    0    0  0.00000000000E+00  0.00000000000E+00  0.13221937641E+03  0.29129641577E+04  0.29099618933E+04 0.  0.
        1    1    3    3  502    0  0.31569683698E+03 -0.23837738939E+03 -0.13355067724E+04  0.13928627398E+04  0.50400001928E-02 0. -1.
       -1    1    3    3    0  502 -0.31569683698E+03  0.23837738939E+03  0.14677261488E+04  0.15201014179E+04  0.50400001928E-02 0.  1.
</event>
<event>
 5   0  0.3885904E-07  0.2899558E+04  0.7818609E-02  0.8273009E-01
       -1   -1    0    0    0  501  0.00000000000E+00  0.00000000000E+00  0.10743918402E+04  0.10743918402E+04  0.50400001928E-02 0.  1.
        1   -1    0    0  501    0  0.00000000000E+00  0.00000000000E+00 -0.19563250910E+04  0.19563250910E+04  0.50400001928E-02 0. -1.
    10030    2    1    2    0    0  0.00000000000E+00  0.00000000000E+00 -0.88193325079E+03  0.30307169312E+04  0.28995583902E+04 0.  0.
        2    1    3    3  502    0 -0.82430163338E+03  0.70578046821E+03  0.56390527960E+03  0.12229425238E+04  0.25500000920E-02 0.  1.
       -2    1    3    3    0  502  0.82430163338E+03 -0.70578046821E+03 -0.14458385304E+04  0.18077744074E+04  0.25500000920E-02 0. -1.
</event>
<event>
 5   0  0.3638028E-07  0.2903610E+04  0.7818609E-02  0.8271804E-01
       -1   -1    0    0    0  501  0.00000000000E+00  0.00000000000E+00  0.11641981680E+04  0.11641981680E+04  0.50400001928E-02 0. -1.
        1   -1    0    0  501    0  0.00000000000E+00  0.00000000000E+00 -0.18104627171E+04  0.18104627171E+04  0.50400001928E-02 0.  1.
    10030    2    1    2    0    0  0.00000000000E+00  0.00000000000E+00 -0.64626454911E+03  0.29746608850E+04  0.29036097385E+04 0.  0.
        4    1    3    3  502    0 -0.95161188606E+03 -0.11937548414E+03  0.79345540046E+03  0.12447444611E+04  0.12699999809E+01 0. -1.
       -4    1    3    3    0  502  0.95161188606E+03  0.11937548414E+03 -0.14397199496E+04  0.17299164240E+04  0.12699999809E+01 0.  1.
</event>
<event>
 5   0  0.1063979E-06  0.2899231E+04  0.7818609E-02  0.8273106E-01
        2   -1    0    0  501    0  0.00000000000E+00  0.00000000000E+00  0.12258273335E+04  0.12258273335E+04  0.25500000920E-02 0. -1.
       -2   -1    0    0    0  501  0.00000000000E+00  0.00000000000E+00 -0.17142585297E+04  0.17142585297E+04  0.25500000920E-02 0.  1.
    10030    2    1    2    0    0  0.00000000000E+00  0.00000000000E+00 -0.48843119620E+03  0.29400858632E+04  0.28992309066E+04 0.  0.
        1    1    3    3  502    0  0.22778701850E+02 -0.11553272966E+04 -0.11318122758E+04  0.16174977772E+04  0.50400001928E-02 0.  1.
       -1    1    3    3    0  502 -0.22778701850E+02  0.11553272966E+04  0.64338107961E+03  0.13225880860E+04  0.50400001928E-02 0. -1.
</event>
<event>
 5   0  0.9950999E-07  0.2894902E+04  0.7818609E-02  0.8274396E-01
       -2   -1    0    0    0  501  0.00000000000E+00  0.00000000000E+00  0.22065136032E+04  0.22065136032E+04  0.25500000920E-02 0.  1.
        2   -1    0    0  501    0  0.00000000000E+00  0.00000000000E+00 -0.94951325153E+03  0.94951325154E+03  0.25500000920E-02 0. -1.
    10030    2    1    2    0    0  0.00000000000E+00  0.00000000000E+00  0.12570003517E+04  0.31560268547E+04  0.28949016605E+04 0.  0.
        3    1    3    3  502    0  0.63153871246E+03 -0.12130831363E+04  0.11171458447E+03  0.13721851186E+04  0.10100000352E+00 0.  1.
       -3    1    3    3    0  502 -0.63153871246E+03  0.12130831363E+04  0.11452857672E+04  0.17838417362E+04  0.10100000352E+00 0. -1.
</event>
<event>
 5   0  0.3885904E-07  0.2899040E+04  0.7818609E-02  0.8273163E-01
       -1   -1    0    0    0  501  0.00000000000E+00  0.00000000000E+00  0.12902129436E+04  0.12902129436E+04  0.50400001928E-02 0. -1.
        1   -1    0    0  501    0  0.00000000000E+00  0.00000000000E+00 -0.16284969706E+04  0.16284969706E+04  0.50400001928E-02 0.  1.
    10030    2    1    2    0    0  0.00000000000E+00  0.00000000000E+00 -0.33828402703E+03  0.29187099142E+04  0.28990397514E+04 0.  0.
        2    1    3    3  502    0 -0.13798064944E+04  0.33247028401E+03 -0.46559776590E+03  0.14937147423E+04  0.25500000920E-02 0.  1.
       -2    1    3    3    0  502  0.13798064944E+04 -0.33247028401E+03  0.12731373887E+03  0.14249951719E+04  0.25500000920E-02 0. -1.
</event>
<event>
 5   0  0.3786210E-07  0.2902202E+04  0.7818609E-02  0.8272223E-01
        1   -1    0    0  501    0  0.00000000000E+00  0.00000000000E+00  0.13299956296E+04  0.13299956296E+04  0.50400001928E-02 0.  1.
       -1   -1    0    0    0  501  0.00000000000E+00  0.00000000000E+00 -0.15832341470E+04  0.15832341470E+04  0.50400001928E-02 0. -1.
    10030    2    1    2    0    0  0.00000000000E+00  0.00000000000E+00 -0.25323851741E+03  0.29132297766E+04  0.29022022646E+04 0.  0.
        5    1    3    3  502    0  0.61328206466E+03 -0.80174108337E+03 -0.11730623972E+04  0.15475791202E+04  0.46999998093E+01 0. -1.
       -5    1    3    3    0  502 -0.61328206466E+03  0.80174108337E+03  0.91982387974E+03  0.13656506564E+04  0.46999998093E+01 0.  1.
</event>
<event>
 5   0  0.1031339E-06  0.2898649E+04  0.7818609E-02  0.8273280E-01
       -2   -1    0    0    0  501  0.00000000000E+00  0.00000000000E+00  0.12054419519E+04  0.12054419519E+04  0.25500000920E-02 0. -1.
        2   -1    0    0  501    0  0.00000000000E+00  0.00000000000E+00 -0.17425487450E+04  0.17425487450E+04  0.25500000920E-02 0.  1.
    10030    2    1    2    0    0  0.00000000000E+00  0.00000000000E+00 -0.53710679312E+03  0.29479906969E+04  0.28986488994E+04 0.  0.
        5    1    3    3  502    0 -0.12362705389E+04 -0.48237319785E+02 -0.10362722912E+04  0.16138692748E+04  0.46999998093E+01 0.  1.
       -5    1    3    3    0  502  0.12362705389E+04  0.48237319785E+02  0.49916549811E+03  0.13341214221E+04  0.46999998093E+01 0. -1.
</event>
<event>
 5   0  0.1063979E-06  0.2902529E+04  0.7818609E-02  0.8272125E-01
        2   -1    0    0  501    0  0.00000000000E+00  0.00000000000E+00  0.28197028196E+04  0.28197028196E+04  0.25500000920E-02 0. -1.
       -2   -1    0    0    0  501  0.00000000000E+00  0.00000000000E+00 -0.74694724130E+03  0.74694724130E+03  0.25500000920E-02 0.  1.
    10030    2    1    2    0    0  0.00000000000E+00  0.00000000000E+00  0.20727555783E+04  0.35666500609E+04  0.29025294089E+04 0.  0.
        1    1    3    3  502    0  0.87156941044E+03 -0.48689066305E+03  0.23306997992E+04  0.25355191400E+04  0.50400001928E-02 0. -1.
       -1    1    3    3    0  502 -0.87156941044E+03  0.48689066305E+03 -0.25794422093E+03  0.10311309209E+04  0.50400001928E-02 0.  1.
</event>
<event>
 5   0  0.3378750E-07  0.2865902E+04  0.7818609E-02  0.8283096E-01
        3   -1    0    0  501    0  0.00000000000E+00  0.00000000000E+00  0.13642038921E+04  0.13642038959E+04  0.10100000352E+00 0.  1.
       -3   -1    0    0    0  501  0.00000000000E+00  0.00000000000E+00 -0.15051624537E+04  0.15051624570E+04  0.10100000352E+00 0. -1.
    10030    2    1    2    0    0  0.00000000000E+00  0.00000000000E+00 -0.14095856152E+03  0.28693663529E+04  0.28659019438E+04 0.  0.
        2    1    3    3  502    0  0.23118872960E+03  0.14140555102E+04 -0.51821488176E+02  0.14337666063E+04  0.25500000920E-02 0. -1.
       -2    1    3    3    0  502 -0.23118872960E+03 -0.14140555102E+04 -0.89137073341E+02  0.14355997466E+04  0.25500000920E-02 0.  1.
</event>
<event>
 5   0  0.3638028E-07  0.2911353E+04  0.7818609E-02  0.8269508E-01
       -1   -1    0    0    0  501  0.00000000000E+00  0.00000000000E+00  0.18262047962E+04  0.18262047962E+04  0.50400001928E-02 0. -1.
        1   -1    0    0  501    0  0.00000000000E+00  0.00000000000E+00 -0.11603266838E+04  0.11603266838E+04  0.50400001928E-02 0.  1.
    10030    2    1    2    0    0  0.00000000000E+00  0.00000000000E+00  0.66587811238E+03  0.29865314800E+04  0.29113530567E+04 0.  0.
        4    1    3    3  502    0 -0.40668518553E+03 -0.12787420216E+04 -0.24591808853E+03  0.13642035468E+04  0.12699999809E+01 0.  1.
       -4    1    3    3    0  502  0.40668518553E+03  0.12787420216E+04  0.91179620090E+03  0.16223279332E+04  0.12699999809E+01 0. -1.
</event>
<event>
 5   0  0.1006893E-06  0.2903946E+04  0.7818609E-02  0.8271705E-01
       -2   -1    0    0    0  501  0.00000000000E+00  0.00000000000E+00  0.16735514357E+04  0.16735514357E+04  0.25500000920E-02 0. -1.
        2   -1    0    0  501    0  0.00000000000E+00  0.00000000000E+00 -0.12597311653E+04  0.12597311653E+04  0.25500000920E-02 0.  1.
    10030    2    1    2    0    0  0.00000000000E+00  0.00000000000E+00  0.41382027031E+03  0.29332826010E+04  0.29039455231E+04 0.  0.
        4    1    3    3  502    0 -0.12015270317E+04 -0.45729092323E+03 -0.47477142595E+03  0.13704713482E+04  0.12699999809E+01 0. -1.
       -4    1    3    3    0  502  0.12015270317E+04  0.45729092323E+03  0.88859169626E+03  0.15628112528E+04  0.12699999809E+01 0.  1.
</event>
<event>
 5   0  0.9950999E-07  0.2897035E+04  0.7818609E-02  0.8273760E-01
        2   -1    0    0  501    0  0.00000000000E+00  0.00000000000E+00  0.20813283026E+04  0.20813283026E+04  0.25500000920E-02 0.  1.
       -2   -1    0    0    0  501  0.00000000000E+00  0.00000000000E+00 -0.10081079611E+04  0.10081079612E+04  0.25500000920E-02 0. -1.
    10030    2    1    2    0    0  0.00000000000E+00  0.00000000000E+00  0.10732203414E+04  0.30894362637E+04  0.28970354721E+04 0.  0.
        3    1    3    3  502    0 -0.22286304003E+03  0.75755968009E+03  0.18316057550E+04  0.19945787163E+04  0.10100000352E+00 0.  1.
       -3    1    3    3    0  502  0.22286304003E+03 -0.75755968009E+03 -0.75838541356E+03  0.10948575475E+04  0.10100000352E+00 0. -1.
</event>
<event>
 5   0  0.1031339E-06  0.2895654E+04  0.7818609E-02  0.8274172E-01
        2   -1    0    0  501    0  0.00000000000E+00  0.00000000000E+00  0.24561508281E+04  0.24561508281E+04  0.25500000920E-02 0.  1.
       -2   -1    0    0    0  501  0.00000000000E+00  0.00000000000E+00 -0.85345072720E+03  0.85345072721E+03  0.25500000920E-02 0. -1.
    10030    2    1    2    0    0  0.00000000000E+00  0.00000000000E+00  0.16027001009E+04  0.33096015553E+04  0.28956544755E+04 0.  0.
        5    1    3    3  502    0  0.59239131418E+03  0.12271830567E+04  0.13604358348E+04  0.19255423845E+04  0.46999998093E+01 0.  1.
       -5    1    3    3    0  502 -0.59239131418E+03 -0.12271830567E+04  0.24226426612E+03  0.13840591709E+04  0.46999998093E+01 0. -1.
</event>
<event>
 5   0  0.1031339E-06  0.2897787E+04  0.7818609E-02  0.8273536E-01
       -2   -1    0    0    0  501  0.00000000000E+00  0.00000000000E+00  0.11886096039E+04  0.11886096039E+04  0.25500000920E-02 0. -1.
        2   -1    0    0  501    0  0.00000000000E+00  0.00000000000E+00 -0.17661742405E+04  0.17661742405E+04  0.25500000920E-02 0.  1.
    10030    2    1    2    0    0  0.00000000000E+00  0.00000000000E+00 -0.57756463655E+03  0.29547838444E+04  0.28977865100E+04 0.  0.
        5    1    3    3  502    0  0.27993194579E+03 -0.12198064977E+03  0.11554194360E+04  0.11950972078E+04  0.46999998093E+01 0. -1.
       -5    1    3    3    0  502 -0.27993194579E+03  0.12198064977E+03 -0.17329840725E+04  0.17596866365E+04  0.46999998093E+01 0.  1.
</event>
<event>
 5   0  0.1031339E-06  0.2910204E+04  0.7818609E-02  0.8269848E-01
       -2   -1    0    0    0  501  0.00000000000E+00  0.00000000000E+00  0.11843727000E+04  0.11843727000E+04  0.25500000920E-02 0.  1.
        2   -1    0    0  501    0  0.00000000000E+00  0.00000000000E+00 -0.17877159640E+04  0.17877159640E+04  0.25500000920E-02 0. -1.
    10030    2    1    2    0    0  0.00000000000E+00  0.00000000000E+00 -0.60334326394E+03  0.29720886640E+04  0.29102041049E+04 0.  0.
        5    1    3    3  502    0 -0.45043533670E+03 -0.10025280640E+04 -0.12755455727E+04  0.16837437779E+04  0.46999998093E+01 0. -1.
       -5    1    3    3    0  502  0.45043533670E+03  0.10025280640E+04  0.67220230871E+03  0.12883448861E+04  0.46999998093E+01 0.  1.
</event>
<event>
 5   0  0.3786210E-07  0.2897942E+04  0.7818609E-02  0.8273490E-01
        1   -1    0    0  501    0  0.00000000000E+00  0.00000000000E+00  0.21081216432E+04  0.21081216432E+04  0.50400001928E-02 0.  1.
       -1   -1    0    0    0  501  0.00000000000E+00  0.00000000000E+00 -0.99591831295E+03  0.99591831296E+03  0.50400001928E-02 0. -1.
    10030    2    1    2    0    0  0.00000000000E+00  0.00000000000E+00  0.11122033302E+04  0.31040399561E+04  0.28979419941E+04 0.  0.
        5    1    3    3  502    0  0.87837411720E+02 -0.83215759895E+03  0.18231464725E+04  0.20060126696E+04  0.46999998093E+01 0.  1.
       -5    1    3    3    0  502 -0.87837411720E+02  0.83215759895E+03 -0.71094314229E+03  0.10980272865E+04  0.46999998093E+01 0. -1.
</event>
<event>
 5   0  0.1063979E-06  0.2902191E+04  0.7818609E-02  0.8272226E-01
       -2   -1    0    0    0  501  0.00000000000E+00  0.00000000000E+00  0.10161267720E+04  0.10161267720E+04  0.25500000920E-02 0.  1.
        2   -1    0    0  501    0  0.00000000000E+00  0.00000000000E+00 -0.20722595992E+04  0.20722595992E+04  0.25500000920E-02 0. -1.
    10030    2    1    2    0    0  0.00000000000E+00  0.00000000000E+00 -0.10561328271E+04  0.30883863712E+04  0.29021912117E+04 0.  0.
        1    1    3    3  502    0 -0.12428207713E+04 -0.30105546857E+03  0.20182457008E+03  0.12945929946E+04  0.50400001928E-02 0.  1.
       -1    1    3    3    0  502  0.12428207713E+04  0.30105546857E+03 -0.12579573972E+04  0.17937933766E+04  0.50400001928E-02 0. -1.
</event>
<event>
 5   0  0.3885904E-07  0.2901214E+04  0.7818609E-02  0.8272516E-01
       -1   -1    0    0    0  501  0.00000000000E+00  0.00000000000E+00  0.97226151954E+03  0.97226151955E+03  0.50400001928E-02 0.  1.
        1   -1    0    0  501    0  0.00000000000E+00  0.00000000000E+00 -0.21642948634E+04  0.21642948634E+04  0.50400001928E-02 0. -1.
    10030    2    1    2    0    0  0.00000000000E+00  0.00000000000E+00 -0.11920333439E+04  0.31365563830E+04  0.29012139615E+04 0.  0.
        2    1    3    3  502    0  0.49875227150E+03  0.13356863474E+04 -0.30703473001E+03  0.14584519781E+04  0.25500000920E-02 0.  1.
       -2    1    3    3    0  502 -0.49875227150E+03 -0.13356863474E+04 -0.88499861386E+03  0.16781044048E+04  0.25500000920E-02 0. -1.
</event>
<event>
 5   0  0.3885904E-07  0.2902529E+04  0.7818609E-02  0.8272126E-01
        1   -1    0    0  501    0  0.00000000000E+00  0.00000000000E+00  0.19242479079E+04  0.19242479079E+04  0.50400001928E-02 0.  1.
       -1   -1    0    0    0  501  0.00000000000E+00  0.00000000000E+00 -0.10945409038E+04  0.10945409038E+04  0.50400001928E-02 0. -1.
    10030    2    1    2    0    0  0.00000000000E+00  0.00000000000E+00  0.82970700412E+03  0.30187888117E+04  0.29025285834E+04 0.  0.
        2    1    3    3  502    0  0.56416392951E+03 -0.12821235420E+04  0.20116969113E+02  0.14009019983E+04  0.25500000920E-02 0. -1.
       -2    1    3    3    0  502 -0.56416392951E+03  0.12821235420E+04  0.80959003501E+03  0.16178868135E+04  0.25500000920E-02 0.  1.
</event>
<event>
 5   0  0.3769563E-07  0.2900619E+04  0.7818609E-02  0.8272693E-01
        1   -1    0    0  501    0  0.00000000000E+00  0.00000000000E+00  0.10573327634E+04  0.10573327634E+04  0.50400001928E-02 0.  1.
       -1   -1    0    0    0  501  0.00000000000E+00  0.00000000000E+00 -0.19893427096E+04  0.19893427096E+04  0.50400001928E-02 0. -1.
    10030    2    1    2    0    0  0.00000000000E+00  0.00000000000E+00 -0.93200994621E+03  0.30466754731E+04  0.29006187096E+04 0.  0.
        3    1    3    3  502    0 -0.70135308583E+03 -0.24826146285E+03  0.84161881144E+03  0.11233219213E+04  0.10100000352E+00 0.  1.
       -3    1    3    3    0  502  0.70135308583E+03  0.24826146285E+03 -0.17736287576E+04  0.19233535518E+04  0.10100000352E+00 0. -1.
</event>
<event>
 5   0  0.1063979E-06  0.2899876E+04  0.7818609E-02  0.8272914E-01
        2   -1    0    0  501    0  0.00000000000E+00  0.00000000000E+00  0.20753465575E+04  0.20753465575E+04  0.25500000920E-02 0. -1.
       -2   -1    0    0    0  501  0.00000000000E+00  0.00000000000E+00 -0.10129970152E+04  0.10129970152E+04  0.25500000920E-02 0.  1.
    10030    2    1    2    0    0  0.00000000000E+00  0.00000000000E+00  0.10623495423E+04  0.30883435727E+04  0.28998757685E+04 0.  0.
        1    1    3    3  502    0 -0.59653915344E+03  0.93636274969E+03 -0.46200389526E+03  0.12025313966E+04  0.50400001928E-02 0.  1.
       -1    1    3    3    0  502  0.59653915344E+03 -0.93636274969E+03  0.15243534376E+04  0.18858121761E+04  0.50400001928E-02 0. -1.
</event>
<event>
 5   0  0.3638028E-07  0.2901702E+04  0.7818609E-02  0.8272371E-01
       -1   -1    0    0    0  501  0.00000000000E+00  0.00000000000E+00  0.18003257247E+04  0.18003257247E+04  0.50400001928E-02 0. -1.
        1   -1    0    0  501    0  0.00000000000E+00  0.00000000000E+00 -0.11692152134E+04  0.11692152134E+04  0.50400001928E-02 0.  1.
    10030    2    1    2    0    0  0.00000000000E+00  0.00000000000E+00  0.63111051136E+03  0.29695409381E+04  0.29017017258E+04 0.  0.
        4    1    3    3  502    0  0.73761475985E+03 -0.21248404288E+03  0.15754931423E+04  0.17525425121E+04  0.12699999809E+01 0. -1.
       -4    1    3    3    0  502 -0.73761475985E+03  0.21248404288E+03 -0.94438263091E+03  0.12169984260E+04  0.12699999809E+01 0.  1.
</event>
<event>
 5   0  0.3638028E-07  0.2896702E+04  0.7818609E-02  0.8273859E-01
       -1   -1    0    0    0  501  0.00000000000E+00  0.00000000000E+00  0.92206243630E+03  0.92206243631E+03  0.50400001928E-02 0. -1.
        1   -1    0    0  501    0  0.00000000000E+00  0.00000000000E+00 -0.22750308651E+04  0.22750308651E+04  0.50400001928E-02 0.  1.
    10030    2    1    2    0    0  0.00000000000E+00  0.00000000000E+00 -0.13529684288E+04  0.31970933014E+04  0.28967019192E+04 0.  0.
        4    1    3    3  502    0 -0.13006292430E+04  0.45843762742E+03 -0.11650105846E+04  0.18052846759E+04  0.12699999809E+01 0.  1.
       -4    1    3    3    0  502  0.13006292430E+04 -0.45843762742E+03 -0.18795784418E+03  0.13918086255E+04  0.12699999809E+01 0. -1.
</event>
<event>
 5   0  0.3786210E-07  0.2900116E+04  0.7818609E-02  0.8272843E-01
       -1   -1    0    0    0  501  0.00000000000E+00  0.00000000000E+00  0.18926183094E+04  0.18926183094E+04  0.50400001928E-02 0. -1.
        1   -1    0    0  501    0  0.00000000000E+00  0.00000000000E+00 -0.11109839179E+04  0.11109839179E+04  0.50400001928E-02 0.  1.
    10030    2    1    2    0    0  0.00000000000E+00  0.00000000000E+00  0.78163439149E+03  0.30036022273E+04  0.29001162076E+04 0.  0.
        5    1    3    3  502    0 -0.28341487555E+03 -0.67307995630E+03  0.16882295800E+04  0.18394297551E+04  0.46999998093E+01 0. -1.
       -5    1    3    3    0  502  0.28341487555E+03  0.67307995630E+03 -0.90659518847E+03  0.11641724722E+04  0.46999998093E+01 0.  1.
</event>
<event>
 5   0  0.9994311E-07  0.2865005E+04  0.7818609E-02  0.8283366E-01
        2   -1    0    0  501    0  0.00000000000E+00  0.00000000000E+00  0.12687164875E+04  0.12687164875E+04  0.25500000920E-02 0. -1.
       -2   -1    0    0    0  501  0.00000000000E+00  0.00000000000E+00 -0.16174328993E+04  0.16174328993E+04  0.25500000920E-02 0.  1.
    10030    2    1    2    0    0  0.00000000000E+00  0.00000000000E+00 -0.34871641183E+03  0.28861493868E+04  0.28650052613E+04 0.  0.
        2    1    3    3  502    0 -0.99655698271E+03  0.94471958524E+03  0.23662680535E+03  0.13934177979E+04  0.25500000920E-02 0.  1.
       -2    1    3    3    0  502  0.99655698271E+03 -0.94471958524E+03 -0.58534321717E+03  0.14927315889E+04  0.25500000920E-02 0. -1.
</event>
<event>
 5   0  0.1006893E-06  0.2895899E+04  0.7818609E-02  0.8274099E-01
        2   -1    0    0  501    0  0.00000000000E+00  0.00000000000E+00  0.20982067024E+04  0.20982067024E+04  0.25500000920E-02 0. -1.
       -2   -1    0    0    0  501  0.00000000000E+00  0.00000000000E+00 -0.99921398299E+03  0.99921398300E+03  0.25500000920E-02 0.  1.
    10030    2    1    2    0    0  0.00000000000E+00  0.00000000000E+00  0.10989927194E+04  0.30974206854E+04  0.28958988078E+04 0.  0.
        4    1    3    3  502    0  0.98674036872E+03  0.59615415639E+03  0.14865314858E+04  0.18811788338E+04  0.12699999809E+01 0. -1.
       -4    1    3    3    0  502 -0.98674036872E+03 -0.59615415639E+03 -0.38753876634E+03  0.12162418517E+04  0.12699999809E+01 0.  1.
</event>
<event>
 5   0  0.1031339E-06  0.2901760E+04  0.7818609E-02  0.8272354E-01
        2   -1    0    0  501    0  0.00000000000E+00  0.00000000000E+00  0.16625187464E+04  0.16625187464E+04  0.25500000920E-02 0.  1.
       -2   -1    0    0    0  501  0.00000000000E+00  0.00000000000E+00 -0.12661827325E+04  0.12661827325E+04  0.25500000920E-02 0. -1.
    10030    2    1    2    0    0  0.00000000000E+00  0.00000000000E+00  0.39633601392E+03  0.29287014788E+04  0.29017598309E+04 0.  0.
        5    1    3    3  502    0 -0.59529895009E+03  0.86094486834E+03 -0.81586094446E+03  0.13271239870E+04  0.46999998093E+01 0. -1.
       -5    1    3    3    0  502  0.59529895009E+03 -0.86094486834E+03  0.12121969584E+04  0.16015774918E+04  0.46999998093E+01 0.  1.
</event>
<event>
 5   0  0.9950999E-07  0.2897963E+04  0.7818609E-02  0.8273484E-01
       -2   -1    0    0    0  501  0.00000000000E+00  0.00000000000E+00  0.11609157383E+04  0.11609157383E+04  0.25500000920E-02 0.  1.
        2   -1    0    0  501    0  0.00000000000E+00  0.00000000000E+00 -0.18085267520E+04  0.18085267520E+04  0.25500000920E-02 0. -1.
    10030    2    1    2    0    0  0.00000000000E+00  0.00000000000E+00 -0.64761101373E+03  0.29694424903E+04  0.28979628497E+04 0.  0.
        3    1    3    3  502    0 -0.13794833035E+03  0.20585981369E+03  0.11390418826E+04  0.11656862465E+04  0.10100000352E+00 0.  1.
       -3    1    3    3    0  502  0.13794833035E+03 -0.20585981369E+03 -0.17866528964E+04  0.18037562438E+04  0.10100000352E+00 0. -1.
</event>
<event>
 5   0  0.1031339E-06  0.2898739E+04  0.7818609E-02  0.8273253E-01
       -2   -1    0    0    0  501  0.00000000000E+00  0.00000000000E+00  0.18244653282E+04  0.18244653282E+04  0.25500000920E-02 0. -1.
        2   -1    0    0  501    0  0.00000000000E+00  0.00000000000E+00 -0.11513901062E+04  0.11513901062E+04  0.25500000920E-02 0.  1.
    10030    2    1    2    0    0  0.00000000000E+00  0.00000000000E+00  0.67307522206E+03  0.29758554344E+04  0.28987385725E+04 0.  0.
        5    1    3    3  502    0 -0.18466242196E+03  0.50816927257E+03 -0.10439724765E+04  0.11756856899E+04  0.46999998093E+01 0.  1.
       -5    1    3    3    0  502  0.18466242196E+03 -0.50816927257E+03  0.17170476986E+04  0.18001697445E+04  0.46999998093E+01 0. -1.
</event>
<event>
 5   0  0.9994311E-07  0.2896813E+04  0.7818609E-02  0.8273826E-01
        2   -1    0    0  501    0  0.00000000000E+00  0.00000000000E+00  0.16892219741E+04  0.16892219741E+04  0.25500000920E-02 0. -1.
       -2   -1    0    0    0  501  0.00000000000E+00  0.00000000000E+00 -0.12419216288E+04  0.12419216288E+04  0.25500000920E-02 0.  1.
    10030    2    1    2    0    0  0.00000000000E+00  0.00000000000E+00  0.44730034527E+03  0.29311436029E+04  0.28968129422E+04 0.  0.
        2    1    3    3  502    0 -0.31394459335E+03 -0.11809836843E+04  0.10104239304E+04  0.15856355790E+04  0.25500000920E-02 0. -1.
       -2    1    3    3    0  502  0.31394459335E+03  0.11809836843E+04 -0.56312358515E+03  0.13455080239E+04  0.25500000920E-02 0.  1.
</event>
<event>
 5   0  0.3770467E-07  0.2902661E+04  0.7818609E-02  0.8272086E-01
        1   -1    0    0  501    0  0.00000000000E+00  0.00000000000E+00  0.16057281026E+04  0.16057281026E+04  0.50400001928E-02 0. -1.
       -1   -1    0    0    0  501  0.00000000000E+00  0.00000000000E+00 -0.13117787517E+04  0.13117787517E+04  0.50400001928E-02 0.  1.
    10030    2    1    2    0    0  0.00000000000E+00  0.00000000000E+00  0.29394935084E+03  0.29175068543E+04  0.29026608524E+04 0.  0.
        1    1    3    3  502    0  0.50975471525E+03  0.11438425399E+04 -0.59035371894E+03  0.13844649289E+04  0.50400001928E-02 0. -1.
       -1    1    3    3    0  502 -0.50975471525E+03 -0.11438425399E+04  0.88430306979E+03  0.15330419254E+04  0.50400001928E-02 0.  1.
</event>
<event>
 5   0  0.3638028E-07  0.2895510E+04  0.7818609E-02  0.8274215E-01
        1   -1    0    0  501    0  0.00000000000E+00  0.00000000000E+00  0.14725683716E+04  0.14725683716E+04  0.50400001928E-02 0.  1.
       -1   -1    0    0    0  501  0.00000000000E+00  0.00000000000E+00 -0.14233600450E+04  0.14233600451E+04  0.50400001928E-02 0. -1.
    10030    2    1    2    0    0  0.00000000000E+00  0.00000000000E+00  0.49208326537E+02  0.28959284166E+04  0.28955103065E+04 0.  0.
        4    1    3    3  502    0 -0.79867933900E+02 -0.31736487297E+03  0.14350893469E+04  0.14719315188E+04  0.12699999809E+01 0.  1.
       -4    1    3    3    0  502  0.79867933900E+02  0.31736487297E+03 -0.13858810204E+04  0.14239968978E+04  0.12699999809E+01 0. -1.
</event>
<event>
 5   0  0.1006893E-06  0.2895768E+04  0.7818609E-02  0.8274138E-01
       -2   -1    0    0    0  501  0.00000000000E+00  0.00000000000E+00  0.82878957673E+03  0.82878957674E+03  0.25500000920E-02 0. -1.
        2   -1    0    0  501    0  0.00000000000E+00  0.00000000000E+00 -0.25294340207E+04  0.25294340207E+04  0.25500000920E-02 0.  1.
    10030    2    1    2    0    0  0.00000000000E+00  0.00000000000E+00 -0.17006444440E+04  0.33582235975E+04  0.28957683273E+04 0.  0.
        4    1    3    3  502    0 -0.12898307074E+04  0.55936323409E+03 -0.44889757664E+03  0.14758255752E+04  0.12699999809E+01 0. -1.
       -4    1    3    3    0  502  0.12898307074E+04 -0.55936323409E+03 -0.12517468674E+04  0.18823980222E+04  0.12699999809E+01 0.  1.
</event>
<event>
 5   0  0.1006893E-06  0.2903243E+04  0.7818609E-02  0.8271913E-01
       -2   -1    0    0    0  501  0.00000000000E+00  0.00000000000E+00  0.10208599068E+04  0.10208599068E+04  0.25500000920E-02 0. -1.
        2   -1    0    0  501    0  0.00000000000E+00  0.00000000000E+00 -0.20641466362E+04  0.20641466362E+04  0.25500000920E-02 0.  1.
    10030    2    1    2    0    0  0.00000000000E+00  0.00000000000E+00 -0.10432867294E+04  0.30850065430E+04  0.29032426992E+04 0.  0.
        4    1    3    3  502    0  0.21673084675E+03 -0.11611751788E+04 -0.14182111290E+04  0.18457043304E+04  0.12699999809E+01 0.  1.
       -4    1    3    3    0  502 -0.21673084675E+03  0.11611751788E+04  0.37492439957E+03  0.12393022126E+04  0.12699999809E+01 0. -1.
</event>
<event>
 5   0  0.3885904E-07  0.2900897E+04  0.7818609E-02  0.8272611E-01
       -1   -1    0    0    0  501  0.00000000000E+00  0.00000000000E+00  0.16734582568E+04  0.16734582568E+04  0.50400001928E-02 0. -1.
        1   -1    0    0  501    0  0.00000000000E+00  0.00000000000E+00 -0.12571574677E+04  0.12571574677E+04  0.50400001928E-02 0.  1.
    10030    2    1    2    0    0  0.00000000000E+00  0.00000000000E+00  0.41630078910E+03  0.29306157246E+04  0.29008967886E+04 0.  0.
        2    1    3    3  502    0 -0.24701198879E+03 -0.43323805831E+03 -0.11678201532E+04  0.12698480413E+04  0.25500000920E-02 0.  1.
       -2    1    3    3    0  502  0.24701198879E+03  0.43323805831E+03  0.15841209423E+04  0.16607676833E+04  0.25500000920E-02 0. -1.
</event>
<event>
 5   0  0.3885904E-07  0.2896946E+04  0.7818609E-02  0.8273787E-01
       -1   -1    0    0    0  501  0.00000000000E+00  0.00000000000E+00  0.16790134523E+04  0.16790134524E+04  0.50400001928E-02 0. -1.
        1   -1    0    0  501    0  0.00000000000E+00  0.00000000000E+00 -0.12495871712E+04  0.12495871713E+04  0.50400001928E-02 0.  1.
    10030    2    1    2    0    0  0.00000000000E+00  0.00000000000E+00  0.42942628110E+03  0.29286006236E+04  0.28969457506E+04 0.  0.
        2    1    3    3  502    0  0.10152632406E+03 -0.13657422977E+04  0.69158150184E+03  0.15342244269E+04  0.25500000920E-02 0. -1.
       -2    1    3    3    0  502 -0.10152632406E+03  0.13657422977E+04 -0.26215522074E+03  0.13943761967E+04  0.25500000920E-02 0.  1.
</event>
<event>
 5   0  0.9994311E-07  0.2896987E+04  0.7818609E-02  0.8273775E-01
        2   -1    0    0  501    0  0.00000000000E+00  0.00000000000E+00  0.99812586089E+03  0.99812586089E+03  0.25500000920E-02 0.  1.
       -2   -1    0    0    0  501  0.00000000000E+00  0.00000000000E+00 -0.21020724539E+04  0.21020724539E+04  0.25500000920E-02 0. -1.
    10030    2    1    2    0    0  0.00000000000E+00  0.00000000000E+00 -0.11039465930E+04  0.31001983148E+04  0.28969866259E+04 0.  0.
        2    1    3    3  502    0  0.71075596672E+03  0.43424028044E+03 -0.18201725730E+04  0.20016910004E+04  0.25500000920E-02 0. -1.
       -2    1    3    3    0  502 -0.71075596672E+03 -0.43424028044E+03  0.71622598001E+03  0.10985073144E+04  0.25500000920E-02 0.  1.
</event>
<event>
 5   0  0.9950999E-07  0.2898841E+04  0.7818609E-02  0.8273222E-01
       -2   -1    0    0    0  501  0.00000000000E+00  0.00000000000E+00  0.12513798587E+04  0.12513798587E+04  0.25500000920E-02 0. -1.
        2   -1    0    0  501    0  0.00000000000E+00  0.00000000000E+00 -0.16788029250E+04  0.16788029250E+04  0.25500000920E-02 0.  1.
    10030    2    1    2    0    0  0.00000000000E+00  0.00000000000E+00 -0.42742306624E+03  0.29301827837E+04  0.28988412631E+04 0.  0.
        3    1    3    3  502    0 -0.11346225742E+03  0.14268244887E+04  0.17051167615E+02  0.14314302491E+04  0.10100000352E+00 0. -1.
       -3    1    3    3    0  502  0.11346225742E+03 -0.14268244887E+04 -0.44447423385E+03  0.14987525347E+04  0.10100000352E+00 0.  1.
</event>
<event>
 5   0  0.9994311E-07  0.2913282E+04  0.7818609E-02  0.8268937E-01
        2   -1    0    0  501    0  0.00000000000E+00  0.00000000000E+00  0.13813609317E+04  0.13813609317E+04  0.25500000920E-02 0.  1.
       -2   -1    0    0    0  501  0.00000000000E+00  0.00000000000E+00 -0.15360237992E+04  0.15360237992E+04  0.25500000920E-02 0. -1.
    10030    2    1    2    0    0  0.00000000000E+00  0.00000000000E+00 -0.15466286752E+03  0.29173847310E+04  0.29132821809E+04 0.  0.
        2    1    3    3  502    0  0.10783414224E+02  0.25229661367E+03 -0.15139363979E+04  0.15348528529E+04  0.25500000920E-02 0. -1.
       -2    1    3    3    0  502 -0.10783414224E+02 -0.25229661367E+03  0.13592735304E+04  0.13825318780E+04  0.25500000920E-02 0.  1.
</event>
<event>
 5   0  0.1063979E-06  0.2903741E+04  0.7818609E-02  0.8271765E-01
       -2   -1    0    0    0  501  0.00000000000E+00  0.00000000000E+00  0.10293531557E+04  0.10293531557E+04  0.25500000920E-02 0. -1.
        2   -1    0    0  501    0  0.00000000000E+00  0.00000000000E+00 -0.20478180941E+04  0.20478180941E+04  0.25500000920E-02 0.  1.
    10030    2    1    2    0    0  0.00000000000E+00  0.00000000000E+00 -0.10184649384E+04  0.30771712499E+04  0.29037410474E+04 0.  0.
        1    1    3    3  502    0 -0.93561810704E+03  0.97534540550E+03 -0.10712354160E+04  0.17245942186E+04  0.50400001928E-02 0.  1.
       -1    1    3    3    0  502  0.93561810704E+03 -0.97534540550E+03  0.52770477585E+02  0.13525770313E+04  0.50400001928E-02 0. -1.
</event>
<event>
 5   0  0.3786210E-07  0.2897899E+04  0.7818609E-02  0.8273503E-01
       -1   -1    0    0    0  501  0.00000000000E+00  0.00000000000E+00  0.10168470632E+04  0.10168470632E+04  0.50400001928E-02 0. -1.
        1   -1    0    0  501    0  0.00000000000E+00  0.00000000000E+00 -0.20646714255E+04  0.20646714255E+04  0.50400001928E-02 0.  1.
    10030    2    1    2    0    0  0.00000000000E+00  0.00000000000E+00 -0.10478243623E+04  0.30815184887E+04  0.28978992912E+04 0.  0.
        5    1    3    3  502    0  0.39858365584E+03 -0.82472639714E+02 -0.20026222693E+04  0.20435725362E+04  0.46999998093E+01 0.  1.
       -5    1    3    3    0  502 -0.39858365584E+03  0.82472639714E+02  0.95479790707E+03  0.10379459525E+04  0.46999998093E+01 0. -1.
</event>
<event>
 5   0  0.1031339E-06  0.2901164E+04  0.7818609E-02  0.8272531E-01
       -2   -1    0    0    0  501  0.00000000000E+00  0.00000000000E+00  0.16813264175E+04  0.16813264175E+04  0.25500000920E-02 0.  1.
        2   -1    0    0  501    0  0.00000000000E+00  0.00000000000E+00 -0.12515051697E+04  0.12515051697E+04  0.25500000920E-02 0. -1.
    10030    2    1    2    0    0  0.00000000000E+00  0.00000000000E+00  0.42982124786E+03  0.29328315872E+04  0.29011643893E+04 0.  0.
        5    1    3    3  502    0 -0.51493443813E+03 -0.41050593505E+03  0.15214943635E+04  0.16579022246E+04  0.46999998093E+01 0.  1.
       -5    1    3    3    0  502  0.51493443813E+03  0.41050593505E+03 -0.10916731156E+04  0.12749293626E+04  0.46999998093E+01 0. -1.
</event>
<event>
 5   0  0.1006893E-06  0.2928323E+04  0.7818609E-02  0.8264500E-01
       -2   -1    0    0    0  501  0.00000000000E+00  0.00000000000E+00  0.11063467331E+04  0.11063467331E+04  0.25500000920E-02 0. -1.
        2   -1    0    0  501    0  0.00000000000E+00  0.00000000000E+00 -0.19377007228E+04  0.19377007228E+04  0.25500000920E-02 0.  1.
    10030    2    1    2    0    0  0.00000000000E+00  0.00000000000E+00 -0.83135398974E+03  0.30440474559E+04  0.29283229769E+04 0.  0.
        4    1    3    3  502    0  0.10602658987E+02  0.65332445200E+03  0.94637936331E+03  0.11500351161E+04  0.12699999809E+01 0. -1.
       -4    1    3    3    0  502 -0.10602658987E+02 -0.65332445200E+03 -0.17777333530E+04  0.18940123398E+04  0.12699999809E+01 0.  1.
</event>
<event>
 5   0  0.9994311E-07  0.2906299E+04  0.7818609E-02  0.8271006E-01
        2   -1    0    0  501    0  0.00000000000E+00  0.00000000000E+00  0.22542383355E+04  0.22542383355E+04  0.25500000920E-02 0. -1.
       -2   -1    0    0    0  501  0.00000000000E+00  0.00000000000E+00 -0.93674375473E+03  0.93674375474E+03  0.25500000920E-02 0.  1.
    10030    2    1    2    0    0  0.00000000000E+00  0.00000000000E+00  0.13174945807E+04  0.31909820902E+04  0.29062991466E+04 0.  0.
        2    1    3    3  502    0 -0.54258722357E+03  0.34412848735E+03  0.20898062490E+04  0.21863475179E+04  0.25500000920E-02 0. -1.
       -2    1    3    3    0  502  0.54258722357E+03 -0.34412848735E+03 -0.77231166821E+03  0.10046345723E+04  0.25500000920E-02 0.  1.
</event>
<event>
 5   0  0.3769563E-07  0.2899131E+04  0.7818609E-02  0.8273136E-01
       -1   -1    0    0    0  501  0.00000000000E+00  0.00000000000E+00  0.14274618239E+04  0.14274618239E+04  0.50400001928E-02 0.  1.
        1   -1    0    0  501    0  0.00000000000E+00  0.00000000000E+00 -0.14720117331E+04  0.14720117331E+04  0.50400001928E-02 0. -1.
    10030    2    1    2    0    0  0.00000000000E+00  0.00000000000E+00 -0.44549909235E+02  0.28994735570E+04  0.28991312860E+04 0.  0.
        3    1    3    3  502    0  0.99492321045E+02 -0.12853372556E+04 -0.68511255339E+03  0.14599211635E+04  0.10100000352E+00 0. -1.
       -3    1    3    3    0  502 -0.99492321045E+02  0.12853372556E+04  0.64056264415E+03  0.14395523936E+04  0.10100000352E+00 0.  1.
</event>
<event>
 5   0  0.3786210E-07  0.2907279E+04  0.7818609E-02  0.8270715E-01
       -1   -1    0    0    0  501  0.00000000000E+00  0.00000000000E+00  0.16511600244E+04  0.16511600245E+04  0.50400001928E-02 0. -1.
        1   -1    0    0  501    0  0.00000000000E+00  0.00000000000E+00 -0.12797470624E+04  0.12797470624E+04  0.50400001928E-02 0.  1.
    10030    2    1    2    0    0  0.00000000000E+00  0.00000000000E+00  0.37141296208E+03  0.29309070868E+04  0.29072785837E+04 0.  0.
        5    1    3    3  502    0  0.11597293507E+04 -0.51668601270E+03  0.89934993409E+03  0.15558884910E+04  0.46999998093E+01 0. -1.
       -5    1    3    3    0  502 -0.11597293507E+04  0.51668601270E+03 -0.52793697201E+03  0.13750185958E+04  0.46999998093E+01 0.  1.
</event>
<event>
 5   0  0.1063979E-06  0.2898472E+04  0.7818609E-02  0.8273332E-01
       -2   -1    0    0    0  501  0.00000000000E+00  0.00000000000E+00  0.91625624190E+03  0.91625624191E+03  0.25500000920E-02 0. -1.
        2   -1    0    0  501    0  0.00000000000E+00  0.00000000000E+00 -0.22922465453E+04  0.22922465453E+04  0.25500000920E-02 0.  1.
    10030    2    1    2    0    0  0.00000000000E+00  0.00000000000E+00 -0.13759903034E+04  0.32085027873E+04  0.28984721528E+04 0.  0.
        1    1    3    3  502    0  0.64973151124E+03  0.13454355236E+03 -0.21142316460E+04  0.22159035307E+04  0.50400001928E-02 0.  1.
       -1    1    3    3    0  502 -0.64973151124E+03 -0.13454355236E+03  0.73824134260E+03  0.99259925656E+03  0.50400001928E-02 0. -1.
</event>
<event>
 5   0  0.1031339E-06  0.2902677E+04  0.7818609E-02  0.8272082E-01
       -2   -1    0    0    0  501  0.00000000000E+00  0.00000000000E+00  0.14724448297E+04  0.14724448297E+04  0.25500000920E-02 0. -1.
        2   -1    0    0  501    0  0.00000000000E+00  0.00000000000E+00 -0.14305342525E+04  0.14305342525E+04  0.25500000920E-02 0.  1.
    10030    2    1    2    0    0  0.00000000000E+00  0.00000000000E+00  0.41910577221E+02  0.29029790822E+04  0.29026765330E+04 0.  0.
        5    1    3    3  502    0 -0.67411128988E+03  0.55242876076E+03 -0.11396643173E+04  0.14347335686E+04  0.46999998093E+01 0.  1.
       -5    1    3    3    0  502  0.67411128988E+03 -0.55242876076E+03  0.11815748945E+04  0.14682455136E+04  0.46999998093E+01 0. -1.
</event>
<event>
 5   0  0.1031339E-06  0.2900939E+04  0.7818609E-02  0.8272598E-01
       -2   -1    0    0    0  501  0.00000000000E+00  0.00000000000E+00  0.15848616711E+04  0.15848616711E+04  0.25500000920E-02 0. -1.
        2   -1    0    0  501    0  0.00000000000E+00  0.00000000000E+00 -0.13274733094E+04  0.13274733094E+04  0.25500000920E-02 0.  1.
    10030    2    1    2    0    0  0.00000000000E+00  0.00000000000E+00  0.25738836170E+03  0.29123349804E+04  0.29009388600E+04 0.  0.
        5    1    3    3  502    0 -0.20342072124E+03 -0.39112732202E+03 -0.12585732276E+04  0.13335626086E+04  0.46999998093E+01 0.  1.
       -5    1    3    3    0  502  0.20342072124E+03  0.39112732202E+03  0.15159615893E+04  0.15787723718E+04  0.46999998093E+01 0. -1.
</event>
<event>
 5   0  0.3638028E-07  0.2899617E+04  0.7818609E-02  0.8272991E-01
        1   -1    0    0  501    0  0.00000000000E+00  0.00000000000E+00  0.13691116381E+04  0.13691116382E+04  0.50400001928E-02 0. -1.
       -1   -1    0    0    0  501  0.00000000000E+00  0.00000000000E+00 -0.15352619880E+04  0.15352619880E+04  0.50400001928E-02 0.  1.
    10030    2    1    2    0    0  0.00000000000E+00  0.00000000000E+00 -0.16615034982E+03  0.29043736261E+04  0.28996172543E+04 0.  0.
        4    1    3    3  502    0  0.80420012006E+03  0.87809850139E+03  0.74541438521E+03  0.14047914542E+04  0.12699999809E+01 0. -1.
       -4    1    3    3    0  502 -0.80420012006E+03 -0.87809850139E+03 -0.91156473503E+03  0.14995821719E+04  0.12699999809E+01 0.  1.
</event>
<event>
 5   0  0.3638028E-07  0.2899819E+04  0.7818609E-02  0.8272931E-01
        1   -1    0    0  501    0  0.00000000000E+00  0.00000000000E+00  0.20553635274E+04  0.20553635274E+04  0.50400001928E-02 0.  1.
       -1   -1    0    0    0  501  0.00000000000E+00  0.00000000000E+00 -0.10228060166E+04  0.10228060166E+04  0.50400001928E-02 0. -1.
    10030    2    1    2    0    0  0.00000000000E+00  0.00000000000E+00  0.10325575108E+04  0.30781695440E+04  0.28998194304E+04 0.  0.
        4    1    3    3  502    0 -0.15557469835E+03  0.10319330661E+04 -0.55218024536E+03  0.11806752204E+04  0.12699999809E+01 0. -1.
       -4    1    3    3    0  502  0.15557469835E+03 -0.10319330661E+04  0.15847377562E+04  0.18974943237E+04  0.12699999809E+01 0.  1.
</event>
<event>
 5   0  0.3885904E-07  0.2901284E+04  0.7818609E-02  0.8272496E-01
       -1   -1    0    0    0  501  0.00000000000E+00  0.00000000000E+00  0.13144735204E+04  0.13144735204E+04  0.50400001928E-02 0.  1.
        1   -1    0    0  501    0  0.00000000000E+00  0.00000000000E+00 -0.16009163945E+04  0.16009163945E+04  0.50400001928E-02 0. -1.
    10030    2    1    2    0    0  0.00000000000E+00  0.00000000000E+00 -0.28644287414E+03  0.29153899150E+04  0.29012839978E+04 0.  0.
        2    1    3    3  502    0  0.66047875034E+03 -0.56105135635E+03 -0.13122138528E+04  0.15725507940E+04  0.25500000920E-02 0. -1.
       -2    1    3    3    0  502 -0.66047875034E+03  0.56105135635E+03  0.10257709787E+04  0.13428391210E+04  0.25500000920E-02 0.  1.
</event>
<event>
 5   0  0.1063979E-06  0.2898271E+04  0.7818609E-02  0.8273392E-01
       -2   -1    0    0    0  501  0.00000000000E+00  0.00000000000E+00  0.10617035894E+04  0.10617035894E+04  0.25500000920E-02 0.  1.
        2   -1    0    0  501    0  0.00000000000E+00  0.00000000000E+00 -0.19779468505E+04  0.19779468505E+04  0.25500000920E-02 0. -1.
    10030    2    1    2    0    0  0.00000000000E+00  0.00000000000E+00 -0.91624326114E+03  0.30396504399E+04  0.28982707056E+04 0.  0.
        1    1    3    3  502    0 -0.59095575167E+03 -0.49525930773E+03  0.82871256406E+03  0.11319341837E+04  0.50400001928E-02 0.  1.
       -1    1    3    3    0  502  0.59095575167E+03  0.49525930773E+03 -0.17449558252E+04  0.19077162562E+04  0.50400001928E-02 0. -1.
</event>
<event>
 5   0  0.1031339E-06  0.2885276E+04  0.7818609E-02  0.8277272E-01
        2   -1    0    0  501    0  0.00000000000E+00  0.00000000000E+00  0.87209186187E+03  0.87209186188E+03  0.25500000920E-02 0.  1.
       -2   -1    0    0    0  501  0.00000000000E+00  0.00000000000E+00 -0.23864508435E+04  0.23864508435E+04  0.25500000920E-02 0. -1.
    10030    2    1    2    0    0  0.00000000000E+00  0.00000000000E+00 -0.15143589816E+04  0.32585427053E+04  0.28852759725E+04 0.  0.
        5    1    3    3  502    0  0.10307559676E+04 -0.94883979617E+03 -0.11458326832E+04  0.18098921104E+04  0.46999998093E+01 0.  1.
       -5    1    3    3    0  502 -0.10307559676E+04  0.94883979617E+03 -0.36852629840E+03  0.14486505949E+04  0.46999998093E+01 0. -1.
</event>
<event>
 5   0  0.9950999E-07  0.2910283E+04  0.7818609E-02  0.8269825E-01
        2   -1    0    0  501    0  0.00000000000E+00  0.00000000000E+00  0.16458743001E+04  0.16458743001E+04  0.25500000920E-02 0. -1.
       -2   -1    0    0    0  501  0.00000000000E+00  0.00000000000E+00 -0.12865114429E+04  0.12865114429E+04  0.25500000920E-02 0.  1.
    10030    2    1    2    0    0  0.00000000000E+00  0.00000000000E+00  0.35936285725E+03  0.29323857430E+04  0.29102825434E+04 0.  0.
        3    1    3    3  502    0 -0.69414865576E+02 -0.88776795418E+03  0.13392851209E+04  0.16083019024E+04  0.10100000352E+00 0. -1.
       -3    1    3    3    0  502  0.69414865576E+02  0.88776795418E+03 -0.97992226361E+03  0.13240838406E+04  0.10100000352E+00 0.  1.
</event>
<event>
 5   0  0.3638028E-07  0.2906569E+04  0.7818609E-02  0.8270926E-01
       -1   -1    0    0    0  501  0.00000000000E+00  0.00000000000E+00  0.12298147999E+04  0.12298147999E+04  0.50400001928E-02 0.  1.
        1   -1    0    0  501    0  0.00000000000E+00  0.00000000000E+00 -0.17173604720E+04  0.17173604720E+04  0.50400001928E-02 0. -1.
    10030    2    1    2    0    0  0.00000000000E+00  0.00000000000E+00 -0.48754567211E+03  0.29471752719E+04  0.29065686472E+04 0.  0.
        4    1    3    3  502    0  0.67379434272E+03  0.69232818727E+03  0.85708205351E+03  0.12914752783E+04  0.12699999809E+01 0.  1.
       -4    1    3    3    0  502 -0.67379434272E+03 -0.69232818727E+03 -0.13446277256E+04  0.16556999935E+04  0.12699999809E+01 0. -1.
</event>
<event>
 5   0  0.1063979E-06  0.2902833E+04  0.7818609E-02  0.8272035E-01
        2   -1    0    0  501    0  0.00000000000E+00  0.00000000000E+00  0.22943757531E+04  0.22943757532E+04  0.25500000920E-02 0.  1.
       -2   -1    0    0    0  501  0.00000000000E+00  0.00000000000E+00 -0.91816259580E+03  0.91816259581E+03  0.25500000920E-02 0. -1.
    10030    2    1    2    0    0  0.00000000000E+00  0.00000000000E+00  0.13762131573E+04  0.32125383490E+04  0.29028330970E+04 0.  0.
        1    1    3    3  502    0  0.94507012116E+03 -0.73617690513E+03 -0.21876956717E+03  0.12177742373E+04  0.50400001928E-02 0. -1.
       -1    1    3    3    0  502 -0.94507012116E+03  0.73617690513E+03  0.15949827245E+04  0.19947641116E+04  0.50400001928E-02 0.  1.
</event>
<event>
 5   0  0.3638028E-07  0.2909711E+04  0.7818609E-02  0.8269994E-01
        1   -1    0    0  501    0  0.00000000000E+00  0.00000000000E+00  0.26604568069E+04  0.26604568069E+04  0.50400001928E-02 0.  1.
       -1   -1    0    0    0  501  0.00000000000E+00  0.00000000000E+00 -0.79557937980E+03  0.79557937982E+03  0.50400001928E-02 0. -1.
    10030    2    1    2    0    0  0.00000000000E+00  0.00000000000E+00  0.18648774270E+04  0.34560361867E+04  0.29097110347E+04 0.  0.
        4    1    3    3  502    0 -0.44003366994E+03 -0.48090704694E+02  0.25785293167E+04  0.26162487260E+04  0.12699999809E+01 0.  1.
       -4    1    3    3    0  502  0.44003366994E+03  0.48090704694E+02 -0.71365188964E+03  0.83978746064E+03  0.12699999809E+01 0. -1.
</event>
<event>
 5   0  0.9950999E-07  0.2901611E+04  0.7818609E-02  0.8272398E-01
       -2   -1    0    0    0  501  0.00000000000E+00  0.00000000000E+00  0.10312781277E+04  0.10312781277E+04  0.25500000920E-02 0. -1.
        2   -1    0    0  501    0  0.00000000000E+00  0.00000000000E+00 -0.20409981062E+04  0.20409981062E+04  0.25500000920E-02 0.  1.
    10030    2    1    2    0    0  0.00000000000E+00  0.00000000000E+00 -0.10097199785E+04  0.30722762339E+04  0.29016110736E+04 0.  0.
        3    1    3    3  502    0  0.28679284445E+03 -0.12912197289E+04 -0.11360236594E+04  0.17435734251E+04  0.10100000352E+00 0.  1.
       -3    1    3    3    0  502 -0.28679284445E+03  0.12912197289E+04  0.12630368089E+03  0.13287028087E+04  0.10100000352E+00 0. -1.
</event>
<event>
 5   0  0.1006893E-06  0.2896118E+04  0.7818609E-02  0.8274033E-01
       -2   -1    0    0    0  501  0.00000000000E+00  0.00000000000E+00  0.72783962818E+03  0.72783962819E+03  0.25500000920E-02 0.  1.
        2   -1    0    0  501    0  0.00000000000E+00  0.00000000000E+00 -0.28809573236E+04  0.28809573236E+04  0.25500000920E-02 0. -1.
    10030    2    1    2    0    0  0.00000000000E+00  0.00000000000E+00 -0.21531176955E+04  0.36087969518E+04  0.28961180275E+04 0.  0.
        4    1    3    3  502    0 -0.13330669947E+04 -0.29788145353E+03 -0.16755496507E+04  0.21617745529E+04  0.12699999809E+01 0. -1.
       -4    1    3    3    0  502  0.13330669947E+04  0.29788145353E+03 -0.47756804473E+03  0.14470223989E+04  0.12699999809E+01 0.  1.
</event>
<event>
 5   0  0.3770467E-07  0.2896898E+04  0.7818609E-02  0.8273801E-01
       -1   -1    0    0    0  501  0.00000000000E+00  0.00000000000E+00  0.13396231151E+04  0.13396231151E+04  0.50400001928E-02 0.  1.
        1   -1    0    0  501    0  0.00000000000E+00  0.00000000000E+00 -0.15661149502E+04  0.15661149502E+04  0.50400001928E-02 0. -1.
    10030    2    1    2    0    0  0.00000000000E+00  0.00000000000E+00 -0.22649183509E+03  0.29057380654E+04  0.28968975048E+04 0.  0.
        1    1    3    3  502    0 -0.14483775994E+04 -0.32087447396E+01 -0.12728225846E+03  0.14539631150E+04  0.50400001928E-02 0.  1.
       -1    1    3    3    0  502  0.14483775994E+04  0.32087447396E+01 -0.99209576631E+02  0.14517749504E+04  0.50400001928E-02 0. -1.
</event>
<event>
 5   0  0.1063979E-06  0.2898755E+04  0.7818609E-02  0.8273248E-01
       -2   -1    0    0    0  501  0.00000000000E+00  0.00000000000E+00  0.11560168207E+04  0.11560168207E+04  0.25500000920E-02 0. -1.
        2   -1    0    0  501    0  0.00000000000E+00  0.00000000000E+00 -0.18171836149E+04  0.18171836149E+04  0.25500000920E-02 0.  1.
    10030    2    1    2    0    0  0.00000000000E+00  0.00000000000E+00 -0.66116679416E+03  0.29732004356E+04  0.28987547845E+04 0.  0.
        1    1    3    3  502    0  0.14286041863E+04  0.13667229986E+03 -0.53853541217E+03  0.15328436414E+04  0.50400001928E-02 0. -1.
       -1    1    3    3    0  502 -0.14286041863E+04 -0.13667229986E+03 -0.12263138198E+03  0.14403567942E+04  0.50400001928E-02 0.  1.
</event>
<event>
 5   0  0.3786210E-07  0.2899249E+04  0.7818609E-02  0.8273101E-01
        1   -1    0    0  501    0  0.00000000000E+00  0.00000000000E+00  0.15926907929E+04  0.15926907929E+04  0.50400001928E-02 0. -1.
       -1   -1    0    0    0  501  0.00000000000E+00  0.00000000000E+00 -0.13194096258E+04  0.13194096258E+04  0.50400001928E-02 0.  1.
    10030    2    1    2    0    0  0.00000000000E+00  0.00000000000E+00  0.27328116713E+03  0.29121004187E+04  0.28992492567E+04 0.  0.
        5    1    3    3  502    0  0.12420542197E+04 -0.28818140059E+03 -0.55608465881E+03  0.13910425738E+04  0.46999998093E+01 0.  1.
       -5    1    3    3    0  502 -0.12420542197E+04  0.28818140059E+03  0.82936582594E+03  0.15210578449E+04  0.46999998093E+01 0. -1.
</event>
<event>
 5   0  0.3786210E-07  0.2894096E+04  0.7818609E-02  0.8274636E-01
       -1   -1    0    0    0  501  0.00000000000E+00  0.00000000000E+00  0.14096275861E+04  0.14096275861E+04  0.50400001928E-02 0.  1.
        1   -1    0    0  501    0  0.00000000000E+00  0.00000000000E+00 -0.14854621155E+04  0.14854621155E+04  0.50400001928E-02 0. -1.
    10030    2    1    2    0    0  0.00000000000E+00  0.00000000000E+00 -0.75834529463E+02  0.28950897016E+04  0.28940963191E+04 0.  0.
        5    1    3    3  502    0 -0.64517910535E+03  0.12585601467E+04  0.26828674876E+03  0.14395240847E+04  0.46999998093E+01 0.  1.
       -5    1    3    3    0  502  0.64517910535E+03 -0.12585601467E+04 -0.34412127822E+03  0.14555656169E+04  0.46999998093E+01 0. -1.
</event>
<event>
 5   0  0.3638028E-07  0.2908004E+04  0.7818609E-02  0.8270500E-01
       -1   -1    0    0    0  501  0.00000000000E+00  0.00000000000E+00  0.12903851758E+04  0.12903851758E+04  0.50400001928E-02 0.  1.
        1   -1    0    0  501    0  0.00000000000E+00  0.00000000000E+00 -0.16383651856E+04  0.16383651856E+04  0.50400001928E-02 0. -1.
    10030    2    1    2    0    0  0.00000000000E+00  0.00000000000E+00 -0.34798000984E+03  0.29287503614E+04  0.29080042284E+04 0.  0.
        4    1    3    3  502    0  0.82870300375E+03 -0.99619570657E+02  0.10250698417E+04  0.13219086657E+04  0.12699999809E+01 0.  1.
       -4    1    3    3    0  502 -0.82870300375E+03  0.99619570657E+02 -0.13730498515E+04  0.16068416957E+04  0.12699999809E+01 0. -1.
</event>
<event>
 5   0  0.3769563E-07  0.2895021E+04  0.7818609E-02  0.8274360E-01
       -1   -1    0    0    0  501  0.00000000000E+00  0.00000000000E+00  0.19646327109E+04  0.19646327109E+04  0.50400001928E-02 0.  1.
        1   -1    0    0  501    0  0.00000000000E+00  0.00000000000E+00 -0.10665031123E+04  0.10665031123E+04  0.50400001928E-02 0. -1.
    10030    2    1    2    0    0  0.00000000000E+00  0.00000000000E+00  0.89812959859E+03  0.30311358233E+04  0.28950211749E+04 0.  0.
        3    1    3    3  502    0 -0.12153668739E+04 -0.41673753154E+03 -0.24899009347E+03  0.13087333133E+04  0.10100000352E+00 0. -1.
       -3    1    3    3    0  502  0.12153668739E+04  0.41673753154E+03  0.11471196921E+04  0.17224025100E+04  0.10100000352E+00 0.  1.
</event>
<event>
 5   0  0.3769563E-07  0.2899308E+04  0.7818609E-02  0.8273083E-01
       -1   -1    0    0    0  501  0.00000000000E+00  0.00000000000E+00  0.13287795064E+04  0.13287795064E+04  0.50400001928E-02 0.  1.
        1   -1    0    0  501    0  0.00000000000E+00  0.00000000000E+00 -0.15815241832E+04  0.15815241832E+04  0.50400001928E-02 0. -1.
    10030    2    1    2    0    0  0.00000000000E+00  0.00000000000E+00 -0.25274467685E+03  0.29103036896E+04  0.28993081406E+04 0.  0.
        3    1    3    3  502    0 -0.83219594847E+03  0.73938608681E+03 -0.10584708265E+04  0.15360997307E+04  0.10100000352E+00 0. -1.
       -3    1    3    3    0  502  0.83219594847E+03 -0.73938608681E+03  0.80572614966E+03  0.13742039588E+04  0.10100000352E+00 0.  1.
</event>
<event>
 5   0  0.3638028E-07  0.2907116E+04  0.7818609E-02  0.8270763E-01
       -1   -1    0    0    0  501  0.00000000000E+00  0.00000000000E+00  0.14706276457E+04  0.14706276457E+04  0.50400001928E-02 0. -1.
        1   -1    0    0  501    0  0.00000000000E+00  0.00000000000E+00 -0.14366862739E+04  0.14366862739E+04  0.50400001928E-02 0.  1.
    10030    2    1    2    0    0  0.00000000000E+00  0.00000000000E+00  0.33941371799E+02  0.29073139197E+04  0.29071157890E+04 0.  0.
        4    1    3    3  502    0  0.11988656581E+04  0.70716162597E+03  0.43589362326E+03  0.14585476664E+04  0.12699999809E+01 0. -1.
       -4    1    3    3    0  502 -0.11988656581E+04 -0.70716162597E+03 -0.40195225146E+03  0.14487662533E+04  0.12699999809E+01 0.  1.
</event>
<event>
 5   0  0.3769563E-07  0.2898395E+04  0.7818609E-02  0.8273355E-01
        1   -1    0    0  501    0  0.00000000000E+00  0.00000000000E+00  0.21834246494E+04  0.21834246494E+04  0.50400001928E-02 0. -1.
       -1   -1    0    0    0  501  0.00000000000E+00  0.00000000000E+00 -0.96187121487E+03  0.96187121488E+03  0.50400001928E-02 0.  1.
    10030    2    1    2    0    0  0.00000000000E+00  0.00000000000E+00  0.12215534346E+04  0.31452958643E+04  0.28983949490E+04 0.  0.
        3    1    3    3  502    0 -0.12920561665E+03 -0.35991714618E+02  0.21766747298E+04  0.21808031512E+04  0.10100000352E+00 0. -1.
       -3    1    3    3    0  502  0.12920561665E+03  0.35991714618E+02 -0.95512129521E+03  0.96449271312E+03  0.10100000352E+00 0.  1.
</event>
<event>
 5   0  0.3770467E-07  0.2910012E+04  0.7818609E-02  0.8269905E-01
        1   -1    0    0  501    0  0.00000000000E+00  0.00000000000E+00  0.14774648031E+04  0.14774648031E+04  0.50400001928E-02 0. -1.
       -1   -1    0    0    0  501  0.00000000000E+00  0.00000000000E+00 -0.14328888035E+04  0.14328888035E+04  0.50400001928E-02 0.  1.
    10030    2    1    2    0    0  0.00000000000E+00  0.00000000000E+00  0.44575999596E+02  0.29103536066E+04  0.29100122157E+04 0.  0.
        1    1    3    3  502    0  0.91402589334E+03  0.11319308821E+04  0.40672350915E+01  0.14548977276E+04  0.50400001928E-02 0.  1.
       -1    1    3    3    0  502 -0.91402589334E+03 -0.11319308821E+04  0.40508764504E+02  0.14554558789E+04  0.50400001928E-02 0. -1.
</event>
<event>
 5   0  0.3786210E-07  0.2900248E+04  0.7818609E-02  0.8272804E-01
       -1   -1    0    0    0  501  0.00000000000E+00  0.00000000000E+00  0.11645551721E+04  0.11645551721E+04  0.50400001928E-02 0.  1.
        1   -1    0    0  501    0  0.00000000000E+00  0.00000000000E+00 -0.18057191479E+04  0.18057191479E+04  0.50400001928E-02 0. -1.
    10030    2    1    2    0    0  0.00000000000E+00  0.00000000000E+00 -0.64116397583E+03  0.29702743200E+04  0.29002479708E+04 0.  0.
        5    1    3    3  502    0  0.81911877350E+03 -0.96630136879E+03 -0.10434161984E+04  0.16411682892E+04  0.46999998093E+01 0. -1.
       -5    1    3    3    0  502 -0.81911877350E+03  0.96630136879E+03  0.40225222258E+03  0.13291060308E+04  0.46999998093E+01 0.  1.
</event>
<event>
 5   0  0.9950999E-07  0.2899531E+04  0.7818609E-02  0.8273017E-01
       -2   -1    0    0    0  501  0.00000000000E+00  0.00000000000E+00  0.12791151975E+04  0.12791151975E+04  0.25500000920E-02 0. -1.
        2   -1    0    0  501    0  0.00000000000E+00  0.00000000000E+00 -0.16431828603E+04  0.16431828603E+04  0.25500000920E-02 0.  1.
    10030    2    1    2    0    0  0.00000000000E+00  0.00000000000E+00 -0.36406766279E+03  0.29222980578E+04  0.28995311131E+04 0.  0.
        3    1    3    3  502    0 -0.48802792971E+03 -0.63131270210E+03 -0.14019482324E+04  0.16131292089E+04  0.10100000352E+00 0.  1.
       -3    1    3    3    0  502  0.48802792971E+03  0.63131270210E+03  0.10378805696E+04  0.13091688489E+04  0.10100000352E+00 0. -1.
</event>
<event>
 5   0  0.9994311E-07  0.2900537E+04  0.7818609E-02  0.8272718E-01
        2   -1    0    0  501    0  0.00000000000E+00  0.00000000000E+00  0.24621782117E+04  0.24621782117E+04  0.25500000920E-02 0. -1.
       -2   -1    0    0    0  501  0.00000000000E+00  0.00000000000E+00 -0.85423478576E+03  0.85423478577E+03  0.25500000920E-02 0.  1.
    10030    2    1    2    0    0  0.00000000000E+00  0.00000000000E+00  0.16079434260E+04  0.33164129975E+04  0.29005366932E+04 0.  0.
        2    1    3    3  502    0  0.53601075434E+03  0.13378954709E+04  0.61958448198E+03  0.15688074293E+04  0.25500000920E-02 0.  1.
       -2    1    3    3    0  502 -0.53601075434E+03 -0.13378954709E+04  0.98835894397E+03  0.17476055682E+04  0.25500000920E-02 0. -1.
</event>
<event>
 5   0  0.3786210E-07  0.2900504E+04  0.7818609E-02  0.8272728E-01
       -1   -1    0    0    0  501  0.00000000000E+00  0.00000000000E+00  0.16533355206E+04  0.16533355206E+04  0.50400001928E-02 0. -1.
        1   -1    0    0  501    0  0.00000000000E+00  0.00000000000E+00 -0.12721137420E+04  0.12721137420E+04  0.50400001928E-02 0.  1.
    10030    2    1    2    0    0  0.00000000000E+00  0.00000000000E+00  0.38122177855E+03  0.29254492626E+04  0.29005039810E+04 0.  0.
        5    1    3    3  502    0 -0.45035577347E+03 -0.39807217184E+03 -0.11405608103E+04  0.12892566962E+04  0.46999998093E+01 0.  1.
       -5    1    3    3    0  502  0.45035577347E+03  0.39807217184E+03  0.15217825889E+04  0.16361925664E+04  0.46999998093E+01 0. -1.
</event>
<event>
 5   0  0.9950999E-07  0.2901250E+04  0.7818609E-02  0.8272506E-01
        2   -1    0    0  501    0  0.00000000000E+00  0.00000000000E+00  0.82954574403E+03  0.82954574403E+03  0.25500000920E-02 0.  1.
       -2   -1    0    0    0  501  0.00000000000E+00  0.00000000000E+00 -0.25367049754E+04  0.25367049754E+04  0.25500000920E-02 0. -1.
    10030    2    1    2    0    0  0.00000000000E+00  0.00000000000E+00 -0.17071592313E+04  0.33662507194E+04  0.29012499487E+04 0.  0.
        3    1    3    3  502    0  0.80739201185E+03 -0.19311174772E+03  0.52668016226E+03  0.98314089094E+03  0.10100000352E+00 0.  1.
       -3    1    3    3    0  502 -0.80739201185E+03  0.19311174772E+03 -0.22338393936E+04  0.23831098285E+04  0.10100000352E+00 0. -1.
</event>
<event>
 5   0  0.1063979E-06  0.2898579E+04  0.7818609E-02  0.8273300E-01
       -2   -1    0    0    0  501  0.00000000000E+00  0.00000000000E+00  0.14217207111E+04  0.14217207111E+04  0.25500000920E-02 0. -1.
        2   -1    0    0  501    0  0.00000000000E+00  0.00000000000E+00 -0.14773931982E+04  0.14773931983E+04  0.25500000920E-02 0.  1.
    10030    2    1    2    0    0  0.00000000000E+00  0.00000000000E+00 -0.55672487165E+02  0.28991139093E+04  0.28985793130E+04 0.  0.
        1    1    3    3  502    0  0.55622394292E+03  0.31962455723E+03 -0.13276510815E+04  0.14745176589E+04  0.50400001928E-02 0.  1.
       -1    1    3    3    0  502 -0.55622394292E+03 -0.31962455723E+03  0.12719785943E+04  0.14245962504E+04  0.50400001928E-02 0. -1.
</event>
<event>
 5   0  0.1006893E-06  0.2897583E+04  0.7818609E-02  0.8273597E-01
        2   -1    0    0  501    0  0.00000000000E+00  0.00000000000E+00  0.24829896412E+04  0.24829896412E+04  0.25500000920E-02 0.  1.
       -2   -1    0    0    0  501  0.00000000000E+00  0.00000000000E+00 -0.84535040207E+03  0.84535040208E+03  0.25500000920E-02 0. -1.
    10030    2    1    2    0    0  0.00000000000E+00  0.00000000000E+00  0.16376392391E+04  0.33283400432E+04  0.28975826418E+04 0.  0.
        4    1    3    3  502    0 -0.52324345537E+03  0.74719743619E+03 -0.47407824791E+03  0.10280270037E+04  0.12699999809E+01 0.  1.
       -4    1    3    3    0  502  0.52324345537E+03 -0.74719743619E+03  0.21117174870E+04  0.23003130396E+04  0.12699999809E+01 0. -1.
</event>
<event>
 5   0  0.9994311E-07  0.2896476E+04  0.7818609E-02  0.8273927E-01
       -2   -1    0    0    0  501  0.00000000000E+00  0.00000000000E+00  0.11571674702E+04  0.11571674702E+04  0.25500000920E-02 0. -1.
        2   -1    0    0  501    0  0.00000000000E+00  0.00000000000E+00 -0.18125232829E+04  0.18125232829E+04  0.25500000920E-02 0.  1.
    10030    2    1    2    0    0  0.00000000000E+00  0.00000000000E+00 -0.65535581269E+03  0.29696907531E+04  0.28964757772E+04 0.  0.
        2    1    3    3  502    0  0.86557332471E+03 -0.11406902984E+04 -0.54995613570E+03  0.15338980698E+04  0.25500000920E-02 0.  1.
       -2    1    3    3    0  502 -0.86557332471E+03  0.11406902984E+04 -0.10539967699E+03  0.14357926833E+04  0.25500000920E-02 0. -1.
</event>
<event>
 5   0  0.3786210E-07  0.2891833E+04  0.7818609E-02  0.8275312E-01
       -1   -1    0    0    0  501  0.00000000000E+00  0.00000000000E+00  0.11787176193E+04  0.11787176193E+04  0.50400001928E-02 0. -1.
        1   -1    0    0  501    0  0.00000000000E+00  0.00000000000E+00 -0.17736850354E+04  0.17736850354E+04  0.50400001928E-02 0.  1.
    10030    2    1    2    0    0  0.00000000000E+00  0.00000000000E+00 -0.59496741609E+03  0.29524026547E+04  0.28918325002E+04 0.  0.
        5    1    3    3  502    0 -0.79300359418E+02  0.13037175618E+04  0.33573587338E+03  0.13485950818E+04  0.46999998093E+01 0.  1.
       -5    1    3    3    0  502  0.79300359418E+02 -0.13037175618E+04 -0.93070328947E+03  0.16038075729E+04  0.46999998093E+01 0. -1.
</event>
<event>
 5   0  0.9994311E-07  0.2910018E+04  0.7818609E-02  0.8269903E-01
        2   -1    0    0  501    0  0.00000000000E+00  0.00000000000E+00  0.18823635726E+04  0.18823635726E+04  0.25500000920E-02 0. -1.
       -2   -1    0    0    0  501  0.00000000000E+00  0.00000000000E+00 -0.11246772043E+04  0.11246772043E+04  0.25500000920E-02 0.  1.
    10030    2    1    2    0    0  0.00000000000E+00  0.00000000000E+00  0.75768636836E+03  0.30070407769E+04  0.29100181445E+04 0.  0.
        2    1    3    3  502    0  0.20990739113E+02 -0.12187247172E+04 -0.44220508088E+03  0.12966402281E+04  0.25500000920E-02 0.  1.
       -2    1    3    3    0  502 -0.20990739113E+02  0.12187247172E+04  0.11998914492E+04  0.17104005488E+04  0.25500000920E-02 0. -1.
</event>
<event>
 5   0  0.3786210E-07  0.2899146E+04  0.7818609E-02  0.8273132E-01
        1   -1    0    0  501    0  0.00000000000E+00  0.00000000000E+00  0.16297334388E+04  0.16297334388E+04  0.50400001928E-02 0.  1.
       -1   -1    0    0    0  501  0.00000000000E+00  0.00000000000E+00 -0.12893282293E+04  0.12893282293E+04  0.50400001928E-02 0. -1.
    10030    2    1    2    0    0  0.00000000000E+00  0.00000000000E+00  0.34040520952E+03  0.29190616682E+04  0.28991456183E+04 0.  0.
        5    1    3    3  502    0 -0.93772397579E+03 -0.10497986750E+04  0.51875365565E+03  0.15001769755E+04  0.46999998093E+01 0. -1.
       -5    1    3    3    0  502  0.93772397579E+03  0.10497986750E+04 -0.17834844614E+03  0.14188846926E+04  0.46999998093E+01 0.  1.
</event>
<event>
 5   0  0.3638028E-07  0.2887707E+04  0.7818609E-02  0.8276544E-01
        1   -1    0    0  501    0  0.00000000000E+00  0.00000000000E+00  0.19869576452E+04  0.19869576452E+04  0.50400001928E-02 0.  1.
       -1   -1    0    0    0  501  0.00000000000E+00  0.00000000000E+00 -0.10491983873E+04  0.10491983873E+04  0.50400001928E-02 0. -1.
    10030    2    1    2    0    0  0.00000000000E+00  0.00000000000E+00  0.93775925795E+03  0.30361560325E+04  0.28877068805E+04 0.  0.
        4    1    3    3  502    0  0.92127089341E+03 -0.10951109867E+04  0.26745070594E+03  0.14558638760E+04  0.12699999809E+01 0. -1.
       -4    1    3    3    0  502 -0.92127089341E+03  0.10951109867E+04  0.67030855201E+03  0.15802921566E+04  0.12699999809E+01 0.  1.
</event>
<event>
 5   0  0.3885904E-07  0.2904228E+04  0.7818609E-02  0.8271621E-01
        1   -1    0    0  501    0  0.00000000000E+00  0.00000000000E+00  0.17326670092E+04  0.17326670093E+04  0.50400001928E-02 0. -1.
       -1   -1    0    0    0  501  0.00000000000E+00  0.00000000000E+00 -0.12169880737E+04  0.12169880737E+04  0.50400001928E-02 0.  1.
    10030    2    1    2    0    0  0.00000000000E+00  0.00000000000E+00  0.51567893553E+03  0.29496550830E+04  0.29042280117E+04 0.  0.
        2    1    3    3  502    0  0.19476763832E+03  0.13928327814E+04 -0.10936451666E+03  0.14106304220E+04  0.25500000920E-02 0.  1.
       -2    1    3    3    0  502 -0.19476763832E+03 -0.13928327814E+04  0.62504345219E+03  0.15390246610E+04  0.25500000920E-02 0. -1.
</event>
<event>
 5   0  0.3638028E-07  0.2887558E+04  0.7818609E-02  0.8276589E-01
       -1   -1    0    0    0  501  0.00000000000E+00  0.00000000000E+00  0.16668705088E+04  0.16668705088E+04  0.50400001928E-02 0.  1.
        1   -1    0    0  501    0  0.00000000000E+00  0.00000000000E+00 -0.12505460425E+04  0.12505460425E+04  0.50400001928E-02 0. -1.
    10030    2    1    2    0    0  0.00000000000E+00  0.00000000000E+00  0.41632446634E+03  0.29174165513E+04  0.28875583583E+04 0.  0.
        4    1    3    3  502    0  0.61497644573E+03  0.12038149207E+04  0.72048577389E+03  0.15318184473E+04  0.12699999809E+01 0. -1.
       -4    1    3    3    0  502 -0.61497644573E+03 -0.12038149207E+04 -0.30416130755E+03  0.13855981041E+04  0.12699999809E+01 0.  1.
</event>
<event>
 5   0  0.1063979E-06  0.2900784E+04  0.7818609E-02  0.8272644E-01
       -2   -1    0    0    0  501  0.00000000000E+00  0.00000000000E+00  0.18609799153E+04  0.18609799153E+04  0.25500000920E-02 0.  1.
        2   -1    0    0  501    0  0.00000000000E+00  0.00000000000E+00 -0.11303920169E+04  0.11303920169E+04  0.25500000920E-02 0. -1.
    10030    2    1    2    0    0  0.00000000000E+00  0.00000000000E+00  0.73058789834E+03  0.29913719322E+04  0.29007839216E+04 0.  0.
        1    1    3    3  502    0  0.36531601147E+03 -0.10880307637E+02  0.18127155706E+04  0.18491922316E+04  0.50400001928E-02 0.  1.
       -1    1    3    3    0  502 -0.36531601147E+03  0.10880307637E+02 -0.10821276723E+04  0.11421797006E+04  0.50400001928E-02 0. -1.
</event>
<event>
 5   0  0.1006893E-06  0.2909939E+04  0.7818609E-02  0.8269927E-01
        2   -1    0    0  501    0  0.00000000000E+00  0.00000000000E+00  0.18327541902E+04  0.18327541902E+04  0.25500000920E-02 0.  1.
       -2   -1    0    0    0  501  0.00000000000E+00  0.00000000000E+00 -0.11550572923E+04  0.11550572923E+04  0.25500000920E-02 0. -1.
    10030    2    1    2    0    0  0.00000000000E+00  0.00000000000E+00  0.67769689792E+03  0.29878114825E+04  0.29099388945E+04 0.  0.
        4    1    3    3  502    0 -0.90503641012E+03  0.20001996203E+03  0.14903943721E+04  0.17550999647E+04  0.12699999809E+01 0.  1.
       -4    1    3    3    0  502  0.90503641012E+03 -0.20001996203E+03 -0.81269747415E+03  0.12327115179E+04  0.12699999809E+01 0. -1.
</event>
<event>
 5   0  0.3769563E-07  0.2897153E+04  0.7818609E-02  0.8273725E-01
       -1   -1    0    0    0  501  0.00000000000E+00  0.00000000000E+00  0.92750261970E+03  0.92750261971E+03  0.50400001928E-02 0.  1.
        1   -1    0    0  501    0  0.00000000000E+00  0.00000000000E+00 -0.22623918387E+04  0.22623918387E+04  0.50400001928E-02 0. -1.
    10030    2    1    2    0    0  0.00000000000E+00  0.00000000000E+00 -0.13348892190E+04  0.31898944584E+04  0.28971533320E+04 0.  0.
        3    1    3    3  502    0  0.48295557299E+03  0.95875454103E+03 -0.17383018470E+04  0.20430735858E+04  0.10100000352E+00 0. -1.
       -3    1    3    3    0  502 -0.48295557299E+03 -0.95875454103E+03  0.40341262795E+03  0.11468208727E+04  0.10100000352E+00 0.  1.
</event>
<event>
 5   0  0.9950999E-07  0.2903628E+04  0.7818609E-02  0.8271799E-01
       -2   -1    0    0    0  501  0.00000000000E+00  0.00000000000E+00  0.93729098851E+03  0.93729098851E+03  0.25500000920E-02 0. -1.
        2   -1    0    0  501    0  0.00000000000E+00  0.00000000000E+00 -0.22487832100E+04  0.22487832100E+04  0.25500000920E-02 0.  1.
    10030    2    1    2    0    0  0.00000000000E+00  0.00000000000E+00 -0.13114922215E+04  0.31860741986E+04  0.29036282392E+04 0.  0.
        3    1    3    3  502    0  0.10790160863E+04  0.67415461703E+03  0.11156433249E+03  0.12771870546E+04  0.10100000352E+00 0. -1.
       -3    1    3    3    0  502 -0.10790160863E+04 -0.67415461703E+03 -0.14230565540E+04  0.19088871439E+04  0.10100000352E+00 0.  1.
</event>
<event>
 5   0  0.3769563E-07  0.2898882E+04  0.7818609E-02  0.8273210E-01
       -1   -1    0    0    0  501  0.00000000000E+00  0.00000000000E+00  0.13320770577E+04  0.13320770577E+04  0.50400001928E-02 0. -1.
        1   -1    0    0  501    0  0.00000000000E+00  0.00000000000E+00 -0.15771451681E+04  0.15771451681E+04  0.50400001928E-02 0.  1.
    10030    2    1    2    0    0  0.00000000000E+00  0.00000000000E+00 -0.24506811043E+03  0.29092222259E+04  0.28988817811E+04 0.  0.
        3    1    3    3  502    0  0.48114417111E+03  0.41774362215E+03  0.11839812939E+04  0.13445524020E+04  0.10100000352E+00 0. -1.
       -3    1    3    3    0  502 -0.48114417111E+03 -0.41774362215E+03 -0.14290494044E+04  0.15646698238E+04  0.10100000352E+00 0.  1.
</event>
<event>
 5   0  0.3885904E-07  0.2883374E+04  0.7818609E-02  0.8277842E-01
        1   -1    0    0  501    0  0.00000000000E+00  0.00000000000E+00  0.15014520987E+04  0.15014520987E+04  0.50400001928E-02 0.  1.
       -1   -1    0    0    0  501  0.00000000000E+00  0.00000000000E+00 -0.13843004265E+04  0.13843004265E+04  0.50400001928E-02 0. -1.
    10030    2    1    2    0    0  0.00000000000E+00  0.00000000000E+00  0.11715167227E+03  0.28857525252E+04  0.28833735662E+04 0.  0.
        2    1    3    3  502    0  0.52768582383E+03 -0.81145547447E+03 -0.10107384003E+04  0.13994657657E+04  0.25500000920E-02 0. -1.
       -2    1    3    3    0  502 -0.52768582383E+03  0.81145547447E+03  0.11278900725E+04  0.14862867595E+04  0.25500000920E-02 0.  1.
</event>
<event>
 5   0  0.9994311E-07  0.2903937E+04  0.7818609E-02  0.8271707E-01
       -2   -1    0    0    0  501  0.00000000000E+00  0.00000000000E+00  0.11964592219E+04  0.11964592219E+04  0.25500000920E-02 0. -1.
        2   -1    0    0  501    0  0.00000000000E+00  0.00000000000E+00 -0.17620432968E+04  0.17620432968E+04  0.25500000920E-02 0.  1.
    10030    2    1    2    0    0  0.00000000000E+00  0.00000000000E+00 -0.56558407488E+03  0.29585025186E+04  0.29039372939E+04 0.  0.
        2    1    3    3  502    0 -0.11702178454E+04 -0.61317803721E+03 -0.89645205667E+03  0.15965661279E+04  0.25500000920E-02 0.  1.
       -2    1    3    3    0  502  0.11702178454E+04  0.61317803721E+03  0.33086798179E+03  0.13619363907E+04  0.25500000920E-02 0. -1.
</event>
<event>
 5   0  0.3786210E-07  0.2907993E+04  0.7818609E-02  0.8270503E-01
        1   -1    0    0  501    0  0.00000000000E+00  0.00000000000E+00  0.17213163805E+04  0.17213163805E+04  0.50400001928E-02 0. -1.
       -1   -1    0    0    0  501  0.00000000000E+00  0.00000000000E+00 -0.12281913959E+04  0.12281913959E+04  0.50400001928E-02 0.  1.
    10030    2    1    2    0    0  0.00000000000E+00  0.00000000000E+00  0.49312498455E+03  0.29495077764E+04  0.29079931005E+04 0.  0.
        5    1    3    3  502    0 -0.27844212092E+03 -0.42457309436E+03  0.16284709273E+04  0.17057936505E+04  0.46999998093E+01 0. -1.
       -5    1    3    3    0  502  0.27844212092E+03  0.42457309436E+03 -0.11353459427E+04  0.12437141259E+04  0.46999998093E+01 0.  1.
</event>
<event>
 5   0  0.3770467E-07  0.2897651E+04  0.7818609E-02  0.8273577E-01
       -1   -1    0    0    0  501  0.00000000000E+00  0.00000000000E+00  0.23840103323E+04  0.23840103323E+04  0.50400001928E-02 0. -1.
        1   -1    0    0  501    0  0.00000000000E+00  0.00000000000E+00 -0.88048937672E+03  0.88048937673E+03  0.50400001928E-02 0.  1.
    10030    2    1    2    0    0  0.00000000000E+00  0.00000000000E+00  0.15035209556E+04  0.32644997091E+04  0.28976513052E+04 0.  0.
        1    1    3    3  502    0  0.51946138154E+02  0.11869266344E+04 -0.18243819557E+03  0.12019887403E+04  0.50400001928E-02 0.  1.
       -1    1    3    3    0  502 -0.51946138154E+02 -0.11869266344E+04  0.16859591512E+04  0.20625109687E+04  0.50400001928E-02 0. -1.
</event>
<event>
 5   0  0.1006893E-06  0.2919497E+04  0.7818609E-02  0.8267100E-01
        2   -1    0    0  501    0  0.00000000000E+00  0.00000000000E+00  0.18100203483E+04  0.18100203483E+04  0.25500000920E-02 0. -1.
       -2   -1    0    0    0  501  0.00000000000E+00  0.00000000000E+00 -0.11772608807E+04  0.11772608807E+04  0.25500000920E-02 0.  1.
    10030    2    1    2    0    0  0.00000000000E+00  0.00000000000E+00  0.63275946759E+03  0.29872812291E+04  0.29194973193E+04 0.  0.
        4    1    3    3  502    0  0.58793005566E+03  0.13087387085E+04  0.41049030118E+02  0.14353206587E+04  0.12699999809E+01 0. -1.
       -4    1    3    3    0  502 -0.58793005566E+03 -0.13087387085E+04  0.59171043747E+03  0.15519605704E+04  0.12699999809E+01 0.  1.
</event>
<event>
 5   0  0.3770467E-07  0.2947448E+04  0.7818609E-02  0.8258899E-01
       -1   -1    0    0    0  501  0.00000000000E+00  0.00000000000E+00  0.15745535034E+04  0.15745535034E+04  0.50400001928E-02 0.  1.
        1   -1    0    0  501    0  0.00000000000E+00  0.00000000000E+00 -0.13793512139E+04  0.13793512139E+04  0.50400001928E-02 0. -1.
    10030    2    1    2    0    0  0.00000000000E+00  0.00000000000E+00  0.19520228954E+03  0.29539047173E+04  0.29474479037E+04 0.  0.
        1    1    3    3  502    0  0.77842130298E+03 -0.12461207233E+04 -0.17129788282E+02  0.14693706175E+04  0.50400001928E-02 0. -1.
       -1    1    3    3    0  502 -0.77842130298E+03  0.12461207233E+04  0.21233207782E+03  0.14845340998E+04  0.50400001928E-02 0.  1.
</event>
<event>
 5   0  0.1006893E-06  0.2903129E+04  0.7818609E-02  0.8271947E-01
       -2   -1    0    0    0  501  0.00000000000E+00  0.00000000000E+00  0.17922713504E+04  0.17922713504E+04  0.25500000920E-02 0. -1.
        2   -1    0    0  501    0  0.00000000000E+00  0.00000000000E+00 -0.11756249378E+04  0.11756249378E+04  0.25500000920E-02 0.  1.
    10030    2    1    2    0    0  0.00000000000E+00  0.00000000000E+00  0.61664641251E+03  0.29678962882E+04  0.29031285847E+04 0.  0.
        4    1    3    3  502    0  0.12854149780E+03 -0.55151087561E+03 -0.10580386839E+04  0.12000560954E+04  0.12699999809E+01 0.  1.
       -4    1    3    3    0  502 -0.12854149780E+03  0.55151087561E+03  0.16746850964E+04  0.17678401929E+04  0.12699999809E+01 0. -1.
</event>
<event>
 5   0  0.1031339E-06  0.2894400E+04  0.7818609E-02  0.8274546E-01
       -2   -1    0    0    0  501  0.00000000000E+00  0.00000000000E+00  0.87605801870E+03  0.87605801870E+03  0.25500000920E-02 0. -1.
        2   -1    0    0  501    0  0.00000000000E+00  0.00000000000E+00 -0.23906946027E+04  0.23906946027E+04  0.25500000920E-02 0.  1.
    10030    2    1    2    0    0  0.00000000000E+00  0.00000000000E+00 -0.15146365840E+04  0.32667526214E+04  0.28943995418E+04 0.  0.
        5    1    3    3  502    0 -0.76800425938E+03 -0.80919977456E+03 -0.17977134254E+04  0.21157576580E+04  0.46999998093E+01 0.  1.
       -5    1    3    3    0  502  0.76800425938E+03  0.80919977456E+03  0.28307684140E+03  0.11509949634E+04  0.46999998093E+01 0. -1.
</event>
<event>
 5   0  0.3638028E-07  0.2903007E+04  0.7818609E-02  0.8271983E-01
       -1   -1    0    0    0  501  0.00000000000E+00  0.00000000000E+00  0.10614091674E+04  0.10614091675E+04  0.50400001928E-02 0. -1.
        1   -1    0    0  501    0  0.00000000000E+00  0.00000000000E+00 -0.19849675848E+04  0.19849675848E+04  0.50400001928E-02 0.  1.
    10030    2    1    2    0    0  0.00000000000E+00  0.00000000000E+00 -0.92355841733E+03  0.30463767522E+04  0.29030072625E+04 0.  0.
        4    1    3    3  502    0  0.84609061820E+03  0.33801467485E+03 -0.16475107418E+04  0.18826620812E+04  0.12699999809E+01 0.  1.
       -4    1    3    3    0  502 -0.84609061820E+03 -0.33801467485E+03  0.72395232449E+03  0.11637146711E+04  0.12699999809E+01 0. -1.
</event>
<event>
 5   0  0.1031339E-06  0.2894289E+04  0.7818609E-02  0.8274579E-01
        2   -1    0    0  501    0  0.00000000000E+00  0.00000000000E+00  0.13803588412E+04  0.13803588412E+04  0.25500000920E-02 0. -1.
       -2   -1    0    0    0  501  0.00000000000E+00  0.00000000000E+00 -0.15171617906E+04  0.15171617906E+04  0.25500000920E-02 0.  1.
    10030    2    1    2    0    0  0.00000000000E+00  0.00000000000E+00 -0.13680294943E+03  0.28975206318E+04  0.28942893368E+04 0.  0.
        5    1    3    3  502    0 -0.56565693903E+03  0.10034840947E+04 -0.94531175959E+03  0.14901625796E+04  0.46999998093E+01 0.  1.
       -5    1    3    3    0  502  0.56565693903E+03 -0.10034840947E+04  0.80850881016E+03  0.14073580522E+04  0.46999998093E+01 0. -1.
</event>
<event>
 5   0  0.3885904E-07  0.2898884E+04  0.7818609E-02  0.8273210E-01
        1   -1    0    0  501    0  0.00000000000E+00  0.00000000000E+00  0.16165040830E+04  0.16165040830E+04  0.50400001928E-02 0. -1.
       -1   -1    0    0    0  501  0.00000000000E+00  0.00000000000E+00 -0.12996450359E+04  0.12996450359E+04  0.50400001928E-02 0.  1.
    10030    2    1    2    0    0  0.00000000000E+00  0.00000000000E+00  0.31685904715E+03  0.29161491189E+04  0.28988835830E+04 0.  0.
        2    1    3    3  502    0 -0.61898856601E+03 -0.11784875136E+04  0.73534488972E+03  0.15207602610E+04  0.25500000920E-02 0. -1.
       -2    1    3    3    0  502  0.61898856601E+03  0.11784875136E+04 -0.41848584257E+03  0.13953888579E+04  0.25500000920E-02 0.  1.
</event>
<event>
 5   0  0.9994311E-07  0.2900093E+04  0.7818609E-02  0.8272850E-01
       -2   -1    0    0    0  501  0.00000000000E+00  0.00000000000E+00  0.10017650483E+04  0.10017650483E+04  0.25500000920E-02 0.  1.
        2   -1    0    0  501    0  0.00000000000E+00  0.00000000000E+00 -0.20989307199E+04  0.20989307199E+04  0.25500000920E-02 0. -1.
    10030    2    1    2    0    0  0.00000000000E+00  0.00000000000E+00 -0.10971656716E+04  0.31006957682E+04  0.29000934013E+04 0.  0.
        2    1    3    3  502    0  0.13474186420E+04 -0.48366935051E+03 -0.79510129638E+03  0.16375772070E+04  0.25500000920E-02 0.  1.
       -2    1    3    3    0  502 -0.13474186420E+04  0.48366935051E+03 -0.30206437520E+03  0.14631185612E+04  0.25500000920E-02 0. -1.
</event>
<event>
 5   0  0.3786210E-07  0.2914713E+04  0.7818609E-02  0.8268513E-01
        1   -1    0    0  501    0  0.00000000000E+00  0.00000000000E+00  0.17744559112E+04  0.17744559112E+04  0.50400001928E-02 0.  1.
       -1   -1    0    0    0  501  0.00000000000E+00  0.00000000000E+00 -0.11969234129E+04  0.11969234129E+04  0.50400001928E-02 0. -1.
    10030    2    1    2    0    0  0.00000000000E+00  0.00000000000E+00  0.57753249832E+03  0.29713793241E+04  0.29147129020E+04 0.  0.
        5    1    3    3  502    0  0.11658256892E+04  0.87319757190E+03  0.33703869365E+03  0.14950721415E+04  0.46999998093E+01 0.  1.
       -5    1    3    3    0  502 -0.11658256892E+04 -0.87319757190E+03  0.24049380467E+03  0.14763071826E+04  0.46999998093E+01 0. -1.
</event>
</LesHouchesEvents>
